# vtk DataFile Version 2.0
FUN3D:global_image_vtk
ASCII
DATASET UNSTRUCTURED_GRID
POINTS 213 double
   -0.5474685441687833E-02    0.2526210733959472E-35    0.2504941971167291E+01
   -0.1707340122743359E-35    0.8038138598670533E-04    0.4453515354868327E-35
    0.1245419105183472E+01    0.1985224594844864E-35    0.2504941971167291E+01
   -0.1707340122743359E-35    0.1039425058013132E-03    0.4316158609805668E-35
    0.2497696093128780E+01    0.6944895557889464E-36    0.2504941971167291E+01
   -0.1707340122743359E-35    0.1101298164665753E-03    0.4173222030728597E-35
    0.3750590968915824E+01   -0.1060142948783095E-35    0.2504941971167291E+01
   -0.1707340122743359E-35    0.1356499004943612E-03    0.3988775162096984E-35
    0.5003221331742151E+01   -0.2625384706258423E-35    0.2504941971167291E+01
   -0.1707340122743359E-35    0.9668873038898294E-04    0.3848779953091698E-35
    0.5004676687979097E+01   -0.2972653474248201E-35    0.1281291202167040E+01
   -0.1021399560885442E-34    0.1638053019383800E-03    0.2750099182637728E-35
    0.5004772673778115E+01   -0.2495863520264503E-35    0.2775079906482894E-01
   -0.8577869833564061E-35    0.1903478008447035E-03    0.1720656900511552E-35
    0.5003581183341212E+01   -0.1486266981944976E-35   -0.1225853508883529E+01
   -0.7060021434547956E-35    0.1607765204486578E-03    0.7496125778975178E-36
    0.5001952533742190E+01   -0.4919870610721650E-36   -0.2496589036641631E+01
   -0.1009112493427894E-35    0.1082258890302557E-03   -0.2216187932510548E-36
    0.3750348111606544E+01   -0.1504755340576066E-37   -0.2496589036641631E+01
   -0.1009112493427894E-35    0.1458753696815807E-03   -0.1647441568872602E-36
    0.2498611462994928E+01    0.5153661272804701E-36   -0.2496589036641631E+01
   -0.1009112493427894E-35    0.1008933264248224E-03   -0.9832609260087107E-37
    0.1247175269333276E+01    0.9830713144581009E-36   -0.2496589036641631E+01
   -0.1009112493427894E-35    0.1108587619169654E-03   -0.3744863165558538E-37
   -0.3383959865719266E-02    0.1123058093440053E-35   -0.2496589036641631E+01
   -0.1009112493427894E-35    0.8107259626483063E-04    0.5081467141758056E-37
   -0.4257768979765597E-02    0.1686868286602583E-35   -0.1225734811642590E+01
   -0.7187499669896652E-35    0.3415458742300761E-04    0.1137912376998991E-35
   -0.5251592448510589E-02    0.2332994898274856E-35    0.2619486024420471E-01
   -0.8045086103587319E-35    0.1038724387188440E-03    0.2221158386812202E-35
   -0.5676060312426845E-02    0.2689398881847759E-35    0.1278221569065707E+01
   -0.9076700159092907E-35    0.8224601702150336E-04    0.3347930865944447E-35
    0.9003209617952581E+00    0.2636586017906531E-35    0.1608979112280158E+01
   -0.1006792614833281E-34    0.8704140727666672E-04    0.3545061761228461E-35
    0.3983172210692289E+01   -0.4343478134910400E-36   -0.1561211904840279E+01
   -0.6823998060041764E-35    0.1757116720370600E-03    0.5416547269174254E-36
    0.4035602039224469E+01   -0.1426108313631789E-35    0.1486760030415520E+01
   -0.1156068355173731E-34    0.1713312862105520E-03    0.3031869556572252E-35
    0.1036613723302901E+01    0.1478019807551109E-35   -0.1455626429916848E+01
   -0.7266802149747129E-35    0.1047189301532914E-03    0.8365330045179182E-36
    0.1094353480630802E+01    0.2200231390923730E-35   -0.2964622010671852E+00
   -0.8265144503138450E-35    0.1260590236917269E-03    0.1822114850585759E-35
    0.7298400267479996E+00    0.2619512166788533E-35    0.6874684746719123E+00
   -0.9075956338837722E-35    0.1044598640544958E-03    0.2737670503198300E-35
    0.1617018659308944E+01    0.2462763667145146E-35    0.8553208024939369E+00
   -0.9979284716332804E-35    0.1529810904974393E-03    0.2767299012810600E-35
    0.2143199662875790E+01    0.1025242077681930E-35   -0.1627128509216730E+01
   -0.6988551367641697E-35    0.1606170425226816E-03    0.5966691568400499E-36
    0.4088840445400889E+01   -0.1231968573772865E-35   -0.4351047825936264E+00
   -0.8243790629709300E-35    0.2719933294108579E-03    0.1386157173749768E-35
    0.2977916511248925E+01    0.6304882436514211E-36   -0.8334991483094500E+00
   -0.7610894680085042E-35    0.2245596931860772E-03    0.1168220561470953E-35
    0.3044093241383418E+01    0.3769465795181597E-36   -0.1814361225108581E+01
   -0.6842907933882471E-35    0.1617000112420497E-03    0.3951496931904044E-36
    0.3427866614805211E+01   -0.8582324719471402E-37    0.3813904839972496E+00
   -0.1030134922872444E-34    0.2936955483429649E-03    0.2111989611821072E-35
    0.4313225355351749E+01   -0.2083826985864017E-35    0.5489133376342497E+00
   -0.1004988146470779E-34    0.2313009573592373E-03    0.2191838966966964E-35
    0.1823032737597358E+01    0.1857982781605085E-35    0.1771265193544254E+01
   -0.1125205256649463E-34    0.1836202887151584E-03    0.3546013898168610E-35
    0.2806311152168375E+01    0.7857210346798167E-36    0.1358629373600680E+01
   -0.1164803858702345E-34    0.1943492163983818E-03    0.3057312110341643E-35
    0.1891860875936711E+01    0.1695464379437654E-35   -0.8481310365607546E+00
   -0.7858507001743719E-35    0.1670645501816170E-03    0.1263367899282170E-35
    0.2268769200166909E+01    0.1923092105501142E-35    0.7723691819196567E-01
   -0.9339582815969423E-35    0.2072307783085314E-03    0.2004379806597439E-35
    0.5000000000000000E+01    0.1338935747524992-195    0.2504941971167291E+01
   -0.1707340122743359E-35    0.1250000000000000E+01    0.1338935747524992-195
    0.5000000000000000E+01    0.1338935747524992-195    0.2504941971167291E+01
   -0.1707340122743359E-35    0.2500000000000000E+01    0.1338935747524992-195
    0.5000000000000000E+01    0.1338935747524992-195    0.2504941971167291E+01
   -0.1707340122743359E-35    0.3750000000000000E+01    0.1338935747524992-195
    0.5000000000000000E+01    0.1338935747524992-195    0.2504941971167291E+01
   -0.1707340122743359E-35    0.5000000000000000E+01    0.1338935747524992-195
    0.3750000000000000E+01    0.1338935747524992-195    0.2504941971167291E+01
   -0.1707340122743359E-35    0.5000000000000000E+01    0.1338935747524992-195
    0.2500000000000000E+01    0.1338935747524992-195    0.2504941971167291E+01
   -0.1707340122743359E-35    0.5000000000000000E+01    0.1338935747524992-195
    0.1250000000000000E+01    0.1338935747524992-195    0.2504941971167291E+01
   -0.1707340122743359E-35    0.5000000000000000E+01    0.1338935747524992-195
   -0.5584400097009151-168    0.1338935747524992-195    0.2504941971167291E+01
   -0.1707340122743359E-35    0.5000000000000000E+01    0.1338935747524992-195
   -0.5584400097009151-168    0.1338935747524992-195    0.2504941971167291E+01
   -0.1707340122743359E-35    0.3750000000000000E+01    0.1338935747524992-195
   -0.5584400097009151-168    0.1338935747524992-195    0.2504941971167291E+01
   -0.1707340122743359E-35    0.2500000000000000E+01    0.1338935747524992-195
   -0.5584400097009151-168    0.1338935747524992-195    0.2504941971167291E+01
   -0.1707340122743359E-35    0.1250000000000000E+01    0.1338935747524992-195
    0.9588956434871093E+00    0.1886336965291001E-35    0.2504941971167291E+01
   -0.1707340122743359E-35    0.9696525519543872E+00    0.5864270111885857E-36
    0.3981953078951402E+01    0.6147425563544973E-37    0.2504941971167291E+01
   -0.1707340122743359E-35    0.4070563854751271E+01    0.2059242356255233E-36
    0.4036122187252336E+01   -0.6794249908070636E-36    0.2504941971167291E+01
   -0.1707340122743359E-35    0.1017567520094671E+01    0.1354403659623199E-35
    0.9637572773153888E+00    0.1524599487551542E-37    0.2504941971167291E+01
   -0.1707340122743359E-35    0.3973598203142229E+01    0.1392113479371410E-36
    0.1546540136992396E+01    0.2880208681869805E-36    0.2504941971167291E+01
   -0.1707340122743359E-35    0.2931570169315601E+01    0.4616111164743994E-36
    0.6973799521244313E+00    0.1881884971431068E-36    0.2504941971167291E+01
   -0.1707340122743359E-35    0.3070319952453756E+01    0.2276473939905572E-36
    0.8903742148356885E+00    0.7663485805822596E-36    0.2504941971167291E+01
   -0.1707340122743359E-35    0.2056562238187738E+01    0.4670611865461454E-36
    0.2183041995146012E+01    0.5179724629655037E-37    0.2504941971167291E+01
   -0.1707340122743359E-35    0.3960694449828019E+01    0.2957117565717143E-36
    0.3855844872709870E+01    0.4748520901167708E-37    0.2504941971167291E+01
   -0.1707340122743359E-35    0.2933250588118630E+01    0.5271158778201862E-36
    0.3152611367438029E+01    0.7618063087998918E-37    0.2504941971167291E+01
   -0.1707340122743359E-35    0.3637668388416195E+01    0.4101792350269334E-36
    0.3103307385241870E+01    0.5086431003773032E-37    0.2504941971167291E+01
   -0.1707340122743359E-35    0.4332607813099731E+01    0.2039550819470884E-36
    0.3266711045517939E+01    0.1358668624180914E-36    0.2504941971167291E+01
   -0.1707340122743359E-35    0.1889656617463738E+01    0.1403361722134015E-35
    0.4232537554484796E+01   -0.1138392991137430E-36    0.2504941971167291E+01
   -0.1707340122743359E-35    0.1918626969802351E+01    0.5196679243903803E-36
    0.1905522374036519E+01    0.1714519400291025E-35    0.2504941971167291E+01
   -0.1707340122743359E-35    0.7226290832134608E+00    0.1984540691423341E-35
    0.2879767723645805E+01    0.1870160376948955E-36    0.2504941971167291E+01
   -0.1707340122743359E-35    0.9080945892181980E+00    0.2690979972143702E-35
    0.2012711365064515E+01    0.5672080885240375E-36    0.2504941971167291E+01
   -0.1707340122743359E-35    0.1767082390977754E+01    0.1412356217532895E-35
    0.2669681472994637E+01    0.1668576785869240E-36    0.2504941971167291E+01
   -0.1707340122743359E-35    0.2853394335010791E+01    0.8673842069510860E-36
    0.5000000000000000E+01    0.1338935747524992-195    0.1250000000000000E+01
    0.1338935747524992-195    0.5000000000000000E+01    0.1338935747524992-195
    0.5000000000000000E+01    0.1338935747524992-195   -0.5584400097009151-168
[...]
POINT_DATA 213
SCALARS rho double 1
LOOKUP_TABLE default
   0.1346125694796204E+01
  -0.2990663683194294E-29
   0.9572084527649113E+00
  -0.9000290939199873E-30
   0.9461020639085151E+00
  -0.9196389450248828E-30
   0.9421833077538359E+00
  -0.1155060018102444E-29
   0.8436100785939058E+00
  -0.1607464647384921E-29
   0.7742024922730043E+00
  -0.1648216129077643E-29
   0.7627632914206300E+00
  -0.1686390481183047E-29
   0.7661496233416690E+00
  -0.1673524054200796E-29
   0.8310481703368382E+00
  -0.1630814937764732E-29
   0.9353608197673808E+00
  -0.1165782550068208E-29
   0.9344036383961075E+00
  -0.9153360713669612E-30
   0.9615898876474255E+00
  -0.9253648379092939E-30
   0.1448480208888575E+01
  -0.3498532018280399E-29
   0.1495421840745697E+01
  -0.3486129795868515E-29
   0.1646754928386300E+01
  -0.4495609904763444E-29
   0.1426608058877479E+01
  -0.3287548907291757E-29
   0.1009808068720762E+01
  -0.1186691155800735E-29
   0.9511456929614840E+00
  -0.1177199653268245E-29
   0.9438291099388675E+00
  -0.1182572573617943E-29
   0.9574489508577355E+00
  -0.8216373347056304E-30
   0.9414832416643036E+00
  -0.7275570360546024E-30
   0.1037118221425670E+01
  -0.1233217290107980E-29
   0.9258147537152260E+00
  -0.7439334109807501E-30
   0.9322497228176927E+00
  -0.8337871963996136E-30
   0.9538141799784911E+00
  -0.1194226961506506E-29
   0.9520438484221142E+00
  -0.1036316363104552E-29
   0.9350971720208149E+00
  -0.1037483081738721E-29
   0.9565537237123487E+00
  -0.1112897046973256E-29
   0.9378700247679271E+00
  -0.1210740333535374E-29
   0.9303318784871983E+00
  -0.7520720292539444E-30
   0.9446515867136626E+00
  -0.9792112259718386E-30
   0.8862352513656095E+00
  -0.6356510134257868E-30
   0.9424046836438028E+00
  -0.8899185094186081E-30
   0.9637217255640258E+00
  -0.3619098386485006E-30
   0.1008362577771105E+01
  -0.7272537656620653E-32
   0.1006713364979292E+01
   0.7273121890469660E-32
   0.1001959240550355E+01
  -0.4789870356776320E-31
   0.1003218316277390E+01
  -0.7467397352457159E-31
   0.1004120538082798E+01
  -0.8423611661395788E-31
   0.1005207992650316E+01
  -0.7402502327222694E-31
   0.1004249813847998E+01
  -0.5997095931309726E-31
   0.1008267843881945E+01
  -0.8963498997566407E-31
   0.1023867443068100E+01
  -0.1811865908783027E-30
   0.1063751875325162E+01
  -0.1307619757249634E-30
   0.1019386187162710E+01
  -0.3785900329789296E-30
   0.1001778934112737E+01
  -0.4757329316479710E-31
   0.9645975234093090E+00
  -0.5029530842969864E-30
   0.1005263110529129E+01
  -0.8609512125438069E-31
   0.1000745578317088E+01
  -0.6849639172240874E-31
   0.1008695104813796E+01
  -0.1111655767915390E-30
   0.1008032475142597E+01
  -0.7639785148752018E-31
   0.1002354650881323E+01
  -0.8168570125766561E-31
   0.9980224682792881E+00
  -0.1446111787821782E-31
   0.1000594440605299E+01
  -0.4967952614344252E-31
   0.1001621537589921E+01
  -0.7634947968312976E-31
   0.9828107810943081E+00
  -0.1431526775686004E-30
   0.9844011041700139E+00
  -0.1426048925946730E-30
   0.9834292502930860E+00
  -0.5258644287250318E-30
   0.9790423922415420E+00
  -0.5045260647432472E-30
   0.9904798796910883E+00
  -0.1145034817133640E-30
   0.9935224893890976E+00
  -0.4223630753246294E-31
   0.1002009103477717E+01
  -0.4309995375997191E-31
   0.1002132311999872E+01
  -0.4050076092584195E-31
   0.1002273033582805E+01
  -0.3956984969697629E-31
   0.1001793219489610E+01
  -0.5061218859909934E-31
   0.1009814972833623E+01
  -0.5987888684936985E-33
   0.1006499311746667E+01
   0.2173782821561732E-32
   0.9560849990725504E+00
  -0.3244779218942454E-30
   0.9252996566869166E+00
  -0.5909926180755911E-30
   0.1007053712651972E+01
  -0.2983232673275758E-33
   0.1004491538497833E+01
  -0.7389331593866327E-32
   0.9144889717492152E+00
  -0.4963914653285801E-30
   0.9091476761028597E+00
  -0.4567297959030019E-30
   0.8752502590915057E+00
  -0.7547572854580741E-30
   0.9768039036517672E+00
  -0.1834827545179092E-30
   0.1000530366598021E+01
  -0.3179214743853331E-31
   0.1005826553459908E+01
   0.7673413494354226E-32
   0.1012895293779463E+01
   0.6245026034999589E-31
   0.1011677102427519E+01
   0.2730919407772732E-31
   0.1010415988351205E+01
   0.5992458297333358E-31
   0.1005456560095303E+01
  -0.7116105151868419E-32
   0.9909260255091893E+00
  -0.1398428093902273E-30
   0.1005152543423567E+01
   0.2745448709404404E-31
   0.9860803849582384E+00
  -0.5832990680185385E-31
   0.1005592650628053E+01
   0.4285898284421966E-31
   0.1004239968494944E+01
  -0.6075958360382185E-31
   0.1002886283632425E+01
  -0.5570698721363015E-31
   0.1003350788888838E+01
  -0.5469717286145503E-31
   0.1003998912068554E+01
  -0.5711075689600025E-31
   0.1005116700254255E+01
  -0.7528277757224516E-31
   0.1003224183258162E+01
  -0.8074974099309778E-31
   0.1002669183701056E+01
  -0.6921608667433052E-31
   0.1002590255850161E+01
  -0.7684577160122665E-31
   0.1004070004659353E+01
  -0.6264528961378981E-31
   0.1004304937933431E+01
  -0.6497519104703650E-31
   0.1001643036025772E+01
  -0.8112189402892125E-31
   0.1002279357323281E+01
  -0.7405513381826893E-31
   0.1002547248784740E+01
  -0.7074029073037159E-31
   0.1003472641568337E+01
  -0.8800598918486818E-31
   0.1003380931081210E+01
  -0.7982417671793208E-31
   0.1003233776571757E+01
  -0.5851147170599436E-31
   0.1004430854293727E+01
  -0.8068061447820975E-31
   0.1004325283197304E+01
  -0.8140332882446202E-31
   0.1003653379478219E+01
  -0.5756692328279644E-31
   0.1003719191864158E+01
  -0.7809586972756478E-31
   0.1004319534138746E+01
  -0.8060962078670954E-31
   0.1004463155501505E+01
  -0.9047599481553051E-31
   0.1003629980599908E+01
  -0.8347036431749551E-31
   0.1064490581494330E+01
  -0.1009243166919351E-30
   0.1028445780971553E+01
  -0.1985449341079106E-30
   0.1009607603147547E+01
  -0.9533578543380580E-31
   0.1006626774102926E+01
  -0.8390258124352862E-31
   0.1163979474301080E+01
  -0.5829197525396325E-30
   0.1086026004530794E+01
  -0.8543276916077879E-31
   0.1007908398971917E+01
  -0.9245054307718208E-31
   0.1007252664643795E+01
  -0.8875820297575069E-31
   0.1006796746946298E+01
  -0.7935520735768289E-31
   0.1013053608644557E+01
  -0.1623541511292818E-30
   0.1019342644427465E+01
  -0.1758381615585993E-30
   0.1235143811205464E+01
  -0.1086737464422154E-29
   0.1032536232933968E+01
  -0.9026670117571080E-31
   0.1046567728934366E+01
  -0.2794847798421219E-30
   0.1201703012923631E+01
  -0.8353458287697330E-30
   0.1014671125332584E+01
  -0.1237270948556568E-30
   0.1032295324199592E+01
  -0.2131372892697284E-30
   0.1028222151031913E+01
  -0.2591309614315197E-30
   0.1014641483573500E+01
  -0.1733529448480749E-30
   0.1029002257770696E+01
  -0.4098639107905904E-30
   0.1002002818476535E+01
  -0.5134483908710155E-31
   0.9607830580830691E+00
  -0.4525445919277388E-30
   0.1006859706957619E+01
  -0.8889621412958015E-31
   0.1001326954010393E+01
  -0.6698039879566790E-31
   0.1010800868392227E+01
  -0.1140626745260140E-30
   0.1012237273234563E+01
  -0.8474339821188461E-31
   0.1000940436429912E+01
  -0.8009538597948685E-31
   0.9979317235319712E+00
  -0.1552796381962561E-31
   0.9980683699441127E+00
  -0.5354415920151826E-31
   0.1001191956733544E+01
  -0.7139540401281136E-31
   0.9841985797711802E+00
  -0.1124207970351128E-30
   0.9815070579355362E+00
  -0.1156478374342528E-30
   0.9648654914700556E+00
  -0.4677965730746775E-30
   0.9680713427308907E+00
  -0.4779793261579283E-30
   0.9914149190812168E+00
  -0.1182691445724641E-30
   0.9910916479218669E+00
  -0.4125687250397897E-31
   0.9925598184527979E+00
  -0.1301252155302607E-31
   0.1001728510387478E+01
  -0.5348248141128983E-31
   0.9993250772472617E+00
  -0.2591979170731271E-31
   0.9941444029268122E+00
  -0.7424668040822272E-32
   0.1006981383545353E+01
  -0.1135763369217432E-31
   0.1022611654050949E+01
  -0.6399063394037107E-31
   0.1001121691833389E+01
  -0.1090000823509918E-30
   0.1008784265587030E+01
  -0.1044827110571228E-30
   0.1004775043985549E+01
  -0.8932315752113196E-31
   0.1009029447306981E+01
  -0.1083772292318996E-30
   0.9967197949770460E+00
  -0.5481036916006056E-31
   0.1005567613152793E+01
  -0.5408978323850882E-30
   0.1003325685873539E+01
  -0.8309566456911162E-31
   0.9949865129969307E+00
  -0.3648191053567595E-31
   0.9833521892798797E+00
  -0.6097976944485895E-31
   0.9944521638513266E+00
  -0.1718066899847554E-31
   0.9973482230865909E+00
  -0.1868193166142958E-31
   0.9932519263851373E+00
  -0.6891038847471952E-32
   0.1001312608249407E+01
  -0.6994579579454898E-31
   0.1003001448726225E+01
  -0.7913270348952907E-31
   0.1002189173483121E+01
  -0.6706269707795005E-31
   0.9947119516185440E+00
   0.1606213787868605E-31
   0.9937839725487182E+00
  -0.1967510136811363E-31
   0.1004862069432302E+01
  -0.9258656143683856E-31
   0.1020102936709793E+01
  -0.5206943492469786E-31
   0.1005341234391461E+01
  -0.7753811719387045E-31
   0.9817063601279309E+00
  -0.5874945705187996E-31
   0.1004975501328139E+01
  -0.8294741217411586E-31
   0.1012376568815552E+01
  -0.1079729592598210E-30
   0.9873747459245938E+00
  -0.4721383045941334E-30
   0.9551282272143561E+00
  -0.3482250402669914E-30
   0.9865280377058699E+00
  -0.7983586791065830E-31
   0.9865952832626865E+00
  -0.7622537769860120E-31
   0.9920084248960418E+00
  -0.4497307763774514E-30
   0.9934470865442803E+00
  -0.9430069946740207E-31
   0.9960657346532332E+00
  -0.4989292705854273E-30
   0.1037405690909452E+01
  -0.9723009730746981E-31
   0.1033165796316152E+01
  -0.3283807504131029E-30
   0.1001443358073460E+01
  -0.3862102695448120E-31
   0.1001929574473556E+01
  -0.7325864394337377E-31
   0.9912286695853374E+00
  -0.3889580160975577E-32
   0.9911121698770713E+00
  -0.2743937188072657E-31
   0.9649300819288887E+00
  -0.2244589436529080E-30
   0.9933729920344002E+00
  -0.2626310278189017E-31
   0.1006089075111776E+01
   0.7900169675845608E-34
   0.1001962080811884E+01
  -0.2967017460157901E-32
   0.9908628495070655E+00
  -0.4229273057274627E-31
   0.9742274508715961E+00
  -0.2550627480480264E-30
   0.9420781785091349E+00
  -0.5831922911248063E-30
   0.9821604770842576E+00
  -0.2774289290044179E-30
   0.9794777371335309E+00
  -0.5877054781415802E-31
   0.9704352201666403E+00
  -0.4067928903451011E-30
   0.9720842372279036E+00
  -0.2975296033417653E-30
   0.9557868488082144E+00
  -0.2043894982951239E-30
   0.9497981758173875E+00
  -0.3653562380896477E-30
   0.9529847958458730E+00
  -0.6016465105990637E-30
   0.1002637256815405E+01
  -0.8841139053441560E-31
   0.1002476301970887E+01
  -0.8034540569313923E-31
   0.1000513242288097E+01
  -0.4708387052126315E-31
   0.1001675737919938E+01
   0.3905463105406388E-32
   0.9610108169559489E+00
  -0.5831152635885427E-30
   0.9492469479939959E+00
  -0.6704298820086185E-30
   0.9586432519901473E+00
  -0.6015836058014762E-30
   0.1001121462568895E+01
  -0.7278702722787823E-31
   0.1000500591166478E+01
  -0.5864617594539486E-31
   0.1001161102485821E+01
  -0.2235858346370409E-31
   0.9807429276962730E+00
  -0.5793026012322908E-31
   0.9805608284046492E+00
  -0.2767568261847212E-30
   0.9629214371681459E+00
  -0.4945526774134724E-30
SCALARS u double 1
LOOKUP_TABLE default
   0.0000000000000000E+00
   0.0000000000000000E+00
   0.0000000000000000E+00
   0.0000000000000000E+00
   0.0000000000000000E+00
   0.0000000000000000E+00
   0.0000000000000000E+00
   0.0000000000000000E+00
   0.0000000000000000E+00
   0.0000000000000000E+00
   0.0000000000000000E+00
   0.0000000000000000E+00
   0.0000000000000000E+00
   0.0000000000000000E+00
   0.0000000000000000E+00
   0.0000000000000000E+00
   0.0000000000000000E+00
   0.0000000000000000E+00
   0.0000000000000000E+00
   0.0000000000000000E+00
   0.0000000000000000E+00
   0.0000000000000000E+00
   0.0000000000000000E+00
   0.0000000000000000E+00
   0.0000000000000000E+00
   0.0000000000000000E+00
   0.0000000000000000E+00
   0.0000000000000000E+00
   0.0000000000000000E+00
   0.0000000000000000E+00
   0.0000000000000000E+00
   0.0000000000000000E+00
   0.0000000000000000E+00
   0.0000000000000000E+00
   0.0000000000000000E+00
   0.0000000000000000E+00
   0.0000000000000000E+00
   0.0000000000000000E+00
   0.0000000000000000E+00
   0.0000000000000000E+00
   0.0000000000000000E+00
   0.0000000000000000E+00
   0.0000000000000000E+00
   0.0000000000000000E+00
   0.0000000000000000E+00
   0.0000000000000000E+00
   0.0000000000000000E+00
   0.0000000000000000E+00
   0.0000000000000000E+00
   0.0000000000000000E+00
   0.0000000000000000E+00
   0.0000000000000000E+00
   0.0000000000000000E+00
   0.0000000000000000E+00
   0.0000000000000000E+00
   0.0000000000000000E+00
   0.0000000000000000E+00
   0.0000000000000000E+00
   0.0000000000000000E+00
   0.0000000000000000E+00
   0.0000000000000000E+00
   0.0000000000000000E+00
   0.0000000000000000E+00
   0.0000000000000000E+00
   0.0000000000000000E+00
   0.0000000000000000E+00
   0.4946084390315993E+00
   0.2834775968070899E-30
   0.5336296229405145E+00
  -0.1014734411434151E-30
   0.5182737288736647E+00
  -0.9677264614545778E-31
   0.4930696975712265E+00
   0.8901335276069733E-33
   0.4847718119395810E+00
   0.8805234434363087E-31
   0.4868108136203519E+00
   0.1169856463789764E-30
   0.4891429098214673E+00
   0.1080163792799498E-30
   0.4958014376856626E+00
   0.6399931100932102E-31
   0.4899016128303491E+00
   0.9608506140406222E-31
   0.4718097598413581E+00
   0.1764327552426657E-30
   0.4448926899584662E+00
   0.1645281234445246E-30
   0.4844425910269541E+00
  -0.1805477469592179E-30
   0.5097672109123684E+00
   0.5981313228331694E-32
   0.4402157107427234E+00
   0.3068270852858645E-30
   0.4949584587262690E+00
   0.8495430682656379E-31
   0.5222981757397630E+00
   0.3672298191878618E-31
   0.4962761335158446E+00
   0.8894811908955044E-31
   0.5223877814042346E+00
   0.5360382850468393E-31
   0.5038134104979424E+00
   0.6863829763885694E-31
   0.5644352140160721E+00
  -0.3955104890186197E-31
   0.5245862239259039E+00
   0.1275924870185528E-31
   0.4990946955680623E+00
   0.6525328912233456E-31
   0.5729384848058491E+00
   0.2134678712925168E-31
   0.5693720714275398E+00
   0.6540721608624321E-31
   0.3752129680560090E+00
  -0.9456076399595565E-31
   0.4003935337324618E+00
   0.9268643524319612E-31
   0.5599622500288522E+00
  -0.6610442168370928E-31
   0.5562276759081876E+00
  -0.1106758586680969E-31
   0.4942631174085138E+00
  -0.6408439422921118E-32
   0.4948654038389938E+00
  -0.1147596557469737E-31
   0.4925634782161943E+00
  -0.1434990557306554E-31
   0.4913991786274929E+00
   0.2158670666351502E-32
   0.5162611628896004E+00
  -0.9256088919856796E-31
   0.5363588932425339E+00
  -0.9258727161206961E-31
   0.4951213607865293E+00
   0.2900738700423584E-30
   0.4520531595280604E+00
   0.4842449501617047E-30
   0.5129024774599978E+00
  -0.8252611744899122E-31
   0.5117690526460735E+00
  -0.7246207986771451E-31
   0.4786251287220537E+00
   0.4594989521423309E-30
   0.4931155293860366E+00
   0.4371873454434511E-30
   0.4600306954389620E+00
   0.6828193004707167E-30
   0.5242629198950411E+00
   0.1557623831731483E-30
   0.5299866667530575E+00
  -0.3236894337274525E-31
   0.5129711999258322E+00
  -0.8878647050143021E-31
   0.5328938855274891E+00
  -0.1513516397572849E-30
   0.5309772093589088E+00
  -0.1281426218925950E-30
   0.5309771260030216E+00
  -0.1482041372466086E-30
   0.5063651410167607E+00
  -0.6587381924426195E-31
   0.5279605765619284E+00
   0.4300516426858607E-31
   0.5409254473519843E+00
  -0.1268979380010541E-30
   0.5363677255169199E+00
   0.5140834175400640E-31
   0.5374194372041643E+00
  -0.1016893704038248E-30
   0.4965359093626230E+00
   0.5804543387667051E-31
   0.4975361620574815E+00
   0.5383166158712492E-31
   0.4963807509446781E+00
   0.5819082920878077E-31
   0.4955144774623212E+00
   0.6224580514387411E-31
   0.4904151887407366E+00
   0.1101908446925564E-30
   0.4902491479024934E+00
   0.1164947745274175E-30
   0.4861626503310967E+00
   0.8528231537049500E-31
   0.4854037739491548E+00
   0.7347688727400085E-31
   0.4931941380555436E+00
   0.9091346514012441E-31
   0.4910329234526910E+00
   0.9730698550878156E-31
   0.4831698316706103E+00
   0.7457993132308433E-31
   0.4872469605557231E+00
   0.6268056272300599E-31
   0.4880010969434512E+00
   0.5249000205077449E-31
   0.4872294036576613E+00
   0.1049940009567202E-30
   0.4882160211820525E+00
   0.1149046197005054E-30
   0.4952567366099385E+00
   0.7898142102892579E-31
   0.4900705809517975E+00
   0.1213464810902106E-30
   0.4903581267307387E+00
   0.1197895024732587E-30
   0.4944346859688858E+00
   0.8675710487208030E-31
   0.4868163397672596E+00
   0.1056459934843365E-30
   0.4892720557089996E+00
   0.1154439195239900E-30
   0.4881455378811853E+00
   0.1227741051701988E-30
   0.4878245184540344E+00
   0.1118330244747168E-30
   0.4449022026392248E+00
   0.1404857275214605E-30
   0.4700099664047123E+00
   0.1830406086688448E-30
   0.4891756201749323E+00
   0.9803500358511428E-31
   0.4885980866227642E+00
   0.9448821405501456E-31
   0.4510286412227579E+00
   0.3697677288088118E-30
   0.4681799610773838E+00
   0.1200700303446947E-30
   0.4876648975238251E+00
   0.9987572266090902E-31
   0.4868253758066791E+00
   0.1004704044164659E-30
   0.4909267533148229E+00
   0.8142242235503155E-31
   0.4793946319360242E+00
   0.1541761703876686E-30
   0.4657884653213344E+00
   0.1784103076356694E-30
   0.3794302312504561E+00
   0.5850306235579290E-30
   0.4903697421163592E+00
   0.4976462950727458E-31
   0.4487929174614109E+00
   0.2266976338106868E-30
   0.4432385355256074E+00
   0.4348985708600707E-30
   0.4845729179216035E+00
   0.1264161131629620E-30
   0.4621884481316907E+00
   0.1945523045833286E-30
   0.4663602298881747E+00
   0.1858948695005614E-30
   0.4747774268404581E+00
   0.1717969696701966E-30
   0.4893613112003719E+00
  -0.1582423003884999E-30
   0.5085681474237996E+00
  -0.2597872841957557E-32
   0.4304904287089960E+00
   0.3582092114138486E-30
   0.4927280753893068E+00
   0.8994832756536249E-31
   0.5320316185098128E+00
  -0.8731724864076253E-34
   0.4913826501721945E+00
   0.9521967676939899E-31
   0.5209404404681223E+00
   0.3480993833768796E-31
   0.5061319828044332E+00
   0.5784375742521284E-31
   0.5690636320470474E+00
  -0.4732813701531219E-31
   0.5275039918420432E+00
  -0.2581704437627083E-32
   0.5015047795152681E+00
   0.5735611759487173E-31
   0.5821373618611889E+00
   0.6478770773961459E-31
   0.5691503700216948E+00
   0.1035678129583203E-30
   0.3402452490602452E+00
   0.4511655424925496E-31
   0.3785432685556306E+00
   0.1839709590074903E-30
   0.5753091283334913E+00
  -0.5264062664411716E-31
   0.5668547247072592E+00
  -0.3677682289011416E-31
   0.5703055450938551E+00
  -0.1227412916484741E-31
   0.5291879661614277E+00
   0.1309932058424604E-31
   0.5449833828650517E+00
   0.1417699800434952E-31
   0.5719093999230359E+00
  -0.1536493054547850E-31
   0.5385694587089523E+00
   0.5555634464667006E-31
   0.5475896936886369E+00
   0.5157270754945876E-31
   0.5821565652936822E+00
  -0.3646273903753929E-31
   0.4925313045999098E+00
   0.7994457221048842E-31
   0.5041557177768387E+00
   0.6757634516752955E-31
   0.4961299804138379E+00
   0.8951777491264949E-31
   0.5562803684738362E+00
  -0.4525751650116943E-31
   0.4757814624156410E+00
  -0.3143702447295798E-30
   0.4950174786314636E+00
   0.9086091596062659E-31
   0.5496174672067983E+00
   0.1225786983688613E-32
   0.5889519110811710E+00
   0.4384949892987350E-31
   0.5839568631080631E+00
  -0.1998348963376342E-31
   0.5468163498061501E+00
  -0.1347617680019906E-31
   0.5803877175564449E+00
  -0.2163948538224017E-31
   0.5106055693780260E+00
   0.4864879045392497E-31
   0.5029532236708335E+00
   0.7140605504846584E-31
   0.5033085380835831E+00
   0.4649491094582398E-31
   0.5676232052869975E+00
  -0.5848016448717348E-31
   0.5564629528962335E+00
  -0.1224119287108419E-31
   0.4947135441319715E+00
   0.8285027031839537E-31
   0.5506799461324402E+00
  -0.2235596689091010E-31
   0.5513545696827640E+00