# vtk DataFile Version 2.0
FUN3D:global_image_vtk
ASCII
DATASET UNSTRUCTURED_GRID
POINTS 213 double
   -0.5474685441687832E-02    0.2526210733943171E-35    0.2504941971167291E+01
   -0.1707340122732650E-35    0.8038138598670530E-04    0.4453515354799829E-35
    0.1245419105183472E+01    0.1985224594831587E-35    0.2504941971167291E+01
   -0.1707340122732650E-35    0.1039425058013133E-03    0.4316158609738173E-35
    0.2497696093128780E+01    0.6944895557833038E-36    0.2504941971167291E+01
   -0.1707340122732650E-35    0.1101298164665754E-03    0.4173222030662221E-35
    0.3750590968915824E+01   -0.1060142948778367E-35    0.2504941971167291E+01
   -0.1707340122732650E-35    0.1356499004944167E-03    0.3988775162032147E-35
    0.5003221331742151E+01   -0.2625384706244417E-35    0.2504941971167291E+01
   -0.1707340122732650E-35    0.9668873038898296E-04    0.3848779953028213E-35
    0.5004676687979097E+01   -0.2972653474231579E-35    0.1281291202167040E+01
   -0.1021399560878916E-34    0.1638053019383801E-03    0.2750099182591679E-35
    0.5004772673778115E+01   -0.2495863520250330E-35    0.2775079906482894E-01
   -0.8577869833508607E-35    0.1903478008447035E-03    0.1720656900482308E-35
    0.5003581183341212E+01   -0.1486266981936422E-35   -0.1225853508883529E+01
   -0.7060021434501694E-35    0.1607765204486578E-03    0.7496125778844632E-36
    0.5001952533742191E+01   -0.4919870610692200E-36   -0.2496589036641631E+01
   -0.1009112493421332E-35    0.1082258890302557E-03   -0.2216187932481077E-36
    0.3750348111606544E+01   -0.1504755340567102E-37   -0.2496589036641631E+01
   -0.1009112493421332E-35    0.1458753696815807E-03   -0.1647441568848661E-36
    0.2498611462994928E+01    0.5153661272774497E-36   -0.2496589036641631E+01
   -0.1009112493421332E-35    0.1008933264248224E-03   -0.9832609259901596E-37
    0.1247175269333276E+01    0.9830713144523367E-36   -0.2496589036641631E+01
   -0.1009112493421332E-35    0.1108587619169654E-03   -0.3744863165419164E-37
   -0.3383959865719266E-02    0.1123058093433476E-35   -0.2496589036641631E+01
   -0.1009112493421332E-35    0.8107259626488617E-04    0.5081467141838416E-37
   -0.4257768979765597E-02    0.1686868286592394E-35   -0.1225734811642590E+01
   -0.7187499669850893E-35    0.3415458742300759E-04    0.1137912376982754E-35
   -0.5251592448509257E-02    0.2332994898260652E-35    0.2619486024420452E-01
   -0.8045086103536537E-35    0.1038724387187884E-03    0.2221158386778760E-35
   -0.5676060312426845E-02    0.2689398881830794E-35    0.1278221569065707E+01
   -0.9076700159035972E-35    0.8224601702150336E-04    0.3347930865893467E-35
    0.9003209617952581E+00    0.2636586017889874E-35    0.1608979112280158E+01
   -0.1006792614826985E-34    0.8704140727666676E-04    0.3545061761173606E-35
    0.3983172210692289E+01   -0.4343478134886306E-36   -0.1561211904840279E+01
   -0.6823998059997152E-35    0.1757116720370600E-03    0.5416547269081553E-36
    0.4035602039224469E+01   -0.1426108313624463E-35    0.1486760030415520E+01
   -0.1156068355166439E-34    0.1713312862106631E-03    0.3031869556522359E-35
    0.1036613723302902E+01    0.1478019807542512E-35   -0.1455626429916848E+01
   -0.7266802149700483E-35    0.1047189301532914E-03    0.8365330045055821E-36
    0.1094353480630802E+01    0.2200231390910269E-35   -0.2964622010671852E+00
   -0.8265144503086022E-35    0.1260590236917269E-03    0.1822114850557737E-35
    0.7298400267480001E+00    0.2619512166772256E-35    0.6874684746719117E+00
   -0.9075956338780597E-35    0.1044598640544958E-03    0.2737670503156250E-35
    0.1617018659308944E+01    0.2462763667129736E-35    0.8553208024939369E+00
   -0.9979284716270084E-35    0.1529810904973838E-03    0.2767299012767113E-35
    0.2143199662875790E+01    0.1025242077675690E-35   -0.1627128509216730E+01
   -0.6988551367596486E-35    0.1606170425226816E-03    0.5966691568307246E-36
    0.4088840445400889E+01   -0.1231968573766015E-35   -0.4351047825936264E+00
   -0.8243790629656145E-35    0.2719933294108579E-03    0.1386157173726182E-35
    0.2977916511248925E+01    0.6304882436473786E-36   -0.8334991483094500E+00
   -0.7610894680035911E-35    0.2245596931860772E-03    0.1168220561451774E-35
    0.3044093241383418E+01    0.3769465795158398E-36   -0.1814361225108581E+01
   -0.6842907933837928E-35    0.1617000112420497E-03    0.3951496931839344E-36
    0.3427866614805211E+01   -0.8582324719488976E-37    0.3813904839972496E+00
   -0.1030134922865917E-34    0.2936955483430759E-03    0.2111989611786116E-35
    0.4313225355351749E+01   -0.2083826985852524E-35    0.5489133376342495E+00
   -0.1004988146464381E-34    0.2313009573592373E-03    0.2191838966930281E-35
    0.1823032737597358E+01    0.1857982781592902E-35    0.1771265193544254E+01
   -0.1125205256642435E-34    0.1836202887151583E-03    0.3546013898112498E-35
    0.2806311152168375E+01    0.7857210346741199E-36    0.1358629373600680E+01
   -0.1164803858695041E-34    0.1943492163983818E-03    0.3057312110292326E-35
    0.1891860875936711E+01    0.1695464379427354E-35   -0.8481310365607546E+00
   -0.7858507001693414E-35    0.1670645501816170E-03    0.1263367899262323E-35
    0.2268769200166909E+01    0.1923092105489200E-35    0.7723691819196567E-01
   -0.9339582815910254E-35    0.2072307783085314E-03    0.2004379806565360E-35
    0.5000000000000000E+01   -0.6798173142190088-197    0.2504941971167291E+01
   -0.1707340122732650E-35    0.1250000000000000E+01   -0.6798173142190088-197
    0.5000000000000000E+01   -0.6798173142190088-197    0.2504941971167291E+01
   -0.1707340122732650E-35    0.2500000000000000E+01   -0.6798173142190088-197
    0.5000000000000000E+01   -0.6798173142190088-197    0.2504941971167291E+01
   -0.1707340122732650E-35    0.3750000000000000E+01   -0.6798173142190088-197
    0.5000000000000000E+01   -0.6798173142190088-197    0.2504941971167291E+01
   -0.1707340122732650E-35    0.5000000000000000E+01   -0.6798173142190088-197
    0.3750000000000000E+01   -0.6798173142190088-197    0.2504941971167291E+01
   -0.1707340122732650E-35    0.5000000000000000E+01   -0.6798173142190088-197
    0.2500000000000000E+01   -0.6798173142190088-197    0.2504941971167291E+01
   -0.1707340122732650E-35    0.5000000000000000E+01   -0.6798173142190088-197
    0.1250000000000000E+01   -0.6798173142190088-197    0.2504941971167291E+01
   -0.1707340122732650E-35    0.5000000000000000E+01   -0.6798173142190088-197
    0.2929041738546270-169   -0.6798173142190088-197    0.2504941971167291E+01
   -0.1707340122732650E-35    0.5000000000000000E+01   -0.6798173142190088-197
    0.2929041738546270-169   -0.6798173142190088-197    0.2504941971167291E+01
   -0.1707340122732650E-35    0.3750000000000000E+01   -0.6798173142190088-197
    0.2929041738546270-169   -0.6798173142190088-197    0.2504941971167291E+01
   -0.1707340122732650E-35    0.2500000000000000E+01   -0.6798173142190088-197
    0.2929041738546270-169   -0.6798173142190088-197    0.2504941971167291E+01
   -0.1707340122732650E-35    0.1250000000000000E+01   -0.6798173142190088-197
    0.9588956434871093E+00    0.1886336965277473E-35    0.2504941971167291E+01
   -0.1707340122732650E-35    0.9696525519543872E+00    0.5864270111531020E-36
    0.3981953078951402E+01    0.6147425563372473E-37    0.2504941971167291E+01
   -0.1707340122732650E-35    0.4070563854751271E+01    0.2059242356187664E-36
    0.4036122187252336E+01   -0.6794249908034308E-36    0.2504941971167291E+01
   -0.1707340122732650E-35    0.1017567520094671E+01    0.1354403659582880E-35
    0.9637572773153888E+00    0.1524599487701439E-37    0.2504941971167291E+01
   -0.1707340122732650E-35    0.3973598203142229E+01    0.1392113479306475E-36
    0.1546540136992396E+01    0.2880208681864596E-36    0.2504941971167291E+01
   -0.1707340122732650E-35    0.2931570169315601E+01    0.4616111164550314E-36
    0.6973799521244313E+00    0.1881884971438887E-36    0.2504941971167291E+01
   -0.1707340122732650E-35    0.3070319952453756E+01    0.2276473939795717E-36
    0.8903742148356883E+00    0.7663485805789435E-36    0.2504941971167291E+01
   -0.1707340122732650E-35    0.2056562238187738E+01    0.4670611865245661E-36
    0.2183041995146012E+01    0.5179724629718657E-37    0.2504941971167291E+01
   -0.1707340122732650E-35    0.3960694449828019E+01    0.2957117565609726E-36
    0.3855844872709870E+01    0.4748520900950750E-37    0.2504941971167291E+01
   -0.1707340122732650E-35    0.2933250588118630E+01    0.5271158778037811E-36
    0.3152611367438029E+01    0.7618063087880143E-37    0.2504941971167291E+01
   -0.1707340122732650E-35    0.3637668388416195E+01    0.4101792350130443E-36
    0.3103307385241870E+01    0.5086431003696845E-37    0.2504941971167291E+01
   -0.1707340122732650E-35    0.4332607813099731E+01    0.2039550819401490E-36
    0.3266711045517939E+01    0.1358668624157000E-36    0.2504941971167291E+01
   -0.1707340122732650E-35    0.1889656617463738E+01    0.1403361722098451E-35
    0.4232537554484796E+01   -0.1138392991156449E-36    0.2504941971167291E+01
   -0.1707340122732650E-35    0.1918626969802351E+01    0.5196679243719864E-36
    0.1905522374036519E+01    0.1714519400278742E-35    0.2504941971167291E+01
   -0.1707340122732650E-35    0.7226290832134608E+00    0.1984540691373370E-35
    0.2879767723645805E+01    0.1870160376926225E-36    0.2504941971167291E+01
   -0.1707340122732650E-35    0.9080945892181980E+00    0.2690979972089242E-35
    0.2012711365064515E+01    0.5672080885200837E-36    0.2504941971167291E+01
   -0.1707340122732650E-35    0.1767082390977754E+01    0.1412356217493954E-35
    0.2669681472994637E+01    0.1668576785854227E-36    0.2504941971167291E+01
   -0.1707340122732650E-35    0.2853394335010791E+01    0.8673842069258735E-36
    0.5000000000000000E+01   -0.6798173142190088-197    0.1250000000000000E+01
   -0.6798173142190088-197    0.5000000000000000E+01   -0.6798173142190088-197
    0.5000000000000000E+01   -0.6798173142190088-197    0.2929041738546270-169
[...]
POINT_DATA 213
SCALARS rho double 1
LOOKUP_TABLE default
   0.1346125694796169E+01
  -0.2990663683192432E-29
   0.9572084527647176E+00
  -0.9000290939160337E-30
   0.9461020639078127E+00
  -0.9196389450192693E-30
   0.9421833077514700E+00
  -0.1155060018096998E-29
   0.8436100785905051E+00
  -0.1607464647373964E-29
   0.7742024922725261E+00
  -0.1648216129069160E-29
   0.7627632914204219E+00
  -0.1686390481178176E-29
   0.7661496233415019E+00
  -0.1673524054198827E-29
   0.8310481703367267E+00
  -0.1630814937770019E-29
   0.9353608197671143E+00
  -0.1165782550067628E-29
   0.9344036383958095E+00
  -0.9153360713626204E-30
   0.9615898876470026E+00
  -0.9253648379063594E-30
   0.1448480208888123E+01
  -0.3498532018281907E-29
   0.1495421840745494E+01
  -0.3486129795865666E-29
   0.1646754928386004E+01
  -0.4495609904762660E-29
   0.1426608058877443E+01
  -0.3287548907289981E-29
   0.1009808068720545E+01
  -0.1186691155796840E-29
   0.9511456929613186E+00
  -0.1177199653266699E-29
   0.9438291099370217E+00
  -0.1182572573613156E-29
   0.9574489508572959E+00
  -0.8216373347042841E-30
   0.9414832416640702E+00
  -0.7275570360500350E-30
   0.1037118221425503E+01
  -0.1233217290103952E-29
   0.9258147537148551E+00
  -0.7439334109761861E-30
   0.9322497228173979E+00
  -0.8337871963955938E-30
   0.9538141799783577E+00
  -0.1194226961502518E-29
   0.9520438484218448E+00
  -0.1036316363101341E-29
   0.9350971720205272E+00
  -0.1037483081734857E-29
   0.9565537237118933E+00
  -0.1112897046969661E-29
   0.9378700247680086E+00
  -0.1210740333532267E-29
   0.9303318784868112E+00
  -0.7520720292494184E-30
   0.9446515867126493E+00
  -0.9792112259670292E-30
   0.8862352513653065E+00
  -0.6356510134210237E-30
   0.9424046836435384E+00
  -0.8899185094141802E-30
   0.9637217255546104E+00
  -0.3619098386147860E-30
   0.1008362577771465E+01
  -0.7272537658196299E-32
   0.1006713364979950E+01
   0.7273121889893105E-32
   0.1001959240549336E+01
  -0.4789870356502031E-31
   0.1003218316276311E+01
  -0.7467397351208452E-31
   0.1004120538082295E+01
  -0.8423611660491444E-31
   0.1005207992650280E+01
  -0.7402502327181573E-31
   0.1004249813847908E+01
  -0.5997095931089117E-31
   0.1008267843881787E+01
  -0.8963498997311373E-31
   0.1023867443067885E+01
  -0.1811865908754330E-30
   0.1063751875324936E+01
  -0.1307619757218510E-30
   0.1019386187162553E+01
  -0.3785900329766117E-30
   0.1001778934113208E+01
  -0.4757329316385230E-31
   0.9645975233959362E+00
  -0.5029530842610040E-30
   0.1005263110528869E+01
  -0.8609512125046644E-31
   0.1000745578316710E+01
  -0.6849639171862445E-31
   0.1008695104813589E+01
  -0.1111655767884936E-30
   0.1008032475142374E+01
  -0.7639785148484937E-31
   0.1002354650880921E+01
  -0.8168570125314001E-31
   0.9980224682790610E+00
  -0.1446111787605829E-31
   0.1000594440604981E+01
  -0.4967952614146426E-31
   0.1001621537589702E+01
  -0.7634947968243881E-31
   0.9828107810948312E+00
  -0.1431526775699430E-30
   0.9844011041687629E+00
  -0.1426048925886831E-30
   0.9834292502931208E+00
  -0.5258644287197979E-30
   0.9790423922415692E+00
  -0.5045260647683144E-30
   0.9904798796909301E+00
  -0.1145034817089854E-30
   0.9935224893886209E+00
  -0.4223630752756823E-31
   0.1002009103475673E+01
  -0.4309995375747979E-31
   0.1002132311998029E+01
  -0.4050076091577057E-31
   0.1002273033582339E+01
  -0.3956984968955220E-31
   0.1001793219489188E+01
  -0.5061218859324871E-31
   0.1009814972833392E+01
  -0.5987888772683491E-33
   0.1006499311746352E+01
   0.2173782827332203E-32
   0.9560849990714091E+00
  -0.3244779219095459E-30
   0.9252996566846421E+00
  -0.5909926180784919E-30
   0.1007053712651865E+01
  -0.2983232730113482E-33
   0.1004491538498357E+01
  -0.7389331595949663E-32
   0.9144889717497034E+00
  -0.4963914653387446E-30
   0.9091476761027151E+00
  -0.4567297958939057E-30
   0.8752502590928947E+00
  -0.7547572854638713E-30
   0.9768039036525084E+00
  -0.1834827545238906E-30
   0.1000530366597899E+01
  -0.3179214743204716E-31
   0.1005826553460180E+01
   0.7673413487748707E-32
   0.1012895293779666E+01
   0.6245026035062589E-31
   0.1011677102427479E+01
   0.2730919407936679E-31
   0.1010415988351595E+01
   0.5992458296979061E-31
   0.1005456560095714E+01
  -0.7116105160252177E-32
   0.9909260255110179E+00
  -0.1398428093950841E-30
   0.1005152543423358E+01
   0.2745448709293759E-31
   0.9860803849583185E+00
  -0.5832990679474098E-31
   0.1005592650627448E+01
   0.4285898284835252E-31
   0.1004239968494962E+01
  -0.6075958360349263E-31
   0.1002886283632248E+01
  -0.5570698720786197E-31
   0.1003350788888626E+01
  -0.5469717285551168E-31
   0.1003998912068585E+01
  -0.5711075689694031E-31
   0.1005116700254014E+01
  -0.7528277756789584E-31
   0.1003224183257986E+01
  -0.8074974099206623E-31
   0.1002669183700799E+01
  -0.6921608666025064E-31
   0.1002590255848407E+01
  -0.7684577159701723E-31
   0.1004070004659132E+01
  -0.6264528961217490E-31
   0.1004304937933142E+01
  -0.6497519103916859E-31
   0.1001643036025503E+01
  -0.8112189401369258E-31
   0.1002279357321900E+01
  -0.7405513380803707E-31
   0.1002547248781977E+01
  -0.7074029070044858E-31
   0.1003472641567325E+01
  -0.8800598917366722E-31
   0.1003380931080902E+01
  -0.7982417671039930E-31
   0.1003233776571531E+01
  -0.5851147170308244E-31
   0.1004430854293400E+01
  -0.8068061446902691E-31
   0.1004325283197199E+01
  -0.8140332882125563E-31
   0.1003653379478007E+01
  -0.5756692327921770E-31
   0.1003719191863772E+01
  -0.7809586971311259E-31
   0.1004319534138409E+01
  -0.8060962078300083E-31
   0.1004463155501089E+01
  -0.9047599481151893E-31
   0.1003629980599647E+01
  -0.8347036430551947E-31
   0.1064490581493545E+01
  -0.1009243167009021E-30
   0.1028445780971468E+01
  -0.1985449341024039E-30
   0.1009607603147356E+01
  -0.9533578543114778E-31
   0.1006626774102676E+01
  -0.8390258124086601E-31
   0.1163979474301378E+01
  -0.5829197525316596E-30
   0.1086026004530845E+01
  -0.8543276915961278E-31
   0.1007908398971676E+01
  -0.9245054307251810E-31
   0.1007252664643614E+01
  -0.8875820297295071E-31
   0.1006796746946192E+01
  -0.7935520735609089E-31
   0.1013053608644299E+01
  -0.1623541511265511E-30
   0.1019342644427341E+01
  -0.1758381615535313E-30
   0.1235143811205287E+01
  -0.1086737464421889E-29
   0.1032536232933634E+01
  -0.9026670117569720E-31
   0.1046567728934203E+01
  -0.2794847798376633E-30
   0.1201703012923367E+01
  -0.8353458287714568E-30
   0.1014671125332394E+01
  -0.1237270948529264E-30
   0.1032295324199352E+01
  -0.2131372892672211E-30
   0.1028222151031622E+01
  -0.2591309614267726E-30
   0.1014641483573335E+01
  -0.1733529448451000E-30
   0.1029002257770446E+01
  -0.4098639107877269E-30
   0.1002002818476381E+01
  -0.5134483909210518E-31
   0.9607830580820068E+00
  -0.4525445919477314E-30
   0.1006859706957371E+01
  -0.8889621412551742E-31
   0.1001326954010040E+01
  -0.6698039879251882E-31
   0.1010800868392034E+01
  -0.1140626745212978E-30
   0.1012237273234303E+01
  -0.8474339821036575E-31
   0.1000940436429746E+01
  -0.8009538597484483E-31
   0.9979317235317203E+00
  -0.1552796381561825E-31
   0.9980683699440426E+00
  -0.5354415919673883E-31
   0.1001191956733436E+01
  -0.7139540400779642E-31
   0.9841985797708261E+00
  -0.1124207970307095E-30
   0.9815070579349495E+00
  -0.1156478374340883E-30
   0.9648654914695793E+00
  -0.4677965730806984E-30
   0.9680713427302869E+00
  -0.4779793261578805E-30
   0.9914149190810115E+00
  -0.1182691445725209E-30
   0.9910916479216320E+00
  -0.4125687250245465E-31
   0.9925598184525991E+00
  -0.1301252155090650E-31
   0.1001728510387250E+01
  -0.5348248140807697E-31
   0.9993250772469866E+00
  -0.2591979170332554E-31
   0.9941444029265150E+00
  -0.7424668038009616E-32
   0.1006981383545158E+01
  -0.1135763368910354E-31
   0.1022611654050734E+01
  -0.6399063393891914E-31
   0.1001121691833200E+01
  -0.1090000823503532E-30
   0.1008784265586799E+01
  -0.1044827110538376E-30
   0.1004775043985261E+01
  -0.8932315751754428E-31
   0.1009029447306728E+01
  -0.1083772292287685E-30
   0.9967197949768091E+00
  -0.5481036915727903E-31
   0.1005567613152644E+01
  -0.5408978323828335E-30
   0.1003325685873304E+01
  -0.8309566456583885E-31
   0.9949865129967020E+00
  -0.3648191053237894E-31
   0.9833521892790531E+00
  -0.6097976944071658E-31
   0.9944521638504091E+00
  -0.1718066899136166E-31
   0.9973482230863591E+00
  -0.1868193165977080E-31
   0.9932519263849513E+00
  -0.6891038846528800E-32
   0.1001312608249049E+01
  -0.6994579579113205E-31
   0.1003001448725934E+01
  -0.7913270348629216E-31
   0.1002189173482838E+01
  -0.6706269707500649E-31
   0.9947119516184391E+00
   0.1606213788033838E-31
   0.9937839725485349E+00
  -0.1967510136628171E-31
   0.1004862069432106E+01
  -0.9258656143383032E-31
   0.1020102936709553E+01
  -0.5206943492200702E-31
   0.1005341234391229E+01
  -0.7753811719157604E-31
   0.9817063601277448E+00
  -0.5874945704844118E-31
   0.1004975501327930E+01
  -0.8294741217129662E-31
   0.1012376568815317E+01
  -0.1079729592553405E-30
   0.9873747459242614E+00
  -0.4721383045924623E-30
   0.9551282272141167E+00
  -0.3482250402637485E-30
   0.9865280377056408E+00
  -0.7983586790849485E-31
   0.9865952832622860E+00
  -0.7622537769632169E-31
   0.9920084248960092E+00
  -0.4497307763743278E-30
   0.9934470865439923E+00
  -0.9430069946603240E-31
   0.9960657346530506E+00
  -0.4989292705827358E-30
   0.1037405690909356E+01
  -0.9723009730453034E-31
   0.1033165796316031E+01
  -0.3283807504093927E-30
   0.1001443358073574E+01
  -0.3862102695881677E-31
   0.1001929574473309E+01
  -0.7325864394136036E-31
   0.9912286695852768E+00
  -0.3889580159030685E-32
   0.9911121698768728E+00
  -0.2743937187668095E-31
   0.9649300819288704E+00
  -0.2244589436519046E-30
   0.9933729920342942E+00
  -0.2626310277762089E-31
   0.1006089075111743E+01
   0.7900169654519850E-34
   0.1001962080811798E+01
  -0.2967017461524560E-32
   0.9908628495068609E+00
  -0.4229273056881551E-31
   0.9742274508734906E+00
  -0.2550627480595024E-30
   0.9420781785086658E+00
  -0.5831922911317965E-30
   0.9821604770833178E+00
  -0.2774289289966000E-30
   0.9794777371334424E+00
  -0.5877054781187807E-31
   0.9704352201667027E+00
  -0.4067928903414916E-30
   0.9720842372276908E+00
  -0.2975296033373112E-30
   0.9557868488075300E+00
  -0.2043894982905900E-30
   0.9497981758175315E+00
  -0.3653562380854679E-30
   0.9529847958461071E+00
  -0.6016465105936019E-30
   0.1002637256815284E+01
  -0.8841139052863317E-31
   0.1002476301970758E+01
  -0.8034540569062191E-31
   0.1000513242287925E+01
  -0.4708387051948048E-31
   0.1001675737919762E+01
   0.3905463105998572E-32
   0.9610108169557017E+00
  -0.5831152635870107E-30
   0.9492469479940656E+00
  -0.6704298820039775E-30
   0.9586432519906313E+00
  -0.6015836058184740E-30
   0.1001121462568686E+01
  -0.7278702722490931E-31
   0.1000500591166404E+01
  -0.5864617594252515E-31
   0.1001161102485527E+01
  -0.2235858346493029E-31
   0.9807429276960815E+00
  -0.5793026012107055E-31
   0.9805608284045668E+00
  -0.2767568261801678E-30
   0.9629214371681071E+00
  -0.4945526774144717E-30
SCALARS u double 1
LOOKUP_TABLE default
   0.0000000000000000E+00
   0.0000000000000000E+00
   0.0000000000000000E+00
   0.0000000000000000E+00
   0.0000000000000000E+00
   0.0000000000000000E+00
   0.0000000000000000E+00
   0.0000000000000000E+00
   0.0000000000000000E+00
   0.0000000000000000E+00
   0.0000000000000000E+00
   0.0000000000000000E+00
   0.0000000000000000E+00
   0.0000000000000000E+00
   0.0000000000000000E+00
   0.0000000000000000E+00
   0.0000000000000000E+00
   0.0000000000000000E+00
   0.0000000000000000E+00
   0.0000000000000000E+00
   0.0000000000000000E+00
   0.0000000000000000E+00
   0.0000000000000000E+00
   0.0000000000000000E+00
   0.0000000000000000E+00
   0.0000000000000000E+00
   0.0000000000000000E+00
   0.0000000000000000E+00
   0.0000000000000000E+00
   0.0000000000000000E+00
   0.0000000000000000E+00
   0.0000000000000000E+00
   0.0000000000000000E+00
   0.0000000000000000E+00
   0.0000000000000000E+00
   0.0000000000000000E+00
   0.0000000000000000E+00
   0.0000000000000000E+00
   0.0000000000000000E+00
   0.0000000000000000E+00
   0.0000000000000000E+00
   0.0000000000000000E+00
   0.0000000000000000E+00
   0.0000000000000000E+00
   0.0000000000000000E+00
   0.0000000000000000E+00
   0.0000000000000000E+00
   0.0000000000000000E+00
   0.0000000000000000E+00
   0.0000000000000000E+00
   0.0000000000000000E+00
   0.0000000000000000E+00
   0.0000000000000000E+00
   0.0000000000000000E+00
   0.0000000000000000E+00
   0.0000000000000000E+00
   0.0000000000000000E+00
   0.0000000000000000E+00
   0.0000000000000000E+00
   0.0000000000000000E+00
   0.0000000000000000E+00
   0.0000000000000000E+00
   0.0000000000000000E+00
   0.0000000000000000E+00
   0.0000000000000000E+00
   0.0000000000000000E+00
   0.4946084390403328E+00
   0.2834775967663177E-30
   0.5336296229396240E+00
  -0.1014734411392111E-30
   0.5182737288741379E+00
  -0.9677264614815869E-31
   0.4930696975718009E+00
   0.8901335129375980E-33
   0.4847718119408583E+00
   0.8805234432140149E-31
   0.4868108136215764E+00
   0.1169856463591583E-30
   0.4891429098222738E+00
   0.1080163792666337E-30
   0.4958014376856377E+00
   0.6399931101325096E-31
   0.4899016128305102E+00
   0.9608506140067894E-31
   0.4718097598415653E+00
   0.1764327552399472E-30
   0.4448926899587166E+00
   0.1645281234414262E-30
   0.4844425910270774E+00
  -0.1805477469619692E-30
   0.5097672109152633E+00
   0.5981313223639154E-32
   0.4402157107389260E+00
   0.3068270852853465E-30
   0.4949584587264924E+00
   0.8495430682324083E-31
   0.5222981757400272E+00
   0.3672298191631903E-31
   0.4962761335160898E+00
   0.8894811908613401E-31
   0.5223877814044893E+00
   0.5360382850161270E-31
   0.5038134104987514E+00
   0.6863829762914997E-31
   0.5644352140169032E+00
  -0.3955104890822425E-31
   0.5245862239270115E+00
   0.1275924869244659E-31
   0.4990946955700133E+00
   0.6525328910451013E-31
   0.5729384848058994E+00
   0.2134678713225440E-31
   0.5693720714277644E+00
   0.6540721608191422E-31
   0.3752129680555535E+00
  -0.9456076399743051E-31
   0.4003935337289380E+00
   0.9268643523674095E-31
   0.5599622500290230E+00
  -0.6610442168645932E-31
   0.5562276759088325E+00
  -0.1106758586831553E-31
   0.4942631174083063E+00
  -0.6408439427211677E-32
   0.4948654038379431E+00
  -0.1147596558832185E-31
   0.4925634782160286E+00
  -0.1434990558491955E-31
   0.4913991786278480E+00
   0.2158670660149139E-32
   0.5162611628896525E+00
  -0.9256088919530179E-31
   0.5363588932424876E+00
  -0.9258727161410804E-31
   0.4951213607875153E+00
   0.2900738700615410E-30
   0.4520531595291048E+00
   0.4842449501748117E-30
   0.5129024774601991E+00
  -0.8252611744580415E-31
   0.5117690526466567E+00
  -0.7246207986455564E-31
   0.4786251287211864E+00
   0.4594989521578145E-30
   0.4931155293858609E+00
   0.4371873454394442E-30
   0.4600306954373315E+00
   0.6828193004845570E-30
   0.5242629198942653E+00
   0.1557623831876098E-30
   0.5299866667529139E+00
  -0.3236894337457921E-31
   0.5129711999262131E+00
  -0.8878647049687950E-31
   0.5328938855274175E+00
  -0.1513516397568817E-30
   0.5309772093587930E+00
  -0.1281426218936289E-30
   0.5309771260032697E+00
  -0.1482041372408426E-30
   0.5063651410167986E+00
  -0.6587381923587372E-31
   0.5279605765589329E+00
   0.4300516427635039E-31
   0.5409254473520710E+00
  -0.1268979379964212E-30
   0.5363677255166450E+00
   0.5140834175182637E-31
   0.5374194372046833E+00
  -0.1016893704033670E-30
   0.4965359093627150E+00
   0.5804543387541707E-31
   0.4975361620576711E+00
   0.5383166158495214E-31
   0.4963807509447989E+00
   0.5819082920649756E-31
   0.4955144774623493E+00
   0.6224580514483247E-31
   0.4904151887411498E+00
   0.1101908446898425E-30
   0.4902491479027394E+00
   0.1164947745213704E-30
   0.4861626503315317E+00
   0.8528231536638657E-31
   0.4854037739486355E+00
   0.7347688725463903E-31
   0.4931941380558101E+00
   0.9091346513474757E-31
   0.4910329234529697E+00
   0.9730698550172044E-31
   0.4831698316704777E+00
   0.7457993130937611E-31
   0.4872469605539427E+00
   0.6268056269885273E-31
   0.4880010969404901E+00
   0.5249000204790457E-31
   0.4872294036566910E+00
   0.1049940009497956E-30
   0.4882160211825602E+00
   0.1149046196969480E-30
   0.4952567366102103E+00
   0.7898142102305790E-31
   0.4900705809522938E+00
   0.1213464810844250E-30
   0.4903581267311296E+00
   0.1197895024693345E-30
   0.4944346859693042E+00
   0.8675710485989117E-31
   0.4868163397682812E+00
   0.1056459934700157E-30
   0.4892720557096082E+00
   0.1154439195053763E-30
   0.4881455378810494E+00
   0.1227741051608410E-30
   0.4878245184536370E+00
   0.1118330244665798E-30
   0.4449022026406371E+00
   0.1404857275431246E-30
   0.4700099664047585E+00
   0.1830406086622792E-30
   0.4891756201751466E+00
   0.9803500358252441E-31
   0.4885980866227755E+00
   0.9448821405288146E-31
   0.4510286412221171E+00
   0.3697677287914890E-30
   0.4681799610771222E+00
   0.1200700303439093E-30
   0.4876648975240562E+00
   0.9987572266147957E-31
   0.4868253758067017E+00
   0.1004704044197395E-30
   0.4909267533148833E+00
   0.8142242235606063E-31
   0.4793946319363193E+00
   0.1541761703844599E-30
   0.4657884653213606E+00
   0.1784103076268458E-30
   0.3794302312506677E+00
   0.5850306235567917E-30
   0.4903697421167736E+00
   0.4976462950918726E-31
   0.4487929174615825E+00
   0.2266976338071945E-30
   0.4432385355260891E+00
   0.4348985708625669E-30
   0.4845729179217876E+00
   0.1264161131604025E-30
   0.4621884481320300E+00
   0.1945523045810846E-30
   0.4663602298884587E+00
   0.1858948694942997E-30
   0.4747774268406429E+00
   0.1717969696665581E-30
   0.4893613112006184E+00
  -0.1582423003898815E-30
   0.5085681474237980E+00
  -0.2597872859880876E-32
   0.4304904287089589E+00
   0.3582092114114650E-30
   0.4927280753895716E+00
   0.8994832756121513E-31
   0.5320316185099452E+00
  -0.8731725519595464E-34
   0.4913826501723291E+00
   0.9521967676298017E-31
   0.5209404404684790E+00
   0.3480993833876508E-31
   0.5061319828047666E+00
   0.5784375741249171E-31
   0.5690636320470002E+00
  -0.4732813701678549E-31
   0.5275039918422009E+00
  -0.2581704450272674E-32
   0.5015047795155804E+00
   0.5735611757905587E-31
   0.5821373618613810E+00
   0.6478770774034053E-31
   0.5691503700217415E+00
   0.1035678129612235E-30
   0.3402452490602643E+00
   0.4511655424543898E-31
   0.3785432685556857E+00
   0.1839709590060039E-30
   0.5753091283338713E+00
  -0.5264062664248525E-31
   0.5668547247073885E+00
  -0.3677682289387885E-31
   0.5703055450940471E+00
  -0.1227412916693349E-31
   0.5291879661617330E+00
   0.1309932058118851E-31
   0.5449833828652858E+00
   0.1417699800149665E-31
   0.5719093999232532E+00
  -0.1536493054812834E-31
   0.5385694587091797E+00
   0.5555634464285460E-31
   0.5475896936889282E+00
   0.5157270754837671E-31
   0.5821565652939825E+00
  -0.3646273904016007E-31
   0.4925313046001150E+00
   0.7994457220818821E-31
   0.5041557177772624E+00
   0.6757634516383135E-31
   0.4961299804140890E+00
   0.8951777490929178E-31
   0.5562803684740081E+00
  -0.4525751650428957E-31
   0.4757814624157540E+00
  -0.3143702447313843E-30
   0.4950174786318901E+00
   0.9086091595242876E-31
   0.5496174672072778E+00
   0.1225786980673872E-32
   0.5889519110818258E+00
   0.4384949892833330E-31
   0.5839568631087244E+00
  -0.1998348963470408E-31
   0.5468163498067902E+00
  -0.1347617680404897E-31
   0.5803877175569184E+00
  -0.2163948537817210E-31
   0.5106055693788857E+00
   0.4864879044607351E-31
   0.5029532236716212E+00
   0.7140605503789978E-31
   0.5033085380851459E+00
   0.4649491093709368E-31
   0.5676232052870120E+00
  -0.5848016448674653E-31
   0.5564629528967077E+00
  -0.1224119287413489E-31
   0.4947135441323421E+00
   0.8285027031452201E-31
   0.5506799461326947E+00
  -0.2235596689431926E-31
   0.5513545696829873E+00