title="tecplot geometry and solution file"
variables = x y z mach temperature lambda1 lambda2 lambda3 lambda4 lambda5
zone t="boundary 1 bc-1", solutiontime= 0.7000000E+02, strandid=1001, i=32, j=46, f=feblock
 -0.547468544169E-02  0.000000000000E+00 -0.567606031243E-02  0.000000000000E+00  0.000000000000E+00  0.000000000000E+00 -0.525159244851E-02
 -0.425776897977E-02  0.000000000000E+00  0.000000000000E+00  0.000000000000E+00  0.000000000000E+00  0.000000000000E+00  0.000000000000E+00
  0.000000000000E+00  0.000000000000E+00 -0.338395986572E-02  0.000000000000E+00  0.000000000000E+00  0.000000000000E+00  0.000000000000E+00
  0.000000000000E+00  0.000000000000E+00  0.000000000000E+00  0.000000000000E+00  0.000000000000E+00  0.000000000000E+00  0.000000000000E+00
  0.000000000000E+00  0.000000000000E+00  0.000000000000E+00  0.000000000000E+00
  0.250494197117E+01  0.250494197117E+01  0.127822156907E+01  0.146289271009E+01  0.157686156160E+01  0.308372018325E+00  0.261948602442E-01
 -0.122573481164E+01 -0.600232012419E+00  0.250494197117E+01  0.477386199275E+00  0.742988685424E+00 -0.739814786992E+00  0.177790177481E+01
  0.155830813274E+01  0.250494197117E+01 -0.249658903664E+01 -0.154800130438E+01 -0.487811078581E+00  0.250494197117E+01  0.627766083140E+00
 -0.345533899378E+00 -0.178862290564E+01 -0.158811787973E+01  0.125000000000E+01 -0.249658903664E+01 -0.144524380962E+01  0.000000000000E+00
 -0.125000000000E+01 -0.249658903664E+01 -0.249658903664E+01 -0.249658903664E+01
  0.803813859866E-04  0.125000000000E+01  0.822460170216E-04  0.103724302461E+01  0.219251206392E+01  0.922061490191E+00  0.103872438719E-03
  0.341545874231E-04  0.715990576545E+00  0.250000000000E+01  0.202479342020E+01  0.324151231464E+01  0.175434191980E+01  0.310152362409E+01
  0.404200324774E+01  0.375000000000E+01  0.810725962649E-04  0.930412228790E+00  0.299062775774E+01  0.500000000000E+01  0.429310310915E+01
  0.409252726285E+01  0.187029682677E+01  0.284428995242E+01  0.500000000000E+01  0.125000000000E+01  0.394624082883E+01  0.500000000000E+01
  0.500000000000E+01  0.250000000000E+01  0.375000000000E+01  0.500000000000E+01
  0.000000000000E+00  0.440672136512E+00  0.000000000000E+00  0.474618025820E+00  0.460125068601E+00  0.468639320143E+00  0.000000000000E+00
  0.000000000000E+00  0.402534623939E+00  0.469886789982E+00  0.464193107367E+00  0.478749739491E+00  0.489555756507E+00  0.483130037990E+00
  0.488002902366E+00  0.489035017215E+00  0.000000000000E+00  0.465237698331E+00  0.473759127176E+00  0.495364848064E+00  0.490293257191E+00
  0.486276632093E+00  0.445850265191E+00  0.464356446519E+00  0.496127940578E+00  0.443891909404E+00  0.486928147025E+00  0.497248366859E+00
  0.496055083747E+00  0.467740399690E+00  0.488187228171E+00  0.495089980244E+00
  0.999990300362E+00  0.102982970104E+01  0.999990762612E+00  0.104241436388E+01  0.101187663318E+01  0.102516400612E+01  0.999991420552E+00
  0.999992171067E+00  0.103882325429E+01  0.100825795511E+01  0.101253536096E+01  0.100301645575E+01  0.102705594255E+01  0.100604114309E+01
  0.100244532432E+01  0.100354817652E+01  0.999992724186E+00  0.103209991946E+01  0.100459425771E+01  0.100178625606E+01  0.100260326526E+01
  0.100234745937E+01  0.101657167924E+01  0.100620610961E+01  0.100168369530E+01  0.104025009063E+01  0.100303477791E+01  0.100118721261E+01
  0.100134451878E+01  0.100976460100E+01  0.100405634212E+01  0.100176433139E+01
  0.610129923225E-02  0.306716106244E-01  0.698494811078E-02  0.492836781035E-01  0.346862141088E-02  0.587059676712E-01  0.512165754530E-02
  0.170598237788E-02  0.582732515064E-01 -0.164995248809E-02  0.389953022178E-02 -0.701958835104E-02  0.329293713973E-02 -0.389670498903E-02
 -0.933379103002E-02 -0.931134384808E-02  0.308604613666E-02  0.385674840469E-01 -0.515851101467E-02 -0.339852405836E-01 -0.121361466878E-01
 -0.812690830728E-02  0.186574583442E-02 -0.443745070514E-02 -0.351890939413E-01  0.248759635664E-01 -0.633150307194E-02 -0.387855910072E-01
 -0.342302823956E-01 -0.361021497172E-02 -0.697141732486E-02 -0.321706553634E-01
  0.239193327102E-03  0.444690398275E-02  0.331468287007E-03  0.629797491242E-02  0.165103215489E-03  0.888125468393E-02  0.361485945951E-03
  0.321555625431E-03  0.868020724303E-02 -0.782603191017E-03  0.347082571426E-03 -0.148142156195E-02 -0.971839053753E-04 -0.114287151693E-02
 -0.182978752067E-02 -0.204919605601E-02  0.284324143013E-03  0.601318340600E-02 -0.103416907436E-02 -0.697903121123E-02 -0.240637991472E-02
 -0.155610076901E-02 -0.207720128890E-03 -0.851542818417E-03 -0.736738763160E-02  0.306409075674E-02 -0.124804099481E-02 -0.814802115935E-02
 -0.716145284882E-02 -0.904775856393E-03 -0.148496440417E-02 -0.669180330752E-02
  0.405817013847E-03  0.128356928216E-03  0.546884956785E-03  0.125031024540E-02  0.147352991585E-03  0.606722009614E-03  0.467396497394E-03
 -0.174854009414E-03 -0.333211384750E-04 -0.133078976129E-04  0.128347566522E-03  0.133156986770E-03 -0.140617285338E-03  0.250991471820E-04
 -0.495600633316E-04 -0.287138093806E-05 -0.245073121674E-03 -0.794134828468E-03  0.152612193963E-04  0.332386564230E-05 -0.320427900398E-04
 -0.381293597064E-04 -0.165275888954E-04 -0.137082725542E-03  0.897585182785E-04 -0.102521553950E-03 -0.785938433041E-04 -0.171187280870E-04
 -0.755962526550E-04 -0.219850907083E-04 -0.801657742899E-05  0.654904336318E-05
 -0.147369373231E-02 -0.134232842623E-02 -0.160704540412E-02 -0.713595687599E-05  0.142118690212E-02  0.153397996224E-02 -0.899993146574E-03
 -0.786601353847E-03  0.108729783538E-02  0.155237099091E-02  0.289652917204E-02  0.159507312401E-02  0.319732235172E-02  0.148279149001E-02
  0.109559100448E-02  0.128763660581E-02 -0.609660945865E-03  0.916844701143E-03  0.183380067507E-02  0.461658998379E-03  0.101739773851E-02
  0.121216203735E-02  0.217918277901E-02  0.148770175014E-02  0.443203164294E-03  0.112530544587E-02  0.111191378960E-02  0.419535719944E-03
  0.501268772132E-03  0.168637885681E-02  0.113900508919E-02  0.491825438212E-03
 -0.487347767026E-02 -0.126325489270E-01 -0.665636108584E-02 -0.197247323854E-01 -0.144244375442E-02 -0.243687324589E-01  0.325552969031E-03
  0.104266197916E-02 -0.242167463535E-01  0.663711704733E-03 -0.170497238628E-02  0.274439659577E-02 -0.142036269162E-02  0.153547866513E-02
  0.372763476881E-02  0.375539611734E-02 -0.101640115972E-02 -0.161237573446E-01  0.191163866045E-02  0.141084867152E-01  0.490135939217E-02
  0.321411058594E-02 -0.897667919152E-03  0.158959200798E-02  0.146345874618E-01 -0.101412322927E-01  0.246913203444E-02  0.161775573930E-01
  0.142445456076E-01  0.131292039408E-02  0.276987760939E-02  0.133525624595E-01
        12        19        11        11
        11         5        12        12
        10        14         5         5
        19        13        11        11
        19        24        13        13
        30        23        24        24
        19        12        22        22
        28        22        21        21
        11        13         6         6
         7         6         9         9
        15        12        14        14
        18        13        23        23
        15        25        21        21
        27        19        22        22
        18         8         9         9
        27        31        24        24
         4        11         6         6
         5        14        12        12
         4         2         5         5
        21        12        15        15
        14        16        15        15
        24        19        27        27
        22        29        27        27
        23        26        18        18
        17         8        18        18
         5        11         4         4
         6         3         4         4
        26        23        30        30
         5         2        10        10
        16        14        10        10
         3         6         7         7
        21        25        28        28
        29        22        28        28
         6        13         9         9
         2         4         1         1
        31        27        32        32
        25        15        20        20
        24        23        13        13
         8         7         9         9
        13        18         9         9
        31        30        24        24
        12        21        22        22
        29        32        27        27
         3         1         4         4
        26        17        18        18
        16        20        15        15
zone t="boundary 2 bc-2", solutiontime= 0.7000000E+02, strandid=1002, i=33, j=48, f=feblock
  0.500195253374E+01  0.375034811161E+01  0.249861146299E+01  0.288036674177E+01  0.124717526933E+01  0.190856698521E+01  0.326577190273E+01
  0.201394856120E+01 -0.338395986572E-02  0.962374249381E+00  0.500000000000E+01  0.403430190008E+01  0.423029563807E+01  0.500000000000E+01
  0.385439188940E+01  0.500000000000E+01  0.398133433176E+01  0.315200081417E+01  0.266958028869E+01  0.154798029824E+01  0.218327860466E+01
  0.893688440338E+00  0.000000000000E+00  0.699009761768E+00  0.964460899052E+00  0.310303671659E+01  0.000000000000E+00  0.000000000000E+00
  0.125000000000E+01  0.500000000000E+01  0.375000000000E+01  0.250000000000E+01  0.000000000000E+00
 -0.249658903664E+01 -0.249658903664E+01 -0.249658903664E+01 -0.249658903664E+01 -0.249658903664E+01 -0.249658903664E+01 -0.249658903664E+01
 -0.249658903664E+01 -0.249658903664E+01 -0.249658903664E+01 -0.249658903664E+01 -0.249658903664E+01 -0.249658903664E+01 -0.249658903664E+01
 -0.249658903664E+01 -0.249658903664E+01 -0.249658903664E+01 -0.249658903664E+01 -0.249658903664E+01 -0.249658903664E+01 -0.249658903664E+01
 -0.249658903664E+01 -0.249658903664E+01 -0.249658903664E+01 -0.249658903664E+01 -0.249658903664E+01 -0.249658903664E+01 -0.249658903664E+01
 -0.249658903664E+01 -0.249658903664E+01 -0.249658903664E+01 -0.249658903664E+01 -0.249658903664E+01
  0.108225889030E-03  0.145875369682E-03  0.100893326425E-03  0.901663374396E+00  0.110858761917E-03  0.714928318829E+00  0.188140648011E+01
  0.175892165504E+01  0.810725962649E-04  0.957504300331E+00  0.125000000000E+01  0.100596698996E+01  0.191313519089E+01  0.250000000000E+01
  0.292898096716E+01  0.375000000000E+01  0.406883369524E+01  0.363389289944E+01  0.284756860985E+01  0.292582308120E+01  0.395754054931E+01
  0.205027256979E+01  0.125000000000E+01  0.306703272692E+01  0.397155766662E+01  0.433068622168E+01  0.250000000000E+01  0.375000000000E+01
  0.500000000000E+01  0.500000000000E+01  0.500000000000E+01  0.500000000000E+01  0.500000000000E+01
  0.000000000000E+00  0.000000000000E+00  0.000000000000E+00  0.380534933893E+00  0.000000000000E+00  0.343213081171E+00  0.585244496925E+00
  0.579499344205E+00  0.000000000000E+00  0.500959578913E+00  0.508769460148E+00  0.434312419771E+00  0.572817919451E+00  0.537160208080E+00
  0.569105645782E+00  0.515014970171E+00  0.508256765061E+00  0.527354036988E+00  0.567656182489E+00  0.531857069084E+00  0.506013391179E+00
  0.521044573739E+00  0.443891909404E+00  0.490703078146E+00  0.492147926412E+00  0.501388000320E+00  0.467740399690E+00  0.488187228171E+00
  0.489959820989E+00  0.491323935798E+00  0.486019442841E+00  0.489980976742E+00  0.495089980244E+00
  0.999993488485E+00  0.999993690942E+00  0.999993544242E+00  0.989596674085E+00  0.999993139053E+00  0.985604091028E+00  0.989839488847E+00
  0.991730617690E+00  0.999992724186E+00  0.984220387528E+00  0.985139981863E+00  0.984817712566E+00  0.990066477090E+00  0.100292374828E+01
  0.999857731400E+00  0.100487268684E+01  0.100122724769E+01  0.100056983810E+01  0.997888256964E+00  0.100350942201E+01  0.100059365414E+01
  0.101090707434E+01  0.104025009063E+01  0.100327959733E+01  0.100254952730E+01  0.100046804572E+01  0.100976460100E+01  0.100405634212E+01
  0.100192626091E+01  0.100045827286E+01  0.100058947226E+01  0.100110091494E+01  0.100176433139E+01
 -0.252330487942E-02 -0.197836621863E-02 -0.121459745496E-02  0.238871103682E-01  0.241586183472E-02  0.783249452313E-01 -0.513268757224E-02
  0.945451836682E-03  0.308604613666E-02  0.364110479659E-01 -0.659539632286E-02 -0.762573666268E-02 -0.517678828651E-02 -0.442551220243E-02
 -0.325421247436E-02 -0.297003834871E-02 -0.218678533275E-02 -0.253089911082E-02 -0.418838460772E-02 -0.501215374539E-02 -0.329352939110E-02
  0.131166697625E-02  0.248759635664E-01 -0.338760318650E-02 -0.608983159147E-02 -0.396506082748E-02 -0.361021497172E-02 -0.697141732486E-02
 -0.289373546244E-01 -0.345683964607E-02 -0.132315415421E-01 -0.254248108603E-01 -0.321706553634E-01
  0.688017511760E-03 -0.192413016197E-03  0.186016240439E-04  0.410457408101E-02 -0.447445722319E-03  0.973191000799E-02 -0.195190587764E-04
 -0.387698634876E-03  0.284324143013E-03  0.429782599061E-02  0.149329781328E-02  0.510347900736E-04  0.758601268545E-03  0.113146537990E-02
  0.753199109693E-03  0.696408258460E-03  0.834179968726E-03  0.695142164068E-03  0.255886701176E-03 -0.423834843206E-03  0.298491588518E-03
 -0.360628104569E-03  0.306409075674E-02 -0.230052333767E-03 -0.701311823483E-03  0.411793463178E-03 -0.904775856393E-03 -0.148496440417E-02
 -0.520556008358E-02  0.174285302775E-03 -0.132936078644E-02 -0.395250281674E-02 -0.669180330752E-02
 -0.155436671309E-03  0.411018472446E-04  0.241698284010E-03  0.557908594365E-03  0.128340268155E-03  0.973142448762E-03 -0.761032399016E-04
  0.867706104722E-05 -0.245073121674E-03  0.373150048697E-03 -0.884472288930E-04 -0.284864285020E-03  0.530084589838E-05  0.835654753563E-05
  0.687429676497E-05 -0.133548072042E-04  0.161898469192E-05 -0.712032419022E-05  0.115808381105E-04  0.276324966257E-04 -0.169170413109E-04
  0.289642108577E-04 -0.102521553950E-03  0.546518312928E-05 -0.265980734475E-05 -0.591907525947E-05 -0.219850907083E-04 -0.801657742899E-05
 -0.261298600736E-05 -0.238092428960E-05  0.519556988801E-06  0.173538146324E-05  0.654904336318E-05
 -0.198495091285E-03 -0.204935691357E-03 -0.309701015757E-03  0.103425720423E-02 -0.716684376736E-03  0.224343024523E-03  0.156042882148E-02
  0.208716680335E-02 -0.609660945865E-03  0.980861977136E-03  0.298756006144E-03  0.109217568331E-02  0.626931682722E-03  0.283381856033E-03
  0.647019655287E-03  0.236866149644E-03  0.629141876753E-03  0.888584559896E-03  0.105425390220E-02  0.109568967100E-02  0.102596602920E-02
  0.165897305231E-02  0.112530544587E-02  0.116587722271E-02  0.102754449135E-02  0.886970795475E-03  0.168637885681E-02  0.113900508919E-02
  0.691322975142E-03  0.368551788829E-03  0.801729858022E-03  0.869536661999E-03  0.491825438212E-03
  0.718496137700E-03  0.197892363829E-02  0.342981611482E-02 -0.108863607969E-01  0.409105199344E-02 -0.335473621281E-01  0.152391574452E-02
 -0.485558408857E-03 -0.101640115972E-02 -0.150873566560E-01  0.142552991552E-02  0.231557469781E-02  0.127166490805E-02  0.848554398953E-03
  0.635872435064E-03  0.600567938104E-03  0.300582603092E-03  0.460749713483E-03  0.114878653636E-02  0.170376538111E-02  0.880390894514E-03
 -0.598242612327E-03 -0.101412322927E-01  0.109205819434E-02  0.222182643505E-02  0.108182189644E-02  0.131292039408E-02  0.276987760939E-02
  0.117573805969E-01  0.104473869521E-02  0.496518308710E-02  0.101091202094E-01  0.133525624595E-01
        15         7        19        19
         8        20        19        19
        18        19        21        21
         7         4         8         8
         3         6         4         4
        19         7         8         8
        19        18        15        15
        14        13        15        15
         8        22        20        20
        27        24        22        22
        19        20        21        21
        32        26        21        21
        17        18        26        26
        17        16        15        15
        25        29        21        21
        12         7        13        13
        10         8         6         6
        25        20        24        24
         4         6         8         8
        12         2         4         4
        10        23        22        22
        26        31        17        17
        30        16        17        17
         4         7        12        12
        13        11        12        12
        21        20        25        25
        24        28        25        25
        22         8        10        10
         6         5        10        10
        31        26        32        32
         4         2         3         3
         5         6         3         3
        11        13        14        14
        22        23        27        27
        28        24        27        27
        15        13         7         7
         2        12         1         1
        29        25        33        33
        23        10         9         9
        21        26        18        18
        16        14        15        15
        18        17        15        15
        29        32        21        21
        22        24        20        20
        28        33        25        25
        11         1        12        12
        31        30        17        17
         5         9        10        10
zone t="boundary 3 bc-3", solutiontime= 0.7000000E+02, strandid=1003, i=33, j=48, f=feblock
  0.375059096892E+01  0.249769609313E+01  0.500322133174E+01  0.403612218725E+01  0.287976772365E+01  0.124541910518E+01  0.190552237404E+01
  0.500000000000E+01  0.326671104552E+01  0.423253755448E+01  0.201271136506E+01 -0.547468544169E-02  0.958895643487E+00  0.500000000000E+01
  0.266968147299E+01  0.385584487271E+01  0.890374214836E+00  0.154654013699E+01  0.000000000000E+00  0.500000000000E+01  0.315261136744E+01
  0.218304199515E+01  0.398195307895E+01  0.000000000000E+00  0.697379952124E+00  0.963757277315E+00  0.125000000000E+01  0.000000000000E+00
  0.500000000000E+01  0.310330738524E+01  0.250000000000E+01  0.375000000000E+01  0.000000000000E+00
  0.250494197117E+01  0.250494197117E+01  0.250494197117E+01  0.250494197117E+01  0.250494197117E+01  0.250494197117E+01  0.250494197117E+01
  0.250494197117E+01  0.250494197117E+01  0.250494197117E+01  0.250494197117E+01  0.250494197117E+01  0.250494197117E+01  0.250494197117E+01
  0.250494197117E+01  0.250494197117E+01  0.250494197117E+01  0.250494197117E+01  0.250494197117E+01  0.250494197117E+01  0.250494197117E+01
  0.250494197117E+01  0.250494197117E+01  0.250494197117E+01  0.250494197117E+01  0.250494197117E+01  0.250494197117E+01  0.250494197117E+01
  0.250494197117E+01  0.250494197117E+01  0.250494197117E+01  0.250494197117E+01  0.250494197117E+01
  0.135649900494E-03  0.110129816467E-03  0.966887303890E-04  0.101756752009E+01  0.908094589218E+00  0.103942505801E-03  0.722629083213E+00
  0.125000000000E+01  0.188965661746E+01  0.191862696980E+01  0.176708239098E+01  0.803813859866E-04  0.969652551954E+00  0.250000000000E+01
  0.285339433501E+01  0.293325058812E+01  0.205656223819E+01  0.293157016932E+01  0.125000000000E+01  0.375000000000E+01  0.363766838842E+01
  0.396069444983E+01  0.407056385475E+01  0.250000000000E+01  0.307031995245E+01  0.397359820314E+01  0.500000000000E+01  0.375000000000E+01
  0.500000000000E+01  0.433260781310E+01  0.500000000000E+01  0.500000000000E+01  0.500000000000E+01
  0.000000000000E+00  0.000000000000E+00  0.000000000000E+00  0.444961626928E+00  0.402838316190E+00  0.000000000000E+00  0.379029001549E+00
  0.508827846411E+00  0.575719767468E+00  0.573484231916E+00  0.562571091033E+00  0.000000000000E+00  0.491643474339E+00  0.534340493553E+00
  0.556353506125E+00  0.564141623675E+00  0.522489639030E+00  0.521815314100E+00  0.440672136512E+00  0.517132480923E+00  0.524064820256E+00
  0.503612613683E+00  0.509416634110E+00  0.469886789982E+00  0.495646532245E+00  0.494503101969E+00  0.488630053423E+00  0.489035017215E+00
  0.492985464012E+00  0.498953669977E+00  0.486505314975E+00  0.484610387305E+00  0.495364848064E+00
  0.999989345567E+00  0.999989414891E+00  0.999989632591E+00  0.981375695393E+00  0.988672653297E+00  0.999989832933E+00  0.982271891095E+00
  0.984075644303E+00  0.990406052732E+00  0.990320090376E+00  0.994390331428E+00  0.999990300362E+00  0.988743428079E+00  0.100365390733E+01
  0.999774597300E+00  0.100117529834E+01  0.100830077599E+01  0.100251293722E+01  0.102982970104E+01  0.100442054131E+01  0.100199281310E+01
  0.100081994749E+01  0.100137956774E+01  0.100825795511E+01  0.100297377722E+01  0.100191712118E+01  0.100214790177E+01  0.100354817652E+01
  0.100047567419E+01  0.100056574043E+01  0.100126719373E+01  0.100066769089E+01  0.100178625606E+01
 -0.170696780858E-02  0.132207098600E-02 -0.282319814569E-02  0.156157645488E-01  0.610978512558E-01  0.384271911517E-02  0.607949817607E-01
 -0.967038351014E-02 -0.492433189247E-02 -0.609281629719E-02  0.101025527431E-01  0.610129923225E-02  0.411699539859E-01 -0.462840409569E-02
 -0.535308342728E-02 -0.380336337461E-02  0.118122449453E-02 -0.517337283918E-02  0.306716106244E-01 -0.315202917292E-02 -0.230353518505E-02
 -0.315301299464E-02 -0.240355617219E-02 -0.164995248809E-02 -0.450961514752E-02 -0.833683372607E-02 -0.256245148002E-01 -0.931134384808E-02
 -0.298751388234E-02 -0.367456420371E-02 -0.239580415970E-01 -0.129989983755E-01 -0.339852405836E-01
 -0.395706375191E-03 -0.383848318546E-03  0.702864381024E-03  0.442188960476E-02  0.844024571523E-02 -0.799463922046E-03  0.752240678149E-02
  0.158570834889E-02 -0.850342448009E-04  0.835479248159E-03  0.183789324970E-03  0.239193327102E-03  0.310158472489E-02  0.121100861862E-02
 -0.766596860941E-04  0.632353597774E-03 -0.114683435769E-02 -0.543420199773E-03  0.444690398275E-02  0.772751442841E-03  0.668048133259E-03
  0.362296837172E-03  0.780343585250E-03 -0.782603191017E-03 -0.105759982726E-02 -0.104813600986E-02 -0.454526566264E-02 -0.204919605601E-02
  0.271633104847E-03  0.430051218868E-03 -0.371580940074E-02 -0.129185096254E-02 -0.697903121123E-02
 -0.747356301528E-04  0.397315438864E-04  0.956353283692E-04 -0.296472223324E-03 -0.858454514906E-03  0.335336086277E-03 -0.127837820183E-04
  0.190251300758E-05 -0.958302749355E-04  0.160419381863E-04 -0.808274813025E-04  0.405817013847E-03  0.465368245309E-03  0.352475359028E-04
 -0.404503460094E-05  0.485518928027E-05 -0.158968074543E-03 -0.597025643736E-04  0.128356928216E-03  0.197179186260E-04  0.966534891710E-05
  0.428264679445E-04  0.767429868741E-06 -0.133078976129E-04 -0.361591558009E-04  0.121955585040E-04  0.171304915388E-04 -0.287138093806E-05
  0.691913432675E-05 -0.250032990428E-06  0.391636228057E-05 -0.101222743545E-05  0.332386564230E-05
 -0.462498246767E-03 -0.866064421239E-03 -0.242260647063E-03  0.654618282026E-03  0.104382872897E-02 -0.834678373726E-03  0.330680327725E-03
  0.374351332340E-03  0.191563528243E-02  0.929875309426E-03  0.277649581420E-02 -0.147369373231E-02  0.912458118021E-03  0.371744568890E-03
  0.986686446282E-03  0.826358488868E-03  0.233921775208E-02  0.105018211211E-02 -0.134232842623E-02  0.329609219983E-03  0.949354444450E-03
  0.981439910807E-03  0.710057364688E-03  0.155237099091E-02  0.151209460993E-02  0.101233619514E-02  0.727848779442E-03  0.128763660581E-02
  0.350540760843E-03  0.922613889523E-03  0.882361349795E-03  0.804643227631E-03  0.461658998379E-03
  0.706470113932E-02  0.301234404068E-02  0.132765211772E-02 -0.812540872903E-02 -0.264541833132E-01  0.190755533928E-03 -0.255324627079E-01
  0.246326728115E-02  0.152867514281E-02  0.157349615895E-02 -0.394621570208E-02 -0.487347767026E-02 -0.162213645600E-01  0.871128915522E-03
  0.169074160821E-02  0.862120608861E-03 -0.353966076434E-03  0.179123004603E-02 -0.126325489270E-01  0.618591538831E-03  0.381131309848E-03
  0.812845953597E-03  0.391873473206E-03  0.663711704733E-03  0.165145867317E-02  0.313655177354E-02  0.103597311950E-01  0.375539611734E-02
  0.846625038843E-03  0.970824197661E-03  0.950677383762E-02  0.486632875024E-02  0.141084867152E-01
        15         9        16        16
        15        18        11        11
        22        15        21        21
        11         5         9         9
         5         7         2         2
        11         9        15        15
        16        21        15        15
        16        10        14        14
        18        17        11        11
        17        25        24        24
        22        18        15        15
        22        30        31        31
        30        21        23        23
        16        20        23        23
        22        27        26        26
        10         9         4         4
         7        11        13        13
        25        18        26        26
        11         7         5         5
         5         1         4         4
        17        19        13        13
        23        32        30        30
        23        20        29        29
         4         9         5         5
         4         8        10        10
        26        18        22        22
        26        28        25        25
        13        11        17        17
        13         6         7         7
        31        30        32        32
         2         1         5         5
         2         7         6         6
        14        10         8         8
        24        19        17        17
        24        25        28        28
         9        10        16        16
         3         4         1         1
        33        26        27        27
        12        13        19        19
        21        30        22        22
        16        14        20        20
        16        23        21        21
        22        31        27        27
        18        25        17        17
        26        33        28        28
         4         3         8         8
        23        29        32        32
        13        12         6         6
zone t="boundary 4 bc-4", solutiontime= 0.7000000E+02, strandid=1004, i=32, j=46, f=feblock
  0.125000000000E+01  0.219251206392E+01  0.103724302461E+01  0.500000000000E+01  0.250000000000E+01  0.375000000000E+01  0.404200324774E+01
  0.500000000000E+01  0.000000000000E+00  0.310152362409E+01  0.202479342020E+01  0.324151231464E+01  0.922061490191E+00  0.000000000000E+00
  0.299062775774E+01  0.394624082883E+01  0.500000000000E+01  0.409252726285E+01  0.500000000000E+01  0.429310310915E+01  0.175434191980E+01
  0.284428995242E+01  0.000000000000E+00  0.000000000000E+00  0.715990576545E+00  0.930412228790E+00  0.125000000000E+01  0.187029682677E+01
  0.500000000000E+01  0.375000000000E+01  0.250000000000E+01  0.000000000000E+00
  0.250494197117E+01  0.157686156160E+01  0.146289271009E+01  0.250494197117E+01  0.250494197117E+01  0.250494197117E+01  0.155830813274E+01
  0.125000000000E+01  0.250494197117E+01  0.177790177481E+01  0.477386199275E+00  0.742988685424E+00  0.308372018325E+00  0.125000000000E+01
 -0.487811078581E+00 -0.144524380962E+01 -0.125000000000E+01 -0.345533899378E+00  0.000000000000E+00  0.627766083140E+00 -0.739814786992E+00
 -0.158811787973E+01  0.000000000000E+00 -0.125000000000E+01 -0.600232012419E+00 -0.154800130438E+01 -0.249658903664E+01 -0.178862290564E+01
 -0.249658903664E+01 -0.249658903664E+01 -0.249658903664E+01 -0.249658903664E+01
  0.500000000000E+01  0.500000000000E+01  0.500000000000E+01  0.500000000000E+01  0.500000000000E+01  0.500000000000E+01  0.500000000000E+01
  0.500000000000E+01  0.500000000000E+01  0.500000000000E+01  0.500000000000E+01  0.500000000000E+01  0.500000000000E+01  0.500000000000E+01
  0.500000000000E+01  0.500000000000E+01  0.500000000000E+01  0.500000000000E+01  0.500000000000E+01  0.500000000000E+01  0.500000000000E+01
  0.500000000000E+01  0.500000000000E+01  0.500000000000E+01  0.500000000000E+01  0.500000000000E+01  0.500000000000E+01  0.500000000000E+01
  0.500000000000E+01  0.500000000000E+01  0.500000000000E+01  0.500000000000E+01
  0.488630053423E+00  0.488907200673E+00  0.490613524454E+00  0.492985464012E+00  0.486505314975E+00  0.484610387305E+00  0.485346346417E+00
  0.494164094826E+00  0.495364848064E+00  0.486544301825E+00  0.487826539497E+00  0.487053944491E+00  0.494057895498E+00  0.496127940578E+00
  0.487590739712E+00  0.483169495133E+00  0.492384717662E+00  0.487198320547E+00  0.494738341209E+00  0.487947262281E+00  0.489650836219E+00
  0.487975047811E+00  0.497248366859E+00  0.496055083747E+00  0.494947818077E+00  0.492777844524E+00  0.489959820989E+00  0.489963118744E+00
  0.491323935798E+00  0.486019442841E+00  0.489980976742E+00  0.495089980244E+00
  0.100214790177E+01  0.100152376261E+01  0.100177920363E+01  0.100047567419E+01  0.100126719373E+01  0.100066769089E+01  0.100025509248E+01
  0.100050308878E+01  0.100178625606E+01  0.100112381228E+01  0.100132857256E+01  0.100072299640E+01  0.100164084009E+01  0.100168369530E+01
  0.100096380429E+01  0.100001109262E+01  0.100083219162E+01  0.100022379580E+01  0.100062130449E+01  0.100023379273E+01  0.100174737467E+01
  0.100099023681E+01  0.100118721261E+01  0.100134451878E+01  0.100132726122E+01  0.100179980273E+01  0.100192626091E+01  0.100163810987E+01
  0.100045827286E+01  0.100058947226E+01  0.100110091494E+01  0.100176433139E+01
 -0.256245148002E-01 -0.248591199258E-01 -0.255304624168E-01 -0.298751388234E-02 -0.239580415970E-01 -0.129989983755E-01 -0.903607574875E-02
 -0.297344858033E-02 -0.339852405836E-01 -0.199239759491E-01 -0.267203004360E-01 -0.187255428059E-01 -0.311246159864E-01 -0.351890939413E-01
 -0.211045816182E-01 -0.870183008986E-02 -0.336852039735E-02 -0.110807153145E-01 -0.276169308489E-02 -0.110691221747E-01 -0.328852465990E-01
 -0.198616239368E-01 -0.387855910072E-01 -0.342302823956E-01 -0.360581885209E-01 -0.289171087295E-01 -0.289373546244E-01 -0.306010681125E-01
 -0.345683964607E-02 -0.132315415421E-01 -0.254248108603E-01 -0.321706553634E-01