TITLE="fun3d_case_title"
VARIABLES="Iteration" "R_1" "R_2" "R_3" "R_4" "R_5" "C_L" "C_D" "C_M_x" "C_M_y" "C_M_z" "Wall Time" "C_x" "C_y" "C_z" "C_Lp" "C_Dp" "C_Lv" "C_Dv" "C_M_xp" "C_M_yp" "C_M_zp" "C_M_xv" "C_M_yv" "C_M_zv" "C_xp" "C_yp" "C_zp" "C_xv" "C_yv" "C_zv"
ZONE  I=100 F=POINT
1  0.6492460283E-05  0.3246230142E-05  0.8265190157E-16  0.1034077656E-15  0.1704270824E-04 -0.4767934525E-03  0.1218677713E-06  0.1127587588E-03 -0.2682110910E-02  0.2685262667E-07  0.3208000000E+00  0.1218677713E-06  0.6752122473E-08 -0.4767934525E-03 -0.4767934525E-03  0.1218677713E-06  0.0000000000E+00  0.0000000000E+00  0.1127587588E-03 -0.2682110910E-02  0.2685262667E-07  0.0000000000E+00  0.0000000000E+00  0.0000000000E+00  0.1218677713E-06  0.6752122473E-08 -0.4767934525E-03  0.0000000000E+00  0.0000000000E+00  0.0000000000E+00
2  0.1137542733E-05  0.1746119891E-05  0.7467250964E-06  0.2187777051E-05  0.3044591046E-05  0.1226074447E-03  0.8397049116E-07  0.2639562782E-04 -0.3815034210E-02  0.1384096260E-07  0.3778000000E+00  0.8397049116E-07  0.2837847803E-08  0.1226074447E-03  0.1226074447E-03  0.8397049116E-07  0.0000000000E+00  0.0000000000E+00  0.2639562782E-04 -0.3815034210E-02  0.1384096260E-07  0.0000000000E+00  0.0000000000E+00  0.0000000000E+00  0.8397049116E-07  0.2837847803E-08  0.1226074447E-03  0.0000000000E+00  0.0000000000E+00  0.0000000000E+00
3  0.6280748184E-06  0.8685037048E-06  0.4016182817E-06  0.9652891742E-06  0.1464127514E-05  0.2120774611E-03  0.5634401844E-07 -0.4040906998E-04 -0.3472694518E-02  0.4438814131E-08  0.4195000000E+00  0.5634401844E-07  0.2887856276E-09  0.2120774611E-03  0.2120774611E-03  0.5634401844E-07  0.0000000000E+00  0.0000000000E+00 -0.4040906998E-04 -0.3472694518E-02  0.4438814131E-08  0.0000000000E+00  0.0000000000E+00  0.0000000000E+00  0.5634401844E-07  0.2887856276E-09  0.2120774611E-03  0.0000000000E+00  0.0000000000E+00  0.0000000000E+00
4  0.3637544022E-06  0.5038860566E-06  0.1392346809E-06  0.4427212483E-06  0.8731108286E-06  0.1260939158E-03  0.4801823398E-07 -0.5319625140E-04 -0.2952707177E-02  0.3271042916E-08  0.4644000000E+00  0.4801823398E-07  0.2657631282E-10  0.1260939158E-03  0.1260939158E-03  0.4801823398E-07  0.0000000000E+00  0.0000000000E+00 -0.5319625140E-04 -0.2952707177E-02  0.3271042916E-08  0.0000000000E+00  0.0000000000E+00  0.0000000000E+00  0.4801823398E-07  0.2657631282E-10  0.1260939158E-03  0.0000000000E+00  0.0000000000E+00  0.0000000000E+00
5  0.1505029900E-06  0.4241295516E-06  0.1073433786E-06  0.3499178348E-06  0.4703178364E-06  0.5408874608E-04  0.4763334212E-07 -0.4410462226E-04 -0.2657134511E-02  0.4706708964E-08  0.5061000000E+00  0.4763334212E-07  0.4502656076E-09  0.5408874608E-04  0.5408874608E-04  0.4763334212E-07  0.0000000000E+00  0.0000000000E+00 -0.4410462226E-04 -0.2657134511E-02  0.4706708964E-08  0.0000000000E+00  0.0000000000E+00  0.0000000000E+00  0.4763334212E-07  0.4502656076E-09  0.5408874608E-04  0.0000000000E+00  0.0000000000E+00  0.0000000000E+00
6  0.1092751180E-06  0.3228003004E-06  0.5408667349E-07  0.2206442096E-06  0.3792429102E-06  0.2379606217E-04  0.4806953303E-07 -0.3630031469E-04 -0.2543279738E-02  0.5545630832E-08  0.5509000000E+00  0.4806953303E-07  0.6941718724E-09  0.2379606217E-04  0.2379606217E-04  0.4806953303E-07  0.0000000000E+00  0.0000000000E+00 -0.3630031469E-04 -0.2543279738E-02  0.5545630832E-08  0.0000000000E+00  0.0000000000E+00  0.0000000000E+00  0.4806953303E-07  0.6941718724E-09  0.2379606217E-04  0.0000000000E+00  0.0000000000E+00  0.0000000000E+00
7  0.6190463414E-07  0.2347539361E-06  0.3706010141E-07  0.1319823717E-06  0.2323127198E-06  0.1660084894E-04  0.4794400923E-07 -0.3249537926E-04 -0.2512042376E-02  0.5706077023E-08  0.5926000000E+00  0.4794400923E-07  0.7547167540E-09  0.1660084894E-04  0.1660084894E-04  0.4794400923E-07  0.0000000000E+00  0.0000000000E+00 -0.3249537926E-04 -0.2512042376E-02  0.5706077023E-08  0.0000000000E+00  0.0000000000E+00  0.0000000000E+00  0.4794400923E-07  0.7547167540E-09  0.1660084894E-04  0.0000000000E+00  0.0000000000E+00  0.0000000000E+00
8  0.3447117547E-07  0.1714539151E-06  0.2572077392E-07  0.8491993214E-07  0.1436336862E-06  0.1599833224E-04  0.4752222472E-07 -0.3073335282E-04 -0.2500665670E-02  0.5733715047E-08  0.6389000000E+00  0.4752222472E-07  0.7819717838E-09  0.1599833224E-04  0.1599833224E-04  0.4752222472E-07  0.0000000000E+00  0.0000000000E+00 -0.3073335282E-04 -0.2500665670E-02  0.5733715047E-08  0.0000000000E+00  0.0000000000E+00  0.0000000000E+00  0.4752222472E-07  0.7819717838E-09  0.1599833224E-04  0.0000000000E+00  0.0000000000E+00  0.0000000000E+00
9  0.2394436489E-07  0.1265276860E-06  0.1944677641E-07  0.5824914411E-07  0.1051596991E-06  0.1571155603E-04  0.4714634862E-07 -0.2943278670E-04 -0.2490536294E-02  0.5833377869E-08  0.6794000000E+00  0.4714634862E-07  0.8258602719E-09  0.1571155603E-04  0.1571155603E-04  0.4714634862E-07  0.0000000000E+00  0.0000000000E+00 -0.2943278670E-04 -0.2490536294E-02  0.5833377869E-08  0.0000000000E+00  0.0000000000E+00  0.0000000000E+00  0.4714634862E-07  0.8258602719E-09  0.1571155603E-04  0.0000000000E+00  0.0000000000E+00  0.0000000000E+00
10  0.1760058957E-07  0.9333741688E-07  0.1525569433E-07  0.4059799175E-07  0.7919294509E-07  0.1474674010E-04  0.4689132101E-07 -0.2826688852E-04 -0.2479905170E-02  0.5977643393E-08  0.7199000000E+00  0.4689132101E-07  0.8772508055E-09  0.1474674010E-04  0.1474674010E-04  0.4689132101E-07  0.0000000000E+00  0.0000000000E+00 -0.2826688852E-04 -0.2479905170E-02  0.5977643393E-08  0.0000000000E+00  0.0000000000E+00  0.0000000000E+00  0.4689132101E-07  0.8772508055E-09  0.1474674010E-04  0.0000000000E+00  0.0000000000E+00  0.0000000000E+00
11  0.1307754959E-07  0.6842678253E-07  0.1143677386E-07  0.2787741970E-07  0.5859832757E-07  0.1350325434E-04  0.4672404391E-07 -0.2725097812E-04 -0.2470243069E-02  0.6109080856E-08  0.9116000000E+00  0.4672404391E-07  0.9213962307E-09  0.1350325434E-04  0.1350325434E-04  0.4672404391E-07  0.0000000000E+00  0.0000000000E+00 -0.2725097812E-04 -0.2470243069E-02  0.6109080856E-08  0.0000000000E+00  0.0000000000E+00  0.0000000000E+00  0.4672404391E-07  0.9213962307E-09  0.1350325434E-04  0.0000000000E+00  0.0000000000E+00  0.0000000000E+00
12  0.9385779106E-08  0.4991105731E-07  0.8430995546E-08  0.1879787852E-07  0.4213407362E-07  0.1231531594E-04  0.4660354273E-07 -0.2641193890E-04 -0.2462142461E-02  0.6211106587E-08  0.9567000000E+00  0.4660354273E-07  0.9553232064E-09  0.1231531594E-04  0.1231531594E-04  0.4660354273E-07  0.0000000000E+00  0.0000000000E+00 -0.2641193890E-04 -0.2462142461E-02  0.6211106587E-08  0.0000000000E+00  0.0000000000E+00  0.0000000000E+00  0.4660354273E-07  0.9553232064E-09  0.1231531594E-04  0.0000000000E+00  0.0000000000E+00  0.0000000000E+00
13  0.6658060862E-08  0.3635384333E-07  0.6263309781E-08  0.1249513219E-07  0.3003719240E-07  0.1132237251E-04  0.4651173824E-07 -0.2573552153E-04 -0.2455737707E-02  0.6287820078E-08  0.9972000000E+00  0.4651173824E-07  0.9809718954E-09  0.1132237251E-04  0.1132237251E-04  0.4651173824E-07  0.0000000000E+00  0.0000000000E+00 -0.2573552153E-04 -0.2455737707E-02  0.6287820078E-08  0.0000000000E+00  0.0000000000E+00  0.0000000000E+00  0.4651173824E-07  0.9809718954E-09  0.1132237251E-04  0.0000000000E+00  0.0000000000E+00  0.0000000000E+00
14  0.4729076170E-08  0.2640257370E-07  0.4683177244E-08  0.8314825231E-08  0.2140644101E-07  0.1055715908E-04  0.4644278136E-07 -0.2520976435E-04 -0.2450965462E-02  0.6345703647E-08  0.1037700000E+01  0.4644278136E-07  0.1000431277E-08  0.1055715908E-04  0.1055715908E-04  0.4644278136E-07  0.0000000000E+00  0.0000000000E+00 -0.2520976435E-04 -0.2450965462E-02  0.6345703647E-08  0.0000000000E+00  0.0000000000E+00  0.0000000000E+00  0.4644278136E-07  0.1000431277E-08  0.1055715908E-04  0.0000000000E+00  0.0000000000E+00  0.0000000000E+00
15  0.3370190458E-08  0.1907625330E-07  0.3492597305E-08  0.5655607332E-08  0.1526654984E-07  0.1000488011E-04  0.4639354212E-07 -0.2481950737E-04 -0.2447625576E-02  0.6388714197E-08  0.1079500000E+01  0.4639354212E-07  0.1014915886E-08  0.1000488011E-04  0.1000488011E-04  0.4639354212E-07  0.0000000000E+00  0.0000000000E+00 -0.2481950737E-04 -0.2447625576E-02  0.6388714197E-08  0.0000000000E+00  0.0000000000E+00  0.0000000000E+00  0.4639354212E-07  0.1014915886E-08  0.1000488011E-04  0.0000000000E+00  0.0000000000E+00  0.0000000000E+00
16  0.2384926516E-08  0.1369300572E-07  0.2581234994E-08  0.3984801303E-08  0.1084017380E-07  0.9623907785E-05  0.4635985594E-07 -0.2454141030E-04 -0.2445387836E-02  0.6419963640E-08  0.1120200000E+01  0.4635985594E-07  0.1025437335E-08  0.9623907785E-05  0.9623907785E-05  0.4635985594E-07  0.0000000000E+00  0.0000000000E+00 -0.2454141030E-04 -0.2445387836E-02  0.6419963640E-08  0.0000000000E+00  0.0000000000E+00  0.0000000000E+00  0.4635985594E-07  0.1025437335E-08  0.9623907785E-05  0.0000000000E+00  0.0000000000E+00  0.0000000000E+00
17  0.1675276309E-08  0.9770202510E-08  0.1889716047E-08  0.2896294933E-08  0.7662032111E-08  0.9364784353E-05  0.4633718920E-07 -0.2434695014E-04 -0.2443899179E-02  0.6442341099E-08  0.1166300000E+01  0.4633718920E-07  0.1032969061E-08  0.9364784353E-05  0.9364784353E-05  0.4633718920E-07  0.0000000000E+00  0.0000000000E+00 -0.2434695014E-04 -0.2443899179E-02  0.6442341099E-08  0.0000000000E+00  0.0000000000E+00  0.0000000000E+00  0.4633718920E-07  0.1032969061E-08  0.9364784353E-05  0.0000000000E+00  0.0000000000E+00  0.0000000000E+00
18  0.1170859964E-08  0.6940013585E-08  0.1371664544E-08  0.2136574381E-08  0.5395636178E-08  0.9184799773E-05  0.4632169934E-07 -0.2421050035E-04 -0.2442873948E-02  0.6458344330E-08  0.1211300000E+01  0.4632169934E-07  0.1038360275E-08  0.9184799773E-05  0.9184799773E-05  0.4632169934E-07  0.0000000000E+00  0.0000000000E+00 -0.2421050035E-04 -0.2442873948E-02  0.6458344330E-08  0.0000000000E+00  0.0000000000E+00  0.0000000000E+00  0.4632169934E-07  0.1038360275E-08  0.9184799773E-05  0.0000000000E+00  0.0000000000E+00  0.0000000000E+00
19  0.8188542181E-09  0.4917823016E-08  0.9868252809E-09  0.1573821223E-08  0.3795132078E-08  0.9054746502E-05  0.4631073083E-07 -0.2411323587E-04 -0.2442128714E-02  0.6469823059E-08  0.1253200000E+01  0.4631073083E-07  0.1042238570E-08  0.9054746502E-05  0.9054746502E-05  0.4631073083E-07  0.0000000000E+00  0.0000000000E+00 -0.2411323587E-04 -0.2442128714E-02  0.6469823059E-08  0.0000000000E+00  0.0000000000E+00  0.0000000000E+00  0.4631073083E-07  0.1042238570E-08  0.9054746502E-05  0.0000000000E+00  0.0000000000E+00  0.0000000000E+00
20  0.5753536391E-09  0.3482294762E-08  0.7029632351E-09  0.1147577333E-08  0.2670827280E-08  0.8957767975E-05  0.4630267559E-07 -0.2404296891E-04 -0.2441564837E-02  0.6478049947E-08  0.1299400000E+01  0.4630267559E-07  0.1045032333E-08  0.8957767975E-05  0.8957767975E-05  0.4630267559E-07  0.0000000000E+00  0.0000000000E+00 -0.2404296891E-04 -0.2441564837E-02  0.6478049947E-08  0.0000000000E+00  0.0000000000E+00  0.0000000000E+00  0.4630267559E-07  0.1045032333E-08  0.8957767975E-05  0.0000000000E+00  0.0000000000E+00  0.0000000000E+00
21  0.4071409085E-09  0.2465711352E-08  0.4962184103E-09  0.8271946153E-09  0.1882540529E-08  0.8884997278E-05  0.4629663244E-07 -0.2399212897E-04 -0.2441134600E-02  0.6483890042E-08  0.1491400000E+01  0.4629663244E-07  0.1047029284E-08  0.8884997278E-05  0.8884997278E-05  0.4629663244E-07  0.0000000000E+00  0.0000000000E+00 -0.2399212897E-04 -0.2441134600E-02  0.6483890042E-08  0.0000000000E+00  0.0000000000E+00  0.0000000000E+00  0.4629663244E-07  0.1047029284E-08  0.8884997278E-05  0.0000000000E+00  0.0000000000E+00  0.0000000000E+00
22  0.2897666192E-09  0.1744676086E-08  0.3482722075E-09  0.5911814555E-09  0.1327591188E-08  0.8831373361E-05  0.4629208800E-07 -0.2395581308E-04 -0.2440812421E-02  0.6487959812E-08  0.1532000000E+01  0.4629208800E-07  0.1048432455E-08  0.8831373361E-05  0.8831373361E-05  0.4629208800E-07  0.0000000000E+00  0.0000000000E+00 -0.2395581308E-04 -0.2440812421E-02  0.6487959812E-08  0.0000000000E+00  0.0000000000E+00  0.0000000000E+00  0.4629208800E-07  0.1048432455E-08  0.8831373361E-05  0.0000000000E+00  0.0000000000E+00  0.0000000000E+00
23  0.2067195677E-09  0.1231600962E-08  0.2442093478E-09  0.4207288509E-09  0.9346431639E-09  0.8793138380E-05  0.4628871243E-07 -0.2393049625E-04 -0.2440578991E-02  0.6490723083E-08  0.1572700000E+01  0.4628871243E-07  0.1049394298E-08  0.8793138380E-05  0.8793138380E-05  0.4628871243E-07  0.0000000000E+00  0.0000000000E+00 -0.2393049625E-04 -0.2440578991E-02  0.6490723083E-08  0.0000000000E+00  0.0000000000E+00  0.0000000000E+00  0.4628871243E-07  0.1049394298E-08  0.8793138380E-05  0.0000000000E+00  0.0000000000E+00  0.0000000000E+00
24  0.1471926807E-09  0.8656859229E-09  0.1718032016E-09  0.2992867212E-09  0.6552037849E-09  0.8766859269E-05  0.4628625464E-07 -0.2391338402E-04 -0.2440415715E-02  0.6492543025E-08  0.1613400000E+01  0.4628625464E-07  0.1050034913E-08  0.8766859269E-05  0.8766859269E-05  0.4628625464E-07  0.0000000000E+00  0.0000000000E+00 -0.2391338402E-04 -0.2440415715E-02  0.6492543025E-08  0.0000000000E+00  0.0000000000E+00  0.0000000000E+00  0.4628625464E-07  0.1050034913E-08  0.8766859269E-05  0.0000000000E+00  0.0000000000E+00  0.0000000000E+00
25  0.1042713084E-09  0.6049705072E-09  0.1215385930E-09  0.2132223772E-09  0.4565482979E-09  0.8749345171E-05  0.4628450307E-07 -0.2390218124E-04 -0.2440304712E-02  0.6493704673E-08  0.1654100000E+01  0.4628450307E-07  0.1050449495E-08  0.8749345171E-05  0.8749345171E-05  0.4628450307E-07  0.0000000000E+00  0.0000000000E+00 -0.2390218124E-04 -0.2440304712E-02  0.6493704673E-08  0.0000000000E+00  0.0000000000E+00  0.0000000000E+00  0.4628450307E-07  0.1050449495E-08  0.8749345171E-05  0.0000000000E+00  0.0000000000E+00  0.0000000000E+00
26  0.7334991698E-10  0.4200608747E-09  0.8649109561E-10  0.1520898454E-09  0.3159297652E-09  0.8737859502E-05  0.4628327765E-07 -0.2389504949E-04 -0.2440230389E-02  0.6494425449E-08  0.1694800000E+01  0.4628327765E-07  0.1050711360E-08  0.8737859502E-05  0.8737859502E-05  0.4628327765E-07  0.0000000000E+00  0.0000000000E+00 -0.2389504949E-04 -0.2440230389E-02  0.6494425449E-08  0.0000000000E+00  0.0000000000E+00  0.0000000000E+00  0.4628327765E-07  0.1050711360E-08  0.8737859502E-05  0.0000000000E+00  0.0000000000E+00  0.0000000000E+00
27  0.5122775041E-10  0.2898753633E-09  0.6186745730E-10  0.1083572714E-09  0.2171283393E-09  0.8730294326E-05  0.4628243162E-07 -0.2389060034E-04 -0.2440180596E-02  0.6494862879E-08  0.1736800000E+01  0.4628243162E-07  0.1050874053E-08  0.8730294326E-05  0.8730294326E-05  0.4628243162E-07  0.0000000000E+00  0.0000000000E+00 -0.2389060034E-04 -0.2440180596E-02  0.6494862879E-08  0.0000000000E+00  0.0000000000E+00  0.0000000000E+00  0.4628243162E-07  0.1050874053E-08  0.8730294326E-05  0.0000000000E+00  0.0000000000E+00  0.0000000000E+00
28  0.3555985201E-10  0.1989838887E-09  0.4441815580E-10  0.7684636849E-10  0.1483232355E-09  0.8725192286E-05  0.4628185211E-07 -0.2388785611E-04 -0.2440146789E-02  0.6495124371E-08  0.1777400000E+01  0.4628185211E-07  0.1050974327E-08  0.8725192286E-05  0.8725192286E-05  0.4628185211E-07  0.0000000000E+00  0.0000000000E+00 -0.2388785611E-04 -0.2440146789E-02  0.6495124371E-08  0.0000000000E+00  0.0000000000E+00  0.0000000000E+00  0.4628185211E-07  0.1050974327E-08  0.8725192286E-05  0.0000000000E+00  0.0000000000E+00  0.0000000000E+00
29  0.2457864473E-10  0.1360204885E-09  0.3194772714E-10  0.5408830857E-10  0.1008371704E-09  0.8721640133E-05  0.4628145691E-07 -0.2388617310E-04 -0.2440123436E-02  0.6495278821E-08  0.1819400000E+01  0.4628145691E-07  0.1051035924E-08  0.8721640133E-05  0.8721640133E-05  0.4628145691E-07  0.0000000000E+00  0.0000000000E+00 -0.2388617310E-04 -0.2440123436E-02  0.6495278821E-08  0.0000000000E+00  0.0000000000E+00  0.0000000000E+00  0.4628145691E-07  0.1051035924E-08  0.8721640133E-05  0.0000000000E+00  0.0000000000E+00  0.0000000000E+00
30  0.1694332139E-10  0.9267540492E-10  0.2297133489E-10  0.3773629088E-10  0.6831099702E-10  0.8719105804E-05  0.4628118836E-07 -0.2388514959E-04 -0.2440107126E-02  0.6495368237E-08  0.1865800000E+01  0.4628118836E-07  0.1051073469E-08  0.8719105804E-05  0.8719105804E-05  0.4628118836E-07  0.0000000000E+00  0.0000000000E+00 -0.2388514959E-04 -0.2440107126E-02  0.6495368237E-08  0.0000000000E+00  0.0000000000E+00  0.0000000000E+00  0.4628118836E-07  0.1051073469E-08  0.8719105804E-05  0.0000000000E+00  0.0000000000E+00  0.0000000000E+00
31  0.1165809900E-10  0.6297093167E-10  0.1647982786E-10  0.2612318763E-10  0.4614935882E-10  0.8717284680E-05  0.4628100676E-07 -0.2388454183E-04 -0.2440095748E-02  0.6495417520E-08  0.2057100000E+01  0.4628100676E-07  0.1051095765E-08  0.8717284680E-05  0.8717284680E-05  0.4628100676E-07  0.0000000000E+00  0.0000000000E+00 -0.2388454183E-04 -0.2440095748E-02  0.6495417520E-08  0.0000000000E+00  0.0000000000E+00  0.0000000000E+00  0.4628100676E-07  0.1051095765E-08  0.8717284680E-05  0.0000000000E+00  0.0000000000E+00  0.0000000000E+00
32  0.8007020335E-11  0.4268206933E-10  0.1177765878E-10  0.1799310481E-10  0.3109987287E-10  0.8715988939E-05  0.4628088481E-07 -0.2388420039E-04 -0.2440087906E-02  0.6495441581E-08  0.2097800000E+01  0.4628088481E-07  0.1051108204E-08  0.8715988939E-05  0.8715988939E-05  0.4628088481E-07  0.0000000000E+00  0.0000000000E+00 -0.2388420039E-04 -0.2440087906E-02  0.6495441581E-08  0.0000000000E+00  0.0000000000E+00  0.0000000000E+00  0.4628088481E-07  0.1051108204E-08  0.8715988939E-05  0.0000000000E+00  0.0000000000E+00  0.0000000000E+00
33  0.5489181521E-11  0.2886418055E-10  0.8375507494E-11  0.1237246296E-10  0.2090734055E-10  0.8715085545E-05  0.4628080356E-07 -0.2388402945E-04 -0.2440082604E-02  0.6495449831E-08  0.2138500000E+01  0.4628080356E-07  0.1051114262E-08  0.8715085545E-05  0.8715085545E-05  0.4628080356E-07  0.0000000000E+00  0.0000000000E+00 -0.2388402945E-04 -0.2440082604E-02  0.6495449831E-08  0.0000000000E+00  0.0000000000E+00  0.0000000000E+00  0.4628080356E-07  0.1051114262E-08  0.8715085545E-05  0.0000000000E+00  0.0000000000E+00  0.0000000000E+00
34  0.3757217713E-11  0.1948119001E-10  0.5922416156E-11  0.8516225798E-11  0.1402420112E-10  0.8714469806E-05  0.4628074984E-07 -0.2388396405E-04 -0.2440079085E-02  0.6495448622E-08  0.2179300000E+01  0.4628074984E-07  0.1051116327E-08  0.8714469806E-05  0.8714469806E-05  0.4628074984E-07  0.0000000000E+00  0.0000000000E+00 -0.2388396405E-04 -0.2440079085E-02  0.6495448622E-08  0.0000000000E+00  0.0000000000E+00  0.0000000000E+00  0.4628074984E-07  0.1051116327E-08  0.8714469806E-05  0.0000000000E+00  0.0000000000E+00  0.0000000000E+00
35  0.2570100512E-11  0.1313014056E-10  0.4163221091E-11  0.5875757029E-11  0.9393137490E-11  0.8714057585E-05  0.4628071449E-07 -0.2388395883E-04 -0.2440076783E-02  0.6495442423E-08  0.2220000000E+01  0.4628071449E-07  0.1051116097E-08  0.8714057585E-05  0.8714057585E-05  0.4628071449E-07  0.0000000000E+00  0.0000000000E+00 -0.2388395883E-04 -0.2440076783E-02  0.6495442423E-08  0.0000000000E+00  0.0000000000E+00  0.0000000000E+00  0.4628071449E-07  0.1051116097E-08  0.8714057585E-05  0.0000000000E+00  0.0000000000E+00  0.0000000000E+00
36  0.1758969139E-11  0.8844726251E-11  0.2910483982E-11  0.4064258994E-11  0.6288807946E-11  0.8713784346E-05  0.4628069128E-07 -0.2388398282E-04 -0.2440075284E-02  0.6495434318E-08  0.2262000000E+01  0.4628069128E-07  0.1051114754E-08  0.8713784346E-05  0.8713784346E-05  0.4628069128E-07  0.0000000000E+00  0.0000000000E+00 -0.2388398282E-04 -0.2440075284E-02  0.6495434318E-08  0.0000000000E+00  0.0000000000E+00  0.0000000000E+00  0.4628069128E-07  0.1051114754E-08  0.8713784346E-05  0.0000000000E+00  0.0000000000E+00  0.0000000000E+00
37  0.1205456925E-11  0.5959816415E-11  0.2025331323E-11  0.2817674823E-11  0.4213516854E-11  0.8713603630E-05  0.4628067601E-07 -0.2388401641E-04 -0.2440074308E-02  0.6495426262E-08  0.2302900000E+01  0.4628067601E-07  0.1051113065E-08  0.8713603630E-05  0.8713603630E-05  0.4628067601E-07  0.0000000000E+00  0.0000000000E+00 -0.2388401641E-04 -0.2440074308E-02  0.6495426262E-08  0.0000000000E+00  0.0000000000E+00  0.0000000000E+00  0.4628067601E-07  0.1051113065E-08  0.8713603630E-05  0.0000000000E+00  0.0000000000E+00  0.0000000000E+00
38  0.8276411133E-12  0.4020009518E-11  0.1404656877E-11  0.1957682567E-11  0.2828598258E-11  0.8713483711E-05  0.4628066595E-07 -0.2388404864E-04 -0.2440073669E-02  0.6495419303E-08  0.2345100000E+01  0.4628066595E-07  0.1051111467E-08  0.8713483711E-05  0.8713483711E-05  0.4628066595E-07  0.0000000000E+00  0.0000000000E+00 -0.2388404864E-04 -0.2440073669E-02  0.6495419303E-08  0.0000000000E+00  0.0000000000E+00  0.0000000000E+00  0.4628066595E-07  0.1051111467E-08  0.8713483711E-05  0.0000000000E+00  0.0000000000E+00  0.0000000000E+00
39  0.5688583455E-12  0.2715009615E-11  0.9722065458E-12  0.1363494010E-11  0.1903544775E-11  0.8713404139E-05  0.4628065930E-07 -0.2388407486E-04 -0.2440073249E-02  0.6495413819E-08  0.2386000000E+01  0.4628065930E-07  0.1051110155E-08  0.8713404139E-05  0.8713404139E-05  0.4628065930E-07  0.0000000000E+00  0.0000000000E+00 -0.2388407486E-04 -0.2440073249E-02  0.6495413819E-08  0.0000000000E+00  0.0000000000E+00  0.0000000000E+00  0.4628065930E-07  0.1051110155E-08  0.8713404139E-05  0.0000000000E+00  0.0000000000E+00  0.0000000000E+00
40  0.3910688806E-12  0.1835985293E-11  0.6723440676E-12  0.9522031464E-12  0.1284900889E-11  0.8713351484E-05  0.4628065492E-07 -0.2388409416E-04 -0.2440072973E-02  0.6495409771E-08  0.2432700000E+01  0.4628065492E-07  0.1051109170E-08  0.8713351484E-05  0.8713351484E-05  0.4628065492E-07  0.0000000000E+00  0.0000000000E+00 -0.2388409416E-04 -0.2440072973E-02  0.6495409771E-08  0.0000000000E+00  0.0000000000E+00  0.0000000000E+00  0.4628065492E-07  0.1051109170E-08  0.8713351484E-05  0.0000000000E+00  0.0000000000E+00  0.0000000000E+00
41  0.2684122528E-12  0.1242968705E-11  0.4650263421E-12  0.6667924844E-12  0.8698477065E-12  0.8713316927E-05  0.4628065204E-07 -0.2388410752E-04 -0.2440072794E-02  0.6495406913E-08  0.2624800000E+01  0.4628065204E-07  0.1051108471E-08  0.8713316927E-05  0.8713316927E-05  0.4628065204E-07  0.0000000000E+00  0.0000000000E+00 -0.2388410752E-04 -0.2440072794E-02  0.6495406913E-08  0.0000000000E+00  0.0000000000E+00  0.0000000000E+00  0.4628065204E-07  0.1051108471E-08  0.8713316927E-05  0.0000000000E+00  0.0000000000E+00  0.0000000000E+00
42  0.1837737720E-12  0.8425432556E-12  0.3219249108E-12  0.4679174488E-12  0.5907681010E-12  0.8713294530E-05  0.4628065016E-07 -0.2388411652E-04 -0.2440072679E-02  0.6495404938E-08  0.2667100000E+01  0.4628065016E-07  0.1051107990E-08  0.8713294530E-05  0.8713294530E-05  0.4628065016E-07  0.0000000000E+00  0.0000000000E+00 -0.2388411652E-04 -0.2440072679E-02  0.6495404938E-08  0.0000000000E+00  0.0000000000E+00  0.0000000000E+00  0.4628065016E-07  0.1051107990E-08  0.8713294530E-05  0.0000000000E+00  0.0000000000E+00  0.0000000000E+00
43  0.1253366781E-12  0.5720000731E-12  0.2231393458E-12  0.3288009405E-12  0.4024715410E-12  0.8713280081E-05  0.4628064893E-07 -0.2388412273E-04 -0.2440072606E-02  0.6495403567E-08  0.2708300000E+01  0.4628064893E-07  0.1051107655E-08  0.8713280081E-05  0.8713280081E-05  0.4628064893E-07  0.0000000000E+00  0.0000000000E+00 -0.2388412273E-04 -0.2440072606E-02  0.6495403567E-08  0.0000000000E+00  0.0000000000E+00  0.0000000000E+00  0.4628064893E-07  0.1051107655E-08  0.8713280081E-05  0.0000000000E+00  0.0000000000E+00  0.0000000000E+00
44  0.8519873128E-13  0.3894255808E-12  0.1548926640E-12  0.2311191177E-12  0.2753647149E-12  0.8713270769E-05  0.4628064813E-07 -0.2388412716E-04 -0.2440072559E-02  0.6495402602E-08  0.2750500000E+01  0.4628064813E-07  0.1051107419E-08  0.8713270769E-05  0.8713270769E-05  0.4628064813E-07  0.0000000000E+00  0.0000000000E+00 -0.2388412716E-04 -0.2440072559E-02  0.6495402602E-08  0.0000000000E+00  0.0000000000E+00  0.0000000000E+00  0.4628064813E-07  0.1051107419E-08  0.8713270769E-05  0.0000000000E+00  0.0000000000E+00  0.0000000000E+00
45  0.5771582021E-13  0.2660203286E-12  0.1076722981E-12  0.1623003040E-12  0.1890740121E-12  0.8713264682E-05  0.4628064761E-07 -0.2388413051E-04 -0.2440072529E-02  0.6495401898E-08  0.2791500000E+01  0.4628064761E-07  0.1051107245E-08  0.8713264682E-05  0.8713264682E-05  0.4628064761E-07  0.0000000000E+00  0.0000000000E+00 -0.2388413051E-04 -0.2440072529E-02  0.6495401898E-08  0.0000000000E+00  0.0000000000E+00  0.0000000000E+00  0.4628064761E-07  0.1051107245E-08  0.8713264682E-05  0.0000000000E+00  0.0000000000E+00  0.0000000000E+00
46  0.3908968957E-13  0.1826453939E-12  0.7494973343E-13  0.1138089961E-12  0.1305968522E-12  0.8713260612E-05  0.4628064728E-07 -0.2388413311E-04 -0.2440072508E-02  0.6495401375E-08  0.2833900000E+01  0.4628064728E-07  0.1051107113E-08  0.8713260612E-05  0.8713260612E-05  0.4628064728E-07  0.0000000000E+00  0.0000000000E+00 -0.2388413311E-04 -0.2440072508E-02  0.6495401375E-08  0.0000000000E+00  0.0000000000E+00  0.0000000000E+00  0.4628064728E-07  0.1051107113E-08  0.8713260612E-05  0.0000000000E+00  0.0000000000E+00  0.0000000000E+00
47  0.2643273633E-13  0.1260452591E-12  0.5227079249E-13  0.7958350710E-13  0.9060102346E-13  0.8713257817E-05  0.4628064705E-07 -0.2388413520E-04 -0.2440072495E-02  0.6495400978E-08  0.2875000000E+01  0.4628064705E-07  0.1051107010E-08  0.8713257817E-05  0.8713257817E-05  0.4628064705E-07  0.0000000000E+00  0.0000000000E+00 -0.2388413520E-04 -0.2440072495E-02  0.6495400978E-08  0.0000000000E+00  0.0000000000E+00  0.0000000000E+00  0.4628064705E-07  0.1051107010E-08  0.8713257817E-05  0.0000000000E+00  0.0000000000E+00  0.0000000000E+00
48  0.1795727734E-13  0.8755045387E-13  0.3649782154E-13  0.5557749774E-13  0.6335044874E-13  0.8713255828E-05  0.4628064691E-07 -0.2388413683E-04 -0.2440072485E-02  0.6495400679E-08  0.2917400000E+01  0.4628064691E-07  0.1051106932E-08  0.8713255828E-05  0.8713255828E-05  0.4628064691E-07  0.0000000000E+00  0.0000000000E+00 -0.2388413683E-04 -0.2440072485E-02  0.6495400679E-08  0.0000000000E+00  0.0000000000E+00  0.0000000000E+00  0.4628064691E-07  0.1051106932E-08  0.8713255828E-05  0.0000000000E+00  0.0000000000E+00  0.0000000000E+00
49  0.1218861252E-13  0.6102515526E-13  0.2557794292E-13  0.3864541714E-13  0.4434420971E-13  0.8713254517E-05  0.4628064681E-07 -0.2388413808E-04 -0.2440072479E-02  0.6495400456E-08  0.2958500000E+01  0.4628064681E-07  0.1051106874E-08  0.8713254517E-05  0.8713254517E-05  0.4628064681E-07  0.0000000000E+00  0.0000000000E+00 -0.2388413808E-04 -0.2440072479E-02  0.6495400456E-08  0.0000000000E+00  0.0000000000E+00  0.0000000000E+00  0.4628064681E-07  0.1051106874E-08  0.8713254517E-05  0.0000000000E+00  0.0000000000E+00  0.0000000000E+00
50  0.8360753185E-14  0.4283076549E-13  0.1793500019E-13  0.2690563303E-13  0.3153685314E-13  0.8713253542E-05  0.4628064675E-07 -0.2388413899E-04 -0.2440072475E-02  0.6495400296E-08  0.3005300000E+01  0.4628064675E-07  0.1051106831E-08  0.8713253542E-05  0.8713253542E-05  0.4628064675E-07  0.0000000000E+00  0.0000000000E+00 -0.2388413899E-04 -0.2440072475E-02  0.6495400296E-08  0.0000000000E+00  0.0000000000E+00  0.0000000000E+00  0.4628064675E-07  0.1051106831E-08  0.8713253542E-05  0.0000000000E+00  0.0000000000E+00  0.0000000000E+00
51  0.5748833704E-14  0.2999983701E-13  0.1261198061E-13  0.1866792958E-13  0.2220583039E-13  0.8713252893E-05  0.4628064671E-07 -0.2388413969E-04 -0.2440072472E-02  0.6495400177E-08  0.3197000000E+01  0.4628064671E-07  0.1051106799E-08  0.8713252893E-05  0.8713252893E-05  0.4628064671E-07  0.0000000000E+00  0.0000000000E+00 -0.2388413969E-04 -0.2440072472E-02  0.6495400177E-08  0.0000000000E+00  0.0000000000E+00  0.0000000000E+00  0.4628064671E-07  0.1051106799E-08  0.8713252893E-05  0.0000000000E+00  0.0000000000E+00  0.0000000000E+00
52  0.3971720598E-14  0.2113577434E-13  0.8905165587E-14  0.1298131632E-13  0.1588706177E-13  0.8713252492E-05  0.4628064668E-07 -0.2388414017E-04 -0.2440072470E-02  0.6495400095E-08  0.3239400000E+01  0.4628064668E-07  0.1051106776E-08  0.8713252492E-05  0.8713252492E-05  0.4628064668E-07  0.0000000000E+00  0.0000000000E+00 -0.2388414017E-04 -0.2440072470E-02  0.6495400095E-08  0.0000000000E+00  0.0000000000E+00  0.0000000000E+00  0.4628064668E-07  0.1051106776E-08  0.8713252492E-05  0.0000000000E+00  0.0000000000E+00  0.0000000000E+00
53  0.2710922179E-14  0.1482838368E-13  0.6265670940E-14  0.9034436930E-14  0.1122882949E-13  0.8713252219E-05  0.4628064666E-07 -0.2388414050E-04 -0.2440072469E-02  0.6495400038E-08  0.3280500000E+01  0.4628064666E-07  0.1051106761E-08  0.8713252219E-05  0.8713252219E-05  0.4628064666E-07  0.0000000000E+00  0.0000000000E+00 -0.2388414050E-04 -0.2440072469E-02  0.6495400038E-08  0.0000000000E+00  0.0000000000E+00  0.0000000000E+00  0.4628064666E-07  0.1051106761E-08  0.8713252219E-05  0.0000000000E+00  0.0000000000E+00  0.0000000000E+00
54  0.1924618900E-14  0.1046150707E-13  0.4392969519E-14  0.6292924624E-14  0.8138236165E-14  0.8713252036E-05  0.4628064665E-07 -0.2388414071E-04 -0.2440072468E-02  0.6495399999E-08  0.3322800000E+01  0.4628064665E-07  0.1051106750E-08  0.8713252036E-05  0.8713252036E-05  0.4628064665E-07  0.0000000000E+00  0.0000000000E+00 -0.2388414071E-04 -0.2440072468E-02  0.6495399999E-08  0.0000000000E+00  0.0000000000E+00  0.0000000000E+00  0.4628064665E-07  0.1051106750E-08  0.8713252036E-05  0.0000000000E+00  0.0000000000E+00  0.0000000000E+00