title="tecplot geometry and solution file"
variables = x y z rho u v w p mach temperature
zone t="boundary 1 bc-1", solutiontime= 0.2000000E+02, strandid=1001, i=32, j=46, f=feblock
 -0.547422452772E-02  0.000000000000E+00 -0.567510116354E-02  0.000000000000E+00  0.000000000000E+00  0.000000000000E+00 -0.525112568575E-02
 -0.425678988008E-02  0.000000000000E+00  0.000000000000E+00  0.000000000000E+00  0.000000000000E+00  0.000000000000E+00  0.000000000000E+00
  0.000000000000E+00  0.000000000000E+00 -0.338346965251E-02  0.000000000000E+00  0.000000000000E+00  0.000000000000E+00  0.000000000000E+00
  0.000000000000E+00  0.000000000000E+00  0.000000000000E+00  0.000000000000E+00  0.000000000000E+00  0.000000000000E+00  0.000000000000E+00
  0.000000000000E+00  0.000000000000E+00  0.000000000000E+00  0.000000000000E+00
  0.250494212639E+01  0.250494212639E+01  0.127822224353E+01  0.146289271009E+01  0.157686156160E+01  0.308372018325E+00  0.261960149565E-01
 -0.122573417301E+01 -0.600232012419E+00  0.250494212639E+01  0.477386199275E+00  0.742988685424E+00 -0.739814786992E+00  0.177790177481E+01
  0.155830813274E+01  0.250494212639E+01 -0.249658889499E+01 -0.154800130438E+01 -0.487811078581E+00  0.250494212639E+01  0.627766083140E+00
 -0.345533899378E+00 -0.178862290564E+01 -0.158811787973E+01  0.125000000000E+01 -0.249658889499E+01 -0.144524380962E+01  0.000000000000E+00
 -0.125000000000E+01 -0.249658889499E+01 -0.249658889499E+01 -0.249658889499E+01
  0.808216924785E-04  0.125000000000E+01  0.832205278517E-04  0.103724302461E+01  0.219251206392E+01  0.922061490191E+00  0.104377881505E-03
  0.351876513122E-04  0.715990576545E+00  0.250000000000E+01  0.202479342020E+01  0.324151231464E+01  0.175434191980E+01  0.310152362409E+01
  0.404200324774E+01  0.375000000000E+01  0.816362586350E-04  0.930412228790E+00  0.299062775774E+01  0.500000000000E+01  0.429310310915E+01
  0.409252726285E+01  0.187029682677E+01  0.284428995242E+01  0.500000000000E+01  0.125000000000E+01  0.394624082883E+01  0.500000000000E+01
  0.500000000000E+01  0.250000000000E+01  0.375000000000E+01  0.500000000000E+01
  0.100001339571E+01  0.100000779008E+01  0.100001489683E+01  0.100000910000E+01  0.100000488271E+01  0.100001007416E+01  0.100002059416E+01
  0.100002729984E+01  0.100001279191E+01  0.100000412513E+01  0.100000565100E+01  0.100000311942E+01  0.100000677707E+01  0.100000320608E+01
  0.100000210341E+01  0.100000237517E+01  0.100002097177E+01  0.100001125294E+01  0.100000359075E+01  0.100000143085E+01  0.100000194246E+01
  0.100000216382E+01  0.100000644699E+01  0.100000379012E+01  0.100000136109E+01  0.100000926015E+01  0.100000228695E+01  0.100000133199E+01
  0.100000139824E+01  0.100000442569E+01  0.100000251167E+01  0.100000147495E+01
  0.499982529154E+00  0.499991900042E+00  0.499982742671E+00  0.499989813799E+00  0.499994784052E+00  0.499987911683E+00  0.499982100738E+00
  0.499980763459E+00  0.499986104399E+00  0.499995713829E+00  0.499994040614E+00  0.499996803970E+00  0.499992348453E+00  0.499996742014E+00
  0.499997699384E+00  0.499997538756E+00  0.499984112706E+00  0.499986565445E+00  0.499996171690E+00  0.499998346553E+00  0.499997998431E+00
  0.499997752479E+00  0.499993654321E+00  0.499995728638E+00  0.499998575875E+00  0.499990645743E+00  0.499997519746E+00  0.499998602848E+00
  0.499998467747E+00  0.499995389133E+00  0.499997353399E+00  0.499998303870E+00
  0.000000000000E+00  0.000000000000E+00  0.141589968052E-05  0.435980599857E-06  0.675432869264E-07  0.171064816829E-05  0.363877317448E-05
  0.351072319400E-06  0.264405125592E-05  0.000000000000E+00 -0.157257907699E-06 -0.165416520238E-07  0.439294122043E-06  0.696306507920E-07
  0.738849791567E-07  0.000000000000E+00  0.000000000000E+00  0.872646659465E-07 -0.217601415129E-06  0.000000000000E+00 -0.697053586535E-08
 -0.119309068917E-07  0.313690179670E-07 -0.101992869378E-06 -0.781195685226E-07  0.000000000000E+00 -0.266971454577E-07 -0.142194321990E-07
  0.648240389874E-07  0.000000000000E+00  0.000000000000E+00  0.000000000000E+00
  0.441286674016E-05  0.920636614031E-06  0.500045623032E-05  0.146595407650E-05  0.727411235531E-06  0.196888740516E-06  0.495681375120E-05
  0.145059716205E-04  0.423523525995E-05  0.149592044973E-06  0.242280146090E-06  0.656811469641E-07 -0.305006412856E-06  0.185218681704E-06
  0.340427805788E-06  0.557436620506E-07  0.102833915700E-04  0.526490434244E-05  0.122090464523E-06  0.901496446228E-06  0.350508121450E-06
  0.300212581179E-06  0.744451447900E-06 -0.396576617667E-07  0.948210509355E-06  0.297654794078E-05  0.337388637110E-06  0.821854991185E-06
  0.781613127314E-06  0.189196882501E-06  0.267245149156E-07  0.833617695683E-06
  0.714299109772E+00  0.714293504479E+00  0.714300611254E+00  0.714294814209E+00  0.714290597098E+00  0.714295787945E+00  0.714306308447E+00
  0.714313014134E+00  0.714298505960E+00  0.714289839395E+00  0.714291365600E+00  0.714288833642E+00  0.714292491361E+00  0.714288920366E+00
  0.714287817525E+00  0.714288089366E+00  0.714306686412E+00  0.714296967904E+00  0.714289305017E+00  0.714287145545E+00  0.714287656715E+00
  0.714287878045E+00  0.714292161253E+00  0.714289504446E+00  0.714287075533E+00  0.714294973556E+00  0.714288001276E+00  0.714287046313E+00
  0.714287112505E+00  0.714290140129E+00  0.714288225898E+00  0.714287189230E+00
  0.499981189752E+00  0.499991121014E+00  0.499981253046E+00  0.499988903856E+00  0.499994295754E+00  0.499986904483E+00  0.499980041488E+00
  0.499978033884E+00  0.499984825371E+00  0.499995301331E+00  0.499993475414E+00  0.499996492052E+00  0.499991670762E+00  0.499996421409E+00
  0.499997489105E+00  0.499997301272E+00  0.499982015633E+00  0.499985439988E+00  0.499995812627E+00  0.499998203327E+00  0.499997804198E+00
  0.499997536121E+00  0.499993009644E+00  0.499995349616E+00  0.499998439713E+00  0.499989720073E+00  0.499997291038E+00  0.499998469636E+00
  0.499998327931E+00  0.499994946516E+00  0.499997102254E+00  0.499998156378E+00
  0.100000535790E+01  0.100000311617E+01  0.100000595884E+01  0.100000363986E+01  0.100000195321E+01  0.100000402892E+01  0.100000823750E+01
  0.100001091965E+01  0.100000511637E+01  0.100000165001E+01  0.100000226083E+01  0.100000124768E+01  0.100000271081E+01  0.100000128243E+01
  0.100000084112E+01  0.100000094994E+01  0.100000838903E+01  0.100000450207E+01  0.100000143626E+01  0.100000057291E+01  0.100000077694E+01
  0.100000086544E+01  0.100000257875E+01  0.100000151610E+01  0.100000054466E+01  0.100000370280E+01  0.100000091483E+01  0.100000053285E+01
  0.100000055927E+01  0.100000177049E+01  0.100000100458E+01  0.100000058997E+01
        12        19        11        11
        11         5        12        12
        10        14         5         5
        19        13        11        11
        19        24        13        13
        30        23        24        24
        19        12        22        22
        28        22        21        21
        11        13         6         6
         7         6         9         9
        15        12        14        14
        18        13        23        23
        15        25        21        21
        27        19        22        22
        18         8         9         9
        27        31        24        24
         4        11         6         6
         5        14        12        12
         4         2         5         5
        21        12        15        15
        14        16        15        15
        24        19        27        27
        22        29        27        27
        23        26        18        18
        17         8        18        18
         5        11         4         4
         6         3         4         4
        26        23        30        30
         5         2        10        10
        16        14        10        10
         3         6         7         7
        21        25        28        28
        29        22        28        28
         6        13         9         9
         2         4         1         1
        31        27        32        32
        25        15        20        20
        24        23        13        13
         8         7         9         9
        13        18         9         9
        31        30        24        24
        12        21        22        22
        29        32        27        27
         3         1         4         4
        26        17        18        18
        16        20        15        15
zone t="boundary 2 bc-2", solutiontime= 0.2000000E+02, strandid=1002, i=33, j=48, f=feblock
  0.500195305313E+01  0.375034912201E+01  0.249861196354E+01  0.288036736122E+01  0.124717626151E+01  0.190856778359E+01  0.326577225489E+01
  0.201394899013E+01 -0.338346965251E-02  0.962374705946E+00  0.500000000000E+01  0.403430242702E+01  0.423029585421E+01  0.500000000000E+01
  0.385439203165E+01  0.500000000000E+01  0.398133438873E+01  0.315200091180E+01  0.266958048114E+01  0.154798041552E+01  0.218327865435E+01
  0.893688581176E+00  0.000000000000E+00  0.699009801023E+00  0.964460914345E+00  0.310303675842E+01  0.000000000000E+00  0.000000000000E+00
  0.125000000000E+01  0.500000000000E+01  0.375000000000E+01  0.250000000000E+01  0.000000000000E+00
 -0.249658889499E+01 -0.249658889499E+01 -0.249658889499E+01 -0.249658889499E+01 -0.249658889499E+01 -0.249658889499E+01 -0.249658889499E+01
 -0.249658889499E+01 -0.249658889499E+01 -0.249658889499E+01 -0.249658889499E+01 -0.249658889499E+01 -0.249658889499E+01 -0.249658889499E+01
 -0.249658889499E+01 -0.249658889499E+01 -0.249658889499E+01 -0.249658889499E+01 -0.249658889499E+01 -0.249658889499E+01 -0.249658889499E+01
 -0.249658889499E+01 -0.249658889499E+01 -0.249658889499E+01 -0.249658889499E+01 -0.249658889499E+01 -0.249658889499E+01 -0.249658889499E+01
 -0.249658889499E+01 -0.249658889499E+01 -0.249658889499E+01 -0.249658889499E+01 -0.249658889499E+01
  0.108709237191E-03  0.146875487893E-03  0.101409957516E-03  0.901663848142E+00  0.111895828141E-03  0.714929135901E+00  0.188140686189E+01
  0.175892218342E+01  0.816362586350E-04  0.957504934716E+00  0.125000000000E+01  0.100596744181E+01  0.191313547189E+01  0.250000000000E+01
  0.292898120965E+01  0.375000000000E+01  0.406883379958E+01  0.363389309169E+01  0.284756893464E+01  0.292582332356E+01  0.395754068714E+01
  0.205027285783E+01  0.125000000000E+01  0.306703284160E+01  0.397155773791E+01  0.433068631589E+01  0.250000000000E+01  0.375000000000E+01
  0.500000000000E+01  0.500000000000E+01  0.500000000000E+01  0.500000000000E+01  0.500000000000E+01
  0.999999014994E+00  0.999995825829E+00  0.999994375345E+00  0.999998230360E+00  0.999999391053E+00  0.100000002373E+01  0.999999545634E+00
  0.100000162743E+01  0.100002097177E+01  0.100000546963E+01  0.100000226349E+01  0.999998650847E+00  0.100000049278E+01  0.100000153002E+01
  0.100000080927E+01  0.100000095992E+01  0.100000104847E+01  0.100000121651E+01  0.100000133195E+01  0.100000242372E+01  0.100000176319E+01
  0.100000408142E+01  0.100000926015E+01  0.100000316870E+01  0.100000226809E+01  0.100000139579E+01  0.100000442569E+01  0.100000251167E+01
  0.100000184710E+01  0.100000073864E+01  0.100000125264E+01  0.100000170494E+01  0.100000147495E+01
  0.500013657303E+00  0.500030273477E+00  0.500027245646E+00  0.500017354104E+00  0.500015440247E+00  0.500014610030E+00  0.500007304309E+00
  0.500003834446E+00  0.499984112706E+00  0.499999873147E+00  0.500004741067E+00  0.500015673144E+00  0.500005842059E+00  0.500001627964E+00
  0.500001808699E+00  0.500000518465E+00  0.500000014421E+00  0.500000164932E+00  0.500001354449E+00  0.499998682846E+00  0.499998712744E+00
  0.499997415323E+00  0.499990645743E+00  0.499997139290E+00  0.499997734563E+00  0.499999089906E+00  0.499995389133E+00  0.499997353399E+00
  0.499997534039E+00  0.500000150012E+00  0.499998799030E+00  0.499997841993E+00  0.499998303870E+00
  0.000000000000E+00  0.000000000000E+00  0.000000000000E+00  0.000000000000E+00  0.000000000000E+00  0.000000000000E+00  0.000000000000E+00
  0.000000000000E+00  0.000000000000E+00  0.000000000000E+00  0.000000000000E+00  0.000000000000E+00  0.000000000000E+00  0.000000000000E+00
  0.000000000000E+00  0.000000000000E+00  0.000000000000E+00  0.000000000000E+00  0.000000000000E+00  0.000000000000E+00  0.000000000000E+00
  0.000000000000E+00  0.000000000000E+00  0.000000000000E+00  0.000000000000E+00  0.000000000000E+00  0.000000000000E+00  0.000000000000E+00
  0.000000000000E+00  0.000000000000E+00  0.000000000000E+00  0.000000000000E+00  0.000000000000E+00
 -0.144072708052E-04 -0.140566152411E-05  0.634486498778E-05  0.434776039838E-05  0.122060951594E-04  0.100665343577E-04  0.235431297955E-05
  0.613318364073E-05  0.102833915700E-04  0.104441163363E-04 -0.388498631173E-05 -0.177636110003E-05  0.861782054681E-07  0.132974560753E-05
  0.154791125927E-05  0.192660013250E-05  0.167927618558E-05  0.223962364406E-05  0.311952930009E-05  0.381191331875E-05  0.239919839231E-05
  0.447386127208E-05  0.297654794078E-05  0.187551300651E-05  0.182916322280E-05  0.195044055223E-05  0.189196882501E-06  0.267245149156E-07
  0.177143855801E-05  0.112443591590E-05  0.132836219126E-05  0.170076110964E-05  0.833617695683E-06
  0.714284728109E+00  0.714281538675E+00  0.714280088033E+00  0.714283944648E+00  0.714285103720E+00  0.714285738297E+00  0.714285260377E+00
  0.714287341999E+00  0.714306686412E+00  0.714291184256E+00  0.714287978054E+00  0.714284364944E+00  0.714286207508E+00  0.714287244788E+00
  0.714286523879E+00  0.714286674047E+00  0.714286762368E+00  0.714286930848E+00  0.714287046184E+00  0.714288137681E+00  0.714287477488E+00
  0.714289795419E+00  0.714294973556E+00  0.714288883023E+00  0.714287982488E+00  0.714287110095E+00  0.714290140129E+00  0.714288225898E+00
  0.714287561354E+00  0.714286452780E+00  0.714286966731E+00  0.714287419096E+00  0.714287189230E+00
  0.500013756424E+00  0.500030691428E+00  0.500027808746E+00  0.500017531093E+00  0.500015501859E+00  0.500014607660E+00  0.500007349591E+00
  0.500003671641E+00  0.499982015633E+00  0.499999326176E+00  0.500004514633E+00  0.500015808133E+00  0.500005792625E+00  0.500001474795E+00
  0.500001727661E+00  0.500000422532E+00  0.499999909713E+00  0.500000043269E+00  0.500001221281E+00  0.499998440603E+00  0.499998536427E+00
  0.499997007307E+00  0.499989720073E+00  0.499996822413E+00  0.499997507720E+00  0.499998950325E+00  0.499994946516E+00  0.499997102254E+00
  0.499997349344E+00  0.500000076200E+00  0.499998673836E+00  0.499997671549E+00  0.499998156378E+00
  0.999999604358E+00  0.999998328308E+00  0.999997747888E+00  0.999999292146E+00  0.999999754156E+00  0.100000000989E+01  0.999999818895E+00
  0.100000065137E+01  0.100000838903E+01  0.100000218832E+01  0.100000090579E+01  0.999999460074E+00  0.100000019773E+01  0.100000061268E+01
  0.100000032416E+01  0.100000038375E+01  0.100000041884E+01  0.100000048667E+01  0.100000053271E+01  0.100000096903E+01  0.100000070530E+01
  0.100000163216E+01  0.100000370280E+01  0.100000126753E+01  0.100000090739E+01  0.100000055834E+01  0.100000177049E+01  0.100000100458E+01
  0.100000073879E+01  0.100000029525E+01  0.100000050078E+01  0.100000068179E+01  0.100000058997E+01
        15         7        19        19
         8        20        19        19
        18        19        21        21
         7         4         8         8
         3         6         4         4
        19         7         8         8
        19        18        15        15
        14        13        15        15
         8        22        20        20
        27        24        22        22
        19        20        21        21
        32        26        21        21
        17        18        26        26
        17        16        15        15
        25        29        21        21
        12         7        13        13
        10         8         6         6
        25        20        24        24
         4         6         8         8
        12         2         4         4
        10        23        22        22
        26        31        17        17
        30        16        17        17
         4         7        12        12
        13        11        12        12
        21        20        25        25
        24        28        25        25
        22         8        10        10
         6         5        10        10
        31        26        32        32
         4         2         3         3
         5         6         3         3
        11        13        14        14
        22        23        27        27
        28        24        27        27
        15        13         7         7
         2        12         1         1
        29        25        33        33
        23        10         9         9
        21        26        18        18
        16        14        15        15
        18        17        15        15
        29        32        21        21
        22        24        20        20
        28        33        25        25
        11         1        12        12
        31        30        17        17
         5         9        10        10
zone t="boundary 3 bc-3", solutiontime= 0.2000000E+02, strandid=1003, i=33, j=48, f=feblock
  0.375059200022E+01  0.249769659016E+01  0.500322189356E+01  0.403612276075E+01  0.287976836253E+01  0.124542007693E+01  0.190552302484E+01
  0.500000000000E+01  0.326671142352E+01  0.423253781876E+01  0.201271174245E+01 -0.547422452772E-02  0.958896036991E+00  0.500000000000E+01
  0.266968167030E+01  0.385584505517E+01  0.890374290241E+00  0.154654022521E+01  0.000000000000E+00  0.500000000000E+01  0.315261148394E+01
  0.218304203878E+01  0.398195315244E+01  0.000000000000E+00  0.697379959013E+00  0.963757272110E+00  0.125000000000E+01  0.000000000000E+00
  0.500000000000E+01  0.310330743906E+01  0.250000000000E+01  0.375000000000E+01  0.000000000000E+00
  0.250494212639E+01  0.250494212639E+01  0.250494212639E+01  0.250494212639E+01  0.250494212639E+01  0.250494212639E+01  0.250494212639E+01
  0.250494212639E+01  0.250494212639E+01  0.250494212639E+01  0.250494212639E+01  0.250494212639E+01  0.250494212639E+01  0.250494212639E+01
  0.250494212639E+01  0.250494212639E+01  0.250494212639E+01  0.250494212639E+01  0.250494212639E+01  0.250494212639E+01  0.250494212639E+01
  0.250494212639E+01  0.250494212639E+01  0.250494212639E+01  0.250494212639E+01  0.250494212639E+01  0.250494212639E+01  0.250494212639E+01
  0.250494212639E+01  0.250494212639E+01  0.250494212639E+01  0.250494212639E+01  0.250494212639E+01
  0.136457002285E-03  0.110483637804E-03  0.969506780631E-04  0.101756821126E+01  0.908095280136E+00  0.104842397884E-03  0.722629906057E+00
  0.125000000000E+01  0.188965717333E+01  0.191862733217E+01  0.176708303769E+01  0.808216924785E-04  0.969653363513E+00  0.250000000000E+01
  0.285339477238E+01  0.293325090921E+01  0.205656265140E+01  0.293157054662E+01  0.125000000000E+01  0.375000000000E+01  0.363766866044E+01
  0.396069465964E+01  0.407056399432E+01  0.250000000000E+01  0.307032015182E+01  0.397359832591E+01  0.500000000000E+01  0.375000000000E+01
  0.500000000000E+01  0.433260795381E+01  0.500000000000E+01  0.500000000000E+01  0.500000000000E+01
  0.999994930839E+00  0.999987693069E+00  0.100000374485E+01  0.999998868489E+00  0.999997999374E+00  0.100000694215E+01  0.100000015835E+01
  0.100000177564E+01  0.999999738298E+00  0.100000012124E+01  0.100000150657E+01  0.100001339571E+01  0.100000599021E+01  0.100000123236E+01
  0.100000117984E+01  0.100000071473E+01  0.100000353346E+01  0.100000243544E+01  0.100000779008E+01  0.100000084875E+01  0.100000115607E+01
  0.100000171250E+01  0.100000096196E+01  0.100000412513E+01  0.100000289630E+01  0.100000212546E+01  0.100000178157E+01  0.100000237517E+01
  0.100000068754E+01  0.100000132970E+01  0.100000166305E+01  0.100000118714E+01  0.100000143085E+01
  0.500025870885E+00  0.500031182134E+00  0.500007209615E+00  0.500012564040E+00  0.500016585336E+00  0.500006204325E+00  0.500011135769E+00
  0.500003916353E+00  0.500006775336E+00  0.500005369701E+00  0.500003128278E+00  0.499982529154E+00  0.499996583559E+00  0.500001666059E+00
  0.500001183400E+00  0.500001835439E+00  0.499997473720E+00  0.499998751765E+00  0.499991900042E+00  0.500000621064E+00  0.500000025557E+00
  0.499998726823E+00  0.499999930069E+00  0.499995713829E+00  0.499997389641E+00  0.499997848444E+00  0.499997570836E+00  0.499997538756E+00
  0.500000138812E+00  0.499999061300E+00  0.499997928420E+00  0.499998821697E+00  0.499998346553E+00
  0.000000000000E+00  0.000000000000E+00  0.000000000000E+00  0.000000000000E+00  0.000000000000E+00  0.000000000000E+00  0.000000000000E+00
  0.000000000000E+00  0.000000000000E+00  0.000000000000E+00  0.000000000000E+00  0.000000000000E+00  0.000000000000E+00  0.000000000000E+00
  0.000000000000E+00  0.000000000000E+00  0.000000000000E+00  0.000000000000E+00  0.000000000000E+00  0.000000000000E+00  0.000000000000E+00
  0.000000000000E+00  0.000000000000E+00  0.000000000000E+00  0.000000000000E+00  0.000000000000E+00  0.000000000000E+00  0.000000000000E+00
  0.000000000000E+00  0.000000000000E+00  0.000000000000E+00  0.000000000000E+00  0.000000000000E+00
 -0.335395850749E-05  0.590550052519E-05 -0.105460830944E-04 -0.495563414655E-05  0.138294568301E-05  0.196723564625E-04  0.107127791517E-04
 -0.390760842236E-05  0.165616122003E-05 -0.720961476166E-06  0.495719643215E-05  0.441286674016E-05  0.767979764458E-05  0.430127819005E-06
  0.272540579416E-05  0.123005997627E-05  0.375727739388E-05  0.312113372749E-05  0.920636614031E-06  0.154660238061E-05  0.198035895305E-05
  0.233190786230E-05  0.150452658918E-05  0.149592044973E-06  0.165807061265E-05  0.165994978512E-05  0.171967313455E-05  0.557436620506E-07
  0.106099446902E-05  0.181753287026E-05  0.166911663531E-05  0.123741354711E-05  0.901496446228E-06
  0.714280645814E+00  0.714273408147E+00  0.714289459761E+00  0.714284582575E+00  0.714283714290E+00  0.714292656972E+00  0.714285872656E+00
  0.714287489830E+00  0.714285452398E+00  0.714285835874E+00  0.714287220707E+00  0.714299109772E+00  0.714291704388E+00  0.714286947029E+00
  0.714286893884E+00  0.714286429482E+00  0.714289247846E+00  0.714288149701E+00  0.714293504479E+00  0.714286563132E+00  0.714286870198E+00
  0.714287426938E+00  0.714286676237E+00  0.714289839395E+00  0.714288610539E+00  0.714287839741E+00  0.714287496003E+00  0.714288089366E+00
  0.714286401182E+00  0.714287044277E+00  0.714287376989E+00  0.714286900506E+00  0.714287145545E+00
  0.500026377600E+00  0.500032412681E+00  0.500006835017E+00  0.500012677289E+00  0.500016785187E+00  0.500005510305E+00  0.500011120042E+00
  0.500003738836E+00  0.500006801574E+00  0.500005357455E+00  0.500002977697E+00  0.499981189752E+00  0.499995984644E+00  0.500001542688E+00
  0.500001065507E+00  0.500001763804E+00  0.499997120357E+00  0.499998508241E+00  0.499991121014E+00  0.500000536157E+00  0.499999910009E+00
  0.499998555527E+00  0.499999833878E+00  0.499995301331E+00  0.499997100032E+00  0.499997635904E+00  0.499997392631E+00  0.499997301272E+00
  0.500000070284E+00  0.499998928231E+00  0.499997762240E+00  0.499998703307E+00  0.499998203327E+00
  0.999997973291E+00  0.999995078276E+00  0.100000149881E+01  0.999999547116E+00  0.999999200631E+00  0.100000277760E+01  0.100000006337E+01
  0.100000071012E+01  0.999999895060E+00  0.100000004899E+01  0.100000060242E+01  0.100000535790E+01  0.100000239592E+01  0.100000049348E+01
  0.100000047160E+01  0.100000028655E+01  0.100000141352E+01  0.100000097414E+01  0.100000311617E+01  0.100000033964E+01  0.100000046221E+01
  0.100000068521E+01  0.100000038477E+01  0.100000165001E+01  0.100000115845E+01  0.100000085018E+01  0.100000071284E+01  0.100000094994E+01
  0.100000027412E+01  0.100000053229E+01  0.100000066473E+01  0.100000047357E+01  0.100000057291E+01
        15         9        16        16
        15        18        11        11
        22        15        21        21
        11         5         9         9
         5         7         2         2
        11         9        15        15
        16        21        15        15
        16        10        14        14
        18        17        11        11
        17        25        24        24
        22        18        15        15
        22        30        31        31
        30        21        23        23
        16        20        23        23
        22        27        26        26
        10         9         4         4
         7        11        13        13
        25        18        26        26
        11         7         5         5
         5         1         4         4
        17        19        13        13
        23        32        30        30
        23        20        29        29
         4         9         5         5
         4         8        10        10
        26        18        22        22
        26        28        25        25
        13        11        17        17
        13         6         7         7
        31        30        32        32
         2         1         5         5
         2         7         6         6
        14        10         8         8
        24        19        17        17
        24        25        28        28
         9        10        16        16
         3         4         1         1
        33        26        27        27
        12        13        19        19
        21        30        22        22
        16        14        20        20
        16        23        21        21
        22        31        27        27
        18        25        17        17
        26        33        28        28
         4         3         8         8
        23        29        32        32
        13        12         6         6
zone t="boundary 4 bc-4", solutiontime= 0.2000000E+02, strandid=1004, i=32, j=46, f=feblock
  0.125000000000E+01  0.219251206392E+01  0.103724302461E+01  0.500000000000E+01  0.250000000000E+01  0.375000000000E+01  0.404200324774E+01
  0.500000000000E+01  0.000000000000E+00  0.310152362409E+01  0.202479342020E+01  0.324151231464E+01  0.922061490191E+00  0.000000000000E+00
  0.299062775774E+01  0.394624082883E+01  0.500000000000E+01  0.409252726285E+01  0.500000000000E+01  0.429310310915E+01  0.175434191980E+01
  0.284428995242E+01  0.000000000000E+00  0.000000000000E+00  0.715990576545E+00  0.930412228790E+00  0.125000000000E+01  0.187029682677E+01
  0.500000000000E+01  0.375000000000E+01  0.250000000000E+01  0.000000000000E+00
  0.250494212639E+01  0.157686156160E+01  0.146289271009E+01  0.250494212639E+01  0.250494212639E+01  0.250494212639E+01  0.155830813274E+01
  0.125000000000E+01  0.250494212639E+01  0.177790177481E+01  0.477386199275E+00  0.742988685424E+00  0.308372018325E+00  0.125000000000E+01
 -0.487811078581E+00 -0.144524380962E+01 -0.125000000000E+01 -0.345533899378E+00  0.000000000000E+00  0.627766083140E+00 -0.739814786992E+00
 -0.158811787973E+01  0.000000000000E+00 -0.125000000000E+01 -0.600232012419E+00 -0.154800130438E+01 -0.249658889499E+01 -0.178862290564E+01
 -0.249658889499E+01 -0.249658889499E+01 -0.249658889499E+01 -0.249658889499E+01
  0.500000000000E+01  0.500000000000E+01  0.500000000000E+01  0.500000000000E+01  0.500000000000E+01  0.500000000000E+01  0.500000000000E+01
  0.500000000000E+01  0.500000000000E+01  0.500000000000E+01  0.500000000000E+01  0.500000000000E+01  0.500000000000E+01  0.500000000000E+01
  0.500000000000E+01  0.500000000000E+01  0.500000000000E+01  0.500000000000E+01  0.500000000000E+01  0.500000000000E+01  0.500000000000E+01
  0.500000000000E+01  0.500000000000E+01  0.500000000000E+01  0.500000000000E+01  0.500000000000E+01  0.500000000000E+01  0.500000000000E+01
  0.500000000000E+01  0.500000000000E+01  0.500000000000E+01  0.500000000000E+01
  0.100000178157E+01  0.100000172908E+01  0.100000163633E+01  0.100000068754E+01  0.100000166305E+01  0.100000118714E+01  0.100000108350E+01
  0.100000067040E+01  0.100000143085E+01  0.100000143880E+01  0.100000176885E+01  0.100000143218E+01  0.100000155417E+01  0.100000136109E+01
  0.100000154669E+01  0.100000112426E+01  0.100000066268E+01  0.100000112556E+01  0.100000066512E+01  0.100000101592E+01  0.100000187445E+01
  0.100000160738E+01  0.100000133199E+01  0.100000139824E+01  0.100000150634E+01  0.100000163444E+01  0.100000184710E+01  0.100000186036E+01
  0.100000073864E+01  0.100000125264E+01  0.100000170494E+01  0.100000147495E+01
  0.499997570836E+00  0.499997787705E+00  0.499997776955E+00  0.500000138812E+00  0.499997928420E+00  0.499998821697E+00  0.499999022648E+00
  0.500000154809E+00  0.499998346553E+00  0.499998311960E+00  0.499997724626E+00  0.499998351397E+00  0.499997966862E+00  0.499998575875E+00
  0.499998198554E+00  0.499998984965E+00  0.500000012467E+00  0.499999010622E+00  0.500000140387E+00  0.499999217151E+00  0.499997614768E+00
  0.499998095443E+00  0.499998602848E+00  0.499998467747E+00  0.499998084744E+00  0.499997827834E+00  0.499997534039E+00  0.499997574377E+00
  0.500000150012E+00  0.499998799030E+00  0.499997841993E+00  0.499998303870E+00
  0.000000000000E+00 -0.747617518050E-07 -0.826305509071E-07  0.000000000000E+00  0.000000000000E+00  0.000000000000E+00  0.785233191576E-07
  0.854252775976E-07  0.000000000000E+00 -0.134619244989E-07  0.351341177214E-07  0.308626844454E-07  0.395451408649E-07 -0.781195685226E-07
  0.645523892628E-07 -0.135554555261E-07  0.211974421875E-07 -0.124530834552E-07  0.328628672261E-07  0.583341265936E-07  0.134846009381E-06
  0.802791839169E-07 -0.142194321990E-07  0.648240389874E-07  0.869334341283E-07  0.161321917483E-06  0.000000000000E+00  0.107007060145E-06
  0.000000000000E+00  0.000000000000E+00  0.000000000000E+00  0.000000000000E+00