title="tecplot geometry and solution file"
variables = x y z rho u v w p mach temperature
zone t="boundary 1 bc-1", solutiontime= 0.4000000E+02, strandid=1001, i=32, j=46, f=feblock
 -0.547422452772E-02  0.000000000000E+00 -0.567510116354E-02  0.000000000000E+00  0.000000000000E+00  0.000000000000E+00 -0.525112568575E-02
 -0.425678988008E-02  0.000000000000E+00  0.000000000000E+00  0.000000000000E+00  0.000000000000E+00  0.000000000000E+00  0.000000000000E+00
  0.000000000000E+00  0.000000000000E+00 -0.338346965251E-02  0.000000000000E+00  0.000000000000E+00  0.000000000000E+00  0.000000000000E+00
  0.000000000000E+00  0.000000000000E+00  0.000000000000E+00  0.000000000000E+00  0.000000000000E+00  0.000000000000E+00  0.000000000000E+00
  0.000000000000E+00  0.000000000000E+00  0.000000000000E+00  0.000000000000E+00
  0.250494212639E+01  0.250494212639E+01  0.127822224353E+01  0.146289271009E+01  0.157686156160E+01  0.308372018325E+00  0.261960149565E-01
 -0.122573417301E+01 -0.600232012419E+00  0.250494212639E+01  0.477386199275E+00  0.742988685424E+00 -0.739814786992E+00  0.177790177481E+01
  0.155830813274E+01  0.250494212639E+01 -0.249658889499E+01 -0.154800130438E+01 -0.487811078581E+00  0.250494212639E+01  0.627766083140E+00
 -0.345533899378E+00 -0.178862290564E+01 -0.158811787973E+01  0.125000000000E+01 -0.249658889499E+01 -0.144524380962E+01  0.000000000000E+00
 -0.125000000000E+01 -0.249658889499E+01 -0.249658889499E+01 -0.249658889499E+01
  0.808216924785E-04  0.125000000000E+01  0.832205278517E-04  0.103724302461E+01  0.219251206392E+01  0.922061490191E+00  0.104377881505E-03
  0.351876513122E-04  0.715990576545E+00  0.250000000000E+01  0.202479342020E+01  0.324151231464E+01  0.175434191980E+01  0.310152362409E+01
  0.404200324774E+01  0.375000000000E+01  0.816362586350E-04  0.930412228790E+00  0.299062775774E+01  0.500000000000E+01  0.429310310915E+01
  0.409252726285E+01  0.187029682677E+01  0.284428995242E+01  0.500000000000E+01  0.125000000000E+01  0.394624082883E+01  0.500000000000E+01
  0.500000000000E+01  0.250000000000E+01  0.375000000000E+01  0.500000000000E+01
  0.100001339438E+01  0.100000778982E+01  0.100001489567E+01  0.100000909998E+01  0.100000488286E+01  0.100001007267E+01  0.100002059194E+01
  0.100002729589E+01  0.100001279017E+01  0.100000412512E+01  0.100000565148E+01  0.100000311938E+01  0.100000677735E+01  0.100000320610E+01
  0.100000210327E+01  0.100000237500E+01  0.100002096976E+01  0.100001125277E+01  0.100000359049E+01  0.100000143164E+01  0.100000194238E+01
  0.100000216363E+01  0.100000644684E+01  0.100000379001E+01  0.100000136134E+01  0.100000925873E+01  0.100000228687E+01  0.100000133178E+01
  0.100000139803E+01  0.100000442605E+01  0.100000251156E+01  0.100000147479E+01
  0.499982528859E+00  0.499991900280E+00  0.499982744273E+00  0.499989815094E+00  0.499994783826E+00  0.499987911574E+00  0.499982099994E+00
  0.499980764256E+00  0.499986105098E+00  0.499995714003E+00  0.499994040486E+00  0.499996804049E+00  0.499992350865E+00  0.499996742255E+00
  0.499997699504E+00  0.499997539131E+00  0.499984112010E+00  0.499986563374E+00  0.499996171482E+00  0.499998347829E+00  0.499997998820E+00
  0.499997752378E+00  0.499993653757E+00  0.499995728069E+00  0.499998575856E+00  0.499990648397E+00  0.499997520000E+00  0.499998603018E+00
  0.499998467732E+00  0.499995388747E+00  0.499997353712E+00  0.499998304912E+00
  0.000000000000E+00  0.000000000000E+00  0.141507053959E-05  0.436406035441E-06  0.673087339867E-07  0.171331534510E-05  0.363955446528E-05
  0.353355023707E-06  0.264514805038E-05  0.000000000000E+00 -0.157805347926E-06 -0.168096964830E-07  0.438257889944E-06  0.695988610994E-07
  0.739531992681E-07  0.000000000000E+00  0.000000000000E+00  0.855921007261E-07 -0.217835179212E-06  0.000000000000E+00 -0.663010193369E-08
 -0.116297308803E-07  0.312719416942E-07 -0.102174735042E-06 -0.776762836170E-07  0.000000000000E+00 -0.264971314195E-07 -0.142391499523E-07
  0.646700196729E-07  0.000000000000E+00  0.000000000000E+00  0.000000000000E+00
  0.441128580015E-05  0.920945628686E-06  0.500084179738E-05  0.146660200016E-05  0.727721929227E-06  0.200308940392E-06  0.495730732876E-05
  0.145091922444E-04  0.423729444088E-05  0.149780410861E-06  0.242436701704E-06  0.658118485237E-07 -0.304721682169E-06  0.185168087378E-06
  0.340380798804E-06  0.558305917641E-07  0.102833784511E-04  0.526671501040E-05  0.122445730324E-06  0.900269993822E-06  0.350347198271E-06
  0.299912292807E-06  0.744866129227E-06 -0.392466855016E-07  0.947839148128E-06  0.297805927119E-05  0.338173756424E-06  0.822051598579E-06
  0.781862471026E-06  0.189626554518E-06  0.269558235301E-07  0.833749546895E-06
  0.714299108723E+00  0.714293504115E+00  0.714300610025E+00  0.714294814283E+00  0.714290597152E+00  0.714295786957E+00  0.714306306319E+00
  0.714313010418E+00  0.714298504491E+00  0.714289839411E+00  0.714291365773E+00  0.714288833671E+00  0.714292491646E+00  0.714288920386E+00
  0.714287817558E+00  0.714288089286E+00  0.714306684179E+00  0.714296967071E+00  0.714289304779E+00  0.714287145929E+00  0.714287656667E+00
  0.714287877915E+00  0.714292161139E+00  0.714289504298E+00  0.714287075626E+00  0.714294973032E+00  0.714288001161E+00  0.714287046062E+00
  0.714287112313E+00  0.714290140341E+00  0.714288225848E+00  0.714287189076E+00
  0.499981189491E+00  0.499991121315E+00  0.499981254789E+00  0.499988905123E+00  0.499994295547E+00  0.499986904347E+00  0.499980040933E+00
  0.499978034995E+00  0.499984826150E+00  0.499995301495E+00  0.499993475346E+00  0.499996492113E+00  0.499991673143E+00  0.499996421648E+00
  0.499997489178E+00  0.499997301633E+00  0.499982015216E+00  0.499985438167E+00  0.499995812436E+00  0.499998204666E+00  0.499997804583E+00
  0.499997536017E+00  0.499993009083E+00  0.499995349072E+00  0.499998439723E+00  0.499989722554E+00  0.499997291314E+00  0.499998469841E+00
  0.499998327930E+00  0.499994946147E+00  0.499997102558E+00  0.499998157434E+00
  0.100000535776E+01  0.100000311592E+01  0.100000595828E+01  0.100000363998E+01  0.100000195314E+01  0.100000402903E+01  0.100000823674E+01
  0.100001091840E+01  0.100000511606E+01  0.100000165005E+01  0.100000226059E+01  0.100000124775E+01  0.100000271094E+01  0.100000128244E+01
  0.100000084131E+01  0.100000095000E+01  0.100000838792E+01  0.100000450107E+01  0.100000143620E+01  0.100000057266E+01  0.100000077695E+01
  0.100000086545E+01  0.100000257873E+01  0.100000151600E+01  0.100000054454E+01  0.100000370349E+01  0.100000091475E+01  0.100000053271E+01
  0.100000055921E+01  0.100000177042E+01  0.100000100462E+01  0.100000058992E+01
        12        19        11        11
        11         5        12        12
        10        14         5         5
        19        13        11        11
        19        24        13        13
        30        23        24        24
        19        12        22        22
        28        22        21        21
        11        13         6         6
         7         6         9         9
        15        12        14        14
        18        13        23        23
        15        25        21        21
        27        19        22        22
        18         8         9         9
        27        31        24        24
         4        11         6         6
         5        14        12        12
         4         2         5         5
        21        12        15        15
        14        16        15        15
        24        19        27        27
        22        29        27        27
        23        26        18        18
        17         8        18        18
         5        11         4         4
         6         3         4         4
        26        23        30        30
         5         2        10        10
        16        14        10        10
         3         6         7         7
        21        25        28        28
        29        22        28        28
         6        13         9         9
         2         4         1         1
        31        27        32        32
        25        15        20        20
        24        23        13        13
         8         7         9         9
        13        18         9         9
        31        30        24        24
        12        21        22        22
        29        32        27        27
         3         1         4         4
        26        17        18        18
        16        20        15        15
zone t="boundary 2 bc-2", solutiontime= 0.4000000E+02, strandid=1002, i=33, j=48, f=feblock
  0.500195305313E+01  0.375034912201E+01  0.249861196354E+01  0.288036736122E+01  0.124717626151E+01  0.190856778359E+01  0.326577225489E+01
  0.201394899013E+01 -0.338346965251E-02  0.962374705946E+00  0.500000000000E+01  0.403430242702E+01  0.423029585421E+01  0.500000000000E+01
  0.385439203165E+01  0.500000000000E+01  0.398133438873E+01  0.315200091180E+01  0.266958048114E+01  0.154798041552E+01  0.218327865435E+01
  0.893688581176E+00  0.000000000000E+00  0.699009801023E+00  0.964460914345E+00  0.310303675842E+01  0.000000000000E+00  0.000000000000E+00
  0.125000000000E+01  0.500000000000E+01  0.375000000000E+01  0.250000000000E+01  0.000000000000E+00
 -0.249658889499E+01 -0.249658889499E+01 -0.249658889499E+01 -0.249658889499E+01 -0.249658889499E+01 -0.249658889499E+01 -0.249658889499E+01
 -0.249658889499E+01 -0.249658889499E+01 -0.249658889499E+01 -0.249658889499E+01 -0.249658889499E+01 -0.249658889499E+01 -0.249658889499E+01
 -0.249658889499E+01 -0.249658889499E+01 -0.249658889499E+01 -0.249658889499E+01 -0.249658889499E+01 -0.249658889499E+01 -0.249658889499E+01
 -0.249658889499E+01 -0.249658889499E+01 -0.249658889499E+01 -0.249658889499E+01 -0.249658889499E+01 -0.249658889499E+01 -0.249658889499E+01
 -0.249658889499E+01 -0.249658889499E+01 -0.249658889499E+01 -0.249658889499E+01 -0.249658889499E+01
  0.108709237191E-03  0.146875487893E-03  0.101409957516E-03  0.901663848142E+00  0.111895828141E-03  0.714929135901E+00  0.188140686189E+01
  0.175892218342E+01  0.816362586350E-04  0.957504934716E+00  0.125000000000E+01  0.100596744181E+01  0.191313547189E+01  0.250000000000E+01
  0.292898120965E+01  0.375000000000E+01  0.406883379958E+01  0.363389309169E+01  0.284756893464E+01  0.292582332356E+01  0.395754068714E+01
  0.205027285783E+01  0.125000000000E+01  0.306703284160E+01  0.397155773791E+01  0.433068631589E+01  0.250000000000E+01  0.375000000000E+01
  0.500000000000E+01  0.500000000000E+01  0.500000000000E+01  0.500000000000E+01  0.500000000000E+01
  0.999999019302E+00  0.999995827854E+00  0.999994374298E+00  0.999998228414E+00  0.999999388511E+00  0.100000002158E+01  0.999999545525E+00
  0.100000162824E+01  0.100002096976E+01  0.100000546855E+01  0.100000226233E+01  0.999998651262E+00  0.100000049249E+01  0.100000153057E+01
  0.100000080965E+01  0.100000096040E+01  0.100000104794E+01  0.100000121652E+01  0.100000133158E+01  0.100000242339E+01  0.100000176307E+01
  0.100000408094E+01  0.100000925873E+01  0.100000316876E+01  0.100000226826E+01  0.100000139539E+01  0.100000442605E+01  0.100000251156E+01
  0.100000184715E+01  0.100000073516E+01  0.100000125219E+01  0.100000170561E+01  0.100000147479E+01
  0.500013674060E+00  0.500030302186E+00  0.500027244948E+00  0.500017342716E+00  0.500015432096E+00  0.500014607249E+00  0.500007298849E+00
  0.500003837336E+00  0.499984112010E+00  0.499999874758E+00  0.500004726561E+00  0.500015651253E+00  0.500005831080E+00  0.500001628319E+00
  0.500001815298E+00  0.500000522756E+00  0.500000016225E+00  0.500000167091E+00  0.500001357222E+00  0.499998682778E+00  0.499998713236E+00
  0.499997416211E+00  0.499990648397E+00  0.499997138729E+00  0.499997734568E+00  0.499999088857E+00  0.499995388747E+00  0.499997353712E+00
  0.499997534366E+00  0.500000143351E+00  0.499998786399E+00  0.499997838668E+00  0.499998304912E+00
  0.000000000000E+00  0.000000000000E+00  0.000000000000E+00  0.000000000000E+00  0.000000000000E+00  0.000000000000E+00  0.000000000000E+00
  0.000000000000E+00  0.000000000000E+00  0.000000000000E+00  0.000000000000E+00  0.000000000000E+00  0.000000000000E+00  0.000000000000E+00
  0.000000000000E+00  0.000000000000E+00  0.000000000000E+00  0.000000000000E+00  0.000000000000E+00  0.000000000000E+00  0.000000000000E+00
  0.000000000000E+00  0.000000000000E+00  0.000000000000E+00  0.000000000000E+00  0.000000000000E+00  0.000000000000E+00  0.000000000000E+00
  0.000000000000E+00  0.000000000000E+00  0.000000000000E+00  0.000000000000E+00  0.000000000000E+00
 -0.143942225009E-04 -0.141246158241E-05  0.633867338133E-05  0.434825138884E-05  0.122043864404E-04  0.100661800263E-04  0.235759450036E-05
  0.613392966374E-05  0.102833784511E-04  0.104431709284E-04 -0.388136536274E-05 -0.178191162536E-05  0.852378020249E-07  0.132662808975E-05
  0.154923823806E-05  0.192752785922E-05  0.167765471779E-05  0.223836835138E-05  0.312167230207E-05  0.381170936403E-05  0.239845423077E-05
  0.447329950719E-05  0.297805927119E-05  0.187570047646E-05  0.182982983014E-05  0.194856202188E-05  0.189626554518E-06  0.269558235301E-07
  0.177219919449E-05  0.112500971408E-05  0.132814662749E-05  0.170114902437E-05  0.833749546895E-06
  0.714284733788E+00  0.714281542308E+00  0.714280088740E+00  0.714283942752E+00  0.714285102957E+00  0.714285735934E+00  0.714285259803E+00
  0.714287342524E+00  0.714306684179E+00  0.714291182854E+00  0.714287976658E+00  0.714284365595E+00  0.714286206775E+00  0.714287244850E+00
  0.714286523927E+00  0.714286674686E+00  0.714286762223E+00  0.714286930810E+00  0.714287045859E+00  0.714288137673E+00  0.714287477361E+00
  0.714289795233E+00  0.714294973032E+00  0.714288883048E+00  0.714287982546E+00  0.714287109680E+00  0.714290140341E+00  0.714288225848E+00
  0.714287561434E+00  0.714286449443E+00  0.714286966473E+00  0.714287419896E+00  0.714287189076E+00
  0.500013772270E+00  0.500030719371E+00  0.500027807539E+00  0.500017519881E+00  0.500015493339E+00  0.500014605169E+00  0.500007344305E+00
  0.500003674549E+00  0.499982015216E+00  0.499999328009E+00  0.500004500328E+00  0.500015786118E+00  0.500005781831E+00  0.500001475266E+00
  0.500001734338E+00  0.500000426721E+00  0.499999911434E+00  0.500000045444E+00  0.500001224075E+00  0.499998440455E+00  0.499998536935E+00
  0.499997008139E+00  0.499989722554E+00  0.499996821859E+00  0.499997507747E+00  0.499998949322E+00  0.499994946147E+00  0.499997102558E+00
  0.499997349655E+00  0.500000069837E+00  0.499998661183E+00  0.499997668111E+00  0.499998157434E+00
  0.999999608001E+00  0.999998331371E+00  0.999997749925E+00  0.999999291437E+00  0.999999755629E+00  0.100000000872E+01  0.999999818199E+00
  0.100000065129E+01  0.100000838792E+01  0.100000218744E+01  0.100000090499E+01  0.999999460570E+00  0.100000019699E+01  0.100000061222E+01
  0.100000032385E+01  0.100000038416E+01  0.100000041918E+01  0.100000048661E+01  0.100000053263E+01  0.100000096935E+01  0.100000070523E+01
  0.100000163238E+01  0.100000370349E+01  0.100000126750E+01  0.100000090730E+01  0.100000055816E+01  0.100000177042E+01  0.100000100462E+01
  0.100000073886E+01  0.100000029406E+01  0.100000050087E+01  0.100000068224E+01  0.100000058992E+01
        15         7        19        19
         8        20        19        19
        18        19        21        21
         7         4         8         8
         3         6         4         4
        19         7         8         8
        19        18        15        15
        14        13        15        15
         8        22        20        20
        27        24        22        22
        19        20        21        21
        32        26        21        21
        17        18        26        26
        17        16        15        15
        25        29        21        21
        12         7        13        13
        10         8         6         6
        25        20        24        24
         4         6         8         8
        12         2         4         4
        10        23        22        22
        26        31        17        17
        30        16        17        17
         4         7        12        12
        13        11        12        12
        21        20        25        25
        24        28        25        25
        22         8        10        10
         6         5        10        10
        31        26        32        32
         4         2         3         3
         5         6         3         3
        11        13        14        14
        22        23        27        27
        28        24        27        27
        15        13         7         7
         2        12         1         1
        29        25        33        33
        23        10         9         9
        21        26        18        18
        16        14        15        15
        18        17        15        15
        29        32        21        21
        22        24        20        20
        28        33        25        25
        11         1        12        12
        31        30        17        17
         5         9        10        10
zone t="boundary 3 bc-3", solutiontime= 0.4000000E+02, strandid=1003, i=33, j=48, f=feblock
  0.375059200022E+01  0.249769659016E+01  0.500322189356E+01  0.403612276075E+01  0.287976836253E+01  0.124542007693E+01  0.190552302484E+01
  0.500000000000E+01  0.326671142352E+01  0.423253781876E+01  0.201271174245E+01 -0.547422452772E-02  0.958896036991E+00  0.500000000000E+01
  0.266968167030E+01  0.385584505517E+01  0.890374290241E+00  0.154654022521E+01  0.000000000000E+00  0.500000000000E+01  0.315261148394E+01
  0.218304203878E+01  0.398195315244E+01  0.000000000000E+00  0.697379959013E+00  0.963757272110E+00  0.125000000000E+01  0.000000000000E+00
  0.500000000000E+01  0.310330743906E+01  0.250000000000E+01  0.375000000000E+01  0.000000000000E+00
  0.250494212639E+01  0.250494212639E+01  0.250494212639E+01  0.250494212639E+01  0.250494212639E+01  0.250494212639E+01  0.250494212639E+01
  0.250494212639E+01  0.250494212639E+01  0.250494212639E+01  0.250494212639E+01  0.250494212639E+01  0.250494212639E+01  0.250494212639E+01
  0.250494212639E+01  0.250494212639E+01  0.250494212639E+01  0.250494212639E+01  0.250494212639E+01  0.250494212639E+01  0.250494212639E+01
  0.250494212639E+01  0.250494212639E+01  0.250494212639E+01  0.250494212639E+01  0.250494212639E+01  0.250494212639E+01  0.250494212639E+01
  0.250494212639E+01  0.250494212639E+01  0.250494212639E+01  0.250494212639E+01  0.250494212639E+01
  0.136457002285E-03  0.110483637804E-03  0.969506780631E-04  0.101756821126E+01  0.908095280136E+00  0.104842397884E-03  0.722629906057E+00
  0.125000000000E+01  0.188965717333E+01  0.191862733217E+01  0.176708303769E+01  0.808216924785E-04  0.969653363513E+00  0.250000000000E+01
  0.285339477238E+01  0.293325090921E+01  0.205656265140E+01  0.293157054662E+01  0.125000000000E+01  0.375000000000E+01  0.363766866044E+01
  0.396069465964E+01  0.407056399432E+01  0.250000000000E+01  0.307032015182E+01  0.397359832591E+01  0.500000000000E+01  0.375000000000E+01
  0.500000000000E+01  0.433260795381E+01  0.500000000000E+01  0.500000000000E+01  0.500000000000E+01
  0.999994932182E+00  0.999987692222E+00  0.100000374692E+01  0.999998865962E+00  0.999997996161E+00  0.100000694162E+01  0.100000015751E+01
  0.100000177353E+01  0.999999738542E+00  0.100000012096E+01  0.100000150679E+01  0.100001339438E+01  0.100000598929E+01  0.100000123357E+01
  0.100000117906E+01  0.100000071558E+01  0.100000353330E+01  0.100000243548E+01  0.100000778982E+01  0.100000084950E+01  0.100000115628E+01
  0.100000171254E+01  0.100000096131E+01  0.100000412512E+01  0.100000289624E+01  0.100000212523E+01  0.100000178155E+01  0.100000237500E+01
  0.100000068385E+01  0.100000132957E+01  0.100000166322E+01  0.100000118646E+01  0.100000143164E+01
  0.500025879853E+00  0.500031187688E+00  0.500007213901E+00  0.500012544626E+00  0.500016575450E+00  0.500006204892E+00  0.500011137662E+00
  0.500003905722E+00  0.500006774808E+00  0.500005366704E+00  0.500003129593E+00  0.499982528859E+00  0.499996584620E+00  0.500001667688E+00
  0.500001183070E+00  0.500001844561E+00  0.499997473622E+00  0.499998749979E+00  0.499991900280E+00  0.500000625716E+00  0.500000024603E+00
  0.499998727237E+00  0.499999934026E+00  0.499995714003E+00  0.499997389661E+00  0.499997849103E+00  0.499997572909E+00  0.499997539131E+00
  0.500000129303E+00  0.499999061692E+00  0.499997926443E+00  0.499998805042E+00  0.499998347829E+00
  0.000000000000E+00  0.000000000000E+00  0.000000000000E+00  0.000000000000E+00  0.000000000000E+00  0.000000000000E+00  0.000000000000E+00
  0.000000000000E+00  0.000000000000E+00  0.000000000000E+00  0.000000000000E+00  0.000000000000E+00  0.000000000000E+00  0.000000000000E+00
  0.000000000000E+00  0.000000000000E+00  0.000000000000E+00  0.000000000000E+00  0.000000000000E+00  0.000000000000E+00  0.000000000000E+00
  0.000000000000E+00  0.000000000000E+00  0.000000000000E+00  0.000000000000E+00  0.000000000000E+00  0.000000000000E+00  0.000000000000E+00
  0.000000000000E+00  0.000000000000E+00  0.000000000000E+00  0.000000000000E+00  0.000000000000E+00
 -0.336118516496E-05  0.590019948416E-05 -0.105462482191E-04 -0.495617066665E-05  0.138322742467E-05  0.196723202034E-04  0.107106162988E-04
 -0.391082095560E-05  0.165788629665E-05 -0.723216227720E-06  0.495716669739E-05  0.441128580015E-05  0.767835381341E-05  0.426765968708E-06
  0.272531045056E-05  0.122858916531E-05  0.375693971944E-05  0.312157885084E-05  0.920945628686E-06  0.154735579896E-05  0.197703560705E-05
  0.233250438482E-05  0.150034220301E-05  0.149780410861E-06  0.165870864382E-05  0.166043390620E-05  0.171932513201E-05  0.558305917641E-07
  0.106215739351E-05  0.181457269044E-05  0.167043961495E-05  0.123925030348E-05  0.900269993822E-06
  0.714280646610E+00  0.714273406683E+00  0.714289461367E+00  0.714284580282E+00  0.714283710482E+00  0.714292655956E+00  0.714285871831E+00
  0.714287487848E+00  0.714285452827E+00  0.714285835243E+00  0.714287221076E+00  0.714299108723E+00  0.714291703594E+00  0.714286947849E+00
  0.714286893341E+00  0.714286429861E+00  0.714289247585E+00  0.714288149763E+00  0.714293504115E+00  0.714286563787E+00  0.714286870564E+00
  0.714287426829E+00  0.714286675594E+00  0.714289839411E+00  0.714288610528E+00  0.714287839522E+00  0.714287495841E+00  0.714288089286E+00
  0.714286398136E+00  0.714287043857E+00  0.714287377503E+00  0.714286900747E+00  0.714287145929E+00
  0.500026386626E+00  0.500032418536E+00  0.500006839259E+00  0.500012658045E+00  0.500016775831E+00  0.500005511096E+00  0.500011122013E+00
  0.500003728373E+00  0.500006800957E+00  0.500005354610E+00  0.500002978937E+00  0.499981189491E+00  0.499995985753E+00  0.500001544334E+00
  0.500001065172E+00  0.500001773005E+00  0.499997120309E+00  0.499998506442E+00  0.499991121315E+00  0.500000540769E+00  0.499999908979E+00
  0.499998555989E+00  0.499999837898E+00  0.499995301495E+00  0.499997100042E+00  0.499997636583E+00  0.499997394757E+00  0.499997301633E+00
  0.500000060918E+00  0.499998928738E+00  0.499997760125E+00  0.499998686397E+00  0.499998204666E+00
  0.999997973061E+00  0.999995077074E+00  0.100000149899E+01  0.999999546433E+00  0.999999198512E+00  0.100000277670E+01  0.100000006305E+01
  0.100000070945E+01  0.999999895416E+00  0.100000004838E+01  0.100000060272E+01  0.100000535776E+01  0.100000239572E+01  0.100000049342E+01
  0.100000047162E+01  0.100000028623E+01  0.100000141332E+01  0.100000097419E+01  0.100000311592E+01  0.100000033980E+01  0.100000046251E+01
  0.100000068502E+01  0.100000038452E+01  0.100000165005E+01  0.100000115849E+01  0.100000085009E+01  0.100000071262E+01  0.100000095000E+01
  0.100000027354E+01  0.100000053183E+01  0.100000066529E+01  0.100000047459E+01  0.100000057266E+01
        15         9        16        16
        15        18        11        11
        22        15        21        21
        11         5         9         9
         5         7         2         2
        11         9        15        15
        16        21        15        15
        16        10        14        14
        18        17        11        11
        17        25        24        24
        22        18        15        15
        22        30        31        31
        30        21        23        23
        16        20        23        23
        22        27        26        26
        10         9         4         4
         7        11        13        13
        25        18        26        26
        11         7         5         5
         5         1         4         4
        17        19        13        13
        23        32        30        30
        23        20        29        29
         4         9         5         5
         4         8        10        10
        26        18        22        22
        26        28        25        25
        13        11        17        17
        13         6         7         7
        31        30        32        32
         2         1         5         5
         2         7         6         6
        14        10         8         8
        24        19        17        17
        24        25        28        28
         9        10        16        16
         3         4         1         1
        33        26        27        27
        12        13        19        19
        21        30        22        22
        16        14        20        20
        16        23        21        21
        22        31        27        27
        18        25        17        17
        26        33        28        28
         4         3         8         8
        23        29        32        32
        13        12         6         6
zone t="boundary 4 bc-4", solutiontime= 0.4000000E+02, strandid=1004, i=32, j=46, f=feblock
  0.125000000000E+01  0.219251206392E+01  0.103724302461E+01  0.500000000000E+01  0.250000000000E+01  0.375000000000E+01  0.404200324774E+01
  0.500000000000E+01  0.000000000000E+00  0.310152362409E+01  0.202479342020E+01  0.324151231464E+01  0.922061490191E+00  0.000000000000E+00
  0.299062775774E+01  0.394624082883E+01  0.500000000000E+01  0.409252726285E+01  0.500000000000E+01  0.429310310915E+01  0.175434191980E+01
  0.284428995242E+01  0.000000000000E+00  0.000000000000E+00  0.715990576545E+00  0.930412228790E+00  0.125000000000E+01  0.187029682677E+01
  0.500000000000E+01  0.375000000000E+01  0.250000000000E+01  0.000000000000E+00
  0.250494212639E+01  0.157686156160E+01  0.146289271009E+01  0.250494212639E+01  0.250494212639E+01  0.250494212639E+01  0.155830813274E+01
  0.125000000000E+01  0.250494212639E+01  0.177790177481E+01  0.477386199275E+00  0.742988685424E+00  0.308372018325E+00  0.125000000000E+01
 -0.487811078581E+00 -0.144524380962E+01 -0.125000000000E+01 -0.345533899378E+00  0.000000000000E+00  0.627766083140E+00 -0.739814786992E+00
 -0.158811787973E+01  0.000000000000E+00 -0.125000000000E+01 -0.600232012419E+00 -0.154800130438E+01 -0.249658889499E+01 -0.178862290564E+01
 -0.249658889499E+01 -0.249658889499E+01 -0.249658889499E+01 -0.249658889499E+01
  0.500000000000E+01  0.500000000000E+01  0.500000000000E+01  0.500000000000E+01  0.500000000000E+01  0.500000000000E+01  0.500000000000E+01
  0.500000000000E+01  0.500000000000E+01  0.500000000000E+01  0.500000000000E+01  0.500000000000E+01  0.500000000000E+01  0.500000000000E+01
  0.500000000000E+01  0.500000000000E+01  0.500000000000E+01  0.500000000000E+01  0.500000000000E+01  0.500000000000E+01  0.500000000000E+01
  0.500000000000E+01  0.500000000000E+01  0.500000000000E+01  0.500000000000E+01  0.500000000000E+01  0.500000000000E+01  0.500000000000E+01
  0.500000000000E+01  0.500000000000E+01  0.500000000000E+01  0.500000000000E+01
  0.100000178155E+01  0.100000172913E+01  0.100000163623E+01  0.100000068385E+01  0.100000166322E+01  0.100000118646E+01  0.100000108210E+01
  0.100000066719E+01  0.100000143164E+01  0.100000143927E+01  0.100000176921E+01  0.100000143241E+01  0.100000155446E+01  0.100000136134E+01
  0.100000154681E+01  0.100000112354E+01  0.100000066040E+01  0.100000112449E+01  0.100000066336E+01  0.100000101426E+01  0.100000187504E+01
  0.100000160827E+01  0.100000133178E+01  0.100000139803E+01  0.100000150656E+01  0.100000163453E+01  0.100000184715E+01  0.100000186090E+01
  0.100000073516E+01  0.100000125219E+01  0.100000170561E+01  0.100000147479E+01
  0.499997572909E+00  0.499997786686E+00  0.499997777156E+00  0.500000129303E+00  0.499997926443E+00  0.499998805042E+00  0.499999006013E+00
  0.500000147614E+00  0.499998347829E+00  0.499998305513E+00  0.499997722834E+00  0.499998348005E+00  0.499997966664E+00  0.499998575856E+00
  0.499998193308E+00  0.499998971651E+00  0.500000006508E+00  0.499999004236E+00  0.500000137459E+00  0.499999209989E+00  0.499997613690E+00
  0.499998088172E+00  0.499998603018E+00  0.499998467732E+00  0.499998084586E+00  0.499997828561E+00  0.499997534366E+00  0.499997573409E+00
  0.500000143351E+00  0.499998786399E+00  0.499997838668E+00  0.499998304912E+00
  0.000000000000E+00 -0.769319896981E-07 -0.838101821719E-07  0.000000000000E+00  0.000000000000E+00  0.000000000000E+00  0.825297307373E-07
  0.914583769074E-07  0.000000000000E+00 -0.147405825884E-07  0.340195605350E-07  0.295074579184E-07  0.388850110752E-07 -0.776762836170E-07
  0.656372936127E-07 -0.135533630773E-07  0.194286467479E-07 -0.129511960569E-07  0.344532119970E-07  0.610044976260E-07  0.136043336236E-06
  0.816994544358E-07 -0.142391499523E-07  0.646700196729E-07  0.867142161886E-07  0.161959905805E-06  0.000000000000E+00  0.107603254528E-06
  0.000000000000E+00  0.000000000000E+00  0.000000000000E+00  0.000000000000E+00