# vtk DataFile Version 2.0
FUN3D:global_image_vtk
ASCII
DATASET UNSTRUCTURED_GRID
POINTS 213 double
    0.0000000000000000E+00    0.2500000000000000E+01    0.0000000000000000E+00
    0.1250000000000000E+01    0.2500000000000000E+01    0.0000000000000000E+00
    0.2500000000000000E+01    0.2500000000000000E+01    0.0000000000000000E+00
    0.3750000000000000E+01    0.2500000000000000E+01    0.0000000000000000E+00
    0.5000000000000000E+01    0.2500000000000000E+01    0.0000000000000000E+00
    0.5000000000000000E+01    0.1250000000000000E+01    0.0000000000000000E+00
    0.5000000000000000E+01    0.0000000000000000E+00    0.0000000000000000E+00
    0.5000000000000000E+01   -0.1250000000000000E+01    0.0000000000000000E+00
    0.5000000000000000E+01   -0.2500000000000000E+01    0.0000000000000000E+00
    0.3750000000000000E+01   -0.2500000000000000E+01    0.0000000000000000E+00
    0.2500000000000000E+01   -0.2500000000000000E+01    0.0000000000000000E+00
    0.1250000000000000E+01   -0.2500000000000000E+01    0.0000000000000000E+00
    0.0000000000000000E+00   -0.2500000000000000E+01    0.0000000000000000E+00
    0.0000000000000000E+00   -0.1250000000000000E+01    0.0000000000000000E+00
    0.0000000000000000E+00    0.0000000000000000E+00    0.0000000000000000E+00
    0.0000000000000000E+00    0.1250000000000000E+01    0.0000000000000000E+00
    0.9058375365086910E+00    0.1578994732800803E+01    0.0000000000000000E+00
    0.3982050490726493E+01   -0.1583989954232354E+01    0.0000000000000000E+00
    0.4033849428301197E+01    0.1453322699199022E+01    0.0000000000000000E+00
    0.1040505887381675E+01   -0.1479596339503735E+01    0.0000000000000000E+00
    0.1099454400140349E+01   -0.3227322616384110E+00    0.0000000000000000E+00
    0.7354504170366591E+00    0.6593508822075582E+00    0.0000000000000000E+00
    0.1622302608453282E+01    0.8256214013940779E+00    0.0000000000000000E+00
    0.2145871574390382E+01   -0.1650070333782557E+01    0.0000000000000000E+00
    0.4086422318222992E+01   -0.4612828702537229E+00    0.0000000000000000E+00
    0.2979540174134984E+01   -0.8579242121530853E+00    0.0000000000000000E+00
    0.3045064261640043E+01   -0.1836846154397680E+01    0.0000000000000000E+00
    0.3428197553792836E+01    0.3508002863614053E+00    0.0000000000000000E+00
    0.4309693860063405E+01    0.5185680230613409E+00    0.0000000000000000E+00
    0.1827272193562204E+01    0.1738996113203182E+01    0.0000000000000000E+00
    0.2808563282768077E+01    0.1325493893339706E+01    0.0000000000000000E+00
    0.1895995683864404E+01   -0.8731419609589618E+00    0.0000000000000000E+00
    0.2273179336307740E+01    0.4906150219227333E-01    0.0000000000000000E+00
    0.5000000000000000E+01    0.2500000000000000E+01    0.1250000000000000E+01
    0.5000000000000000E+01    0.2500000000000000E+01    0.2500000000000000E+01
    0.5000000000000000E+01    0.2500000000000000E+01    0.3750000000000000E+01
    0.5000000000000000E+01    0.2500000000000000E+01    0.5000000000000000E+01
    0.3750000000000000E+01    0.2500000000000000E+01    0.5000000000000000E+01
    0.2500000000000000E+01    0.2500000000000000E+01    0.5000000000000000E+01
    0.1250000000000000E+01    0.2500000000000000E+01    0.5000000000000000E+01
    0.0000000000000000E+00    0.2500000000000000E+01    0.5000000000000000E+01
    0.0000000000000000E+00    0.2500000000000000E+01    0.3750000000000000E+01
    0.0000000000000000E+00    0.2500000000000000E+01    0.2500000000000000E+01
    0.0000000000000000E+00    0.2500000000000000E+01    0.1250000000000000E+01
    0.9631080833812172E+00    0.2500000000000000E+01    0.9613285771248219E+00
    0.3981732467264904E+01    0.2500000000000000E+01    0.4069753913607991E+01
    0.4035525118777670E+01    0.2500000000000000E+01    0.1012015867579395E+01
    0.9641717640894248E+00    0.2500000000000000E+01    0.3972455192261839E+01
    0.1547743040396780E+01    0.2500000000000000E+01    0.2928177746738678E+01
    0.6985170616192014E+00    0.2500000000000000E+01    0.3068281976055466E+01
    0.8931277594515110E+00    0.2500000000000000E+01    0.2052465503257726E+01
    0.2183293750162785E+01    0.2500000000000000E+01    0.3959073795658649E+01
    0.3855333506014705E+01    0.2500000000000000E+01    0.2931218481500625E+01
    0.3152495579421047E+01    0.2500000000000000E+01    0.3635850502723324E+01
    0.3103247580566054E+01    0.2500000000000000E+01    0.4331682712472464E+01
    0.3266837581688852E+01    0.2500000000000000E+01    0.1886092433583972E+01
    0.4231539241296245E+01    0.2500000000000000E+01    0.1915865356532799E+01
    0.1909741006522088E+01    0.2500000000000000E+01    0.7170024419130505E+00
    0.2880784107213163E+01    0.2500000000000000E+01    0.9046598906449592E+00
    0.2014316024535771E+01    0.2500000000000000E+01    0.1762464314805728E+01
    0.2670003247036656E+01    0.2500000000000000E+01    0.2850479545835163E+01
    0.5000000000000000E+01    0.1250000000000000E+01    0.5000000000000000E+01
    0.5000000000000000E+01    0.0000000000000000E+00    0.5000000000000000E+01
    0.5000000000000000E+01   -0.1250000000000000E+01    0.5000000000000000E+01
    0.5000000000000000E+01   -0.2500000000000000E+01    0.5000000000000000E+01
    0.5000000000000000E+01   -0.2500000000000000E+01    0.3750000000000000E+01
    0.5000000000000000E+01   -0.2500000000000000E+01    0.2500000000000000E+01
    0.5000000000000000E+01   -0.2500000000000000E+01    0.1250000000000000E+01
    0.5000000000000000E+01    0.1578994732800803E+01    0.9058375365086910E+00
    0.5000000000000000E+01   -0.1583989954232354E+01    0.3982050490726493E+01
    0.5000000000000000E+01    0.1453322699199022E+01    0.4033849428301197E+01
    0.5000000000000000E+01   -0.1479596339503735E+01    0.1040505887381675E+01
    0.5000000000000000E+01   -0.3227322616384110E+00    0.1099454400140349E+01
    0.5000000000000000E+01    0.6593508822075582E+00    0.7354504170366591E+00
    0.5000000000000000E+01    0.8256214013940779E+00    0.1622302608453282E+01
    0.5000000000000000E+01   -0.1650070333782557E+01    0.2145871574390382E+01
    0.5000000000000000E+01   -0.4612828702537229E+00    0.4086422318222992E+01
    0.5000000000000000E+01   -0.8579242121530853E+00    0.2979540174134984E+01
    0.5000000000000000E+01   -0.1836846154397680E+01    0.3045064261640043E+01
    0.5000000000000000E+01    0.3508002863614053E+00    0.3428197553792836E+01
    0.5000000000000000E+01    0.5185680230613409E+00    0.4309693860063405E+01
    0.5000000000000000E+01    0.1738996113203182E+01    0.1827272193562204E+01
    0.5000000000000000E+01    0.1325493893339706E+01    0.2808563282768077E+01
    0.5000000000000000E+01   -0.8731419609589618E+00    0.1895995683864404E+01
    0.5000000000000000E+01    0.4906150219227333E-01    0.2273179336307740E+01
    0.0000000000000000E+00    0.1250000000000000E+01    0.5000000000000000E+01
    0.0000000000000000E+00    0.0000000000000000E+00    0.5000000000000000E+01
    0.0000000000000000E+00   -0.1250000000000000E+01    0.5000000000000000E+01
    0.0000000000000000E+00   -0.2500000000000000E+01    0.5000000000000000E+01
    0.1250000000000000E+01   -0.2500000000000000E+01    0.5000000000000000E+01
    0.2500000000000000E+01   -0.2500000000000000E+01    0.5000000000000000E+01
    0.3750000000000000E+01   -0.2500000000000000E+01    0.5000000000000000E+01
    0.4042003247744892E+01    0.1558308132739014E+01    0.5000000000000000E+01
    0.9304122287900499E+00   -0.1548001304379777E+01    0.5000000000000000E+01
    0.1037243024609388E+01    0.1462892710085612E+01    0.5000000000000000E+01
    0.3946240828834967E+01   -0.1445243809615570E+01    0.5000000000000000E+01
    0.4092527262848217E+01   -0.3455338993778935E+00    0.5000000000000000E+01
    0.4293103109154542E+01    0.6277660831404320E+00    0.5000000000000000E+01
    0.3241512314643519E+01    0.7429886854239611E+00    0.5000000000000000E+01
    0.2844289952419609E+01   -0.1588117879734118E+01    0.5000000000000000E+01
    0.7159905765450471E+00   -0.6002320124191652E+00    0.5000000000000000E+01
    0.1754341919796891E+01   -0.7398147869923652E+00    0.5000000000000000E+01
    0.1870296826774691E+01   -0.1788622905643739E+01    0.5000000000000000E+01
    0.9220614901912976E+00    0.3083720183248586E+00    0.5000000000000000E+01
    0.3101523624086016E+01    0.1777901774806180E+01    0.5000000000000000E+01
    0.2192512063922564E+01    0.1576861561598471E+01    0.5000000000000000E+01
    0.2024793420196460E+01    0.4773861992750707E+00    0.5000000000000000E+01
    0.2990627757741975E+01   -0.4878110785814084E+00    0.5000000000000000E+01
    0.0000000000000000E+00   -0.2500000000000000E+01    0.1250000000000000E+01
    0.0000000000000000E+00   -0.2500000000000000E+01    0.2500000000000000E+01
    0.0000000000000000E+00   -0.2500000000000000E+01    0.3750000000000000E+01
    0.0000000000000000E+00    0.1558308132739014E+01    0.4042003247744892E+01
    0.0000000000000000E+00   -0.1548001304379777E+01    0.9304122287900499E+00
    0.0000000000000000E+00    0.1462892710085612E+01    0.1037243024609388E+01
    0.0000000000000000E+00   -0.1445243809615570E+01    0.3946240828834967E+01
    0.0000000000000000E+00   -0.3455338993778935E+00    0.4092527262848217E+01
    0.0000000000000000E+00    0.6277660831404320E+00    0.4293103109154542E+01
    0.0000000000000000E+00    0.7429886854239611E+00    0.3241512314643519E+01
    0.0000000000000000E+00   -0.1588117879734118E+01    0.2844289952419609E+01
    0.0000000000000000E+00   -0.6002320124191652E+00    0.7159905765450471E+00
    0.0000000000000000E+00   -0.7398147869923652E+00    0.1754341919796891E+01
    0.0000000000000000E+00   -0.1788622905643739E+01    0.1870296826774691E+01
    0.0000000000000000E+00    0.3083720183248586E+00    0.9220614901912976E+00
    0.0000000000000000E+00    0.1777901774806180E+01    0.3101523624086016E+01
    0.0000000000000000E+00    0.1576861561598471E+01    0.2192512063922564E+01
[...]
POINT_DATA 213
SCALARS rho double 1
LOOKUP_TABLE default
   0.1000000000000000E+01
   0.9999999999999998E+00
   0.1000000000000000E+01
   0.1000000000000000E+01
   0.1000000000000000E+01
   0.1000000000000000E+01
   0.1000000000000000E+01
   0.1000000000000000E+01
   0.9999999999999993E+00
   0.9999999999999998E+00
   0.9999999999999999E+00
   0.1000000000000000E+01
   0.1000000000000000E+01
   0.9999999999999996E+00
   0.1000000000000000E+01
   0.1000000000000000E+01
   0.1000000000000000E+01
   0.1000000000000000E+01
   0.1000000000000000E+01
   0.1000000000000000E+01
   0.1000000000000000E+01
   0.9999999999999999E+00
   0.1000000000000000E+01
   0.1000000000000000E+01
   0.1000000000000000E+01
   0.1000000000000000E+01
   0.1000000000000000E+01
   0.1000000000000000E+01
   0.1000000000000000E+01
   0.9999999999999998E+00
   0.1000000000000000E+01
   0.1000000000000000E+01
   0.1000000000000000E+01
   0.1000000000000000E+01
   0.1000000000000000E+01
   0.9999999999999997E+00
   0.9999999999999998E+00
   0.1000000000000000E+01
   0.1000000000000000E+01
   0.1000000000000000E+01
   0.1000000000000000E+01
   0.9999999999999999E+00
   0.1000000000000000E+01
   0.1000000000000000E+01
   0.1000000000000000E+01
   0.1000000000000000E+01
   0.1000000000000000E+01
   0.9999999999999996E+00
   0.9999999999999997E+00
   0.9999999999999998E+00
   0.9999999999999998E+00
   0.1000000000000000E+01
   0.9999999999999999E+00
   0.1000000000000000E+01
   0.1000000000000000E+01
   0.9999999999999999E+00
   0.9999999999999999E+00
   0.9999999999999999E+00
   0.1000000000000000E+01
   0.1000000000000000E+01
   0.9999999999999999E+00
   0.9999999999999996E+00
   0.9999999999999994E+00
   0.1000000000000000E+01
   0.1000000000000000E+01
   0.9999999999999996E+00
   0.9999999999999988E+00
   0.9999999999999998E+00
   0.1000000000000000E+01
   0.9999999999999997E+00
   0.9999999999999999E+00
   0.9999999999999999E+00
   0.1000000000000000E+01
   0.9999999999999999E+00
   0.9999999999999999E+00
   0.9999999999999990E+00
   0.1000000000000000E+01
   0.9999999999999994E+00
   0.9999999999999997E+00
   0.1000000000000000E+01
   0.1000000000000000E+01
   0.9999999999999998E+00
   0.9999999999999998E+00
   0.9999999999999998E+00
   0.1000000000000000E+01
   0.9999999999999996E+00
   0.9999999999999999E+00
   0.9999999999999993E+00
   0.9999999999999993E+00
   0.9999999999999999E+00
   0.1000000000000000E+01
   0.1000000000000000E+01
   0.9999999999999998E+00
   0.9999999999999994E+00
   0.1000000000000000E+01
   0.1000000000000000E+01
   0.1000000000000000E+01
   0.9999999999999996E+00
   0.9999999999999999E+00
   0.1000000000000000E+01
   0.1000000000000000E+01
   0.9999999999999997E+00
   0.9999999999999999E+00
   0.9999999999999996E+00
   0.1000000000000000E+01
   0.1000000000000000E+01
   0.9999999999999999E+00
   0.9999999999999999E+00
   0.1000000000000000E+01
   0.1000000000000000E+01
   0.1000000000000000E+01
   0.9999999999999998E+00
   0.9999999999999999E+00
   0.1000000000000000E+01
   0.9999999999999994E+00
   0.9999999999999998E+00
   0.9999999999999998E+00
   0.1000000000000000E+01
   0.9999999999999997E+00
   0.1000000000000000E+01
   0.1000000000000000E+01
   0.1000000000000000E+01
   0.9999999999999998E+00
   0.1000000000000000E+01
   0.9999999999999999E+00
   0.9999999999999996E+00
   0.1000000000000000E+01
   0.9999999999999999E+00
   0.1000000000000000E+01
   0.9999999999999999E+00
   0.1000000000000000E+01
   0.9999999999999997E+00
   0.9999999999999999E+00
   0.9999999999999999E+00
   0.9999999999999999E+00
   0.9999999999999999E+00
   0.9999999999999999E+00
   0.9999999999999999E+00
   0.9999999999999999E+00
   0.1000000000000000E+01
   0.1000000000000000E+01
   0.1000000000000000E+01
   0.9999999999999994E+00
   0.1000000000000000E+01
   0.1000000000000000E+01
   0.9999999999999999E+00
   0.9999999999999998E+00
   0.9999999999999998E+00
   0.9999999999999998E+00
   0.9999999999999998E+00
   0.9999999999999999E+00
   0.9999999999999999E+00
   0.9999999999999999E+00
   0.9999999999999998E+00
   0.9999999999999998E+00
   0.9999999999999999E+00
   0.1000000000000000E+01
   0.9999999999999999E+00
   0.9999999999999998E+00
   0.9999999999999999E+00
   0.9999999999999999E+00
   0.1000000000000000E+01
   0.1000000000000000E+01
   0.9999999999999999E+00
   0.1000000000000000E+01
   0.1000000000000000E+01
   0.9999999999999998E+00
   0.9999999999999998E+00
   0.9999999999999999E+00
   0.9999999999999998E+00
   0.9999999999999999E+00
   0.9999999999999999E+00
   0.9999999999999998E+00
   0.9999999999999998E+00
   0.1000000000000000E+01
   0.1000000000000000E+01
   0.1000000000000000E+01
   0.9999999999999998E+00
   0.9999999999999999E+00
   0.9999999999999999E+00
   0.9999999999999999E+00
   0.9999999999999998E+00
   0.9999999999999998E+00
   0.1000000000000000E+01
   0.1000000000000000E+01
   0.9999999999999998E+00
   0.1000000000000000E+01
   0.9999999999999999E+00
   0.9999999999999999E+00
   0.9999999999999999E+00
   0.9999999999999998E+00
   0.1000000000000000E+01
   0.1000000000000000E+01
   0.1000000000000000E+01
   0.1000000000000000E+01
   0.9999999999999998E+00
   0.9999999999999999E+00
   0.1000000000000000E+01
   0.1000000000000000E+01
   0.9999999999999999E+00
   0.9999999999999999E+00
   0.9999999999999998E+00
   0.1000000000000000E+01
   0.1000000000000000E+01
   0.1000000000000000E+01
   0.1000000000000000E+01
   0.9999999999999999E+00
   0.9999999999999999E+00
   0.1000000000000000E+01
   0.9999999999999999E+00
   0.9999999999999999E+00
   0.9999999999999998E+00
   0.9999999999999999E+00
SCALARS u double 1
LOOKUP_TABLE default
   0.4999999999999997E+00
   0.4999999999999998E+00
   0.4999999999999999E+00
   0.4999999999999997E+00
   0.4999999999999992E+00
   0.4999999999999998E+00
   0.4999999999999989E+00
   0.4999999999999998E+00
   0.4999999999999994E+00
   0.4999999999999996E+00
   0.4999999999999996E+00
   0.4999999999999996E+00
   0.4999999999999990E+00
   0.4999999999999995E+00
   0.4999999999999995E+00
   0.4999999999999996E+00
   0.4999999999999998E+00
   0.4999999999999997E+00
   0.4999999999999996E+00
   0.4999999999999995E+00
   0.4999999999999999E+00
   0.4999999999999997E+00
   0.4999999999999998E+00
   0.4999999999999996E+00
   0.4999999999999997E+00
   0.4999999999999998E+00
   0.4999999999999997E+00
   0.4999999999999996E+00
   0.4999999999999998E+00
   0.4999999999999998E+00
   0.5000000000000001E+00
   0.4999999999999998E+00
   0.4999999999999998E+00
   0.4999999999999998E+00
   0.5000000000000000E+00
   0.5000000000000002E+00
   0.5000000000000002E+00
   0.4999999999999999E+00
   0.4999999999999998E+00
   0.4999999999999998E+00
   0.4999999999999997E+00
   0.4999999999999999E+00
   0.4999999999999991E+00
   0.5000000000000001E+00
   0.4999999999999998E+00
   0.5000000000000001E+00
   0.5000000000000000E+00
   0.4999999999999998E+00
   0.4999999999999998E+00
   0.4999999999999994E+00
   0.4999999999999998E+00
   0.4999999999999996E+00
   0.5000000000000000E+00
   0.4999999999999998E+00
   0.4999999999999998E+00
   0.4999999999999999E+00
   0.5000000000000001E+00
   0.4999999999999998E+00
   0.4999999999999997E+00
   0.4999999999999997E+00
   0.4999999999999996E+00
   0.4999999999999996E+00
   0.4999999999999997E+00
   0.4999999999999994E+00
   0.4999999999999991E+00
   0.4999999999999996E+00
   0.4999999999999998E+00
   0.4999999999999999E+00
   0.4999999999999997E+00
   0.4999999999999993E+00
   0.4999999999999999E+00
   0.4999999999999995E+00
   0.4999999999999991E+00
   0.4999999999999994E+00
   0.4999999999999996E+00
   0.4999999999999997E+00
   0.4999999999999998E+00
   0.4999999999999998E+00
   0.5000000000000000E+00
   0.4999999999999995E+00
   0.4999999999999996E+00
   0.4999999999999998E+00
   0.4999999999999998E+00
   0.4999999999999999E+00
   0.4999999999999997E+00
   0.5000000000000001E+00
   0.5000000000000003E+00
   0.5000000000000007E+00
   0.5000000000000002E+00
   0.4999999999999999E+00
   0.4999999999999997E+00
   0.4999999999999996E+00
   0.4999999999999998E+00
   0.5000000000000000E+00
   0.5000000000000000E+00
   0.4999999999999996E+00
   0.4999999999999997E+00
   0.4999999999999998E+00
   0.4999999999999997E+00
   0.4999999999999998E+00
   0.5000000000000000E+00
   0.4999999999999999E+00
   0.4999999999999997E+00
   0.5000000000000001E+00
   0.5000000000000000E+00
   0.4999999999999998E+00
   0.4999999999999997E+00
   0.4999999999999999E+00
   0.4999999999999998E+00
   0.5000000000000000E+00
   0.4999999999999995E+00
   0.5000000000000000E+00
   0.4999999999999994E+00
   0.4999999999999999E+00
   0.5000000000000002E+00
   0.5000000000000004E+00
   0.5000000000000001E+00
   0.4999999999999999E+00
   0.4999999999999999E+00
   0.4999999999999994E+00
   0.4999999999999998E+00
   0.5000000000000000E+00
   0.4999999999999998E+00
   0.4999999999999992E+00
   0.5000000000000000E+00
   0.5000000000000000E+00
   0.4999999999999993E+00
   0.4999999999999996E+00
   0.4999999999999997E+00
   0.4999999999999997E+00
   0.5000000000000000E+00
   0.5000000000000000E+00
   0.4999999999999999E+00
   0.4999999999999999E+00
   0.4999999999999999E+00
   0.4999999999999997E+00
   0.4999999999999999E+00
   0.4999999999999998E+00
   0.4999999999999999E+00
   0.4999999999999998E+00
   0.4999999999999994E+00
   0.4999999999999995E+00
   0.4999999999999999E+00
   0.4999999999999996E+00
   0.5000000000000000E+00
   0.5000000000000000E+00
   0.5000000000000002E+00
   0.5000000000000000E+00
   0.5000000000000000E+00
   0.4999999999999999E+00
   0.5000000000000000E+00
   0.5000000000000002E+00
   0.4999999999999998E+00
   0.4999999999999997E+00
   0.4999999999999998E+00
   0.4999999999999998E+00
   0.4999999999999998E+00
   0.5000000000000000E+00
   0.4999999999999999E+00
   0.4999999999999999E+00
   0.4999999999999999E+00
   0.4999999999999999E+00
   0.4999999999999998E+00
   0.4999999999999999E+00
   0.4999999999999999E+00
   0.4999999999999998E+00
   0.4999999999999999E+00
   0.4999999999999999E+00
   0.4999999999999999E+00
   0.4999999999999997E+00
   0.4999999999999998E+00
   0.5000000000000000E+00
   0.4999999999999997E+00
   0.4999999999999998E+00
   0.4999999999999998E+00
   0.4999999999999999E+00
   0.4999999999999998E+00
   0.4999999999999997E+00
   0.5000000000000000E+00
   0.5000000000000000E+00
   0.5000000000000000E+00
   0.4999999999999998E+00
   0.4999999999999998E+00
   0.4999999999999997E+00
   0.4999999999999998E+00
   0.4999999999999997E+00
   0.4999999999999999E+00
   0.4999999999999999E+00
   0.4999999999999999E+00
   0.4999999999999999E+00
   0.4999999999999999E+00
   0.4999999999999999E+00
   0.4999999999999997E+00
   0.4999999999999997E+00
   0.4999999999999998E+00
   0.4999999999999998E+00
   0.4999999999999999E+00
   0.4999999999999999E+00
   0.4999999999999997E+00
   0.4999999999999998E+00
   0.4999999999999997E+00
   0.4999999999999999E+00
   0.4999999999999997E+00
   0.4999999999999999E+00
   0.4999999999999998E+00
   0.4999999999999996E+00
   0.4999999999999998E+00
   0.4999999999999998E+00
   0.4999999999999997E+00
   0.5000000000000000E+00
   0.4999999999999999E+00
   0.4999999999999997E+00
   0.4999999999999999E+00
SCALARS v double 1
LOOKUP_TABLE default
   0.0000000000000000E+00
   0.0000000000000000E+00
   0.0000000000000000E+00
   0.0000000000000000E+00
   0.0000000000000000E+00
  -0.1559057524921048E-16
  -0.1994013761537544E-15
  -0.1830725291867703E-15
   0.0000000000000000E+00
   0.0000000000000000E+00
   0.0000000000000000E+00
   0.0000000000000000E+00
   0.0000000000000000E+00
   0.9785521617068760E-16
  -0.2811814492289805E-16
   0.8017129505866734E-18
   0.8163513784400333E-16
  -0.1899499043345812E-15
   0.5007317896692530E-16
  -0.2331627846743319E-16
   0.1200631534511228E-15
  -0.9390108683771183E-17
   0.6855008901257276E-16
  -0.6002159151220549E-16
  -0.1112229185981719E-15
  -0.1429206809851530E-15
  -0.1292726541693586E-15
  -0.4706131084519924E-16
  -0.2336394159721088E-15
   0.4464734755140875E-16
  -0.2287360615850881E-16
  -0.7884211139367464E-16
  -0.8005679009174675E-16
   0.0000000000000000E+00
   0.0000000000000000E+00
   0.0000000000000000E+00
   0.0000000000000000E+00
   0.0000000000000000E+00
   0.0000000000000000E+00
   0.0000000000000000E+00
   0.0000000000000000E+00
   0.0000000000000000E+00
   0.0000000000000000E+00
   0.0000000000000000E+00
   0.0000000000000000E+00
   0.0000000000000000E+00
   0.0000000000000000E+00
   0.0000000000000000E+00
   0.0000000000000000E+00
   0.0000000000000000E+00
   0.0000000000000000E+00
   0.0000000000000000E+00
   0.0000000000000000E+00
   0.0000000000000000E+00
   0.0000000000000000E+00
   0.0000000000000000E+00
   0.0000000000000000E+00
   0.0000000000000000E+00
   0.0000000000000000E+00
   0.0000000000000000E+00
   0.0000000000000000E+00
  -0.1305769801428784E-15
   0.1633475958715238E-15
   0.8348109306203478E-16
   0.0000000000000000E+00
   0.0000000000000000E+00
   0.0000000000000000E+00
   0.0000000000000000E+00
   0.7810290271932499E-16
   0.6233691609815318E-16
  -0.3514159872565480E-16
  -0.9155072974682695E-16
  -0.5308462977394450E-16
  -0.3330963930377426E-16
   0.1039500887521584E-15
  -0.8620374821034796E-16
  -0.6120434666773415E-16
  -0.1383642749946866E-15
  -0.3108171724010158E-16
  -0.1060327129948652E-15
  -0.6202006295898384E-17
   0.1216843637241076E-16
  -0.1045361914547198E-16
  -0.1303055243634088E-15
  -0.4400737943066926E-16
  -0.1777907971459082E-15
  -0.2167999420873118E-15
   0.2741939523753881E-16
   0.0000000000000000E+00
   0.0000000000000000E+00
   0.0000000000000000E+00
   0.0000000000000000E+00
  -0.5405868346188392E-16
   0.1519151535130101E-15
  -0.1071983902237095E-16
   0.1368060061345014E-15
   0.2377574261780413E-15
  -0.1784186973875891E-16
  -0.1926251964600432E-15
   0.2671337690767483E-15
  -0.7410080463519738E-16
  -0.2171580486824111E-16
   0.1738976371448115E-15
  -0.1565898325636183E-15
  -0.4070846331257200E-16
   0.1210623681435141E-15
  -0.2590152775299895E-15
   0.1596338051958704E-15
   0.0000000000000000E+00
   0.0000000000000000E+00
   0.0000000000000000E+00
  -0.5828249359191788E-16
   0.6717991686597779E-16
  -0.9222266399242722E-16
   0.4944084531550480E-16
   0.5192927310812804E-16
   0.9580146533983067E-16
  -0.6319637891811907E-16
   0.3836572651220972E-16
   0.6958284646815292E-16
  -0.1032678624033793E-15
   0.7319114406969158E-16
   0.1501660424737404E-17
  -0.3547842944654223E-16
  -0.3938724829409673E-16
   0.5750895613162623E-16
   0.3710224191174580E-16
   0.0000000000000000E+00
   0.0000000000000000E+00
   0.0000000000000000E+00
   0.0000000000000000E+00
   0.0000000000000000E+00
   0.0000000000000000E+00
   0.0000000000000000E+00
   0.0000000000000000E+00
   0.0000000000000000E+00
   0.0000000000000000E+00
   0.0000000000000000E+00
   0.0000000000000000E+00
   0.0000000000000000E+00
   0.0000000000000000E+00
   0.0000000000000000E+00
   0.0000000000000000E+00
   0.0000000000000000E+00
   0.8822265685951490E-16
   0.6171926255702219E-16
   0.1414719557748501E-15
   0.1234967677447255E-15
  -0.9994316552398578E-17
   0.5979861116008080E-16
  -0.5846451875842838E-16
   0.1172814165829231E-15
  -0.3751507668029326E-16
  -0.5649357368812437E-16
   0.3672688740462336E-16
  -0.4742922284321085E-16
  -0.6506207317844133E-16
   0.1657266236937191E-16
   0.9090720357796193E-16
   0.1849776377507763E-15
   0.2230804007235816E-15
   0.1259443793872872E-15
  -0.1639798208646176E-17
  -0.7660956226234754E-16
   0.5365517036280043E-17
  -0.7100343307852535E-17
   0.7561581388039763E-16
   0.1313566265425158E-16
   0.1705077398015801E-16
  -0.7538157292700717E-16
  -0.5710487440793721E-16
   0.7368289163062240E-16
  -0.1702746017827261E-16
   0.1509782285481476E-15
   0.7375273687409991E-17
  -0.1466573943313484E-16
   0.3016954514605073E-15
   0.2595090747231926E-16
   0.5275826426140956E-17
  -0.4030971796015137E-16
   0.1891708899416611E-15
   0.8688160797739102E-16
  -0.1060599960363737E-15
   0.2306115521727753E-15
  -0.1768932533833709E-15
   0.9172094537561224E-16
  -0.1636039816817473E-15
  -0.6552798511194614E-16
  -0.9184193106325530E-16
   0.8972479276168336E-16
   0.3433343378942963E-16
   0.5400144921813754E-16
   0.1145734975203033E-15
   0.1727404382557836E-15
  -0.4413172738832299E-16
  -0.1980489836140055E-15
  -0.5002338968096550E-16
   0.1385954312874507E-15
  -0.7048427490750562E-16
  -0.6328198303499537E-16
   0.1027533680611880E-15
   0.9521869327697283E-16
  -0.1305210026640868E-16
   0.5845050695306988E-16
   0.3021948739008150E-16
   0.1393403276733446E-16
  -0.2046346185996066E-15
   0.3389241599658109E-16
   0.3392210419071810E-16
   0.1061920389855300E-16
   0.9028418322225691E-16
  -0.1648098330060515E-15
   0.1518701129926314E-15
SCALARS w double 1
LOOKUP_TABLE default
  -0.5614853091722259E-16
  -0.1452305068531732E-15
  -0.1243691718690476E-15
   0.1267137876136324E-15
   0.3178417783065225E-15
   0.3055275621452170E-15
   0.3156077723589024E-15
   0.2415157707401292E-15
   0.2063428436848845E-16
   0.1735383815500578E-15
   0.2188804047178403E-15
   0.1862323805158224E-15
   0.1003211255423038E-15
   0.2184716804709922E-15
  -0.2295110194618741E-15
  -0.3234384441677335E-15
  -0.1479272316280980E-15
   0.5350778948487839E-16
   0.3005146105395292E-15
   0.2681588037209582E-16
  -0.8069993257321388E-16
   0.1119368271075025E-15
  -0.7165196936623083E-15
  -0.1097426285705952E-15
   0.5460591551181931E-16
  -0.9710387343133607E-16
  -0.7620955611275988E-17
   0.4754941122121518E-16
  -0.5650622715144997E-15
   0.1428269049677160E-15
   0.2649917734626215E-15
   0.2575429991808013E-15
   0.5845390444618617E-16
   0.2116300976261648E-15
   0.1656810332941026E-15
   0.3595896152894366E-17
   0.7511477403556774E-16
  -0.1716357602368875E-15
   0.4386693852815227E-15
  -0.2978195702184670E-16
   0.9516097649221948E-15
   0.2841728504311279E-16
  -0.7755003561118230E-16
   0.7166802619616252E-16
  -0.1262272859085682E-15
   0.9123805553302769E-16
  -0.2009313181164560E-16
   0.2347366367721317E-15
   0.2826508817775851E-15
   0.5785490201510695E-16
   0.5941555450300022E-16
   0.2294500711953079E-15
   0.1558822596053087E-15
   0.1835773528041127E-15
   0.2424303244384495E-15
   0.1404836456380330E-15
   0.1340960313652095E-15
  -0.8525498320478322E-16
   0.3948476580042601E-17
   0.3112219438235458E-15
   0.3194065248239709E-15
  -0.2952691431073411E-16
  -0.3405804640452266E-15
   0.1713295053970121E-16
   0.1031031694201898E-15
  -0.2989600005379513E-16
   0.2936478038107800E-15
   0.2575889081139699E-15
   0.1700659503059944E-15
  -0.3813414490284921E-16
   0.7339374022192265E-16
   0.2551652009292683E-16
   0.1619756763431376E-16
   0.1114719673655887E-15
   0.1430567343738879E-15
   0.1413811904987892E-15
  -0.9779819381333211E-16
  -0.1506644334158699E-15
   0.3257913814385247E-17
  -0.5021006627435805E-16
  -0.7178176556618808E-16
   0.1626988610365502E-15
   0.1311975240297970E-15
   0.1879798763616982E-16
   0.4125999032068794E-16
   0.2680300102611797E-15
  -0.1923485421783792E-15
  -0.2776991870328159E-15
  -0.2203521522169531E-15
  -0.1672869569580333E-15
   0.5970795097197722E-15
   0.1491232689744860E-15
  -0.1382530183893087E-15
  -0.2172503216484036E-15
   0.9792829942611855E-15
   0.8784364408671902E-17
  -0.1090031605634368E-15
  -0.1446509758403609E-15
  -0.1640608171117177E-15
   0.3852701585171816E-15
   0.3125964737804558E-15
  -0.4808148764653919E-15
   0.1341409187922677E-15
  -0.9221639004650768E-16
   0.1913701203392092E-15
   0.3476623619988460E-15
   0.3918779490405719E-15
  -0.2662206341265123E-15
   0.9083119109463159E-16
  -0.1956613433272873E-15
  -0.4559156820008795E-16
   0.1559929241075962E-15
  -0.1649071397103861E-16
  -0.6118786233047695E-16
  -0.1079347312697044E-16
  -0.1359017803460039E-15
   0.8399934792949128E-16
   0.1890832196119035E-15
  -0.1954176531621742E-15
   0.1658803611052500E-15
  -0.1551522481294069E-16
  -0.2077207317002802E-16
   0.2206676680068577E-15