# vtk DataFile Version 2.0
FUN3D:global_image_vtk
ASCII
DATASET UNSTRUCTURED_GRID
POINTS 213 double
   -0.5474224527720909E-02    0.2504942126394358E+01    0.8082169247845777E-04
    0.1245420076928180E+01    0.2504942126394358E+01    0.1048423978844127E-03
    0.2497696590161274E+01    0.2504942126394358E+01    0.1104836378041785E-03
    0.3750592000219316E+01    0.2504942126394358E+01    0.1364570022851220E-03
    0.5003221893557217E+01    0.2504942126394358E+01    0.9695067806313134E-04
    0.5004677757730219E+01    0.1281291915003748E+01    0.1646229492601449E-03
    0.5004773233265148E+01    0.2775197973138349E-01    0.1907234218277843E-03
    0.5003582221826500E+01   -0.1225852858120849E+01    0.1617086259254320E-03
    0.5001953053134515E+01   -0.2496588894990435E+01    0.1087092371910148E-03
    0.3750349122005903E+01   -0.2496588894990435E+01    0.1468754878927437E-03
    0.2498611963539534E+01   -0.2496588894990435E+01    0.1014099575163264E-03
    0.1247176261509345E+01   -0.2496588894990435E+01    0.1118958281412220E-03
   -0.3383469652505758E-02   -0.2496588894990435E+01    0.8163625863498397E-04
   -0.4256789880083962E-02   -0.1225734173006506E+01    0.3518765131218970E-04
   -0.5251125685753769E-02    0.2619601495648064E-01    0.1043778815052321E-03
   -0.5675101163537783E-02    0.1278222243531552E+01    0.8322052785167299E-04
    0.9003214217918744E+00    0.1608980307788059E+01    0.8747986548433789E-04
    0.3983173228635397E+01   -0.1561211262270739E+01    0.1766748276819930E-03
    0.4035602579387497E+01    0.1486761266126256E+01    0.1716707047749034E-03
    0.1036614706197667E+01   -0.1455625787809795E+01    0.1057334602207739E-03
    0.1094353949885713E+01   -0.2964610398744433E+00    0.1265432505361675E-03
    0.7298409877477202E+00    0.6874691505129548E+00    0.1054287519396114E-03
    0.1617019123563139E+01    0.8553219978666025E+00    0.1534204880539870E-03
    0.2143200653243216E+01   -0.1627127869725139E+01    0.1616130269572459E-03
    0.4088840979725205E+01   -0.4351036111829277E+00    0.2724113083121672E-03
    0.2977917509313599E+01   -0.8334984944101467E+00    0.2255152651590421E-03
    0.3044093743998181E+01   -0.1814360085633255E+01    0.1621866806658512E-03
    0.3427867629114899E+01    0.3813911924713182E+00    0.2945982523096237E-03
    0.4313225907775678E+01    0.5489145452820490E+00    0.2316713600814391E-03
    0.1823033713305475E+01    0.1771265914466481E+01    0.1845256528172624E-03
    0.2806311649527428E+01    0.1358630605767851E+01    0.1947351855950819E-03
    0.1891861854168224E+01   -0.8481303814147357E+00    0.1680436487611893E-03
    0.2268769674863770E+01    0.7723810290210215E-01    0.2076744628142081E-03
    0.5000000000000000E+01    0.2504942126394358E+01    0.1250000000000000E+01
    0.5000000000000000E+01    0.2504942126394358E+01    0.2500000000000000E+01
    0.5000000000000000E+01    0.2504942126394358E+01    0.3750000000000000E+01
    0.5000000000000000E+01    0.2504942126394358E+01    0.5000000000000000E+01
    0.3750000000000000E+01    0.2504942126394358E+01    0.5000000000000000E+01
    0.2500000000000000E+01    0.2504942126394358E+01    0.5000000000000000E+01
    0.1250000000000000E+01    0.2504942126394358E+01    0.5000000000000000E+01
    0.0000000000000000E+00    0.2504942126394358E+01    0.5000000000000000E+01
    0.0000000000000000E+00    0.2504942126394358E+01    0.3750000000000000E+01
    0.0000000000000000E+00    0.2504942126394358E+01    0.2500000000000000E+01
    0.0000000000000000E+00    0.2504942126394358E+01    0.1250000000000000E+01
    0.9588960369906027E+00    0.2504942126394358E+01    0.9696533635134074E+00
    0.3981953152437098E+01    0.2504942126394358E+01    0.4070563994318884E+01
    0.4036122760748993E+01    0.2504942126394358E+01    0.1017568211262069E+01
    0.9637572721097026E+00    0.2504942126394358E+01    0.3973598325910149E+01
    0.1546540225214412E+01    0.2504942126394358E+01    0.2931570546623369E+01
    0.6973799590125652E+00    0.2504942126394358E+01    0.3070320151822421E+01
    0.8903742902410691E+00    0.2504942126394358E+01    0.2056562651402181E+01
    0.2183042038777302E+01    0.2504942126394358E+01    0.3960694659644651E+01
    0.3855845055169345E+01    0.2504942126394358E+01    0.2933250909205840E+01
    0.3152611483938655E+01    0.2504942126394358E+01    0.3637668660441704E+01
    0.3103307439056897E+01    0.2504942126394358E+01    0.4332607953811380E+01
    0.3266711423523970E+01    0.2504942126394358E+01    0.1889657173325437E+01
    0.4232537818759956E+01    0.2504942126394358E+01    0.1918627332171121E+01
    0.1905523024841220E+01    0.2504942126394358E+01    0.7226299060569138E+00
    0.2879768362525143E+01    0.2504942126394358E+01    0.9080952801356742E+00
    0.2012711742451919E+01    0.2504942126394358E+01    0.1767083037689035E+01
    0.2669681670297483E+01    0.2504942126394358E+01    0.2853394772384842E+01
    0.5000000000000000E+01    0.1250000000000000E+01    0.5000000000000000E+01
    0.5000000000000000E+01    0.0000000000000000E+00    0.5000000000000000E+01
    0.5000000000000000E+01   -0.1250000000000000E+01    0.5000000000000000E+01
    0.5000000000000000E+01   -0.2496588894990435E+01    0.5000000000000000E+01
    0.5000000000000000E+01   -0.2496588894990435E+01    0.3750000000000000E+01
    0.5000000000000000E+01   -0.2496588894990435E+01    0.2500000000000000E+01
    0.5000000000000000E+01   -0.2496588894990435E+01    0.1250000000000000E+01
    0.5000000000000000E+01    0.1578994732800803E+01    0.9058375365086910E+00
    0.5000000000000000E+01   -0.1583989954232354E+01    0.3982050490726493E+01
    0.5000000000000000E+01    0.1453322699199022E+01    0.4033849428301197E+01
    0.5000000000000000E+01   -0.1479596339503735E+01    0.1040505887381675E+01
    0.5000000000000000E+01   -0.3227322616384110E+00    0.1099454400140349E+01
    0.5000000000000000E+01    0.6593508822075582E+00    0.7354504170366591E+00
    0.5000000000000000E+01    0.8256214013940779E+00    0.1622302608453282E+01
    0.5000000000000000E+01   -0.1650070333782557E+01    0.2145871574390382E+01
    0.5000000000000000E+01   -0.4612828702537229E+00    0.4086422318222992E+01
    0.5000000000000000E+01   -0.8579242121530853E+00    0.2979540174134984E+01
    0.5000000000000000E+01   -0.1836846154397680E+01    0.3045064261640043E+01
    0.5000000000000000E+01    0.3508002863614053E+00    0.3428197553792836E+01
    0.5000000000000000E+01    0.5185680230613409E+00    0.4309693860063405E+01
    0.5000000000000000E+01    0.1738996113203182E+01    0.1827272193562204E+01
    0.5000000000000000E+01    0.1325493893339706E+01    0.2808563282768077E+01
    0.5000000000000000E+01   -0.8731419609589618E+00    0.1895995683864404E+01
    0.5000000000000000E+01    0.4906150219227333E-01    0.2273179336307740E+01
    0.0000000000000000E+00    0.1250000000000000E+01    0.5000000000000000E+01
    0.0000000000000000E+00    0.0000000000000000E+00    0.5000000000000000E+01
    0.0000000000000000E+00   -0.1250000000000000E+01    0.5000000000000000E+01
    0.0000000000000000E+00   -0.2496588894990435E+01    0.5000000000000000E+01
    0.1250000000000000E+01   -0.2496588894990435E+01    0.5000000000000000E+01
    0.2500000000000000E+01   -0.2496588894990435E+01    0.5000000000000000E+01
    0.3750000000000000E+01   -0.2496588894990435E+01    0.5000000000000000E+01
    0.4042003247744892E+01    0.1558308132739014E+01    0.5000000000000000E+01
    0.9304122287900499E+00   -0.1548001304379777E+01    0.5000000000000000E+01
    0.1037243024609388E+01    0.1462892710085612E+01    0.5000000000000000E+01
    0.3946240828834967E+01   -0.1445243809615570E+01    0.5000000000000000E+01
    0.4092527262848217E+01   -0.3455338993778935E+00    0.5000000000000000E+01
    0.4293103109154542E+01    0.6277660831404320E+00    0.5000000000000000E+01
    0.3241512314643519E+01    0.7429886854239611E+00    0.5000000000000000E+01
    0.2844289952419609E+01   -0.1588117879734118E+01    0.5000000000000000E+01
    0.7159905765450471E+00   -0.6002320124191652E+00    0.5000000000000000E+01
    0.1754341919796891E+01   -0.7398147869923652E+00    0.5000000000000000E+01
    0.1870296826774691E+01   -0.1788622905643739E+01    0.5000000000000000E+01
    0.9220614901912976E+00    0.3083720183248586E+00    0.5000000000000000E+01
    0.3101523624086016E+01    0.1777901774806180E+01    0.5000000000000000E+01
    0.2192512063922564E+01    0.1576861561598471E+01    0.5000000000000000E+01
    0.2024793420196460E+01    0.4773861992750707E+00    0.5000000000000000E+01
    0.2990627757741975E+01   -0.4878110785814084E+00    0.5000000000000000E+01
    0.0000000000000000E+00   -0.2496588894990435E+01    0.1250000000000000E+01
    0.0000000000000000E+00   -0.2496588894990435E+01    0.2500000000000000E+01
    0.0000000000000000E+00   -0.2496588894990435E+01    0.3750000000000000E+01
    0.0000000000000000E+00    0.1558308132739014E+01    0.4042003247744892E+01
    0.0000000000000000E+00   -0.1548001304379777E+01    0.9304122287900499E+00
    0.0000000000000000E+00    0.1462892710085612E+01    0.1037243024609388E+01
    0.0000000000000000E+00   -0.1445243809615570E+01    0.3946240828834967E+01
    0.0000000000000000E+00   -0.3455338993778935E+00    0.4092527262848217E+01
    0.0000000000000000E+00    0.6277660831404320E+00    0.4293103109154542E+01
    0.0000000000000000E+00    0.7429886854239611E+00    0.3241512314643519E+01
    0.0000000000000000E+00   -0.1588117879734118E+01    0.2844289952419609E+01
    0.0000000000000000E+00   -0.6002320124191652E+00    0.7159905765450471E+00
    0.0000000000000000E+00   -0.7398147869923652E+00    0.1754341919796891E+01
    0.0000000000000000E+00   -0.1788622905643739E+01    0.1870296826774691E+01
    0.0000000000000000E+00    0.3083720183248586E+00    0.9220614901912976E+00
    0.0000000000000000E+00    0.1777901774806180E+01    0.3101523624086016E+01
    0.0000000000000000E+00    0.1576861561598471E+01    0.2192512063922564E+01
[...]
POINT_DATA 213
SCALARS rho double 1
LOOKUP_TABLE default
   0.1000013394379204E+01
   0.1000006941619119E+01
   0.9999876922192864E+00
   0.9999949321804221E+00
   0.1000003746917269E+01
   0.1000005635404131E+01
   0.9999935983448158E+00
   0.9999980904443764E+00
   0.9999990193005601E+00
   0.9999958278498093E+00
   0.9999943742986948E+00
   0.9999993885115783E+00
   0.1000020969757549E+01
   0.1000027295888636E+01
   0.1000020591940815E+01
   0.1000014895669022E+01
   0.1000016763515081E+01
   0.9999901503074918E+00
   0.9999910377445375E+00
   0.1000010249177862E+01
   0.1000010723310587E+01
   0.1000011943572293E+01
   0.1000006598421934E+01
   0.9999952873343955E+00
   0.9999822362800078E+00
   0.9999917479592679E+00
   0.9999938974388701E+00
   0.9999886141143912E+00
   0.9999818757200613E+00
   0.9999993434355021E+00
   0.9999907629138091E+00
   0.1000001587760528E+01
   0.1000001418153268E+01
   0.1000001773532281E+01
   0.1000001233570061E+01
   0.1000000849501901E+01
   0.1000000683849245E+01
   0.1000001186461375E+01
   0.1000001663216203E+01
   0.1000001781554809E+01
   0.1000001431642514E+01
   0.1000002374999003E+01
   0.1000004125122338E+01
   0.1000007789817212E+01
   0.1000005989294293E+01
   0.1000000961307798E+01
   0.9999988659589726E+00
   0.1000002125235190E+01
   0.1000002435476631E+01
   0.1000002896240755E+01
   0.1000003533297084E+01
   0.1000001712543363E+01
   0.1000000715578718E+01
   0.1000001156278657E+01
   0.1000001329571260E+01
   0.9999997385425211E+00
   0.1000000120960717E+01
   0.1000000157509626E+01
   0.9999979961584299E+00
   0.1000001506787850E+01
   0.1000001179056338E+01
   0.1000000667188716E+01
   0.1000000663359759E+01
   0.1000000660397038E+01
   0.1000000735155720E+01
   0.1000000960402897E+01
   0.1000001530570057E+01
   0.1000002262335245E+01
   0.1000001923318723E+01
   0.1000000725482431E+01
   0.1000000688904416E+01
   0.1000002655967737E+01
   0.1000005632454142E+01
   0.1000004767442624E+01
   0.1000000866331758E+01
   0.1000001953549523E+01
   0.1000000655916941E+01
   0.1000001414046571E+01
   0.1000001276735045E+01
   0.1000000944905038E+01
   0.1000000637935031E+01
   0.1000001440138006E+01
   0.1000000997039304E+01
   0.1000002322621058E+01
   0.1000001387100587E+01
   0.1000001361339218E+01
   0.1000001331775732E+01
   0.1000001398026606E+01
   0.1000001474789446E+01
   0.1000001847147819E+01
   0.1000001705609474E+01
   0.1000001252187019E+01
   0.1000001082099793E+01
   0.1000001634530951E+01
   0.1000001636231543E+01
   0.1000001123542429E+01
   0.1000001124489773E+01
   0.1000001014258163E+01
   0.1000001432413335E+01
   0.1000001608265743E+01
   0.1000001506560003E+01
   0.1000001875037347E+01
   0.1000001860896043E+01
   0.1000001554458679E+01
   0.1000001439274239E+01
   0.1000001729126534E+01
   0.1000001769209710E+01
   0.1000001546814461E+01
   0.1000009258725692E+01
   0.1000004426051918E+01
   0.1000002511561293E+01
   0.1000002103271752E+01
   0.1000011252773249E+01
   0.1000009099983050E+01
   0.1000002286874688E+01
   0.1000002163628496E+01
   0.1000001942380612E+01
   0.1000003119383516E+01
   0.1000003790008182E+01
   0.1000012790166483E+01
   0.1000006777350330E+01
   0.1000006446843909E+01
   0.1000010072667777E+01
   0.1000003206098876E+01
   0.1000004882861933E+01
   0.1000005651476918E+01
   0.1000003590488672E+01
   0.1000005468548141E+01
   0.1000001047936374E+01
   0.9999986512641564E+00
   0.1000002268259098E+01
   0.1000002423386951E+01
   0.1000003168759858E+01
   0.1000004080943552E+01
   0.1000001763073962E+01
   0.1000000809647541E+01
   0.1000001216525054E+01
   0.1000001395393875E+01
   0.9999995455234263E+00
   0.1000000492491483E+01
   0.1000000021582827E+01
   0.9999982284132399E+00
   0.1000001628238951E+01
   0.1000001331576545E+01
   0.1000001307409991E+01
   0.1000002036434069E+01
   0.1000002295459255E+01
   0.1000002825481722E+01
   0.1000003788766422E+01
   0.1000006333376739E+01
   0.1000003077530125E+01
   0.1000002610198812E+01
   0.1000002153816337E+01
   0.1000002888346880E+01
   0.1000002897226002E+01
   0.1000005881264445E+01
   0.1000001879125450E+01
   0.1000001359116848E+01
   0.1000000168712515E+01
   0.1000000600145609E+01
   0.1000001103354145E+01
   0.1000000586023413E+01
   0.1000001543334702E+01
   0.1000001719036166E+01
   0.1000001227108367E+01
   0.1000000793989671E+01
   0.1000001466884920E+01
   0.1000002039138310E+01
   0.1000004196318362E+01
   0.1000003195555915E+01
   0.1000001500480032E+01
   0.1000002008042515E+01
   0.1000003004511435E+01
   0.9999987284735739E+00
   0.1000003447903757E+01
   0.1000000215317863E+01
   0.1000000920813640E+01
   0.9999996510545136E+00
   0.1000000218073451E+01
   0.1000007146580137E+01
   0.1000005151170618E+01
   0.1000007009940760E+01
   0.1000000968499787E+01
   0.1000001464472157E+01
   0.1000000721022342E+01
   0.1000000422248920E+01
   0.9999999977325381E+00
   0.1000000824982210E+01
   0.1000001079538783E+01
   0.1000000956226236E+01
   0.1000001363030590E+01
   0.9999994241458572E+00
   0.9999992475036090E+00
   0.9999993359372454E+00
   0.9999999716862115E+00
   0.9999980401962726E+00
   0.9999985751974382E+00
   0.1000000633271462E+01
   0.9999997637782754E+00
   0.9999936939099986E+00
   0.1000002060311987E+01
   0.1000001743674147E+01
   0.1000001110692917E+01
   0.1000000888734249E+01
   0.9999957290680572E+00
   0.9999938733864935E+00
   0.9999969750200417E+00
   0.1000001564574493E+01
   0.1000001219406276E+01
   0.1000000930594174E+01
   0.1000000838756563E+01
   0.1000001756160601E+01
   0.9999946499120668E+00
SCALARS u double 1
LOOKUP_TABLE default
   0.4999825288585109E+00
   0.5000062048905529E+00
   0.5000311876915022E+00
   0.5000258798629573E+00
   0.5000072139087507E+00
   0.5000049634267810E+00
   0.5000128745803248E+00
   0.5000124187741416E+00
   0.5000136740589924E+00
   0.5000303021744611E+00
   0.5000272449386467E+00
   0.5000154320930225E+00
   0.4999841120102977E+00
   0.4999807642582308E+00
   0.4999820999934325E+00
   0.4999827442731609E+00
   0.4999933408143028E+00
   0.5000361756055246E+00
   0.5000294705308888E+00
   0.5000088486603566E+00
   0.5000019929064694E+00
   0.4999923320528658E+00
   0.5000114849202510E+00
   0.5000278042870911E+00
   0.5000416246933621E+00
   0.5000392087017531E+00
   0.5000333612167496E+00
   0.5000435778501637E+00
   0.5000362738271326E+00
   0.5000212482786220E+00
   0.5000319771481893E+00
   0.5000217664457562E+00
   0.5000269606670807E+00
   0.5000039057146988E+00
   0.5000016676886503E+00
   0.5000006257170867E+00
   0.5000001293014334E+00
   0.4999988050421364E+00
   0.4999979264413063E+00
   0.4999975729090171E+00
   0.4999983478289820E+00
   0.4999975391312340E+00
   0.4999957140027649E+00
   0.4999919002797953E+00
   0.4999965846198332E+00
   0.4999999340233960E+00
   0.5000125446125799E+00
   0.4999978491025608E+00
   0.4999987499778156E+00
   0.4999973896604304E+00
   0.4999974736216266E+00
   0.4999987272362147E+00
   0.5000018445629594E+00
   0.5000000246004958E+00
   0.4999990616876890E+00
   0.5000067748080599E+00
   0.5000053667022702E+00
   0.5000111376630544E+00
   0.5000165754429585E+00
   0.5000031295926637E+00
   0.5000011830697974E+00
   0.5000001476112093E+00
   0.5000001374555759E+00
   0.5000000065090497E+00
   0.5000001433537145E+00
   0.5000005227534723E+00
   0.5000016283212896E+00
   0.5000047265624659E+00
   0.5000056194476232E+00
   0.5000005533182978E+00
   0.5000005592243887E+00
   0.5000061895075725E+00
   0.5000032590430689E+00
   0.5000041819619253E+00
   0.5000046120610437E+00
   0.5000022160476607E+00
   0.5000004839655996E+00
   0.5000010381677396E+00
   0.5000009579500194E+00
   0.5000007428156181E+00
   0.5000004531637803E+00
   0.5000027830136087E+00
   0.5000014307918799E+00
   0.5000032414712600E+00
   0.5000024891357108E+00
   0.4999985758554219E+00
   0.4999986030174857E+00
   0.4999984677315297E+00
   0.4999983049115040E+00
   0.4999975343657577E+00
   0.4999978386699143E+00
   0.4999987864052151E+00
   0.4999990060107641E+00
   0.4999978285603706E+00
   0.4999977771557178E+00
   0.4999989716528077E+00
   0.4999990042307426E+00
   0.4999992099805383E+00
   0.4999983479982393E+00
   0.4999980881754743E+00
   0.4999980845854677E+00
   0.4999976136894216E+00
   0.4999975734096657E+00
   0.4999979666631066E+00
   0.4999983055115687E+00
   0.4999977866849545E+00
   0.4999977228314259E+00
   0.4999981933070937E+00
   0.4999906483959836E+00
   0.4999953887467620E+00
   0.4999973537123366E+00
   0.4999976995044316E+00
   0.4999865633749151E+00
   0.4999898150942614E+00
   0.4999975199999407E+00
   0.4999977523782005E+00
   0.4999979988204582E+00
   0.4999968040488216E+00
   0.4999957280679773E+00
   0.4999861050985555E+00
   0.4999923508645210E+00
   0.4999936537562016E+00
   0.4999879115750736E+00
   0.4999967422548726E+00
   0.4999947838257738E+00
   0.4999940404854625E+00
   0.4999961714821731E+00
   0.4999998747588577E+00
   0.5000000162247580E+00
   0.5000156512588787E+00
   0.4999977345676678E+00
   0.4999986827774754E+00
   0.4999971387292638E+00
   0.4999974162107629E+00
   0.4999987132348356E+00
   0.5000018152943242E+00
   0.5000001670884785E+00
   0.4999990888567734E+00
   0.5000072988526928E+00
   0.5000058310830734E+00
   0.5000146072522866E+00
   0.5000173427221765E+00
   0.5000038373366855E+00
   0.5000013572200609E+00
   0.5000010890587039E+00
   0.4999985419280437E+00
   0.4999987915838162E+00
   0.4999998924363649E+00
   0.4999963905149833E+00
   0.4999950174306347E+00
   0.5000006400742235E+00
   0.4999973651629791E+00
   0.4999982665200223E+00
   0.4999972230864930E+00
   0.4999994029984486E+00
   0.4999988351683001E+00
   0.4999980479613719E+00
   0.5000004044535703E+00
   0.5000056857029656E+00
   0.5000025902050964E+00
   0.5000004247039521E+00
   0.5000033011286003E+00
   0.4999988021719610E+00
   0.4999984716996201E+00
   0.4999992373586027E+00
   0.5000020029471373E+00
   0.5000003796192607E+00
   0.4999979581434114E+00
   0.4999960971058831E+00
   0.4999990137656816E+00
   0.5000045409670238E+00
   0.4999978239670589E+00
   0.4999972015437489E+00
   0.5000142808758273E+00
   0.5000085294711049E+00
   0.5000066066816593E+00
   0.5000033413348347E+00
   0.5000116198855511E+00
   0.5000051117838905E+00
   0.4999979943668610E+00
   0.4999954544998714E+00
   0.4999971505437027E+00
   0.4999997538356034E+00
   0.4999989712540530E+00
   0.5000036977844698E+00
   0.5000031445849930E+00
   0.5000089813442723E+00
   0.5000030129887607E+00
   0.5000005620221171E+00
   0.5000004041727475E+00
   0.5000012801595564E+00
   0.5000086834862962E+00
   0.5000130579793044E+00
   0.5000104189280935E+00
   0.5000060025610857E+00
   0.5000186239697262E+00
   0.5000134970843840E+00
   0.5000092908944401E+00
   0.5000132072629409E+00
   0.5000275540193343E+00
   0.4999983392032543E+00
   0.4999983067412708E+00
   0.4999994983767382E+00
   0.5000007290706724E+00
   0.5000230581936097E+00
   0.5000252981486886E+00
   0.5000225373107994E+00
   0.4999989109411972E+00
   0.4999998096001540E+00
   0.5000005482162470E+00
   0.5000040219285815E+00
   0.5000086932236615E+00
   0.5000253957124043E+00
SCALARS v double 1
LOOKUP_TABLE default
   0.0000000000000000E+00
   0.0000000000000000E+00
   0.0000000000000000E+00
   0.0000000000000000E+00
   0.0000000000000000E+00
  -0.8743410129373040E-05
  -0.1485917146237452E-05
   0.8064124696726765E-05
   0.0000000000000000E+00
   0.0000000000000000E+00
   0.0000000000000000E+00
   0.0000000000000000E+00
   0.0000000000000000E+00
   0.3533551350314541E-06
   0.3639554242511336E-05
   0.1415070304607156E-05
   0.1319597040570464E-05
   0.6902013190686116E-05
  -0.3471285778276128E-05
  -0.5870535357727136E-05
   0.1748312226312405E-05
   0.1655116850326207E-05
   0.3666212153977609E-05
  -0.6154061788370165E-05
   0.4439975785551664E-05
  -0.3410210464056135E-05
  -0.2021881929815656E-05
   0.2201726778897872E-05
  -0.5835796028648994E-05
   0.5624860324174039E-05
   0.6073156862064027E-05
  -0.5471216837599890E-05
   0.1501847645496347E-05
   0.0000000000000000E+00
   0.0000000000000000E+00
   0.0000000000000000E+00
   0.0000000000000000E+00
   0.0000000000000000E+00
   0.0000000000000000E+00
   0.0000000000000000E+00
   0.0000000000000000E+00
   0.0000000000000000E+00
   0.0000000000000000E+00
   0.0000000000000000E+00
   0.0000000000000000E+00
   0.0000000000000000E+00
   0.0000000000000000E+00
   0.0000000000000000E+00
   0.0000000000000000E+00
   0.0000000000000000E+00
   0.0000000000000000E+00
   0.0000000000000000E+00
   0.0000000000000000E+00
   0.0000000000000000E+00
   0.0000000000000000E+00
   0.0000000000000000E+00
   0.0000000000000000E+00
   0.0000000000000000E+00
   0.0000000000000000E+00
   0.0000000000000000E+00
   0.0000000000000000E+00
   0.9145111392542865E-07
   0.3444921558993344E-07
   0.1942693368442768E-07
   0.0000000000000000E+00
   0.0000000000000000E+00
   0.0000000000000000E+00
   0.0000000000000000E+00
  -0.1943616502650212E-05
   0.5574393857127841E-07
   0.2232835167473468E-06
   0.2211006225809788E-05
   0.1208813493809909E-05
  -0.2946912517858357E-05
   0.4841665451639030E-06
   0.9704361539933434E-07
   0.1821539736912135E-06
   0.1962775363598060E-06
  -0.7537081591051857E-07
   0.5270051825682187E-06
   0.2215921291356246E-06
  -0.2563979646336951E-07
   0.4837193611427967E-06
   0.4160942310956698E-06
   0.8912600200896508E-06
  -0.7767650639610157E-07
  -0.1423941872465253E-07
   0.6466971718525201E-07
   0.0000000000000000E+00
   0.0000000000000000E+00
   0.0000000000000000E+00
   0.0000000000000000E+00
   0.8252472320712365E-07
   0.1619601051211320E-06
  -0.8380917491713847E-07
  -0.1355698406758888E-07
  -0.1295505477036975E-07
   0.6099918688082514E-07
   0.2950569371778302E-07
   0.8169642154265666E-07
   0.8671418812674491E-07
   0.1360423908195231E-06
   0.1076036767724602E-06
   0.3888500934416444E-07
  -0.1474051289474972E-07
  -0.7693155789577862E-07
   0.3401884545367708E-07
   0.6563306709311879E-07
   0.0000000000000000E+00
   0.0000000000000000E+00
   0.0000000000000000E+00
   0.7395356775840579E-07
   0.8559198184169882E-07
   0.4364063321502532E-06
  -0.2649670058688987E-07
  -0.1162926562746405E-07
  -0.6629732569139509E-08
  -0.1680979332258822E-07
  -0.1021745457405439E-06
   0.2645147908361900E-05
   0.4382574660753247E-06
   0.3127215268612319E-07
   0.1713316536022229E-05
   0.6959894332113633E-07
   0.6730866770611850E-07
  -0.1578059988063320E-06
  -0.2178355238014899E-06
   0.0000000000000000E+00
   0.0000000000000000E+00
   0.0000000000000000E+00
   0.0000000000000000E+00
   0.0000000000000000E+00
   0.0000000000000000E+00
   0.0000000000000000E+00
   0.0000000000000000E+00
   0.0000000000000000E+00
   0.0000000000000000E+00
   0.0000000000000000E+00
   0.0000000000000000E+00
   0.0000000000000000E+00
   0.0000000000000000E+00
   0.0000000000000000E+00
   0.0000000000000000E+00
   0.0000000000000000E+00
   0.5525963642650123E-06
  -0.3481668737555406E-07
   0.2392635314789081E-06
   0.4952225793192161E-06
   0.1131807992786976E-06
   0.6621525141429303E-06
   0.1292953242359445E-05
  -0.1597106842002441E-07
   0.2192359192336726E-07
   0.5239093488935237E-07
   0.7225548207681687E-06
   0.1665859060393720E-05
   0.3424688984999444E-07
   0.3251400067518510E-06
   0.7746859873133569E-06
   0.5682868598722573E-06
   0.4057868191398973E-06
   0.7316200920289318E-06
   0.8940035224537151E-07
   0.1356128781629109E-07
   0.1250833975607565E-06
   0.4345515136337305E-06
   0.1195060209163815E-06
  -0.3433207908435027E-07
   0.1471921853252063E-06
  -0.1100366482180730E-06
  -0.2892286078610948E-06
   0.3916324505104174E-07
  -0.6891913759531138E-07
   0.3508271326083572E-05
   0.2506502928270777E-06
   0.9071927662881529E-06
   0.8248913999830749E-06
   0.3125241890709764E-05
   0.1455187725402152E-05
   0.1046768320010245E-05
  -0.4242487978217844E-07
   0.4623109922111193E-06
   0.1916307514379703E-06
   0.5726868480253858E-07
  -0.1607598329452674E-07
  -0.2328078401707812E-06
   0.3442923560002013E-06
  -0.1315690029181755E-06
  -0.5652511899988289E-07
   0.1169436801300876E-06
  -0.2146505905593543E-06
   0.4019714647024047E-06
  -0.2594999653679099E-05
   0.2011318779583328E-05
  -0.5993021301014540E-07
  -0.2491764760732607E-05
  -0.1325489848726309E-05
   0.3935459222138521E-06
   0.2388420855813312E-05
   0.1088258558324106E-05
   0.3325197985107117E-07
  -0.9026689403668992E-08
   0.7003460417084812E-07
   0.4234661040370752E-06
   0.1034016704046813E-05
  -0.1650066267926908E-06
   0.1890067312740621E-05
  -0.5153578399359095E-07
  -0.8325385063066103E-07
   0.2937745099072916E-06
  -0.5246193781326433E-06
  -0.1814466323522326E-05
   0.1869390258128676E-06
SCALARS w double 1
LOOKUP_TABLE default
   0.4411284195352499E-05
   0.1967231891833230E-04
   0.5900195024018180E-05
  -0.3361191789438574E-05
  -0.1054625550019892E-04
  -0.1631978990760989E-04
  -0.3167502595449751E-04
  -0.2163465611968168E-04
  -0.1439423450328837E-04
  -0.1412460367596690E-05
   0.6338675403990746E-05
   0.1220438857381687E-04
   0.1028338096392873E-04
   0.1450919260337482E-04
   0.4957308073799514E-05
   0.5000841907489128E-05
   0.2112908486088228E-04
  -0.7739414707483774E-05
  -0.6845470091803300E-05
   0.2359016954511809E-04
   0.2356137270940546E-04
   0.1480713166697186E-04
   0.2777871281021509E-04
   0.1349688993303298E-04
  -0.1284114180674810E-04
   0.1740598882578547E-04
   0.7328422845344335E-05
   0.1310313126535971E-04
  -0.2054042555581138E-04
   0.2122151488367966E-04
   0.1224820967664468E-04
   0.2764969127792095E-04
   0.3323675196927651E-04
  -0.3910823772466753E-05
   0.4267655064213193E-06
   0.1547356308241552E-05
   0.1062152361720405E-05
   0.1239246375461570E-05
   0.1670442429645676E-05
   0.1719326545948476E-05
   0.9002704938031788E-06
   0.5583068464563549E-07
   0.1497805104573565E-06
   0.9209456796526754E-06
   0.7678353247341358E-05
   0.1500341354785590E-05
  -0.4956170627509715E-05
   0.1660434001101970E-05
   0.3121578667732394E-05
   0.1658708801286190E-05
   0.3756939615699921E-05
   0.2332503991405112E-05
   0.1228589413555808E-05
   0.1977033843670440E-05
   0.1814573033156393E-05
   0.1657887723220368E-05
  -0.7232181311245777E-06
   0.1071061513036777E-04
   0.1383228534665723E-05
   0.4957167026415727E-05
   0.2725309865179394E-05
   0.9738151018699536E-06
   0.9355068464403445E-06
   0.9863526104560997E-06
   0.1125011006742901E-05
   0.1927527006170067E-05
   0.1326630156332127E-05
  -0.3881365342485453E-05
  -0.6817194715504752E-05
   0.1828976390328918E-05
   0.1601790868069338E-05
  -0.7651968496826850E-05
  -0.1110365441281550E-04
  -0.1556090763114899E-04
  -0.2386947467514477E-05
   0.7294741499137600E-06
   0.1808889194124059E-05
   0.2330071896834707E-05
   0.2019767169286475E-05
   0.2074823661570735E-05
   0.1604627946921524E-05
  -0.1337130343659521E-05
   0.1171893398896004E-05
   0.1349564758401398E-06
   0.1308676031907901E-05
   0.9478391454939954E-06
   0.8220517276636692E-06
   0.7818627032127905E-06
   0.8337490345350730E-06
   0.1772198845748795E-05
   0.1701147985706261E-05
   0.1328148657067141E-05
   0.1142283187097976E-05
   0.1698416436308501E-05
   0.1639033960160324E-05
   0.1316106839412156E-05
   0.1116007914184345E-05
   0.1023176447386493E-05
   0.1430129771628087E-05
   0.1641413568508199E-05
   0.1628281140852912E-05
   0.1811190700344037E-05
   0.1801081992067459E-05
   0.1720889793930131E-05
   0.1474269755641516E-05
   0.1774099112250284E-05
   0.1814213631736840E-05
   0.1547753102432459E-05
   0.2978059303597429E-05
   0.1896265971108230E-06
   0.2695578750141756E-07
   0.3403809677748114E-06
   0.5266714786221835E-05
   0.1466602350625404E-05
   0.3381739331654690E-06
   0.2999125669943696E-06
   0.3503472231474375E-06
   0.6581175613811510E-07
  -0.3924633014841959E-07
   0.4237295268062941E-05
  -0.3047224721962302E-06
   0.7448660558436725E-06
   0.2003106658972484E-06