# vtk DataFile Version 2.0
FUN3D:global_image_vtk
ASCII
DATASET UNSTRUCTURED_GRID
POINTS 213 double
   -0.5474224527720912E-02    0.2504942126394358E+01    0.8082169247845781E-04
    0.1245420076928180E+01    0.2504942126394358E+01    0.1048423978844128E-03
    0.2497696590161274E+01    0.2504942126394358E+01    0.1104836378041786E-03
    0.3750592000219316E+01    0.2504942126394358E+01    0.1364570022851221E-03
    0.5003221893557217E+01    0.2504942126394358E+01    0.9695067806313138E-04
    0.5004677757730219E+01    0.1281291915003748E+01    0.1646229492601449E-03
    0.5004773233265148E+01    0.2775197973138351E-01    0.1907234218277844E-03
    0.5003582221826500E+01   -0.1225852858120849E+01    0.1617086259254321E-03
    0.5001953053134515E+01   -0.2496588894990435E+01    0.1087092371910149E-03
    0.3750349122005903E+01   -0.2496588894990435E+01    0.1468754878927438E-03
    0.2498611963539534E+01   -0.2496588894990435E+01    0.1014099575163264E-03
    0.1247176261509345E+01   -0.2496588894990435E+01    0.1118958281412221E-03
   -0.3383469652505760E-02   -0.2496588894990435E+01    0.8163625863498401E-04
   -0.4256789880083964E-02   -0.1225734173006506E+01    0.3518765131218971E-04
   -0.5251125685753772E-02    0.2619601495648065E-01    0.1043778815052322E-03
   -0.5675101163537786E-02    0.1278222243531552E+01    0.8322052785167304E-04
    0.9003214217918744E+00    0.1608980307788059E+01    0.8747986548433793E-04
    0.3983173228635397E+01   -0.1561211262270739E+01    0.1766748276819931E-03
    0.4035602579387497E+01    0.1486761266126256E+01    0.1716707047749035E-03
    0.1036614706197667E+01   -0.1455625787809795E+01    0.1057334602207740E-03
    0.1094353949885713E+01   -0.2964610398744433E+00    0.1265432505361676E-03
    0.7298409877477202E+00    0.6874691505129548E+00    0.1054287519396115E-03
    0.1617019123563139E+01    0.8553219978666025E+00    0.1534204880539870E-03
    0.2143200653243216E+01   -0.1627127869725139E+01    0.1616130269572460E-03
    0.4088840979725205E+01   -0.4351036111829277E+00    0.2724113083121673E-03
    0.2977917509313599E+01   -0.8334984944101467E+00    0.2255152651590422E-03
    0.3044093743998181E+01   -0.1814360085633255E+01    0.1621866806658513E-03
    0.3427867629114899E+01    0.3813911924713182E+00    0.2945982523096239E-03
    0.4313225907775678E+01    0.5489145452820490E+00    0.2316713600814392E-03
    0.1823033713305475E+01    0.1771265914466481E+01    0.1845256528172625E-03
    0.2806311649527428E+01    0.1358630605767851E+01    0.1947351855950820E-03
    0.1891861854168224E+01   -0.8481303814147357E+00    0.1680436487611893E-03
    0.2268769674863770E+01    0.7723810290210216E-01    0.2076744628142082E-03
    0.5000000000000000E+01    0.2504942126394358E+01    0.1250000000000000E+01
    0.5000000000000000E+01    0.2504942126394358E+01    0.2500000000000000E+01
    0.5000000000000000E+01    0.2504942126394358E+01    0.3750000000000000E+01
    0.5000000000000000E+01    0.2504942126394358E+01    0.5000000000000000E+01
    0.3750000000000000E+01    0.2504942126394358E+01    0.5000000000000000E+01
    0.2500000000000000E+01    0.2504942126394358E+01    0.5000000000000000E+01
    0.1250000000000000E+01    0.2504942126394358E+01    0.5000000000000000E+01
    0.0000000000000000E+00    0.2504942126394358E+01    0.5000000000000000E+01
    0.0000000000000000E+00    0.2504942126394358E+01    0.3750000000000000E+01
    0.0000000000000000E+00    0.2504942126394358E+01    0.2500000000000000E+01
    0.0000000000000000E+00    0.2504942126394358E+01    0.1250000000000000E+01
    0.9588960369906027E+00    0.2504942126394358E+01    0.9696533635134074E+00
    0.3981953152437098E+01    0.2504942126394358E+01    0.4070563994318885E+01
    0.4036122760748993E+01    0.2504942126394358E+01    0.1017568211262069E+01
    0.9637572721097026E+00    0.2504942126394358E+01    0.3973598325910149E+01
    0.1546540225214412E+01    0.2504942126394358E+01    0.2931570546623369E+01
    0.6973799590125652E+00    0.2504942126394358E+01    0.3070320151822421E+01
    0.8903742902410691E+00    0.2504942126394358E+01    0.2056562651402181E+01
    0.2183042038777302E+01    0.2504942126394358E+01    0.3960694659644651E+01
    0.3855845055169345E+01    0.2504942126394358E+01    0.2933250909205840E+01
    0.3152611483938655E+01    0.2504942126394358E+01    0.3637668660441704E+01
    0.3103307439056897E+01    0.2504942126394358E+01    0.4332607953811380E+01
    0.3266711423523970E+01    0.2504942126394358E+01    0.1889657173325438E+01
    0.4232537818759956E+01    0.2504942126394358E+01    0.1918627332171121E+01
    0.1905523024841220E+01    0.2504942126394358E+01    0.7226299060569138E+00
    0.2879768362525143E+01    0.2504942126394358E+01    0.9080952801356742E+00
    0.2012711742451920E+01    0.2504942126394358E+01    0.1767083037689035E+01
    0.2669681670297483E+01    0.2504942126394358E+01    0.2853394772384842E+01
    0.5000000000000000E+01    0.1250000000000000E+01    0.5000000000000000E+01
    0.5000000000000000E+01    0.0000000000000000E+00    0.5000000000000000E+01
    0.5000000000000000E+01   -0.1250000000000000E+01    0.5000000000000000E+01
    0.5000000000000000E+01   -0.2496588894990435E+01    0.5000000000000000E+01
    0.5000000000000000E+01   -0.2496588894990435E+01    0.3750000000000000E+01
    0.5000000000000000E+01   -0.2496588894990435E+01    0.2500000000000000E+01
    0.5000000000000000E+01   -0.2496588894990435E+01    0.1250000000000000E+01
    0.5000000000000000E+01    0.1578994732800803E+01    0.9058375365086910E+00
    0.5000000000000000E+01   -0.1583989954232354E+01    0.3982050490726493E+01
    0.5000000000000000E+01    0.1453322699199022E+01    0.4033849428301197E+01
    0.5000000000000000E+01   -0.1479596339503735E+01    0.1040505887381675E+01
    0.5000000000000000E+01   -0.3227322616384110E+00    0.1099454400140349E+01
    0.5000000000000000E+01    0.6593508822075582E+00    0.7354504170366591E+00
    0.5000000000000000E+01    0.8256214013940779E+00    0.1622302608453282E+01
    0.5000000000000000E+01   -0.1650070333782557E+01    0.2145871574390382E+01
    0.5000000000000000E+01   -0.4612828702537229E+00    0.4086422318222992E+01
    0.5000000000000000E+01   -0.8579242121530853E+00    0.2979540174134984E+01
    0.5000000000000000E+01   -0.1836846154397680E+01    0.3045064261640043E+01
    0.5000000000000000E+01    0.3508002863614053E+00    0.3428197553792836E+01
    0.5000000000000000E+01    0.5185680230613409E+00    0.4309693860063405E+01
    0.5000000000000000E+01    0.1738996113203182E+01    0.1827272193562204E+01
    0.5000000000000000E+01    0.1325493893339706E+01    0.2808563282768077E+01
    0.5000000000000000E+01   -0.8731419609589618E+00    0.1895995683864404E+01
    0.5000000000000000E+01    0.4906150219227333E-01    0.2273179336307740E+01
    0.0000000000000000E+00    0.1250000000000000E+01    0.5000000000000000E+01
    0.0000000000000000E+00    0.0000000000000000E+00    0.5000000000000000E+01
    0.0000000000000000E+00   -0.1250000000000000E+01    0.5000000000000000E+01
    0.0000000000000000E+00   -0.2496588894990435E+01    0.5000000000000000E+01
    0.1250000000000000E+01   -0.2496588894990435E+01    0.5000000000000000E+01
    0.2500000000000000E+01   -0.2496588894990435E+01    0.5000000000000000E+01
    0.3750000000000000E+01   -0.2496588894990435E+01    0.5000000000000000E+01
    0.4042003247744892E+01    0.1558308132739014E+01    0.5000000000000000E+01
    0.9304122287900499E+00   -0.1548001304379777E+01    0.5000000000000000E+01
    0.1037243024609388E+01    0.1462892710085612E+01    0.5000000000000000E+01
    0.3946240828834967E+01   -0.1445243809615570E+01    0.5000000000000000E+01
    0.4092527262848217E+01   -0.3455338993778935E+00    0.5000000000000000E+01
    0.4293103109154542E+01    0.6277660831404320E+00    0.5000000000000000E+01
    0.3241512314643519E+01    0.7429886854239611E+00    0.5000000000000000E+01
    0.2844289952419609E+01   -0.1588117879734118E+01    0.5000000000000000E+01
    0.7159905765450471E+00   -0.6002320124191652E+00    0.5000000000000000E+01
    0.1754341919796891E+01   -0.7398147869923652E+00    0.5000000000000000E+01
    0.1870296826774691E+01   -0.1788622905643739E+01    0.5000000000000000E+01
    0.9220614901912976E+00    0.3083720183248586E+00    0.5000000000000000E+01
    0.3101523624086016E+01    0.1777901774806180E+01    0.5000000000000000E+01
    0.2192512063922564E+01    0.1576861561598471E+01    0.5000000000000000E+01
    0.2024793420196460E+01    0.4773861992750707E+00    0.5000000000000000E+01
    0.2990627757741975E+01   -0.4878110785814084E+00    0.5000000000000000E+01
    0.0000000000000000E+00   -0.2496588894990435E+01    0.1250000000000000E+01
    0.0000000000000000E+00   -0.2496588894990435E+01    0.2500000000000000E+01
    0.0000000000000000E+00   -0.2496588894990435E+01    0.3750000000000000E+01
    0.0000000000000000E+00    0.1558308132739014E+01    0.4042003247744892E+01
    0.0000000000000000E+00   -0.1548001304379777E+01    0.9304122287900499E+00
    0.0000000000000000E+00    0.1462892710085612E+01    0.1037243024609388E+01
    0.0000000000000000E+00   -0.1445243809615570E+01    0.3946240828834967E+01
    0.0000000000000000E+00   -0.3455338993778935E+00    0.4092527262848217E+01
    0.0000000000000000E+00    0.6277660831404320E+00    0.4293103109154542E+01
    0.0000000000000000E+00    0.7429886854239611E+00    0.3241512314643519E+01
    0.0000000000000000E+00   -0.1588117879734118E+01    0.2844289952419609E+01
    0.0000000000000000E+00   -0.6002320124191652E+00    0.7159905765450471E+00
    0.0000000000000000E+00   -0.7398147869923652E+00    0.1754341919796891E+01
    0.0000000000000000E+00   -0.1788622905643739E+01    0.1870296826774691E+01
    0.0000000000000000E+00    0.3083720183248586E+00    0.9220614901912976E+00
    0.0000000000000000E+00    0.1777901774806180E+01    0.3101523624086016E+01
    0.0000000000000000E+00    0.1576861561598471E+01    0.2192512063922564E+01
[...]
POINT_DATA 213
SCALARS rho double 1
LOOKUP_TABLE default
   0.1000013394414198E+01
   0.1000006941657016E+01
   0.9999876922920892E+00
   0.9999949321609057E+00
   0.1000003746783408E+01
   0.1000005634939597E+01
   0.9999935978111941E+00
   0.9999980901549010E+00
   0.9999990193087671E+00
   0.9999958279577118E+00
   0.9999943743812600E+00
   0.9999993885799239E+00
   0.1000020969738063E+01
   0.1000027295959099E+01
   0.1000020591958805E+01
   0.1000014895689424E+01
   0.1000016763529129E+01
   0.9999901502275393E+00
   0.9999910376149792E+00
   0.1000010249176978E+01
   0.1000010723319619E+01
   0.1000011943572362E+01
   0.1000006598431140E+01
   0.9999952873360648E+00
   0.9999822360361604E+00
   0.9999917479644007E+00
   0.9999938974463963E+00
   0.9999886140659804E+00
   0.9999818753442916E+00
   0.9999993434824777E+00
   0.9999907629443655E+00
   0.1000001587764294E+01
   0.1000001418154433E+01
   0.1000001773604385E+01
   0.1000001233599775E+01
   0.1000000849446216E+01
   0.1000000683919108E+01
   0.1000001186451077E+01
   0.1000001663176955E+01
   0.1000001781535109E+01
   0.1000001431645066E+01
   0.1000002374986837E+01
   0.1000004125122952E+01
   0.1000007789825387E+01
   0.1000005989311332E+01
   0.1000000961270837E+01
   0.9999988660415159E+00
   0.1000002125231646E+01
   0.1000002435479874E+01
   0.1000002896233648E+01
   0.1000003533299295E+01
   0.1000001712547868E+01
   0.1000000715581137E+01
   0.1000001156297273E+01
   0.1000001329564284E+01
   0.9999997385338135E+00
   0.1000000121002289E+01
   0.1000000157538903E+01
   0.9999979962673893E+00
   0.1000001506766879E+01
   0.1000001179073821E+01
   0.1000000667298194E+01
   0.1000000663457084E+01
   0.1000000660512324E+01
   0.1000000735240720E+01
   0.1000000960354373E+01
   0.1000001530560184E+01
   0.1000002262267559E+01
   0.1000001923380789E+01
   0.1000000725500101E+01
   0.1000000688860710E+01
   0.1000002655911427E+01
   0.1000005632436195E+01
   0.1000004767286738E+01
   0.1000000866367577E+01
   0.1000001953539851E+01
   0.1000000655910911E+01
   0.1000001414011836E+01
   0.1000001276703378E+01
   0.1000000944857188E+01
   0.1000000637906228E+01
   0.1000001440195255E+01
   0.1000000997044544E+01
   0.1000002322653774E+01
   0.1000001387109021E+01
   0.1000001361335779E+01
   0.1000001331772888E+01
   0.1000001398018956E+01
   0.1000001474787939E+01
   0.1000001847153606E+01
   0.1000001705597699E+01
   0.1000001252195360E+01
   0.1000001082181397E+01
   0.1000001634534982E+01
   0.1000001636213123E+01
   0.1000001123573424E+01
   0.1000001124553287E+01
   0.1000001014341617E+01
   0.1000001432409119E+01
   0.1000001608250482E+01
   0.1000001506555161E+01
   0.1000001875026025E+01
   0.1000001860889774E+01
   0.1000001554440631E+01
   0.1000001439225785E+01
   0.1000001729106613E+01
   0.1000001769190954E+01
   0.1000001546776702E+01
   0.1000009258755302E+01
   0.1000004426050393E+01
   0.1000002511567136E+01
   0.1000002103273084E+01
   0.1000011252797132E+01
   0.1000009099985038E+01
   0.1000002286876605E+01
   0.1000002163623171E+01
   0.1000001942375322E+01
   0.1000003119380256E+01
   0.1000003790003167E+01
   0.1000012790183880E+01
   0.1000006777349965E+01
   0.1000006446836130E+01
   0.1000010072687302E+01
   0.1000003206095303E+01
   0.1000004882866957E+01
   0.1000005651473830E+01
   0.1000003590491602E+01
   0.1000005468580603E+01
   0.1000001047913991E+01
   0.9999986512026208E+00
   0.1000002268258176E+01
   0.1000002423386247E+01
   0.1000003168758147E+01
   0.1000004080959497E+01
   0.1000001763068416E+01
   0.1000000809638705E+01
   0.1000001216514645E+01
   0.1000001395392420E+01
   0.9999995455163896E+00
   0.1000000492478182E+01
   0.1000000021605158E+01
   0.9999982284523137E+00
   0.1000001628249689E+01
   0.1000001331584015E+01
   0.1000001307412968E+01
   0.1000002036437670E+01
   0.1000002295455965E+01
   0.1000002825485709E+01
   0.1000003788764942E+01
   0.1000006333398824E+01
   0.1000003077522028E+01
   0.1000002610198708E+01
   0.1000002153817302E+01
   0.1000002888344247E+01
   0.1000002897225125E+01
   0.1000005881293345E+01
   0.1000001879122694E+01
   0.1000001359125500E+01
   0.1000000168717550E+01
   0.1000000600150414E+01
   0.1000001103364418E+01
   0.1000000586021079E+01
   0.1000001543347527E+01
   0.1000001719040903E+01
   0.1000001227110922E+01
   0.1000000793978364E+01
   0.1000001466889926E+01
   0.1000002039134666E+01
   0.1000004196323589E+01
   0.1000003195561258E+01
   0.1000001500492869E+01
   0.1000002008040533E+01
   0.1000003004511566E+01
   0.9999987285465793E+00
   0.1000003447936681E+01
   0.1000000215315745E+01
   0.1000000920822992E+01
   0.9999996510802945E+00
   0.1000000218084653E+01
   0.1000007146604279E+01
   0.1000005151183769E+01
   0.1000007009967842E+01
   0.1000000968481686E+01
   0.1000001464475620E+01
   0.1000000721010433E+01
   0.1000000422254985E+01
   0.9999999977036823E+00
   0.1000000824974414E+01
   0.1000001079532519E+01
   0.1000000956217333E+01
   0.1000001363035674E+01
   0.9999994241443207E+00
   0.9999992474981418E+00
   0.9999993359467350E+00
   0.9999999716790221E+00
   0.9999980402237272E+00
   0.9999985752096785E+00
   0.1000000633236756E+01
   0.9999997637348176E+00
   0.9999936939288251E+00
   0.1000002060301745E+01
   0.1000001743679290E+01
   0.1000001110690667E+01
   0.1000000888718168E+01
   0.9999957291527254E+00
   0.9999938733286223E+00
   0.9999969750227180E+00
   0.1000001564555564E+01
   0.1000001219387092E+01
   0.1000000930598283E+01
   0.1000000838765022E+01
   0.1000001756187204E+01
   0.9999946499515259E+00
SCALARS u double 1
LOOKUP_TABLE default
   0.4999825288725578E+00
   0.5000062049193877E+00
   0.5000311875341121E+00
   0.5000258794592544E+00
   0.5000072137035970E+00
   0.5000049631216144E+00
   0.5000128742553831E+00
   0.5000124184597632E+00
   0.5000136737782271E+00
   0.5000303019941306E+00
   0.5000272453007428E+00
   0.5000154322730190E+00
   0.4999841119667851E+00
   0.4999807642012029E+00
   0.4999821000012203E+00
   0.4999827442452543E+00
   0.4999933408077082E+00
   0.5000361752583107E+00
   0.5000294697738208E+00
   0.5000088486291795E+00
   0.5000019929711791E+00
   0.4999923320668179E+00
   0.5000114848263949E+00
   0.5000278041930941E+00
   0.5000416237259631E+00
   0.5000392085129337E+00
   0.5000333612014100E+00
   0.5000435771419661E+00
   0.5000362725777667E+00
   0.5000212482647315E+00
   0.5000319769168325E+00
   0.5000217664578901E+00
   0.5000269604768134E+00
   0.5000039060123402E+00
   0.5000016676793484E+00
   0.5000006256604135E+00
   0.5000001293129461E+00
   0.4999988049675322E+00
   0.4999979263264631E+00
   0.4999975729030015E+00
   0.4999983478596388E+00
   0.4999975391394071E+00
   0.4999957140037951E+00
   0.4999919002787370E+00
   0.4999965845949454E+00
   0.4999999337824295E+00
   0.5000125451015820E+00
   0.4999978491193285E+00
   0.4999987499974275E+00
   0.4999973896639149E+00
   0.4999974736203343E+00
   0.4999987272446205E+00
   0.5000018444789194E+00
   0.5000000245810372E+00
   0.4999990615699003E+00
   0.5000067748149057E+00
   0.5000053668595998E+00
   0.5000111376225860E+00
   0.5000165757019476E+00
   0.5000031295452778E+00
   0.5000011830347733E+00
   0.5000001476380175E+00
   0.5000001375333365E+00
   0.5000000066950010E+00
   0.5000001434652297E+00
   0.5000005226776587E+00
   0.5000016282408301E+00
   0.5000047268261063E+00
   0.5000056196438769E+00
   0.5000005532544998E+00
   0.5000005591385618E+00
   0.5000061898834122E+00
   0.5000032593854145E+00
   0.5000041822641631E+00
   0.5000046122409906E+00
   0.5000022160349206E+00
   0.5000004839501059E+00
   0.5000010381168492E+00
   0.5000009578503333E+00
   0.5000007427668204E+00
   0.5000004531263521E+00
   0.5000027830717295E+00
   0.5000014307644923E+00
   0.5000032416128923E+00
   0.5000024891386499E+00
   0.4999985758622560E+00
   0.4999986030174677E+00
   0.4999984677404156E+00
   0.4999983049195911E+00
   0.4999975343275347E+00
   0.4999978385737403E+00
   0.4999987864440624E+00
   0.4999990060833671E+00
   0.4999978285440927E+00
   0.4999977771781461E+00
   0.4999989719593450E+00
   0.4999990044725025E+00
   0.4999992100951962E+00
   0.4999983480899471E+00
   0.4999980881751532E+00
   0.4999980845862779E+00
   0.4999976136858115E+00
   0.4999975733628476E+00
   0.4999979666815908E+00
   0.4999983054109514E+00
   0.4999977866903358E+00
   0.4999977229183636E+00
   0.4999981934442841E+00
   0.4999906483593038E+00
   0.4999953887483126E+00
   0.4999973537007749E+00
   0.4999976995054005E+00
   0.4999865633906865E+00
   0.4999898150689404E+00
   0.4999975199968301E+00
   0.4999977523736029E+00
   0.4999979988156641E+00
   0.4999968040532150E+00
   0.4999957280952638E+00
   0.4999861050508154E+00
   0.4999923508249677E+00
   0.4999936537758818E+00
   0.4999879115247677E+00
   0.4999967422579705E+00
   0.4999947838305787E+00
   0.4999940405051773E+00
   0.4999961714879482E+00
   0.4999998746968176E+00
   0.5000000160871965E+00
   0.5000156515150831E+00
   0.4999977345759509E+00
   0.4999986828402828E+00
   0.4999971387423979E+00
   0.4999974161953707E+00
   0.4999987132752376E+00
   0.5000018152087072E+00
   0.5000001671304856E+00
   0.4999990888294119E+00
   0.5000072987677312E+00
   0.5000058311546473E+00
   0.5000146071485629E+00
   0.5000173427067095E+00
   0.5000038372367615E+00
   0.5000013572574802E+00
   0.5000010890438784E+00
   0.4999985419277962E+00
   0.4999987915770497E+00
   0.4999998923920026E+00
   0.4999963905136670E+00
   0.4999950173820163E+00
   0.5000006400490911E+00
   0.4999973651730069E+00
   0.4999982665312174E+00
   0.4999972230950601E+00
   0.4999994029908810E+00
   0.4999988351334558E+00
   0.4999980479543598E+00
   0.5000004044391663E+00
   0.5000056857119978E+00
   0.5000025901233488E+00
   0.5000004246753056E+00
   0.5000033010811902E+00
   0.4999988021727332E+00
   0.4999984717037351E+00
   0.4999992372567573E+00
   0.5000020029342502E+00
   0.5000003796102180E+00
   0.4999979581550764E+00
   0.4999960970681795E+00
   0.4999990137436758E+00
   0.5000045409530181E+00
   0.4999978239636953E+00
   0.4999972015540698E+00
   0.5000142810472056E+00
   0.5000085294863272E+00
   0.5000066066454715E+00
   0.5000033413112642E+00
   0.5000116198685264E+00
   0.5000051118028314E+00
   0.4999979943524831E+00
   0.4999954544664007E+00
   0.4999971505575787E+00
   0.4999997537041106E+00
   0.4999989712390022E+00
   0.5000036976830085E+00
   0.5000031444870685E+00
   0.5000089814487729E+00
   0.5000030128560352E+00
   0.5000005619543866E+00
   0.5000004041499314E+00
   0.5000012801820130E+00
   0.5000086836336801E+00
   0.5000130582412927E+00
   0.5000104189563260E+00
   0.5000060025339705E+00
   0.5000186240103422E+00
   0.5000134970413798E+00
   0.5000092910921713E+00
   0.5000132076459340E+00
   0.5000275540733652E+00
   0.4999983392607301E+00
   0.4999983067334635E+00
   0.4999994983437579E+00
   0.5000007289918960E+00
   0.5000230583682541E+00
   0.5000252984242975E+00
   0.5000225374419180E+00
   0.4999989109143969E+00
   0.4999998095993638E+00
   0.5000005482214847E+00
   0.5000040219156312E+00
   0.5000086931767548E+00
   0.5000253958872469E+00
SCALARS v double 1
LOOKUP_TABLE default
   0.0000000000000000E+00
   0.0000000000000000E+00
   0.0000000000000000E+00
   0.0000000000000000E+00
   0.0000000000000000E+00
  -0.8743339760532035E-05
  -0.1485802257398467E-05
   0.8064183214740953E-05
   0.0000000000000000E+00
   0.0000000000000000E+00
   0.0000000000000000E+00
   0.0000000000000000E+00
   0.0000000000000000E+00
   0.3533564077266929E-06
   0.3639557845899708E-05
   0.1415087857229427E-05
   0.1319650918152776E-05
   0.6901888664605221E-05
  -0.3470823924185539E-05
  -0.5870572230141170E-05
   0.1748358858798065E-05
   0.1655128412292927E-05
   0.3666321221128915E-05
  -0.6154126871729700E-05
   0.4439794843407965E-05
  -0.3410348157697188E-05
  -0.2021953665602665E-05
   0.2201776294210548E-05
  -0.5835515434444280E-05
   0.5624945259883356E-05
   0.6073333243731308E-05
  -0.5471219216185326E-05
   0.1501876416766490E-05
   0.0000000000000000E+00
   0.0000000000000000E+00
   0.0000000000000000E+00
   0.0000000000000000E+00
   0.0000000000000000E+00
   0.0000000000000000E+00
   0.0000000000000000E+00
   0.0000000000000000E+00
   0.0000000000000000E+00
   0.0000000000000000E+00
   0.0000000000000000E+00
   0.0000000000000000E+00
   0.0000000000000000E+00
   0.0000000000000000E+00
   0.0000000000000000E+00
   0.0000000000000000E+00
   0.0000000000000000E+00
   0.0000000000000000E+00
   0.0000000000000000E+00
   0.0000000000000000E+00
   0.0000000000000000E+00
   0.0000000000000000E+00
   0.0000000000000000E+00
   0.0000000000000000E+00
   0.0000000000000000E+00
   0.0000000000000000E+00
   0.0000000000000000E+00
   0.0000000000000000E+00
   0.9152527719008530E-07
   0.3448662887132322E-07
   0.1936568501321528E-07
   0.0000000000000000E+00
   0.0000000000000000E+00
   0.0000000000000000E+00
   0.0000000000000000E+00
  -0.1943755720790146E-05
   0.5570617632077260E-07
   0.2232868051957144E-06
   0.2211155296510398E-05
   0.1208836276659525E-05
  -0.2946992408632968E-05
   0.4840341357092282E-06
   0.9705523264833864E-07
   0.1821445746670202E-06
   0.1962654756368443E-06
  -0.7538998883164068E-07
   0.5269829029067252E-06
   0.2216050641841742E-06
  -0.2571572953947574E-07
   0.4836778505637552E-06
   0.4161246002521867E-06
   0.8912241269508961E-06
  -0.7769549553123564E-07
  -0.1425866780745037E-07
   0.6466091706777079E-07
   0.0000000000000000E+00
   0.0000000000000000E+00
   0.0000000000000000E+00
   0.0000000000000000E+00
   0.8265773261033701E-07
   0.1619816890875213E-06
  -0.8381222993656145E-07
  -0.1363137342101830E-07
  -0.1300524571174176E-07
   0.6108470303001943E-07
   0.2955415565333202E-07
   0.8174648951772963E-07
   0.8674305295428175E-07
   0.1361233229166301E-06
   0.1076521623912967E-06
   0.3891485635161798E-07
  -0.1467292516669944E-07
  -0.7691580651448463E-07
   0.3405829472094650E-07
   0.6561647783132102E-07
   0.0000000000000000E+00
   0.0000000000000000E+00
   0.0000000000000000E+00
   0.7395562711730011E-07
   0.8563891400812887E-07
   0.4363836305450299E-06
  -0.2651867226751409E-07
  -0.1165475446420781E-07
  -0.6647045296111077E-08
  -0.1679807913796602E-07
  -0.1021980082424151E-06
   0.2645138827424598E-05
   0.4382579932944450E-06
   0.3126518839624295E-07
   0.1713252758657305E-05
   0.6960015586736685E-07
   0.6731576149159112E-07
  -0.1577895100027964E-06
  -0.2178301801607138E-06
   0.0000000000000000E+00
   0.0000000000000000E+00
   0.0000000000000000E+00
   0.0000000000000000E+00
   0.0000000000000000E+00
   0.0000000000000000E+00
   0.0000000000000000E+00
   0.0000000000000000E+00
   0.0000000000000000E+00
   0.0000000000000000E+00
   0.0000000000000000E+00
   0.0000000000000000E+00
   0.0000000000000000E+00
   0.0000000000000000E+00
   0.0000000000000000E+00
   0.0000000000000000E+00
   0.0000000000000000E+00
   0.5525930005264499E-06
  -0.3481419851520264E-07
   0.2392663985643544E-06
   0.4952481410466117E-06
   0.1131817939752898E-06
   0.6621290179309366E-06
   0.1292943792201471E-05
  -0.1597158238384864E-07
   0.2192326672814068E-07
   0.5239963414282469E-07
   0.7225429482362163E-06
   0.1665844022636056E-05
   0.3425804679551989E-07
   0.3251192951271205E-06
   0.7747095710337202E-06
   0.5683011480613244E-06
   0.4057709285091830E-06
   0.7316309874663640E-06
   0.8939974384564654E-07
   0.1355661927245758E-07
   0.1251138748791581E-06
   0.4345432317176763E-06
   0.1195246421832032E-06
  -0.3432834739480731E-07
   0.1471973813355770E-06
  -0.1100334331532633E-06
  -0.2892076714521363E-06
   0.3917404148237744E-07
  -0.6893621408719207E-07
   0.3508247030134232E-05
   0.2506449800014387E-06
   0.9072173174488434E-06
   0.8248826445655818E-06
   0.3125217659552869E-05
   0.1455171881599831E-05
   0.1046743306258620E-05
  -0.4239436976223024E-07
   0.4623243852463766E-06
   0.1916352673110283E-06
   0.5725942492386082E-07
  -0.1608010271562224E-07
  -0.2327927574614495E-06
   0.3443473067951965E-06
  -0.1315740597261389E-06
  -0.5653345535575453E-07
   0.1169513031201391E-06
  -0.2146229724028967E-06
   0.4019777623271023E-06
  -0.2595047996132579E-05
   0.2011309574319893E-05
  -0.5989614748019695E-07
  -0.2491755317923105E-05
  -0.1325472690889177E-05
   0.3935317199399662E-06
   0.2388458647744487E-05
   0.1088226697612006E-05
   0.3324100279494984E-07
  -0.8998100658110288E-08
   0.7001100339260206E-07
   0.4234469119264832E-06
   0.1033967848534890E-05
  -0.1650079237965802E-06
   0.1890042914173375E-05
  -0.5150737729513157E-07
  -0.8323039374498906E-07
   0.2937637318510472E-06
  -0.5246129411580811E-06
  -0.1814460437093399E-05
   0.1869184491500215E-06
SCALARS w double 1
LOOKUP_TABLE default
   0.4411344447788267E-05
   0.1967237343892293E-04
   0.5900378002403523E-05
  -0.3360949449205145E-05
  -0.1054617508608618E-04
  -0.1631995232304506E-04
  -0.3167542579123788E-04
  -0.2163478757978755E-04
  -0.1439417206849614E-04
  -0.1412218216301686E-05
   0.6338731881719698E-05
   0.1220433315781738E-04
   0.1028329979149169E-04
   0.1450912839912725E-04
   0.4957279595790850E-05
   0.5000818058830135E-05
   0.2112910327141702E-04
  -0.7739029141915594E-05
  -0.6844934643863196E-05
   0.2359021601401754E-04
   0.2356148586482194E-04
   0.1480718231975130E-04
   0.2777880803887842E-04
   0.1349705570726058E-04
  -0.1284096436335120E-04
   0.1740615943556095E-04
   0.7328828339890449E-05
   0.1310327631022997E-04
  -0.2054020241438234E-04
   0.2122158687869305E-04
   0.1224843825149842E-04
   0.2764976938098558E-04
   0.3323679427370242E-04
  -0.3910792759107104E-05
   0.4268485350879411E-06
   0.1547345749198945E-05
   0.1062046330886031E-05
   0.1239335347583886E-05
   0.1670566229396091E-05
   0.1719352185149072E-05
   0.9002460303285177E-06
   0.5582488198295339E-07
   0.1497762580917296E-06
   0.9209368467660858E-06
   0.7678376242045123E-05
   0.1500352371402392E-05
  -0.4956126214207345E-05
   0.1660432130319261E-05
   0.3121595097443044E-05
   0.1658708113024072E-05
   0.3756942433535717E-05
   0.2332519663295978E-05
   0.1228556260963160E-05
   0.1977031047495833E-05
   0.1814613848747045E-05
   0.1657875590509995E-05
  -0.7231498129919645E-06
   0.1071068250962471E-04
   0.1383278100729053E-05
   0.4957175839763197E-05
   0.2725301044165225E-05
   0.9736755324566635E-06
   0.9354137901247829E-06
   0.9863040875238773E-06
   0.1124992059612165E-05
   0.1927436181656618E-05
   0.1326579333987416E-05
  -0.3881384906181135E-05
  -0.6817363400428024E-05
   0.1828896379376186E-05
   0.1601718298559408E-05
  -0.7652055985531915E-05
  -0.1110387050637410E-04
  -0.1556122787650766E-04
  -0.2387074043306259E-05
   0.7294272103987718E-06
   0.1808836651538487E-05
   0.2330043231296835E-05
   0.2019701949961526E-05
   0.2074808611528620E-05
   0.1604540098922041E-05
  -0.1337090203028511E-05
   0.1171910115216336E-05
   0.1348975383256362E-06
   0.1308634974875210E-05
   0.9478126649159633E-06
   0.8220406630740892E-06
   0.7818681387343153E-06
   0.8337678359179855E-06
   0.1772179622203067E-05
   0.1701127766189825E-05
   0.1328142373669578E-05
   0.1142231611479633E-05
   0.1698405494582225E-05
   0.1639036282269422E-05
   0.1316110911728294E-05
   0.1115967207914814E-05
   0.1023103246084438E-05
   0.1430182424345102E-05
   0.1641415738398240E-05
   0.1628273517437240E-05
   0.1811195418709864E-05
   0.1801077649913022E-05
   0.1720892164703674E-05
   0.1474405418077727E-05
   0.1774150768207885E-05
   0.1814235555538081E-05
   0.1547797525468004E-05
   0.2978010525758736E-05
   0.1896079679991770E-06
   0.2695818717343051E-07
   0.3403610016701019E-06
   0.5266657391823214E-05
   0.1466576555439639E-05
   0.3381610859458176E-06
   0.2999022307276421E-06
   0.3503157635693432E-06
   0.6581131104361493E-07
  -0.3927012702450201E-07
   0.4237257025562593E-05
  -0.3046855063162212E-06
   0.7448491797045399E-06
   0.2002224517860931E-06