# vtk DataFile Version 2.0
FUN3D:global_image_vtk
ASCII
DATASET UNSTRUCTURED_GRID
POINTS 213 double
   -0.5474224527720909E-02    0.2504942126394358E+01    0.8082169247845777E-04
    0.1245420076928180E+01    0.2504942126394358E+01    0.1048423978844127E-03
    0.2497696590161274E+01    0.2504942126394358E+01    0.1104836378041785E-03
    0.3750592000219316E+01    0.2504942126394358E+01    0.1364570022851220E-03
    0.5003221893557217E+01    0.2504942126394358E+01    0.9695067806313134E-04
    0.5004677757730219E+01    0.1281291915003748E+01    0.1646229492601449E-03
    0.5004773233265148E+01    0.2775197973138349E-01    0.1907234218277843E-03
    0.5003582221826500E+01   -0.1225852858120849E+01    0.1617086259254320E-03
    0.5001953053134515E+01   -0.2496588894990435E+01    0.1087092371910148E-03
    0.3750349122005903E+01   -0.2496588894990435E+01    0.1468754878927437E-03
    0.2498611963539534E+01   -0.2496588894990435E+01    0.1014099575163264E-03
    0.1247176261509345E+01   -0.2496588894990435E+01    0.1118958281412220E-03
   -0.3383469652505758E-02   -0.2496588894990435E+01    0.8163625863498397E-04
   -0.4256789880083962E-02   -0.1225734173006506E+01    0.3518765131218970E-04
   -0.5251125685753769E-02    0.2619601495648064E-01    0.1043778815052321E-03
   -0.5675101163537783E-02    0.1278222243531552E+01    0.8322052785167299E-04
    0.9003214217918744E+00    0.1608980307788059E+01    0.8747986548433789E-04
    0.3983173228635397E+01   -0.1561211262270739E+01    0.1766748276819930E-03
    0.4035602579387497E+01    0.1486761266126256E+01    0.1716707047749034E-03
    0.1036614706197667E+01   -0.1455625787809795E+01    0.1057334602207739E-03
    0.1094353949885713E+01   -0.2964610398744433E+00    0.1265432505361675E-03
    0.7298409877477202E+00    0.6874691505129548E+00    0.1054287519396114E-03
    0.1617019123563139E+01    0.8553219978666025E+00    0.1534204880539870E-03
    0.2143200653243216E+01   -0.1627127869725139E+01    0.1616130269572459E-03
    0.4088840979725205E+01   -0.4351036111829277E+00    0.2724113083121672E-03
    0.2977917509313599E+01   -0.8334984944101467E+00    0.2255152651590421E-03
    0.3044093743998181E+01   -0.1814360085633255E+01    0.1621866806658512E-03
    0.3427867629114899E+01    0.3813911924713182E+00    0.2945982523096237E-03
    0.4313225907775678E+01    0.5489145452820490E+00    0.2316713600814391E-03
    0.1823033713305475E+01    0.1771265914466481E+01    0.1845256528172624E-03
    0.2806311649527428E+01    0.1358630605767851E+01    0.1947351855950819E-03
    0.1891861854168224E+01   -0.8481303814147357E+00    0.1680436487611893E-03
    0.2268769674863770E+01    0.7723810290210215E-01    0.2076744628142081E-03
    0.5000000000000000E+01    0.2504942126394358E+01    0.1250000000000000E+01
    0.5000000000000000E+01    0.2504942126394358E+01    0.2500000000000000E+01
    0.5000000000000000E+01    0.2504942126394358E+01    0.3750000000000000E+01
    0.5000000000000000E+01    0.2504942126394358E+01    0.5000000000000000E+01
    0.3750000000000000E+01    0.2504942126394358E+01    0.5000000000000000E+01
    0.2500000000000000E+01    0.2504942126394358E+01    0.5000000000000000E+01
    0.1250000000000000E+01    0.2504942126394358E+01    0.5000000000000000E+01
    0.0000000000000000E+00    0.2504942126394358E+01    0.5000000000000000E+01
    0.0000000000000000E+00    0.2504942126394358E+01    0.3750000000000000E+01
    0.0000000000000000E+00    0.2504942126394358E+01    0.2500000000000000E+01
    0.0000000000000000E+00    0.2504942126394358E+01    0.1250000000000000E+01
    0.9588960369906027E+00    0.2504942126394358E+01    0.9696533635134074E+00
    0.3981953152437098E+01    0.2504942126394358E+01    0.4070563994318884E+01
    0.4036122760748993E+01    0.2504942126394358E+01    0.1017568211262069E+01
    0.9637572721097026E+00    0.2504942126394358E+01    0.3973598325910149E+01
    0.1546540225214412E+01    0.2504942126394358E+01    0.2931570546623369E+01
    0.6973799590125652E+00    0.2504942126394358E+01    0.3070320151822421E+01
    0.8903742902410691E+00    0.2504942126394358E+01    0.2056562651402181E+01
    0.2183042038777302E+01    0.2504942126394358E+01    0.3960694659644651E+01
    0.3855845055169345E+01    0.2504942126394358E+01    0.2933250909205840E+01
    0.3152611483938655E+01    0.2504942126394358E+01    0.3637668660441704E+01
    0.3103307439056897E+01    0.2504942126394358E+01    0.4332607953811380E+01
    0.3266711423523970E+01    0.2504942126394358E+01    0.1889657173325437E+01
    0.4232537818759956E+01    0.2504942126394358E+01    0.1918627332171121E+01
    0.1905523024841220E+01    0.2504942126394358E+01    0.7226299060569138E+00
    0.2879768362525143E+01    0.2504942126394358E+01    0.9080952801356742E+00
    0.2012711742451919E+01    0.2504942126394358E+01    0.1767083037689035E+01
    0.2669681670297483E+01    0.2504942126394358E+01    0.2853394772384842E+01
    0.5000000000000000E+01    0.1250000000000000E+01    0.5000000000000000E+01
    0.5000000000000000E+01    0.0000000000000000E+00    0.5000000000000000E+01
    0.5000000000000000E+01   -0.1250000000000000E+01    0.5000000000000000E+01
    0.5000000000000000E+01   -0.2496588894990435E+01    0.5000000000000000E+01
    0.5000000000000000E+01   -0.2496588894990435E+01    0.3750000000000000E+01
    0.5000000000000000E+01   -0.2496588894990435E+01    0.2500000000000000E+01
    0.5000000000000000E+01   -0.2496588894990435E+01    0.1250000000000000E+01
    0.5000000000000000E+01    0.1578994732800803E+01    0.9058375365086910E+00
    0.5000000000000000E+01   -0.1583989954232354E+01    0.3982050490726493E+01
    0.5000000000000000E+01    0.1453322699199022E+01    0.4033849428301197E+01
    0.5000000000000000E+01   -0.1479596339503735E+01    0.1040505887381675E+01
    0.5000000000000000E+01   -0.3227322616384110E+00    0.1099454400140349E+01
    0.5000000000000000E+01    0.6593508822075582E+00    0.7354504170366591E+00
    0.5000000000000000E+01    0.8256214013940779E+00    0.1622302608453282E+01
    0.5000000000000000E+01   -0.1650070333782557E+01    0.2145871574390382E+01
    0.5000000000000000E+01   -0.4612828702537229E+00    0.4086422318222992E+01
    0.5000000000000000E+01   -0.8579242121530853E+00    0.2979540174134984E+01
    0.5000000000000000E+01   -0.1836846154397680E+01    0.3045064261640043E+01
    0.5000000000000000E+01    0.3508002863614053E+00    0.3428197553792836E+01
    0.5000000000000000E+01    0.5185680230613409E+00    0.4309693860063405E+01
    0.5000000000000000E+01    0.1738996113203182E+01    0.1827272193562204E+01
    0.5000000000000000E+01    0.1325493893339706E+01    0.2808563282768077E+01
    0.5000000000000000E+01   -0.8731419609589618E+00    0.1895995683864404E+01
    0.5000000000000000E+01    0.4906150219227333E-01    0.2273179336307740E+01
    0.0000000000000000E+00    0.1250000000000000E+01    0.5000000000000000E+01
    0.0000000000000000E+00    0.0000000000000000E+00    0.5000000000000000E+01
    0.0000000000000000E+00   -0.1250000000000000E+01    0.5000000000000000E+01
    0.0000000000000000E+00   -0.2496588894990435E+01    0.5000000000000000E+01
    0.1250000000000000E+01   -0.2496588894990435E+01    0.5000000000000000E+01
    0.2500000000000000E+01   -0.2496588894990435E+01    0.5000000000000000E+01
    0.3750000000000000E+01   -0.2496588894990435E+01    0.5000000000000000E+01
    0.4042003247744892E+01    0.1558308132739014E+01    0.5000000000000000E+01
    0.9304122287900499E+00   -0.1548001304379777E+01    0.5000000000000000E+01
    0.1037243024609388E+01    0.1462892710085612E+01    0.5000000000000000E+01
    0.3946240828834967E+01   -0.1445243809615570E+01    0.5000000000000000E+01
    0.4092527262848217E+01   -0.3455338993778935E+00    0.5000000000000000E+01
    0.4293103109154542E+01    0.6277660831404320E+00    0.5000000000000000E+01
    0.3241512314643519E+01    0.7429886854239611E+00    0.5000000000000000E+01
    0.2844289952419609E+01   -0.1588117879734118E+01    0.5000000000000000E+01
    0.7159905765450471E+00   -0.6002320124191652E+00    0.5000000000000000E+01
    0.1754341919796891E+01   -0.7398147869923652E+00    0.5000000000000000E+01
    0.1870296826774691E+01   -0.1788622905643739E+01    0.5000000000000000E+01
    0.9220614901912976E+00    0.3083720183248586E+00    0.5000000000000000E+01
    0.3101523624086016E+01    0.1777901774806180E+01    0.5000000000000000E+01
    0.2192512063922564E+01    0.1576861561598471E+01    0.5000000000000000E+01
    0.2024793420196460E+01    0.4773861992750707E+00    0.5000000000000000E+01
    0.2990627757741975E+01   -0.4878110785814084E+00    0.5000000000000000E+01
    0.0000000000000000E+00   -0.2496588894990435E+01    0.1250000000000000E+01
    0.0000000000000000E+00   -0.2496588894990435E+01    0.2500000000000000E+01
    0.0000000000000000E+00   -0.2496588894990435E+01    0.3750000000000000E+01
    0.0000000000000000E+00    0.1558308132739014E+01    0.4042003247744892E+01
    0.0000000000000000E+00   -0.1548001304379777E+01    0.9304122287900499E+00
    0.0000000000000000E+00    0.1462892710085612E+01    0.1037243024609388E+01
    0.0000000000000000E+00   -0.1445243809615570E+01    0.3946240828834967E+01
    0.0000000000000000E+00   -0.3455338993778935E+00    0.4092527262848217E+01
    0.0000000000000000E+00    0.6277660831404320E+00    0.4293103109154542E+01
    0.0000000000000000E+00    0.7429886854239611E+00    0.3241512314643519E+01
    0.0000000000000000E+00   -0.1588117879734118E+01    0.2844289952419609E+01
    0.0000000000000000E+00   -0.6002320124191652E+00    0.7159905765450471E+00
    0.0000000000000000E+00   -0.7398147869923652E+00    0.1754341919796891E+01
    0.0000000000000000E+00   -0.1788622905643739E+01    0.1870296826774691E+01
    0.0000000000000000E+00    0.3083720183248586E+00    0.9220614901912976E+00
    0.0000000000000000E+00    0.1777901774806180E+01    0.3101523624086016E+01
    0.0000000000000000E+00    0.1576861561598471E+01    0.2192512063922564E+01
[...]
POINT_DATA 213
SCALARS rho double 1
LOOKUP_TABLE default
   0.1000013394379208E+01
   0.1000006941619108E+01
   0.9999876922192179E+00
   0.9999949321803829E+00
   0.1000003746917254E+01
   0.1000005635404459E+01
   0.9999935983449945E+00
   0.9999980904444394E+00
   0.9999990193006133E+00
   0.9999958278498224E+00
   0.9999943742987675E+00
   0.9999993885116009E+00
   0.1000020969757571E+01
   0.1000027295888664E+01
   0.1000020591940839E+01
   0.1000014895669003E+01
   0.1000016763515067E+01
   0.9999901503075385E+00
   0.9999910377445376E+00
   0.1000010249177901E+01
   0.1000010723310564E+01
   0.1000011943572293E+01
   0.1000006598421922E+01
   0.9999952873344440E+00
   0.9999822362800781E+00
   0.9999917479592239E+00
   0.9999938974389664E+00
   0.9999886141144229E+00
   0.9999818757203340E+00
   0.9999993434354587E+00
   0.9999907629137665E+00
   0.1000001587760522E+01
   0.1000001418153234E+01
   0.1000001773532216E+01
   0.1000001233570042E+01
   0.1000000849501906E+01
   0.1000000683849229E+01
   0.1000001186461373E+01
   0.1000001663216191E+01
   0.1000001781554805E+01
   0.1000001431642496E+01
   0.1000002374998996E+01
   0.1000004125122344E+01
   0.1000007789817211E+01
   0.1000005989294287E+01
   0.1000000961307794E+01
   0.9999988659589159E+00
   0.1000002125235192E+01
   0.1000002435476634E+01
   0.1000002896240756E+01
   0.1000003533297090E+01
   0.1000001712543372E+01
   0.1000000715578717E+01
   0.1000001156278657E+01
   0.1000001329571274E+01
   0.9999997385425298E+00
   0.1000000120960674E+01
   0.1000000157509614E+01
   0.9999979961583800E+00
   0.1000001506787860E+01
   0.1000001179056318E+01
   0.1000000667188672E+01
   0.1000000663359718E+01
   0.1000000660397051E+01
   0.1000000735155769E+01
   0.1000000960402865E+01
   0.1000001530570028E+01
   0.1000002262335243E+01
   0.1000001923318678E+01
   0.1000000725482427E+01
   0.1000000688904387E+01
   0.1000002655967705E+01
   0.1000005632454055E+01
   0.1000004767442636E+01
   0.1000000866331766E+01
   0.1000001953549523E+01
   0.1000000655916917E+01
   0.1000001414046596E+01
   0.1000001276735025E+01
   0.1000000944905046E+01
   0.1000000637934982E+01
   0.1000001440137950E+01
   0.1000000997039324E+01
   0.1000002322621070E+01
   0.1000001387100667E+01
   0.1000001361339213E+01
   0.1000001331775730E+01
   0.1000001398026606E+01
   0.1000001474789446E+01
   0.1000001847147827E+01
   0.1000001705609479E+01
   0.1000001252187057E+01
   0.1000001082099800E+01
   0.1000001634530961E+01
   0.1000001636231535E+01
   0.1000001123542438E+01
   0.1000001124489797E+01
   0.1000001014258126E+01
   0.1000001432413351E+01
   0.1000001608265762E+01
   0.1000001506560008E+01
   0.1000001875037343E+01
   0.1000001860896039E+01
   0.1000001554458678E+01
   0.1000001439274212E+01
   0.1000001729126538E+01
   0.1000001769209719E+01
   0.1000001546814463E+01
   0.1000009258725742E+01
   0.1000004426051904E+01
   0.1000002511561290E+01
   0.1000002103271756E+01
   0.1000011252773208E+01
   0.1000009099983040E+01
   0.1000002286874688E+01
   0.1000002163628503E+01
   0.1000001942380620E+01
   0.1000003119383524E+01
   0.1000003790008182E+01
   0.1000012790166529E+01
   0.1000006777350331E+01
   0.1000006446843912E+01
   0.1000010072667824E+01
   0.1000003206098875E+01
   0.1000004882861946E+01
   0.1000005651476904E+01
   0.1000003590488670E+01
   0.1000005468548140E+01
   0.1000001047936374E+01
   0.9999986512641741E+00
   0.1000002268259101E+01
   0.1000002423386963E+01
   0.1000003168759858E+01
   0.1000004080943554E+01
   0.1000001763073955E+01
   0.1000000809647531E+01
   0.1000001216525055E+01
   0.1000001395393875E+01
   0.9999995455234002E+00
   0.1000000492491466E+01
   0.1000000021582829E+01
   0.9999982284132192E+00
   0.1000001628238949E+01
   0.1000001331576571E+01
   0.1000001307409994E+01
   0.1000002036434073E+01
   0.1000002295459250E+01
   0.1000002825481730E+01
   0.1000003788766419E+01
   0.1000006333376754E+01
   0.1000003077530144E+01
   0.1000002610198814E+01
   0.1000002153816343E+01
   0.1000002888346887E+01
   0.1000002897225999E+01
   0.1000005881264441E+01
   0.1000001879125453E+01
   0.1000001359116842E+01
   0.1000000168712529E+01
   0.1000000600145609E+01
   0.1000001103354142E+01
   0.1000000586023438E+01
   0.1000001543334702E+01
   0.1000001719036171E+01
   0.1000001227108373E+01
   0.1000000793989680E+01
   0.1000001466884914E+01
   0.1000002039138316E+01
   0.1000004196318364E+01
   0.1000003195555914E+01
   0.1000001500480030E+01
   0.1000002008042518E+01
   0.1000003004511439E+01
   0.9999987284735696E+00
   0.1000003447903757E+01
   0.1000000215317887E+01
   0.1000000920813632E+01
   0.9999996510545031E+00
   0.1000000218073459E+01
   0.1000007146580146E+01
   0.1000005151170610E+01
   0.1000007009940766E+01
   0.1000000968499765E+01
   0.1000001464472164E+01
   0.1000000721022390E+01
   0.1000000422248937E+01
   0.9999999977325138E+00
   0.1000000824982217E+01
   0.1000001079538783E+01
   0.1000000956226225E+01
   0.1000001363030588E+01
   0.9999994241458628E+00
   0.9999992475035764E+00
   0.9999993359372567E+00
   0.9999999716862223E+00
   0.9999980401962835E+00
   0.9999985751974269E+00
   0.1000000633271478E+01
   0.9999997637782274E+00
   0.9999936939099832E+00
   0.1000002060311981E+01
   0.1000001743674148E+01
   0.1000001110692905E+01
   0.1000000888734246E+01
   0.9999957290679953E+00
   0.9999938733864380E+00
   0.9999969750200842E+00
   0.1000001564574483E+01
   0.1000001219406268E+01
   0.1000000930594190E+01
   0.1000000838756568E+01
   0.1000001756160593E+01
   0.9999946499120527E+00
SCALARS u double 1
LOOKUP_TABLE default
   0.4999825288584822E+00
   0.5000062048905315E+00
   0.5000311876916084E+00
   0.5000258798633044E+00
   0.5000072139090763E+00
   0.5000049634268768E+00
   0.5000128745802030E+00
   0.5000124187737661E+00
   0.5000136740586405E+00
   0.5000303021739074E+00
   0.5000272449384741E+00
   0.5000154320930396E+00
   0.4999841120102971E+00
   0.4999807642582382E+00
   0.4999820999934446E+00
   0.4999827442731710E+00
   0.4999933408142954E+00
   0.5000361756051146E+00
   0.5000294705314464E+00
   0.5000088486603516E+00
   0.5000019929064022E+00
   0.4999923320528613E+00
   0.5000114849202695E+00
   0.5000278042870052E+00
   0.5000416246931572E+00
   0.5000392087015925E+00
   0.5000333612165965E+00
   0.5000435778503346E+00
   0.5000362738275677E+00
   0.5000212482786159E+00
   0.5000319771483154E+00
   0.5000217664456607E+00
   0.5000269606670475E+00
   0.5000039057144884E+00
   0.5000016676886344E+00
   0.5000006257171069E+00
   0.5000001293014602E+00
   0.4999988050422332E+00
   0.4999979264413911E+00
   0.4999975729090285E+00
   0.4999983478289810E+00
   0.4999975391312401E+00
   0.4999957140027603E+00
   0.4999919002797974E+00
   0.4999965846198426E+00
   0.4999999340234121E+00
   0.5000125446121775E+00
   0.4999978491025515E+00
   0.4999987499778027E+00
   0.4999973896604273E+00
   0.4999974736216215E+00
   0.4999987272362156E+00
   0.5000018445629798E+00
   0.5000000246004846E+00
   0.4999990616877174E+00
   0.5000067748079643E+00
   0.5000053667021125E+00
   0.5000111376630826E+00
   0.5000165754427174E+00
   0.5000031295926345E+00
   0.5000011830697857E+00
   0.5000001476111042E+00
   0.5000001374554393E+00
   0.5000000065091630E+00
   0.5000001433538126E+00
   0.5000005227533993E+00
   0.5000016283213248E+00
   0.5000047265626669E+00
   0.5000056194475468E+00
   0.5000005533182752E+00
   0.5000005592244408E+00
   0.5000061895077086E+00
   0.5000032590431343E+00
   0.5000041819618516E+00
   0.5000046120609890E+00
   0.5000022160477158E+00
   0.5000004839656630E+00
   0.5000010381677107E+00
   0.5000009579499793E+00
   0.5000007428156478E+00
   0.5000004531638049E+00
   0.5000027830135892E+00
   0.5000014307918962E+00
   0.5000032414713139E+00
   0.5000024891356861E+00
   0.4999985758554406E+00
   0.4999986030174918E+00
   0.4999984677315269E+00
   0.4999983049115027E+00
   0.4999975343657415E+00
   0.4999978386698612E+00
   0.4999987864053315E+00
   0.4999990060106668E+00
   0.4999978285603534E+00
   0.4999977771557166E+00
   0.4999989716529578E+00
   0.4999990042305831E+00
   0.4999992099801562E+00
   0.4999983479980142E+00
   0.4999980881754957E+00
   0.4999980845854580E+00
   0.4999976136893802E+00
   0.4999975734096345E+00
   0.4999979666631083E+00
   0.4999983055116375E+00
   0.4999977866849706E+00
   0.4999977228313548E+00
   0.4999981933070274E+00
   0.4999906483959088E+00
   0.4999953887467757E+00
   0.4999973537123391E+00
   0.4999976995044278E+00
   0.4999865633749885E+00
   0.4999898150942730E+00
   0.4999975199999418E+00
   0.4999977523782085E+00
   0.4999979988204559E+00
   0.4999968040488117E+00
   0.4999957280679750E+00
   0.4999861050985301E+00
   0.4999923508644973E+00
   0.4999936537561979E+00
   0.4999879115750362E+00
   0.4999967422548733E+00
   0.4999947838257688E+00
   0.4999940404854735E+00
   0.4999961714821767E+00
   0.4999998747588589E+00
   0.5000000162246580E+00
   0.5000156512591593E+00
   0.4999977345676680E+00
   0.4999986827774852E+00
   0.4999971387292658E+00
   0.4999974162107556E+00
   0.4999987132348232E+00
   0.5000018152942435E+00
   0.5000001670884402E+00
   0.4999990888567330E+00
   0.5000072988527943E+00
   0.5000058310832256E+00
   0.5000146072523499E+00
   0.5000173427223336E+00
   0.5000038373366948E+00
   0.5000013572200525E+00
   0.5000010890587114E+00
   0.4999985419280467E+00
   0.4999987915838127E+00
   0.4999998924363659E+00
   0.4999963905149800E+00
   0.4999950174306374E+00
   0.5000006400742296E+00
   0.4999973651629799E+00
   0.4999982665200159E+00
   0.4999972230864893E+00
   0.4999994029984448E+00
   0.4999988351683138E+00
   0.4999980479613681E+00
   0.5000004044535655E+00
   0.5000056857030056E+00
   0.5000025902051340E+00
   0.5000004247039593E+00
   0.5000033011287029E+00
   0.4999988021719607E+00
   0.4999984716996122E+00
   0.4999992373585775E+00
   0.5000020029471571E+00
   0.5000003796192698E+00
   0.4999979581434107E+00
   0.4999960971058807E+00
   0.4999990137656776E+00
   0.5000045409670316E+00
   0.4999978239670615E+00
   0.4999972015437457E+00
   0.5000142808758039E+00
   0.5000085294710823E+00
   0.5000066066816751E+00
   0.5000033413348296E+00
   0.5000116198855648E+00
   0.5000051117838954E+00
   0.4999979943668611E+00
   0.4999954544998674E+00
   0.4999971505437311E+00
   0.4999997538355876E+00
   0.4999989712540656E+00
   0.5000036977844609E+00
   0.5000031445849341E+00
   0.5000089813444070E+00
   0.5000030129887375E+00
   0.5000005620220507E+00
   0.5000004041727791E+00
   0.5000012801595435E+00
   0.5000086834861918E+00
   0.5000130579792331E+00
   0.5000104189280892E+00
   0.5000060025611042E+00
   0.5000186239697120E+00
   0.5000134970844547E+00
   0.5000092908944571E+00
   0.5000132072630139E+00
   0.5000275540192750E+00
   0.4999983392032559E+00
   0.4999983067412748E+00
   0.4999994983767558E+00
   0.5000007290707067E+00
   0.5000230581935829E+00
   0.5000252981485687E+00
   0.5000225373109084E+00
   0.4999989109411779E+00
   0.4999998096001134E+00
   0.5000005482162408E+00
   0.5000040219285797E+00
   0.5000086932236870E+00
   0.5000253957123548E+00
SCALARS v double 1
LOOKUP_TABLE default
   0.0000000000000000E+00
   0.0000000000000000E+00
   0.0000000000000000E+00
   0.0000000000000000E+00
   0.0000000000000000E+00
  -0.8743410133603778E-05
  -0.1485917278670360E-05
   0.8064124676771355E-05
   0.0000000000000000E+00
   0.0000000000000000E+00
   0.0000000000000000E+00
   0.0000000000000000E+00
   0.0000000000000000E+00
   0.3533550936159600E-06
   0.3639554233997469E-05
   0.1415070299647364E-05
   0.1319597012567304E-05
   0.6902013227942891E-05
  -0.3471285901688543E-05
  -0.5870535376238073E-05
   0.1748312239973578E-05
   0.1655116865479523E-05
   0.3666212115416213E-05
  -0.6154061779976815E-05
   0.4439975873454994E-05
  -0.3410210363975690E-05
  -0.2021881867775028E-05
   0.2201726929652352E-05
  -0.5835796116510121E-05
   0.5624860280965624E-05
   0.6073156844995534E-05
  -0.5471216799387572E-05
   0.1501847691292354E-05
   0.0000000000000000E+00
   0.0000000000000000E+00
   0.0000000000000000E+00
   0.0000000000000000E+00
   0.0000000000000000E+00
   0.0000000000000000E+00
   0.0000000000000000E+00
   0.0000000000000000E+00
   0.0000000000000000E+00
   0.0000000000000000E+00
   0.0000000000000000E+00
   0.0000000000000000E+00
   0.0000000000000000E+00
   0.0000000000000000E+00
   0.0000000000000000E+00
   0.0000000000000000E+00
   0.0000000000000000E+00
   0.0000000000000000E+00
   0.0000000000000000E+00
   0.0000000000000000E+00
   0.0000000000000000E+00
   0.0000000000000000E+00
   0.0000000000000000E+00
   0.0000000000000000E+00
   0.0000000000000000E+00
   0.0000000000000000E+00
   0.0000000000000000E+00
   0.0000000000000000E+00
   0.9145105436285036E-07
   0.3444920348041285E-07
   0.1942690290764871E-07
   0.0000000000000000E+00
   0.0000000000000000E+00
   0.0000000000000000E+00
   0.0000000000000000E+00
  -0.1943616349584462E-05
   0.5574393860218152E-07
   0.2232835475549247E-06
   0.2211006294865162E-05
   0.1208813557622047E-05
  -0.2946912425002205E-05
   0.4841665986835104E-06
   0.9704360990241071E-07
   0.1821540203491853E-06
   0.1962774972578144E-06
  -0.7537083779413083E-07
   0.5270051764144516E-06
   0.2215921862803013E-06
  -0.2563977343141333E-07
   0.4837193342307365E-06
   0.4160942264687141E-06
   0.8912599554759431E-06
  -0.7767653004438601E-07
  -0.1423941875154502E-07
   0.6466971228138062E-07
   0.0000000000000000E+00
   0.0000000000000000E+00
   0.0000000000000000E+00
   0.0000000000000000E+00
   0.8252479617609015E-07
   0.1619600968853457E-06
  -0.8380916111625042E-07
  -0.1355701987571431E-07
  -0.1295509747589050E-07
   0.6099920977359172E-07
   0.2950576936609034E-07
   0.8169641650266700E-07
   0.8671418398022756E-07
   0.1360423829813561E-06
   0.1076037000670122E-06
   0.3888500172146517E-07
  -0.1474037725029663E-07
  -0.7693149539533545E-07
   0.3401886259896273E-07
   0.6563301351835344E-07
   0.0000000000000000E+00
   0.0000000000000000E+00
   0.0000000000000000E+00
   0.7395356581017590E-07
   0.8559198028241738E-07
   0.4364063397806940E-06
  -0.2649670424188785E-07
  -0.1162926880210941E-07
  -0.6629744187628113E-08
  -0.1680979635795353E-07
  -0.1021745366046534E-06
   0.2645147881653683E-05
   0.4382574578984029E-06
   0.3127216087449534E-07
   0.1713316535639124E-05
   0.6959894408163330E-07
   0.6730867005265464E-07
  -0.1578059977981047E-06
  -0.2178355159406662E-06
   0.0000000000000000E+00
   0.0000000000000000E+00
   0.0000000000000000E+00
   0.0000000000000000E+00
   0.0000000000000000E+00
   0.0000000000000000E+00
   0.0000000000000000E+00
   0.0000000000000000E+00
   0.0000000000000000E+00
   0.0000000000000000E+00
   0.0000000000000000E+00
   0.0000000000000000E+00
   0.0000000000000000E+00
   0.0000000000000000E+00
   0.0000000000000000E+00
   0.0000000000000000E+00
   0.0000000000000000E+00
   0.5525963366645861E-06
  -0.3481669429943494E-07
   0.2392635293798809E-06
   0.4952225635733113E-06
   0.1131808034027589E-06
   0.6621525169089700E-06
   0.1292953246965940E-05
  -0.1597106647834744E-07
   0.2192358760092515E-07
   0.5239093555718233E-07
   0.7225548239697533E-06
   0.1665859067524570E-05
   0.3424689838957841E-07
   0.3251400042266144E-06
   0.7746859065002098E-06
   0.5682867889380030E-06
   0.4057868229912470E-06
   0.7316199784470088E-06
   0.8940037950615533E-07
   0.1356131671062480E-07
   0.1250834704680387E-06
   0.4345514611680913E-06
   0.1195060143860374E-06
  -0.3433207785793608E-07
   0.1471921764823863E-06
  -0.1100366579166181E-06
  -0.2892286242261556E-06
   0.3916324372278638E-07
  -0.6891913730105285E-07
   0.3508271328847749E-05
   0.2506503181992548E-06
   0.9071927449541436E-06
   0.8248913731766338E-06
   0.3125241893152038E-05
   0.1455187697272031E-05
   0.1046768336024328E-05
  -0.4242488403925190E-07
   0.4623109852538170E-06
   0.1916308246733935E-06
   0.5726871398544474E-07
  -0.1607603555258738E-07
  -0.2328078557376608E-06
   0.3442923707131079E-06
  -0.1315690174150108E-06
  -0.5652511526286597E-07
   0.1169436892217053E-06
  -0.2146505980824327E-06
   0.4019714304094513E-06
  -0.2594999550385962E-05
   0.2011318742544947E-05
  -0.5993025909456764E-07
  -0.2491764736048806E-05
  -0.1325489862610601E-05
   0.3935459134047239E-06
   0.2388420907969773E-05
   0.1088258620052967E-05
   0.3325198178698972E-07
  -0.9026668320130761E-08
   0.7003462888940151E-07
   0.4234661079346045E-06
   0.1034016810892810E-05
  -0.1650064902841333E-06
   0.1890067334226752E-05
  -0.5153573714851140E-07
  -0.8325381355188827E-07
   0.2937745102230044E-06
  -0.5246193984607944E-06
  -0.1814466330694928E-05
   0.1869391076000385E-06
SCALARS w double 1
LOOKUP_TABLE default
   0.4411284171366640E-05
   0.1967231887990956E-04
   0.5900194901968554E-05
  -0.3361191988994486E-05
  -0.1054625565256786E-04
  -0.1631978982069491E-04
  -0.3167502577795178E-04
  -0.2163465602015766E-04
  -0.1439423457937759E-04
  -0.1412460191076873E-05
   0.6338675463284146E-05
   0.1220438860783731E-04
   0.1028338101207874E-04
   0.1450919259980696E-04
   0.4957308075985502E-05
   0.5000841893080238E-05
   0.2112908485816191E-04
  -0.7739414663239009E-05
  -0.6845470519951960E-05
   0.2359016961837684E-04
   0.2356137268949767E-04
   0.1480713164164287E-04
   0.2777871279427392E-04
   0.1349689003016264E-04
  -0.1284114181339635E-04
   0.1740598888068814E-04
   0.7328422991126515E-05
   0.1310313117575138E-04
  -0.2054042579139321E-04
   0.2122151486637904E-04
   0.1224820955253034E-04
   0.2764969132324605E-04
   0.3323675193465265E-04
  -0.3910823715712647E-05
   0.4267654891403162E-06
   0.1547356279977543E-05
   0.1062152339137590E-05
   0.1239246461873211E-05
   0.1670442487450536E-05
   0.1719326558700244E-05
   0.9002705067050293E-06
   0.5583068275531021E-07
   0.1497805113317063E-06
   0.9209456829389470E-06
   0.7678353229776256E-05
   0.1500341308981104E-05
  -0.4956170498100450E-05
   0.1660434013736334E-05
   0.3121578687499767E-05
   0.1658708808233155E-05
   0.3756939613682324E-05
   0.2332504001088467E-05
   0.1228589384900732E-05
   0.1977033802205869E-05
   0.1814573024773664E-05
   0.1657887784090750E-05
  -0.7232181267740442E-06
   0.1071061508729586E-04
   0.1383228593751797E-05
   0.4957167037248422E-05
   0.2725309886717693E-05
   0.9738150789216741E-06
   0.9355068182663226E-06
   0.9863525985589405E-06
   0.1125010967650657E-05
   0.1927526950167668E-05
   0.1326630174261664E-05
  -0.3881365336885111E-05
  -0.6817194606363533E-05
   0.1828976377463098E-05
   0.1601790888831408E-05
  -0.7651968506530437E-05
  -0.1110365438207071E-04
  -0.1556090749364090E-04
  -0.2386947446703784E-05
   0.7294741340650999E-06
   0.1808889233520049E-05
   0.2330071904311957E-05
   0.2019767145989997E-05
   0.2074823737104259E-05
   0.1604627980382214E-05
  -0.1337130323559240E-05
   0.1171893419226846E-05
   0.1349564137630286E-06
   0.1308676024790410E-05
   0.9478391442142299E-06
   0.8220517284618247E-06
   0.7818627084242148E-06
   0.8337490462690696E-06
   0.1772198842038455E-05
   0.1701147960328079E-05
   0.1328148587525552E-05
   0.1142283188261647E-05
   0.1698416432445741E-05
   0.1639033978049645E-05
   0.1316106816938778E-05
   0.1116007847107459E-05
   0.1023176448310064E-05
   0.1430129755620998E-05
   0.1641413535962078E-05
   0.1628281144647732E-05
   0.1811190722960367E-05
   0.1801082002058480E-05
   0.1720889801990841E-05
   0.1474269850224023E-05
   0.1774099123624382E-05
   0.1814213633697788E-05
   0.1547753085282648E-05
   0.2978059286086017E-05
   0.1896265970522031E-06
   0.2695578674297703E-07
   0.3403809749493421E-06
   0.5266714751336456E-05
   0.1466602347873510E-05
   0.3381739354499820E-06
   0.2999125629459072E-06
   0.3503472140448666E-06
   0.6581175520371218E-07
  -0.3924632326692334E-07
   0.4237295296085009E-05
  -0.3047224703529688E-06
   0.7448660550879955E-06
   0.2003107174611083E-06