TITLE="fun3d_case_title"
VARIABLES="Iteration" "R_1" "R_2" "R_3" "R_4" "R_5" "C_L" "C_D" "C_M_x" "C_M_y" "C_M_z" "Wall Time" "C_x" "C_y" "C_z" "C_Lp" "C_Dp" "C_Lv" "C_Dv" "C_M_xp" "C_M_yp" "C_M_zp" "C_M_xv" "C_M_yv" "C_M_zv" "C_xp" "C_yp" "C_zp" "C_xv" "C_yv" "C_zv"
ZONE  I=100 F=POINT
1  0.5785722291E-16  0.1217943970E-15  0.7166585418E-16  0.9621211489E-16  0.1445677730E-15 -0.5482357718E-14  0.0000000000E+00  0.1898724353E-14  0.1483000770E-13  0.0000000000E+00  0.3980000000E+00  0.0000000000E+00  0.0000000000E+00 -0.5482357718E-14 -0.5482357718E-14  0.0000000000E+00  0.0000000000E+00  0.0000000000E+00  0.1898724353E-14  0.1483000770E-13  0.0000000000E+00  0.0000000000E+00  0.0000000000E+00  0.0000000000E+00  0.0000000000E+00  0.0000000000E+00 -0.5482357718E-14  0.0000000000E+00  0.0000000000E+00  0.0000000000E+00
2  0.9883247135E-16  0.1845014865E-15  0.6775227727E-16  0.8473903208E-16  0.3186776323E-15 -0.1356044953E-13  0.0000000000E+00 -0.7840222054E-14  0.2879023114E-13  0.0000000000E+00  0.4441000000E+00  0.0000000000E+00  0.0000000000E+00 -0.1356044953E-13 -0.1356044953E-13  0.0000000000E+00  0.0000000000E+00  0.0000000000E+00 -0.7840222054E-14  0.2879023114E-13  0.0000000000E+00  0.0000000000E+00  0.0000000000E+00  0.0000000000E+00  0.0000000000E+00  0.0000000000E+00 -0.1356044953E-13  0.0000000000E+00  0.0000000000E+00  0.0000000000E+00
3  0.1355121522E-15  0.2207570343E-15  0.5954887908E-16  0.8229797163E-16  0.4446050049E-15  0.1368067408E-15  0.0000000000E+00  0.9961226502E-14 -0.7227640450E-14  0.0000000000E+00  0.4859000000E+00  0.0000000000E+00  0.0000000000E+00  0.1368067408E-15  0.1368067408E-15  0.0000000000E+00  0.0000000000E+00  0.0000000000E+00  0.9961226502E-14 -0.7227640450E-14  0.0000000000E+00  0.0000000000E+00  0.0000000000E+00  0.0000000000E+00  0.0000000000E+00  0.0000000000E+00  0.1368067408E-15  0.0000000000E+00  0.0000000000E+00  0.0000000000E+00
4  0.1893821564E-15  0.3266863343E-15  0.5891363311E-16  0.1519847250E-15  0.6197712496E-15  0.3030992015E-13  0.0000000000E+00  0.1012968639E-13 -0.8201312907E-13  0.0000000000E+00  0.5271000000E+00  0.0000000000E+00  0.0000000000E+00  0.3030992015E-13  0.3030992015E-13  0.0000000000E+00  0.0000000000E+00  0.0000000000E+00  0.1012968639E-13 -0.8201312907E-13  0.0000000000E+00  0.0000000000E+00  0.0000000000E+00  0.0000000000E+00  0.0000000000E+00  0.0000000000E+00  0.3030992015E-13  0.0000000000E+00  0.0000000000E+00  0.0000000000E+00
5  0.2218610245E-15  0.3337890077E-15  0.7560165398E-16  0.2081035086E-15  0.6614535167E-15 -0.1456586840E-13  0.0000000000E+00 -0.6600214346E-14  0.3899752048E-13  0.0000000000E+00  0.5695000000E+00  0.0000000000E+00  0.0000000000E+00 -0.1456586840E-13 -0.1456586840E-13  0.0000000000E+00  0.0000000000E+00  0.0000000000E+00 -0.6600214346E-14  0.3899752048E-13  0.0000000000E+00  0.0000000000E+00  0.0000000000E+00  0.0000000000E+00  0.0000000000E+00  0.0000000000E+00 -0.1456586840E-13  0.0000000000E+00  0.0000000000E+00  0.0000000000E+00
6  0.2044495785E-15  0.3246193564E-15  0.7243420516E-16  0.2974388363E-15  0.6464427513E-15 -0.2300700744E-13  0.0000000000E+00 -0.4366526677E-14  0.4938808760E-13  0.0000000000E+00  0.6123000000E+00  0.0000000000E+00  0.0000000000E+00 -0.2300700744E-13 -0.2300700744E-13  0.0000000000E+00  0.0000000000E+00  0.0000000000E+00 -0.4366526677E-14  0.4938808760E-13  0.0000000000E+00  0.0000000000E+00  0.0000000000E+00  0.0000000000E+00  0.0000000000E+00  0.0000000000E+00 -0.2300700744E-13  0.0000000000E+00  0.0000000000E+00  0.0000000000E+00
7  0.2753554474E-15  0.3866052209E-15  0.8100467863E-16  0.2654348023E-15  0.8640044778E-15  0.2572684831E-13  0.0000000000E+00 -0.8552114672E-14 -0.5795996521E-13  0.0000000000E+00  0.6554000000E+00  0.0000000000E+00  0.0000000000E+00  0.2572684831E-13  0.2572684831E-13  0.0000000000E+00  0.0000000000E+00  0.0000000000E+00 -0.8552114672E-14 -0.5795996521E-13  0.0000000000E+00  0.0000000000E+00  0.0000000000E+00  0.0000000000E+00  0.0000000000E+00  0.0000000000E+00  0.2572684831E-13  0.0000000000E+00  0.0000000000E+00  0.0000000000E+00
8  0.2552796399E-15  0.4379833768E-15  0.7570061512E-16  0.1461311663E-15  0.7975809758E-15 -0.8936316196E-14  0.0000000000E+00 -0.7827499062E-16  0.3019675861E-13  0.0000000000E+00  0.6964000000E+00  0.0000000000E+00  0.0000000000E+00 -0.8936316196E-14 -0.8936316196E-14  0.0000000000E+00  0.0000000000E+00  0.0000000000E+00 -0.7827499062E-16  0.3019675861E-13  0.0000000000E+00  0.0000000000E+00  0.0000000000E+00  0.0000000000E+00  0.0000000000E+00  0.0000000000E+00 -0.8936316196E-14  0.0000000000E+00  0.0000000000E+00  0.0000000000E+00
9  0.2516199285E-15  0.4014055897E-15  0.7396642502E-16  0.1975768591E-15  0.7649670397E-15 -0.1043326786E-13  0.0000000000E+00 -0.5210817355E-14  0.3143476419E-13  0.0000000000E+00  0.7383000000E+00  0.0000000000E+00  0.0000000000E+00 -0.1043326786E-13 -0.1043326786E-13  0.0000000000E+00  0.0000000000E+00  0.0000000000E+00 -0.5210817355E-14  0.3143476419E-13  0.0000000000E+00  0.0000000000E+00  0.0000000000E+00  0.0000000000E+00  0.0000000000E+00  0.0000000000E+00 -0.1043326786E-13  0.0000000000E+00  0.0000000000E+00  0.0000000000E+00
10  0.2055190502E-15  0.3698728523E-15  0.8397926537E-16  0.2447745684E-15  0.6838828021E-15  0.1329481874E-13  0.0000000000E+00 -0.5975039478E-14 -0.2102768199E-13  0.0000000000E+00  0.7877000000E+00  0.0000000000E+00  0.0000000000E+00  0.1329481874E-13  0.1329481874E-13  0.0000000000E+00  0.0000000000E+00  0.0000000000E+00 -0.5975039478E-14 -0.2102768199E-13  0.0000000000E+00  0.0000000000E+00  0.0000000000E+00  0.0000000000E+00  0.0000000000E+00  0.0000000000E+00  0.1329481874E-13  0.0000000000E+00  0.0000000000E+00  0.0000000000E+00
11  0.2571036919E-15  0.3793335079E-15  0.7389423964E-16  0.2426524983E-15  0.7972533463E-15 -0.1928775986E-13  0.0000000000E+00  0.6812597306E-14  0.6499098157E-13  0.0000000000E+00  0.1031300000E+01  0.0000000000E+00  0.0000000000E+00 -0.1928775986E-13 -0.1928775986E-13  0.0000000000E+00  0.0000000000E+00  0.0000000000E+00  0.6812597306E-14  0.6499098157E-13  0.0000000000E+00  0.0000000000E+00  0.0000000000E+00  0.0000000000E+00  0.0000000000E+00  0.0000000000E+00 -0.1928775986E-13  0.0000000000E+00  0.0000000000E+00  0.0000000000E+00
12  0.2708343162E-15  0.3845440017E-15  0.7952748327E-16  0.3552642769E-15  0.7993477400E-15 -0.6109103403E-15  0.0000000000E+00  0.7531603703E-14  0.1642593894E-13  0.0000000000E+00  0.1075100000E+01  0.0000000000E+00  0.0000000000E+00 -0.6109103403E-15 -0.6109103403E-15  0.0000000000E+00  0.0000000000E+00  0.0000000000E+00  0.7531603703E-14  0.1642593894E-13  0.0000000000E+00  0.0000000000E+00  0.0000000000E+00  0.0000000000E+00  0.0000000000E+00  0.0000000000E+00 -0.6109103403E-15  0.0000000000E+00  0.0000000000E+00  0.0000000000E+00
13  0.2485188723E-15  0.3428687110E-15  0.7709931449E-16  0.2889300545E-15  0.7535195314E-15 -0.2271196315E-13  0.0000000000E+00 -0.1323547290E-14  0.5537520560E-13  0.0000000000E+00  0.1117000000E+01  0.0000000000E+00  0.0000000000E+00 -0.2271196315E-13 -0.2271196315E-13  0.0000000000E+00  0.0000000000E+00  0.0000000000E+00 -0.1323547290E-14  0.5537520560E-13  0.0000000000E+00  0.0000000000E+00  0.0000000000E+00  0.0000000000E+00  0.0000000000E+00  0.0000000000E+00 -0.2271196315E-13  0.0000000000E+00  0.0000000000E+00  0.0000000000E+00
14  0.2227732576E-15  0.3131577819E-15  0.7643919502E-16  0.2331089663E-15  0.6726358777E-15 -0.5431320014E-14  0.0000000000E+00  0.2071022117E-15  0.3097293746E-13  0.0000000000E+00  0.1159200000E+01  0.0000000000E+00  0.0000000000E+00 -0.5431320014E-14 -0.5431320014E-14  0.0000000000E+00  0.0000000000E+00  0.0000000000E+00  0.2071022117E-15  0.3097293746E-13  0.0000000000E+00  0.0000000000E+00  0.0000000000E+00  0.0000000000E+00  0.0000000000E+00  0.0000000000E+00 -0.5431320014E-14  0.0000000000E+00  0.0000000000E+00  0.0000000000E+00
15  0.2275599178E-15  0.4006286070E-15  0.7519140886E-16  0.2442252034E-15  0.7318052251E-15  0.2155089872E-13  0.0000000000E+00  0.1036298083E-13 -0.6160152561E-13  0.0000000000E+00  0.1201100000E+01  0.0000000000E+00  0.0000000000E+00  0.2155089872E-13  0.2155089872E-13  0.0000000000E+00  0.0000000000E+00  0.0000000000E+00  0.1036298083E-13 -0.6160152561E-13  0.0000000000E+00  0.0000000000E+00  0.0000000000E+00  0.0000000000E+00  0.0000000000E+00  0.0000000000E+00  0.2155089872E-13  0.0000000000E+00  0.0000000000E+00  0.0000000000E+00
16  0.2737022385E-15  0.4223341049E-15  0.8253027407E-16  0.2428764165E-15  0.8614221341E-15 -0.7366455115E-14  0.0000000000E+00  0.2536828754E-14  0.1762946053E-13  0.0000000000E+00  0.1243800000E+01  0.0000000000E+00  0.0000000000E+00 -0.7366455115E-14 -0.7366455115E-14  0.0000000000E+00  0.0000000000E+00  0.0000000000E+00  0.2536828754E-14  0.1762946053E-13  0.0000000000E+00  0.0000000000E+00  0.0000000000E+00  0.0000000000E+00  0.0000000000E+00  0.0000000000E+00 -0.7366455115E-14  0.0000000000E+00  0.0000000000E+00  0.0000000000E+00
17  0.2545951479E-15  0.4771478395E-15  0.7573434480E-16  0.1718889538E-15  0.8522416711E-15 -0.1999176878E-13  0.0000000000E+00 -0.5936648699E-14  0.7019922924E-13  0.0000000000E+00  0.1286300000E+01  0.0000000000E+00  0.0000000000E+00 -0.1999176878E-13 -0.1999176878E-13  0.0000000000E+00  0.0000000000E+00  0.0000000000E+00 -0.5936648699E-14  0.7019922924E-13  0.0000000000E+00  0.0000000000E+00  0.0000000000E+00  0.0000000000E+00  0.0000000000E+00  0.0000000000E+00 -0.1999176878E-13  0.0000000000E+00  0.0000000000E+00  0.0000000000E+00
18  0.2845555889E-15  0.5246157602E-15  0.7633536980E-16  0.2284279226E-15  0.9000972208E-15  0.1829037739E-13  0.0000000000E+00 -0.5836025825E-14 -0.5588702250E-13  0.0000000000E+00  0.1328400000E+01  0.0000000000E+00  0.0000000000E+00  0.1829037739E-13  0.1829037739E-13  0.0000000000E+00  0.0000000000E+00  0.0000000000E+00 -0.5836025825E-14 -0.5588702250E-13  0.0000000000E+00  0.0000000000E+00  0.0000000000E+00  0.0000000000E+00  0.0000000000E+00  0.0000000000E+00  0.1829037739E-13  0.0000000000E+00  0.0000000000E+00  0.0000000000E+00
19  0.2894752266E-15  0.5501741246E-15  0.8037542251E-16  0.2092478139E-15  0.9607712921E-15 -0.1883206089E-13  0.0000000000E+00 -0.1573008174E-14  0.6906502504E-13  0.0000000000E+00  0.1370500000E+01  0.0000000000E+00  0.0000000000E+00 -0.1883206089E-13 -0.1883206089E-13  0.0000000000E+00  0.0000000000E+00  0.0000000000E+00 -0.1573008174E-14  0.6906502504E-13  0.0000000000E+00  0.0000000000E+00  0.0000000000E+00  0.0000000000E+00  0.0000000000E+00  0.0000000000E+00 -0.1883206089E-13  0.0000000000E+00  0.0000000000E+00  0.0000000000E+00
20  0.2796427232E-15  0.4997706762E-15  0.7750520370E-16  0.2348182333E-15  0.9013031962E-15  0.1087185538E-13  0.0000000000E+00  0.2743702011E-15 -0.4776689398E-13  0.0000000000E+00  0.1419800000E+01  0.0000000000E+00  0.0000000000E+00  0.1087185538E-13  0.1087185538E-13  0.0000000000E+00  0.0000000000E+00  0.0000000000E+00  0.2743702011E-15 -0.4776689398E-13  0.0000000000E+00  0.0000000000E+00  0.0000000000E+00  0.0000000000E+00  0.0000000000E+00  0.0000000000E+00  0.1087185538E-13  0.0000000000E+00  0.0000000000E+00  0.0000000000E+00
21  0.2752343653E-15  0.4697126239E-15  0.7830822496E-16  0.2650935108E-15  0.9169666874E-15 -0.2143524866E-13  0.0000000000E+00 -0.7116064307E-14  0.7361963031E-13  0.0000000000E+00  0.1665100000E+01  0.0000000000E+00  0.0000000000E+00 -0.2143524866E-13 -0.2143524866E-13  0.0000000000E+00  0.0000000000E+00  0.0000000000E+00 -0.7116064307E-14  0.7361963031E-13  0.0000000000E+00  0.0000000000E+00  0.0000000000E+00  0.0000000000E+00  0.0000000000E+00  0.0000000000E+00 -0.2143524866E-13  0.0000000000E+00  0.0000000000E+00  0.0000000000E+00
22  0.2966457219E-15  0.5385040553E-15  0.8291266812E-16  0.3205844012E-15  0.9521872682E-15 -0.7466024987E-14  0.0000000000E+00  0.6468687573E-14  0.2722322059E-13  0.0000000000E+00  0.1710200000E+01  0.0000000000E+00  0.0000000000E+00 -0.7466024987E-14 -0.7466024987E-14  0.0000000000E+00  0.0000000000E+00  0.0000000000E+00  0.6468687573E-14  0.2722322059E-13  0.0000000000E+00  0.0000000000E+00  0.0000000000E+00  0.0000000000E+00  0.0000000000E+00  0.0000000000E+00 -0.7466024987E-14  0.0000000000E+00  0.0000000000E+00  0.0000000000E+00
23  0.2963953476E-15  0.5638129805E-15  0.7551864061E-16  0.2303048751E-15  0.9656960864E-15  0.5255064029E-14  0.0000000000E+00 -0.1579535892E-13 -0.8545805892E-14  0.0000000000E+00  0.1755200000E+01  0.0000000000E+00  0.0000000000E+00  0.5255064029E-14  0.5255064029E-14  0.0000000000E+00  0.0000000000E+00  0.0000000000E+00 -0.1579535892E-13 -0.8545805892E-14  0.0000000000E+00  0.0000000000E+00  0.0000000000E+00  0.0000000000E+00  0.0000000000E+00  0.0000000000E+00  0.5255064029E-14  0.0000000000E+00  0.0000000000E+00  0.0000000000E+00
24  0.2786268983E-15  0.5605036299E-15  0.6289185472E-16  0.2806565111E-15  0.9340147691E-15 -0.1235726734E-13  0.0000000000E+00 -0.2428143211E-14  0.2037407847E-13  0.0000000000E+00  0.1798400000E+01  0.0000000000E+00  0.0000000000E+00 -0.1235726734E-13 -0.1235726734E-13  0.0000000000E+00  0.0000000000E+00  0.0000000000E+00 -0.2428143211E-14  0.2037407847E-13  0.0000000000E+00  0.0000000000E+00  0.0000000000E+00  0.0000000000E+00  0.0000000000E+00  0.0000000000E+00 -0.1235726734E-13  0.0000000000E+00  0.0000000000E+00  0.0000000000E+00
25  0.3227527751E-15  0.5207250727E-15  0.7698424054E-16  0.3052601116E-15  0.1038362844E-14 -0.1488894290E-13  0.0000000000E+00  0.1594670213E-15  0.6873554923E-13  0.0000000000E+00  0.1841500000E+01  0.0000000000E+00  0.0000000000E+00 -0.1488894290E-13 -0.1488894290E-13  0.0000000000E+00  0.0000000000E+00  0.0000000000E+00  0.1594670213E-15  0.6873554923E-13  0.0000000000E+00  0.0000000000E+00  0.0000000000E+00  0.0000000000E+00  0.0000000000E+00  0.0000000000E+00 -0.1488894290E-13  0.0000000000E+00  0.0000000000E+00  0.0000000000E+00
26  0.2905784026E-15  0.5320591383E-15  0.8159529004E-16  0.3145229367E-15  0.9247752148E-15 -0.1240762205E-13  0.0000000000E+00  0.1643662647E-14  0.3343416085E-13  0.0000000000E+00  0.1885100000E+01  0.0000000000E+00  0.0000000000E+00 -0.1240762205E-13 -0.1240762205E-13  0.0000000000E+00  0.0000000000E+00  0.0000000000E+00  0.1643662647E-14  0.3343416085E-13  0.0000000000E+00  0.0000000000E+00  0.0000000000E+00  0.0000000000E+00  0.0000000000E+00  0.0000000000E+00 -0.1240762205E-13  0.0000000000E+00  0.0000000000E+00  0.0000000000E+00
27  0.2888317877E-15  0.5075072475E-15  0.8024319138E-16  0.3413682382E-15  0.9199161204E-15 -0.1399505332E-13  0.0000000000E+00  0.1080165668E-13  0.5250503301E-13  0.0000000000E+00  0.1927900000E+01  0.0000000000E+00  0.0000000000E+00 -0.1399505332E-13 -0.1399505332E-13  0.0000000000E+00  0.0000000000E+00  0.0000000000E+00  0.1080165668E-13  0.5250503301E-13  0.0000000000E+00  0.0000000000E+00  0.0000000000E+00  0.0000000000E+00  0.0000000000E+00  0.0000000000E+00 -0.1399505332E-13  0.0000000000E+00  0.0000000000E+00  0.0000000000E+00
28  0.2875278685E-15  0.5146890733E-15  0.7587866480E-16  0.2136886116E-15  0.9144068271E-15 -0.6906058711E-15  0.0000000000E+00  0.1586504113E-14  0.1076935465E-14  0.0000000000E+00  0.1971100000E+01  0.0000000000E+00  0.0000000000E+00 -0.6906058711E-15 -0.6906058711E-15  0.0000000000E+00  0.0000000000E+00  0.0000000000E+00  0.1586504113E-14  0.1076935465E-14  0.0000000000E+00  0.0000000000E+00  0.0000000000E+00  0.0000000000E+00  0.0000000000E+00  0.0000000000E+00 -0.6906058711E-15  0.0000000000E+00  0.0000000000E+00  0.0000000000E+00
29  0.2578577424E-15  0.4254869353E-15  0.6986322317E-16  0.1825604354E-15  0.8554050472E-15  0.1728355141E-13  0.0000000000E+00 -0.3478769736E-14 -0.3260936349E-13  0.0000000000E+00  0.2013700000E+01  0.0000000000E+00  0.0000000000E+00  0.1728355141E-13  0.1728355141E-13  0.0000000000E+00  0.0000000000E+00  0.0000000000E+00 -0.3478769736E-14 -0.3260936349E-13  0.0000000000E+00  0.0000000000E+00  0.0000000000E+00  0.0000000000E+00  0.0000000000E+00  0.0000000000E+00  0.1728355141E-13  0.0000000000E+00  0.0000000000E+00  0.0000000000E+00
30  0.2355507689E-15  0.4249438271E-15  0.6915696358E-16  0.2216520134E-15  0.7541735443E-15  0.2404522636E-13  0.0000000000E+00  0.6217781090E-14 -0.5494344101E-13  0.0000000000E+00  0.2062300000E+01  0.0000000000E+00  0.0000000000E+00  0.2404522636E-13  0.2404522636E-13  0.0000000000E+00  0.0000000000E+00  0.0000000000E+00  0.6217781090E-14 -0.5494344101E-13  0.0000000000E+00  0.0000000000E+00  0.0000000000E+00  0.0000000000E+00  0.0000000000E+00  0.0000000000E+00  0.2404522636E-13  0.0000000000E+00  0.0000000000E+00  0.0000000000E+00
31  0.2717005385E-15  0.4398774350E-15  0.7974772817E-16  0.1893922298E-15  0.8799437449E-15 -0.1952487845E-13  0.0000000000E+00 -0.6924019344E-14  0.6589766976E-13  0.0000000000E+00  0.2305100000E+01  0.0000000000E+00  0.0000000000E+00 -0.1952487845E-13 -0.1952487845E-13  0.0000000000E+00  0.0000000000E+00  0.0000000000E+00 -0.6924019344E-14  0.6589766976E-13  0.0000000000E+00  0.0000000000E+00  0.0000000000E+00  0.0000000000E+00  0.0000000000E+00  0.0000000000E+00 -0.1952487845E-13  0.0000000000E+00  0.0000000000E+00  0.0000000000E+00
32  0.2430861336E-15  0.4056956746E-15  0.7101819905E-16  0.1765291535E-15  0.7448482116E-15  0.8924556918E-14  0.0000000000E+00  0.3560500478E-15 -0.1990664433E-13  0.0000000000E+00  0.2349700000E+01  0.0000000000E+00  0.0000000000E+00  0.8924556918E-14  0.8924556918E-14  0.0000000000E+00  0.0000000000E+00  0.0000000000E+00  0.3560500478E-15 -0.1990664433E-13  0.0000000000E+00  0.0000000000E+00  0.0000000000E+00  0.0000000000E+00  0.0000000000E+00  0.0000000000E+00  0.8924556918E-14  0.0000000000E+00  0.0000000000E+00  0.0000000000E+00
33  0.2699312972E-15  0.4332095727E-15  0.8141325315E-16  0.1940168829E-15  0.8632641836E-15  0.7294166011E-14  0.0000000000E+00 -0.1621675337E-13 -0.1300306158E-13  0.0000000000E+00  0.2393600000E+01  0.0000000000E+00  0.0000000000E+00  0.7294166011E-14  0.7294166011E-14  0.0000000000E+00  0.0000000000E+00  0.0000000000E+00 -0.1621675337E-13 -0.1300306158E-13  0.0000000000E+00  0.0000000000E+00  0.0000000000E+00  0.0000000000E+00  0.0000000000E+00  0.0000000000E+00  0.7294166011E-14  0.0000000000E+00  0.0000000000E+00  0.0000000000E+00
34  0.2351971099E-15  0.4186197171E-15  0.7543392920E-16  0.2318039255E-15  0.7276496167E-15 -0.2337890977E-14  0.0000000000E+00 -0.3096675934E-14  0.2682160407E-13  0.0000000000E+00  0.2435600000E+01  0.0000000000E+00  0.0000000000E+00 -0.2337890977E-14 -0.2337890977E-14  0.0000000000E+00  0.0000000000E+00  0.0000000000E+00 -0.3096675934E-14  0.2682160407E-13  0.0000000000E+00  0.0000000000E+00  0.0000000000E+00  0.0000000000E+00  0.0000000000E+00  0.0000000000E+00 -0.2337890977E-14  0.0000000000E+00  0.0000000000E+00  0.0000000000E+00
35  0.2231934423E-15  0.3775341095E-15  0.8121570235E-16  0.2903359895E-15  0.7231414774E-15 -0.1880205115E-13  0.0000000000E+00 -0.6507754978E-14  0.4057683146E-13  0.0000000000E+00  0.2478600000E+01  0.0000000000E+00  0.0000000000E+00 -0.1880205115E-13 -0.1880205115E-13  0.0000000000E+00  0.0000000000E+00  0.0000000000E+00 -0.6507754978E-14  0.4057683146E-13  0.0000000000E+00  0.0000000000E+00  0.0000000000E+00  0.0000000000E+00  0.0000000000E+00  0.0000000000E+00 -0.1880205115E-13  0.0000000000E+00  0.0000000000E+00  0.0000000000E+00
36  0.2595012426E-15  0.3836301763E-15  0.7695462147E-16  0.2102282046E-15  0.7647669692E-15  0.5106511563E-14  0.0000000000E+00 -0.5658039817E-14 -0.1437428744E-13  0.0000000000E+00  0.2521200000E+01  0.0000000000E+00  0.0000000000E+00  0.5106511563E-14  0.5106511563E-14  0.0000000000E+00  0.0000000000E+00  0.0000000000E+00 -0.5658039817E-14 -0.1437428744E-13  0.0000000000E+00  0.0000000000E+00  0.0000000000E+00  0.0000000000E+00  0.0000000000E+00  0.0000000000E+00  0.5106511563E-14  0.0000000000E+00  0.0000000000E+00  0.0000000000E+00
37  0.2607567133E-15  0.3626569004E-15  0.6849977333E-16  0.2280940583E-15  0.7513215398E-15  0.6233665412E-14  0.0000000000E+00 -0.2095852700E-15 -0.1580635199E-13  0.0000000000E+00  0.2564200000E+01  0.0000000000E+00  0.0000000000E+00  0.6233665412E-14  0.6233665412E-14  0.0000000000E+00  0.0000000000E+00  0.0000000000E+00 -0.2095852700E-15 -0.1580635199E-13  0.0000000000E+00  0.0000000000E+00  0.0000000000E+00  0.0000000000E+00  0.0000000000E+00  0.0000000000E+00  0.6233665412E-14  0.0000000000E+00  0.0000000000E+00  0.0000000000E+00
38  0.2422308326E-15  0.3872375279E-15  0.7630922779E-16  0.3054318321E-15  0.7807969830E-15  0.1046535739E-13  0.0000000000E+00 -0.6535315416E-14 -0.2125521133E-13  0.0000000000E+00  0.2606800000E+01  0.0000000000E+00  0.0000000000E+00  0.1046535739E-13  0.1046535739E-13  0.0000000000E+00  0.0000000000E+00  0.0000000000E+00 -0.6535315416E-14 -0.2125521133E-13  0.0000000000E+00  0.0000000000E+00  0.0000000000E+00  0.0000000000E+00  0.0000000000E+00  0.0000000000E+00  0.1046535739E-13  0.0000000000E+00  0.0000000000E+00  0.0000000000E+00
39  0.2623770453E-15  0.3682640990E-15  0.7608105048E-16  0.2684869789E-15  0.8122816838E-15  0.1902699093E-13  0.0000000000E+00 -0.1803364018E-13 -0.5744898965E-13  0.0000000000E+00  0.2649300000E+01  0.0000000000E+00  0.0000000000E+00  0.1902699093E-13  0.1902699093E-13  0.0000000000E+00  0.0000000000E+00  0.0000000000E+00 -0.1803364018E-13 -0.5744898965E-13  0.0000000000E+00  0.0000000000E+00  0.0000000000E+00  0.0000000000E+00  0.0000000000E+00  0.0000000000E+00  0.1902699093E-13  0.0000000000E+00  0.0000000000E+00  0.0000000000E+00
40  0.2342444315E-15  0.3890382557E-15  0.7099322477E-16  0.1815516019E-15  0.7455709681E-15  0.1752814143E-13  0.0000000000E+00 -0.1061847655E-13 -0.4163131746E-13  0.0000000000E+00  0.2696400000E+01  0.0000000000E+00  0.0000000000E+00  0.1752814143E-13  0.1752814143E-13  0.0000000000E+00  0.0000000000E+00  0.0000000000E+00 -0.1061847655E-13 -0.4163131746E-13  0.0000000000E+00  0.0000000000E+00  0.0000000000E+00  0.0000000000E+00  0.0000000000E+00  0.0000000000E+00  0.1752814143E-13  0.0000000000E+00  0.0000000000E+00  0.0000000000E+00
41  0.2418046142E-15  0.3357367633E-15  0.7745167254E-16  0.1946049631E-15  0.7476839642E-15  0.3679940447E-13  0.0000000000E+00  0.1282571556E-13 -0.9563314265E-13  0.0000000000E+00  0.2928400000E+01  0.0000000000E+00  0.0000000000E+00  0.3679940447E-13  0.3679940447E-13  0.0000000000E+00  0.0000000000E+00  0.0000000000E+00  0.1282571556E-13 -0.9563314265E-13  0.0000000000E+00  0.0000000000E+00  0.0000000000E+00  0.0000000000E+00  0.0000000000E+00  0.0000000000E+00  0.3679940447E-13  0.0000000000E+00  0.0000000000E+00  0.0000000000E+00
42  0.1968365711E-15  0.3065967146E-15  0.7045594580E-16  0.2211057347E-15  0.6042916233E-15 -0.2134863920E-13  0.0000000000E+00  0.2039829702E-14  0.4228597761E-13  0.0000000000E+00  0.2971800000E+01  0.0000000000E+00  0.0000000000E+00 -0.2134863920E-13 -0.2134863920E-13  0.0000000000E+00  0.0000000000E+00  0.0000000000E+00  0.2039829702E-14  0.4228597761E-13  0.0000000000E+00  0.0000000000E+00  0.0000000000E+00  0.0000000000E+00  0.0000000000E+00  0.0000000000E+00 -0.2134863920E-13  0.0000000000E+00  0.0000000000E+00  0.0000000000E+00
43  0.2022395352E-15  0.3123489265E-15  0.7603989205E-16  0.2059685786E-15  0.6089539129E-15 -0.5705404195E-14  0.0000000000E+00 -0.1208605848E-13  0.1304116566E-13  0.0000000000E+00  0.3014500000E+01  0.0000000000E+00  0.0000000000E+00 -0.5705404195E-14 -0.5705404195E-14  0.0000000000E+00  0.0000000000E+00  0.0000000000E+00 -0.1208605848E-13  0.1304116566E-13  0.0000000000E+00  0.0000000000E+00  0.0000000000E+00  0.0000000000E+00  0.0000000000E+00  0.0000000000E+00 -0.5705404195E-14  0.0000000000E+00  0.0000000000E+00  0.0000000000E+00
44  0.2508986101E-15  0.4082139030E-15  0.6764612667E-16  0.3062791353E-15  0.8232577692E-15 -0.1152066996E-13  0.0000000000E+00 -0.2612708974E-14  0.6051745618E-13  0.0000000000E+00  0.3056900000E+01  0.0000000000E+00  0.0000000000E+00 -0.1152066996E-13 -0.1152066996E-13  0.0000000000E+00  0.0000000000E+00  0.0000000000E+00 -0.2612708974E-14  0.6051745618E-13  0.0000000000E+00  0.0000000000E+00  0.0000000000E+00  0.0000000000E+00  0.0000000000E+00  0.0000000000E+00 -0.1152066996E-13  0.0000000000E+00  0.0000000000E+00  0.0000000000E+00
45  0.2373879778E-15  0.3518260313E-15  0.7261496202E-16  0.2899640786E-15  0.7174950641E-15 -0.4959526293E-14  0.0000000000E+00 -0.7146877138E-14  0.1454585733E-13  0.0000000000E+00  0.3099300000E+01  0.0000000000E+00  0.0000000000E+00 -0.4959526293E-14 -0.4959526293E-14  0.0000000000E+00  0.0000000000E+00  0.0000000000E+00 -0.7146877138E-14  0.1454585733E-13  0.0000000000E+00  0.0000000000E+00  0.0000000000E+00  0.0000000000E+00  0.0000000000E+00  0.0000000000E+00 -0.4959526293E-14  0.0000000000E+00  0.0000000000E+00  0.0000000000E+00
46  0.2384411063E-15  0.3629769100E-15  0.7798903389E-16  0.2792503925E-15  0.7469979454E-15 -0.9170097031E-14  0.0000000000E+00  0.2296962823E-13  0.2103021993E-13  0.0000000000E+00  0.3142800000E+01  0.0000000000E+00  0.0000000000E+00 -0.9170097031E-14 -0.9170097031E-14  0.0000000000E+00  0.0000000000E+00  0.0000000000E+00  0.2296962823E-13  0.2103021993E-13  0.0000000000E+00  0.0000000000E+00  0.0000000000E+00  0.0000000000E+00  0.0000000000E+00  0.0000000000E+00 -0.9170097031E-14  0.0000000000E+00  0.0000000000E+00  0.0000000000E+00
47  0.2333666633E-15  0.3734852751E-15  0.7350994718E-16  0.2298256024E-15  0.7217331194E-15  0.2201555162E-13  0.0000000000E+00  0.5272557825E-14 -0.5974335620E-13  0.0000000000E+00  0.3186000000E+01  0.0000000000E+00  0.0000000000E+00  0.2201555162E-13  0.2201555162E-13  0.0000000000E+00  0.0000000000E+00  0.0000000000E+00  0.5272557825E-14 -0.5974335620E-13  0.0000000000E+00  0.0000000000E+00  0.0000000000E+00  0.0000000000E+00  0.0000000000E+00  0.0000000000E+00  0.2201555162E-13  0.0000000000E+00  0.0000000000E+00  0.0000000000E+00
48  0.2130725942E-15  0.3437575790E-15  0.7882334118E-16  0.2317669266E-15  0.6814921442E-15 -0.1587459642E-13  0.0000000000E+00 -0.1759559122E-13  0.3710591175E-13  0.0000000000E+00  0.3230200000E+01  0.0000000000E+00  0.0000000000E+00 -0.1587459642E-13 -0.1587459642E-13  0.0000000000E+00  0.0000000000E+00  0.0000000000E+00 -0.1759559122E-13  0.3710591175E-13  0.0000000000E+00  0.0000000000E+00  0.0000000000E+00  0.0000000000E+00  0.0000000000E+00  0.0000000000E+00 -0.1587459642E-13  0.0000000000E+00  0.0000000000E+00  0.0000000000E+00
49  0.2786483117E-15  0.4029365854E-15  0.7697431155E-16  0.2253907852E-15  0.8406639203E-15  0.2650489803E-13  0.0000000000E+00  0.6164433132E-14 -0.7429241382E-13  0.0000000000E+00  0.3273000000E+01  0.0000000000E+00  0.0000000000E+00  0.2650489803E-13  0.2650489803E-13  0.0000000000E+00  0.0000000000E+00  0.0000000000E+00  0.6164433132E-14 -0.7429241382E-13  0.0000000000E+00  0.0000000000E+00  0.0000000000E+00  0.0000000000E+00  0.0000000000E+00  0.0000000000E+00  0.2650489803E-13  0.0000000000E+00  0.0000000000E+00  0.0000000000E+00
50  0.2383195227E-15  0.3644552385E-15  0.8068327543E-16  0.2237664220E-15  0.7707437943E-15 -0.4199996176E-14  0.0000000000E+00  0.1589821093E-14  0.1980688548E-13  0.0000000000E+00  0.3321800000E+01  0.0000000000E+00  0.0000000000E+00 -0.4199996176E-14 -0.4199996176E-14  0.0000000000E+00  0.0000000000E+00  0.0000000000E+00  0.1589821093E-14  0.1980688548E-13  0.0000000000E+00  0.0000000000E+00  0.0000000000E+00  0.0000000000E+00  0.0000000000E+00  0.0000000000E+00 -0.4199996176E-14  0.0000000000E+00  0.0000000000E+00  0.0000000000E+00
51  0.2566146262E-15  0.4181237948E-15  0.7323495993E-16  0.2063763199E-15  0.8495628397E-15  0.1260291316E-13  0.0000000000E+00  0.5354183799E-14 -0.4716080988E-13  0.0000000000E+00  0.3540800000E+01  0.0000000000E+00  0.0000000000E+00  0.1260291316E-13  0.1260291316E-13  0.0000000000E+00  0.0000000000E+00  0.0000000000E+00  0.5354183799E-14 -0.4716080988E-13  0.0000000000E+00  0.0000000000E+00  0.0000000000E+00  0.0000000000E+00  0.0000000000E+00  0.0000000000E+00  0.1260291316E-13  0.0000000000E+00  0.0000000000E+00  0.0000000000E+00
52  0.2824183467E-15  0.4407879522E-15  0.8167208478E-16  0.2054180039E-15  0.8751262529E-15 -0.1885659648E-13  0.0000000000E+00  0.1178332148E-13  0.4475731615E-13  0.0000000000E+00  0.3582700000E+01  0.0000000000E+00  0.0000000000E+00 -0.1885659648E-13 -0.1885659648E-13  0.0000000000E+00  0.0000000000E+00  0.0000000000E+00  0.1178332148E-13  0.4475731615E-13  0.0000000000E+00  0.0000000000E+00  0.0000000000E+00  0.0000000000E+00  0.0000000000E+00  0.0000000000E+00 -0.1885659648E-13  0.0000000000E+00  0.0000000000E+00  0.0000000000E+00
53  0.2221361888E-15  0.3708212953E-15  0.8179770040E-16  0.2558883235E-15  0.6518013226E-15  0.4649840030E-14  0.0000000000E+00 -0.1094496567E-13 -0.2083597618E-13  0.0000000000E+00  0.3627800000E+01  0.0000000000E+00  0.0000000000E+00  0.4649840030E-14  0.4649840030E-14  0.0000000000E+00  0.0000000000E+00  0.0000000000E+00 -0.1094496567E-13 -0.2083597618E-13  0.0000000000E+00  0.0000000000E+00  0.0000000000E+00  0.0000000000E+00  0.0000000000E+00  0.0000000000E+00  0.4649840030E-14  0.0000000000E+00  0.0000000000E+00  0.0000000000E+00
54  0.2373447506E-15  0.3421485917E-15  0.7764021271E-16  0.2386444206E-15  0.7184192421E-15 -0.6707494424E-14  0.0000000000E+00  0.3248156042E-14  0.2500722043E-13  0.0000000000E+00  0.3672100000E+01  0.0000000000E+00  0.0000000000E+00 -0.6707494424E-14 -0.6707494424E-14  0.0000000000E+00  0.0000000000E+00  0.0000000000E+00  0.3248156042E-14  0.2500722043E-13  0.0000000000E+00  0.0000000000E+00  0.0000000000E+00  0.0000000000E+00  0.0000000000E+00  0.0000000000E+00 -0.6707494424E-14  0.0000000000E+00  0.0000000000E+00  0.0000000000E+00