# vtk DataFile Version 2.0
FUN3D:global_image_vtk
ASCII
DATASET UNSTRUCTURED_GRID
POINTS 213 double
   -0.5474224527720908E-02    0.2504942126394358E+01    0.8082169247845776E-04
    0.1245420076928180E+01    0.2504942126394358E+01    0.1048423978844127E-03
    0.2497696590161274E+01    0.2504942126394358E+01    0.1104836378041785E-03
    0.3750592000219316E+01    0.2504942126394358E+01    0.1364570022851220E-03
    0.5003221893557217E+01    0.2504942126394358E+01    0.9695067806313133E-04
    0.5004677757730219E+01    0.1281291915003748E+01    0.1646229492601448E-03
    0.5004773233265148E+01    0.2775197973138349E-01    0.1907234218277843E-03
    0.5003582221826500E+01   -0.1225852858120849E+01    0.1617086259254320E-03
    0.5001953053134515E+01   -0.2496588894990435E+01    0.1087092371910148E-03
    0.3750349122005903E+01   -0.2496588894990435E+01    0.1468754878927437E-03
    0.2498611963539534E+01   -0.2496588894990435E+01    0.1014099575163264E-03
    0.1247176261509345E+01   -0.2496588894990435E+01    0.1118958281412220E-03
   -0.3383469652505758E-02   -0.2496588894990435E+01    0.8163625863498396E-04
   -0.4256789880083961E-02   -0.1225734173006506E+01    0.3518765131218969E-04
   -0.5251125685753769E-02    0.2619601495648063E-01    0.1043778815052321E-03
   -0.5675101163537782E-02    0.1278222243531552E+01    0.8322052785167298E-04
    0.9003214217918744E+00    0.1608980307788059E+01    0.8747986548433788E-04
    0.3983173228635397E+01   -0.1561211262270739E+01    0.1766748276819930E-03
    0.4035602579387497E+01    0.1486761266126256E+01    0.1716707047749034E-03
    0.1036614706197667E+01   -0.1455625787809795E+01    0.1057334602207739E-03
    0.1094353949885713E+01   -0.2964610398744433E+00    0.1265432505361675E-03
    0.7298409877477202E+00    0.6874691505129548E+00    0.1054287519396114E-03
    0.1617019123563139E+01    0.8553219978666025E+00    0.1534204880539869E-03
    0.2143200653243216E+01   -0.1627127869725139E+01    0.1616130269572459E-03
    0.4088840979725205E+01   -0.4351036111829277E+00    0.2724113083121671E-03
    0.2977917509313599E+01   -0.8334984944101467E+00    0.2255152651590420E-03
    0.3044093743998181E+01   -0.1814360085633255E+01    0.1621866806658512E-03
    0.3427867629114899E+01    0.3813911924713182E+00    0.2945982523096236E-03
    0.4313225907775678E+01    0.5489145452820490E+00    0.2316713600814391E-03
    0.1823033713305475E+01    0.1771265914466481E+01    0.1845256528172624E-03
    0.2806311649527428E+01    0.1358630605767851E+01    0.1947351855950819E-03
    0.1891861854168224E+01   -0.8481303814147357E+00    0.1680436487611892E-03
    0.2268769674863770E+01    0.7723810290210215E-01    0.2076744628142080E-03
    0.5000000000000000E+01    0.2504942126394358E+01    0.1250000000000000E+01
    0.5000000000000000E+01    0.2504942126394358E+01    0.2500000000000000E+01
    0.5000000000000000E+01    0.2504942126394358E+01    0.3750000000000000E+01
    0.5000000000000000E+01    0.2504942126394358E+01    0.5000000000000000E+01
    0.3750000000000000E+01    0.2504942126394358E+01    0.5000000000000000E+01
    0.2500000000000000E+01    0.2504942126394358E+01    0.5000000000000000E+01
    0.1250000000000000E+01    0.2504942126394358E+01    0.5000000000000000E+01
    0.0000000000000000E+00    0.2504942126394358E+01    0.5000000000000000E+01
    0.0000000000000000E+00    0.2504942126394358E+01    0.3750000000000000E+01
    0.0000000000000000E+00    0.2504942126394358E+01    0.2500000000000000E+01
    0.0000000000000000E+00    0.2504942126394358E+01    0.1250000000000000E+01
    0.9588960369906027E+00    0.2504942126394358E+01    0.9696533635134074E+00
    0.3981953152437098E+01    0.2504942126394358E+01    0.4070563994318885E+01
    0.4036122760748993E+01    0.2504942126394358E+01    0.1017568211262069E+01
    0.9637572721097026E+00    0.2504942126394358E+01    0.3973598325910149E+01
    0.1546540225214412E+01    0.2504942126394358E+01    0.2931570546623369E+01
    0.6973799590125652E+00    0.2504942126394358E+01    0.3070320151822421E+01
    0.8903742902410691E+00    0.2504942126394358E+01    0.2056562651402181E+01
    0.2183042038777302E+01    0.2504942126394358E+01    0.3960694659644651E+01
    0.3855845055169345E+01    0.2504942126394358E+01    0.2933250909205840E+01
    0.3152611483938655E+01    0.2504942126394358E+01    0.3637668660441704E+01
    0.3103307439056897E+01    0.2504942126394358E+01    0.4332607953811380E+01
    0.3266711423523970E+01    0.2504942126394358E+01    0.1889657173325438E+01
    0.4232537818759956E+01    0.2504942126394358E+01    0.1918627332171121E+01
    0.1905523024841220E+01    0.2504942126394358E+01    0.7226299060569138E+00
    0.2879768362525143E+01    0.2504942126394358E+01    0.9080952801356742E+00
    0.2012711742451920E+01    0.2504942126394358E+01    0.1767083037689035E+01
    0.2669681670297483E+01    0.2504942126394358E+01    0.2853394772384842E+01
    0.5000000000000000E+01    0.1250000000000000E+01    0.5000000000000000E+01
    0.5000000000000000E+01    0.0000000000000000E+00    0.5000000000000000E+01
    0.5000000000000000E+01   -0.1250000000000000E+01    0.5000000000000000E+01
    0.5000000000000000E+01   -0.2496588894990435E+01    0.5000000000000000E+01
    0.5000000000000000E+01   -0.2496588894990435E+01    0.3750000000000000E+01
    0.5000000000000000E+01   -0.2496588894990435E+01    0.2500000000000000E+01
    0.5000000000000000E+01   -0.2496588894990435E+01    0.1250000000000000E+01
    0.5000000000000000E+01    0.1578994732800803E+01    0.9058375365086910E+00
    0.5000000000000000E+01   -0.1583989954232354E+01    0.3982050490726493E+01
    0.5000000000000000E+01    0.1453322699199022E+01    0.4033849428301197E+01
    0.5000000000000000E+01   -0.1479596339503735E+01    0.1040505887381675E+01
    0.5000000000000000E+01   -0.3227322616384110E+00    0.1099454400140349E+01
    0.5000000000000000E+01    0.6593508822075582E+00    0.7354504170366591E+00
    0.5000000000000000E+01    0.8256214013940779E+00    0.1622302608453282E+01
    0.5000000000000000E+01   -0.1650070333782557E+01    0.2145871574390382E+01
    0.5000000000000000E+01   -0.4612828702537229E+00    0.4086422318222992E+01
    0.5000000000000000E+01   -0.8579242121530853E+00    0.2979540174134984E+01
    0.5000000000000000E+01   -0.1836846154397680E+01    0.3045064261640043E+01
    0.5000000000000000E+01    0.3508002863614053E+00    0.3428197553792836E+01
    0.5000000000000000E+01    0.5185680230613409E+00    0.4309693860063405E+01
    0.5000000000000000E+01    0.1738996113203182E+01    0.1827272193562204E+01
    0.5000000000000000E+01    0.1325493893339706E+01    0.2808563282768077E+01
    0.5000000000000000E+01   -0.8731419609589618E+00    0.1895995683864404E+01
    0.5000000000000000E+01    0.4906150219227333E-01    0.2273179336307740E+01
    0.0000000000000000E+00    0.1250000000000000E+01    0.5000000000000000E+01
    0.0000000000000000E+00    0.0000000000000000E+00    0.5000000000000000E+01
    0.0000000000000000E+00   -0.1250000000000000E+01    0.5000000000000000E+01
    0.0000000000000000E+00   -0.2496588894990435E+01    0.5000000000000000E+01
    0.1250000000000000E+01   -0.2496588894990435E+01    0.5000000000000000E+01
    0.2500000000000000E+01   -0.2496588894990435E+01    0.5000000000000000E+01
    0.3750000000000000E+01   -0.2496588894990435E+01    0.5000000000000000E+01
    0.4042003247744892E+01    0.1558308132739014E+01    0.5000000000000000E+01
    0.9304122287900499E+00   -0.1548001304379777E+01    0.5000000000000000E+01
    0.1037243024609388E+01    0.1462892710085612E+01    0.5000000000000000E+01
    0.3946240828834967E+01   -0.1445243809615570E+01    0.5000000000000000E+01
    0.4092527262848217E+01   -0.3455338993778935E+00    0.5000000000000000E+01
    0.4293103109154542E+01    0.6277660831404320E+00    0.5000000000000000E+01
    0.3241512314643519E+01    0.7429886854239611E+00    0.5000000000000000E+01
    0.2844289952419609E+01   -0.1588117879734118E+01    0.5000000000000000E+01
    0.7159905765450471E+00   -0.6002320124191652E+00    0.5000000000000000E+01
    0.1754341919796891E+01   -0.7398147869923652E+00    0.5000000000000000E+01
    0.1870296826774691E+01   -0.1788622905643739E+01    0.5000000000000000E+01
    0.9220614901912976E+00    0.3083720183248586E+00    0.5000000000000000E+01
    0.3101523624086016E+01    0.1777901774806180E+01    0.5000000000000000E+01
    0.2192512063922564E+01    0.1576861561598471E+01    0.5000000000000000E+01
    0.2024793420196460E+01    0.4773861992750707E+00    0.5000000000000000E+01
    0.2990627757741975E+01   -0.4878110785814084E+00    0.5000000000000000E+01
    0.0000000000000000E+00   -0.2496588894990435E+01    0.1250000000000000E+01
    0.0000000000000000E+00   -0.2496588894990435E+01    0.2500000000000000E+01
    0.0000000000000000E+00   -0.2496588894990435E+01    0.3750000000000000E+01
    0.0000000000000000E+00    0.1558308132739014E+01    0.4042003247744892E+01
    0.0000000000000000E+00   -0.1548001304379777E+01    0.9304122287900499E+00
    0.0000000000000000E+00    0.1462892710085612E+01    0.1037243024609388E+01
    0.0000000000000000E+00   -0.1445243809615570E+01    0.3946240828834967E+01
    0.0000000000000000E+00   -0.3455338993778935E+00    0.4092527262848217E+01
    0.0000000000000000E+00    0.6277660831404320E+00    0.4293103109154542E+01
    0.0000000000000000E+00    0.7429886854239611E+00    0.3241512314643519E+01
    0.0000000000000000E+00   -0.1588117879734118E+01    0.2844289952419609E+01
    0.0000000000000000E+00   -0.6002320124191652E+00    0.7159905765450471E+00
    0.0000000000000000E+00   -0.7398147869923652E+00    0.1754341919796891E+01
    0.0000000000000000E+00   -0.1788622905643739E+01    0.1870296826774691E+01
    0.0000000000000000E+00    0.3083720183248586E+00    0.9220614901912976E+00
    0.0000000000000000E+00    0.1777901774806180E+01    0.3101523624086016E+01
    0.0000000000000000E+00    0.1576861561598471E+01    0.2192512063922564E+01
[...]
POINT_DATA 213
SCALARS rho double 1
LOOKUP_TABLE default
   0.1000013395711557E+01
   0.1000006942145947E+01
   0.9999876930687790E+00
   0.9999949308387620E+00
   0.1000003744845413E+01
   0.1000005623043039E+01
   0.9999935793334398E+00
   0.9999980756717893E+00
   0.9999990149940563E+00
   0.9999958258294215E+00
   0.9999943753453480E+00
   0.9999993910526684E+00
   0.1000020971767089E+01
   0.1000027299839335E+01
   0.1000020594160148E+01
   0.1000014896829815E+01
   0.1000016764161746E+01
   0.9999901434205620E+00
   0.9999910343408801E+00
   0.1000010251590155E+01
   0.1000010724176201E+01
   0.1000011944530889E+01
   0.1000006599149545E+01
   0.9999952892473845E+00
   0.9999822267069456E+00
   0.9999917463916882E+00
   0.9999938967723428E+00
   0.9999886130176664E+00
   0.9999818650731767E+00
   0.9999993442110658E+00
   0.9999907642743078E+00
   0.1000001587510725E+01
   0.1000001418195986E+01
   0.1000001775638350E+01
   0.1000001232357812E+01
   0.1000000848745352E+01
   0.1000000687537536E+01
   0.1000001187137108E+01
   0.1000001663049639E+01
   0.1000001781566579E+01
   0.1000001430852714E+01
   0.1000002375168391E+01
   0.1000004125134698E+01
   0.1000007790077022E+01
   0.1000005990211585E+01
   0.1000000961958437E+01
   0.9999988684885924E+00
   0.1000002125459025E+01
   0.1000002435439506E+01
   0.1000002896300208E+01
   0.1000003533463521E+01
   0.1000001712503557E+01
   0.1000000714728746E+01
   0.1000001156070012E+01
   0.1000001329697825E+01
   0.9999997382975578E+00
   0.1000000121236731E+01
   0.1000000158351716E+01
   0.9999979993740976E+00
   0.1000001506570959E+01
   0.1000001179835489E+01
   0.1000000670404003E+01
   0.1000000665120215E+01
   0.1000000662679893E+01
   0.1000000738640546E+01
   0.1000000959918885E+01
   0.1000001530020683E+01
   0.1000002263485446E+01
   0.1000001925549057E+01
   0.1000000726422114E+01
   0.1000000689824074E+01
   0.1000002653514829E+01
   0.1000005629531584E+01
   0.1000004761053132E+01
   0.1000000867463581E+01
   0.1000001954565335E+01
   0.1000000656218833E+01
   0.1000001413243628E+01
   0.1000001275379014E+01
   0.1000000944212473E+01
   0.1000000638494716E+01
   0.1000001440701227E+01
   0.1000000996208458E+01
   0.1000002325230090E+01
   0.1000001387990232E+01
   0.1000001361089947E+01
   0.1000001331986464E+01
   0.1000001398240693E+01
   0.1000001474946056E+01
   0.1000001847100061E+01
   0.1000001704941680E+01
   0.1000001252637548E+01
   0.1000001083495922E+01
   0.1000001634439489E+01
   0.1000001636331292E+01
   0.1000001124264651E+01
   0.1000001125560529E+01
   0.1000001015916135E+01
   0.1000001432182592E+01
   0.1000001607378897E+01
   0.1000001506335714E+01
   0.1000001874445005E+01
   0.1000001860362519E+01
   0.1000001554166218E+01
   0.1000001438804300E+01
   0.1000001729084703E+01
   0.1000001768846269E+01
   0.1000001546690397E+01
   0.1000009260148371E+01
   0.1000004425686130E+01
   0.1000002511671469E+01
   0.1000002103414725E+01
   0.1000011252940038E+01
   0.1000009099995308E+01
   0.1000002286949879E+01
   0.1000002163823714E+01
   0.1000001942464678E+01
   0.1000003119415352E+01
   0.1000003790118812E+01
   0.1000012791906249E+01
   0.1000006777074183E+01
   0.1000006446989806E+01
   0.1000010074158882E+01
   0.1000003206080609E+01
   0.1000004882712700E+01
   0.1000005650996217E+01
   0.1000003590754922E+01
   0.1000005469625129E+01
   0.1000001048471880E+01
   0.9999986508469283E+00
   0.1000002268091888E+01
   0.1000002423719388E+01
   0.1000003168695053E+01
   0.1000004081422057E+01
   0.1000001763185298E+01
   0.1000000809268446E+01
   0.1000001216512475E+01
   0.1000001395791874E+01
   0.9999995456335503E+00
   0.1000000492781485E+01
   0.1000000023730554E+01
   0.9999982303597150E+00
   0.1000001627429552E+01
   0.1000001331949668E+01
   0.1000001307514243E+01
   0.1000002036518318E+01
   0.1000002295458473E+01
   0.1000002825886051E+01
   0.1000003788667558E+01
   0.1000006334545470E+01
   0.1000003077643564E+01
   0.1000002610185471E+01
   0.1000002154028234E+01
   0.1000002888455694E+01
   0.1000002897489747E+01
   0.1000005882510264E+01
   0.1000001878947720E+01
   0.1000001359126780E+01
   0.1000000169342453E+01
   0.1000000600388615E+01
   0.1000001103129994E+01
   0.1000000586103461E+01
   0.1000001543236515E+01
   0.1000001718823140E+01
   0.1000001226854796E+01
   0.1000000793705204E+01
   0.1000001466696306E+01
   0.1000002039155270E+01
   0.1000004196604652E+01
   0.1000003195802121E+01
   0.1000001500753564E+01
   0.1000002007875610E+01
   0.1000003004541758E+01
   0.9999987309831574E+00
   0.1000003449332502E+01
   0.1000000215814700E+01
   0.1000000921436579E+01
   0.9999996520048543E+00
   0.1000000218901176E+01
   0.1000007148083693E+01
   0.1000005151221192E+01
   0.1000007011664229E+01
   0.1000000968856332E+01
   0.1000001464350358E+01
   0.1000000721225143E+01
   0.1000000421945187E+01
   0.9999999973848701E+00
   0.1000000824561581E+01
   0.1000001079659170E+01
   0.1000000956322611E+01
   0.1000001363243780E+01
   0.9999994233801113E+00
   0.9999992465255828E+00
   0.9999993362739863E+00
   0.9999999714146440E+00
   0.9999980418731300E+00
   0.9999985756083674E+00
   0.1000000631968657E+01
   0.9999997610937098E+00
   0.9999936935841580E+00
   0.1000002060454928E+01
   0.1000001743378205E+01
   0.1000001110660742E+01
   0.1000000888378762E+01
   0.9999957316170068E+00
   0.9999938699606398E+00
   0.9999969753669680E+00
   0.1000001564164570E+01
   0.1000001219285653E+01
   0.1000000930229974E+01
   0.1000000838621620E+01
   0.1000001756848727E+01
   0.9999946512398609E+00
SCALARS u double 1
LOOKUP_TABLE default
   0.4999825291544782E+00
   0.5000062043245392E+00
   0.5000311821341049E+00
   0.5000258708848265E+00
   0.5000072096148290E+00
   0.5000049517662336E+00
   0.5000128566641348E+00
   0.5000123974757253E+00
   0.5000136573030272E+00
   0.5000302734769054E+00
   0.5000272456457574E+00
   0.5000154402472191E+00
   0.4999841127058987E+00
   0.4999807634587239E+00
   0.4999821007377487E+00
   0.4999827426705297E+00
   0.4999933387171434E+00
   0.5000361399751354E+00
   0.5000294485617927E+00
   0.5000088451993590E+00
   0.5000019905370713E+00
   0.4999923311240188E+00
   0.5000114791903413E+00
   0.5000277924019229E+00
   0.5000415742814289E+00
   0.5000391848481242E+00
   0.5000333440416704E+00
   0.5000435456400771E+00
   0.5000362284311549E+00
   0.5000212464518213E+00
   0.5000319682778933E+00
   0.5000217565958790E+00
   0.5000269462686197E+00
   0.5000039163528008E+00
   0.5000016660588382E+00
   0.5000006210641341E+00
   0.5000001388124329E+00
   0.4999988216973847E+00
   0.4999979284199716E+00
   0.4999975708363055E+00
   0.4999983465530999E+00
   0.4999975387559355E+00
   0.4999957138294995E+00
   0.4999919000415017E+00
   0.4999965835588586E+00
   0.4999999300693558E+00
   0.5000125640403320E+00
   0.4999978484438963E+00
   0.4999987517648294E+00
   0.4999973896406314E+00
   0.4999974737203266E+00
   0.4999987268231356E+00
   0.5000018354392604E+00
   0.5000000255568965E+00
   0.4999990612995956E+00
   0.5000067753361052E+00
   0.5000053697008098E+00
   0.5000111357688651E+00
   0.5000165853358022E+00
   0.5000031282776626E+00
   0.5000011834004170E+00
   0.5000001548092484E+00
   0.5000001403871340E+00
   0.5000000124674591E+00
   0.5000001500117740E+00
   0.5000005184650804E+00
   0.5000016279637184E+00
   0.5000047410670259E+00
   0.5000056274208000E+00
   0.5000005512306670E+00
   0.5000005553758086E+00
   0.5000062058491537E+00
   0.5000032716409748E+00
   0.5000041910972399E+00
   0.5000046194682083E+00
   0.5000022187760490E+00
   0.5000004822561442E+00
   0.5000010358636970E+00
   0.5000009538906999E+00
   0.5000007399627635E+00
   0.5000004520934614E+00
   0.5000027862448261E+00
   0.5000014289692739E+00
   0.5000032485733407E+00
   0.5000024903527865E+00
   0.4999985758750792E+00
   0.4999986028478548E+00
   0.4999984677465951E+00
   0.4999983038703202E+00
   0.4999975340388689E+00
   0.4999978419931480E+00
   0.4999987990297713E+00
   0.4999990226476009E+00
   0.4999978278335921E+00
   0.4999977769546151E+00
   0.4999989849648714E+00
   0.4999990106221703E+00
   0.4999992171505747E+00
   0.4999983513970260E+00
   0.4999980954429670E+00
   0.4999980847441707E+00
   0.4999976147684543E+00
   0.4999975743769866E+00
   0.4999979668616473E+00
   0.4999983119601485E+00
   0.4999977877047903E+00
   0.4999977246264103E+00
   0.4999981985536802E+00
   0.4999906457431832E+00
   0.4999953891326552E+00
   0.4999973533987827E+00
   0.4999976993836936E+00
   0.4999865654452499E+00
   0.4999898137992501E+00
   0.4999975197455566E+00
   0.4999977524792170E+00
   0.4999979984311164E+00
   0.4999968039696494E+00
   0.4999957286375453E+00
   0.4999861043991188E+00
   0.4999923484531210E+00
   0.4999936543214357E+00
   0.4999879116832294E+00
   0.4999967420135312E+00
   0.4999947840515817E+00
   0.4999940406144256E+00
   0.4999961716898368E+00
   0.4999998731465119E+00
   0.5000000144209911E+00
   0.5000156731442212E+00
   0.4999977345630499E+00
   0.4999986828459162E+00
   0.4999971392900819E+00
   0.4999974153234485E+00
   0.4999987127444830E+00
   0.5000018086990524E+00
   0.5000001649323723E+00
   0.4999990899057563E+00
   0.5000073043089396E+00
   0.5000058420585335E+00
   0.5000146100301291E+00
   0.5000173541039170E+00
   0.5000038344463663E+00
   0.5000013544488872E+00
   0.5000010890385622E+00
   0.4999985415971313E+00
   0.4999987915076490E+00
   0.4999998918713743E+00
   0.4999963902802912E+00
   0.4999950165255871E+00
   0.5000006405165627E+00
   0.4999973650961619E+00
   0.4999982657701330E+00
   0.4999972231037121E+00
   0.4999994032901636E+00
   0.4999988338304032E+00
   0.4999980482591818E+00
   0.5000004042975064E+00
   0.5000056879719001E+00
   0.5000025867227998E+00
   0.5000004229799641E+00
   0.5000033004019516E+00
   0.4999988002758688E+00
   0.4999984700018864E+00
   0.4999992369358132E+00
   0.5000020022554815E+00
   0.5000003787339949E+00
   0.4999979578332966E+00
   0.4999960954774377E+00
   0.4999990126988967E+00
   0.5000045415173550E+00
   0.4999978239652250E+00
   0.4999972017087378E+00
   0.5000142869059782E+00
   0.5000085287544411E+00
   0.5000066077794754E+00
   0.5000033421258514E+00
   0.5000116187707666E+00
   0.5000051142932759E+00
   0.4999979942598183E+00
   0.4999954526676332E+00
   0.4999971528580369E+00
   0.4999997508930313E+00
   0.4999989706036125E+00
   0.5000036959842157E+00
   0.5000031390381615E+00
   0.5000089936851000E+00
   0.5000030101738429E+00
   0.5000005570914270E+00
   0.5000004026376585E+00
   0.5000012796457544E+00
   0.5000086898552972E+00
   0.5000130685266749E+00
   0.5000104205435725E+00
   0.5000060043642022E+00
   0.5000186245467408E+00
   0.5000135032882177E+00
   0.5000092996179918E+00
   0.5000132233631454E+00
   0.5000275523626876E+00
   0.4999983413561191E+00
   0.4999983062583896E+00
   0.4999994969810986E+00
   0.5000007252556258E+00
   0.5000230632493189E+00
   0.5000253023742919E+00
   0.5000225453851049E+00
   0.4999989112949866E+00
   0.4999998093419984E+00
   0.5000005463982681E+00
   0.5000040212552777E+00
   0.5000086940633289E+00
   0.5000253991129791E+00
SCALARS v double 1
LOOKUP_TABLE default
   0.0000000000000000E+00
   0.0000000000000000E+00
   0.0000000000000000E+00
   0.0000000000000000E+00
   0.0000000000000000E+00
  -0.8747243806678757E-05
  -0.1486728273210839E-05
   0.8068254362298053E-05
   0.0000000000000000E+00
   0.0000000000000000E+00
   0.0000000000000000E+00
   0.0000000000000000E+00
   0.0000000000000000E+00
   0.3510723193997602E-06
   0.3638773174478931E-05
   0.1415899680522790E-05
   0.1321534328672642E-05
   0.6900220816171339E-05
  -0.3459456463419233E-05
  -0.5873516189882898E-05
   0.1750754217389939E-05
   0.1656375213434358E-05
   0.3669753744676709E-05
  -0.6155798409517184E-05
   0.4436917197983706E-05
  -0.3409901348943430E-05
  -0.2021607877297929E-05
   0.2205858635563206E-05
  -0.5830229781976604E-05
   0.5627523760198022E-05
   0.6079763192169637E-05
  -0.5469274143746785E-05
   0.1505295410017002E-05
   0.0000000000000000E+00
   0.0000000000000000E+00
   0.0000000000000000E+00
   0.0000000000000000E+00
   0.0000000000000000E+00
   0.0000000000000000E+00
   0.0000000000000000E+00
   0.0000000000000000E+00
   0.0000000000000000E+00
   0.0000000000000000E+00
   0.0000000000000000E+00
   0.0000000000000000E+00
   0.0000000000000000E+00
   0.0000000000000000E+00
   0.0000000000000000E+00
   0.0000000000000000E+00
   0.0000000000000000E+00
   0.0000000000000000E+00
   0.0000000000000000E+00
   0.0000000000000000E+00
   0.0000000000000000E+00
   0.0000000000000000E+00
   0.0000000000000000E+00
   0.0000000000000000E+00
   0.0000000000000000E+00
   0.0000000000000000E+00
   0.0000000000000000E+00
   0.0000000000000000E+00
   0.8542527759760819E-07
   0.3286286722609791E-07
   0.2119744218746863E-07
   0.0000000000000000E+00
   0.0000000000000000E+00
   0.0000000000000000E+00
   0.0000000000000000E+00
  -0.1948768090662019E-05
   0.5610353542603696E-07
   0.2221915535271466E-06
   0.2216989177812043E-05
   0.1208720760452717E-05
  -0.2951287910376562E-05
   0.4805280240296535E-06
   0.9733846185439950E-07
   0.1832209194459857E-06
   0.1956637007612548E-06
  -0.7592284333570508E-07
   0.5273058235622128E-06
   0.2197633720943229E-06
  -0.2655086691289583E-07
   0.4853086840545542E-06
   0.4168807795924472E-06
   0.8908743338946396E-06
  -0.7811956852258100E-07
  -0.1421943219903355E-07
   0.6482403898741981E-07
   0.0000000000000000E+00
   0.0000000000000000E+00
   0.0000000000000000E+00
   0.0000000000000000E+00
   0.7852331915757036E-07
   0.1613219174825816E-06
  -0.8263055090714604E-07
  -0.1355545552613805E-07
  -0.1245308345516434E-07
   0.5833412659359995E-07
   0.3086268444541220E-07
   0.8027918391691981E-07
   0.8693343412828360E-07
   0.1348460093810796E-06
   0.1070070601446199E-06
   0.3954514086489685E-07
  -0.1346192449891365E-07
  -0.7476175180500058E-07
   0.3513411772140724E-07
   0.6455238926278814E-07
   0.0000000000000000E+00
   0.0000000000000000E+00
   0.0000000000000000E+00
   0.7388497915668715E-07
   0.8726466594651888E-07
   0.4359805998574543E-06
  -0.2669714545774070E-07
  -0.1193090689170734E-07
  -0.6970535865352424E-08
  -0.1654165202376239E-07
  -0.1019928693775324E-06
   0.2644051255916589E-05
   0.4392941220427166E-06
   0.3136901796701542E-07
   0.1710648168293261E-05
   0.6963065079196432E-07
   0.6754328692635110E-07
  -0.1572579076986046E-06
  -0.2176014151286303E-06
   0.0000000000000000E+00
   0.0000000000000000E+00
   0.0000000000000000E+00
   0.0000000000000000E+00
   0.0000000000000000E+00
   0.0000000000000000E+00
   0.0000000000000000E+00
   0.0000000000000000E+00
   0.0000000000000000E+00
   0.0000000000000000E+00
   0.0000000000000000E+00
   0.0000000000000000E+00
   0.0000000000000000E+00
   0.0000000000000000E+00
   0.0000000000000000E+00
   0.0000000000000000E+00
   0.0000000000000000E+00
   0.5519819450219855E-06
  -0.3479046597256935E-07
   0.2391759936514440E-06
   0.4960519423731515E-06
   0.1134032681930269E-06
   0.6617440860198150E-06
   0.1292753118290741E-05
  -0.1580639027409602E-07
   0.2192376938048042E-07
   0.5254185994842055E-07
   0.7221589762762523E-06
   0.1665726019470759E-05
   0.3401025400085982E-07
   0.3240864074507583E-06
   0.7753479870498253E-06
   0.5679829083433807E-06
   0.4046680685477521E-06
   0.7323847674838322E-06
   0.8921318005931712E-07
   0.1383332088169967E-07
   0.1239835388022859E-06
   0.4340133450296912E-06
   0.1192576497178593E-06
  -0.3446861818304459E-07
   0.1480283640551331E-06
  -0.1093569006150090E-06
  -0.2892724733567787E-06
   0.3881888860675169E-07
  -0.6877121436618373E-07
   0.3508631159039223E-05
   0.2512902740728095E-06
   0.9073047770123256E-06
   0.8245437005607147E-06
   0.3124828301977359E-05
   0.1454729477883273E-05
   0.1046402945218579E-05
  -0.4114195128587953E-07
   0.4620110572296308E-06
   0.1907689243728886E-06
   0.5682297607546840E-07
  -0.1786768859943040E-07
  -0.2335452695382012E-06
   0.3453110789336018E-06
  -0.1327862859290545E-06
  -0.5666621386150996E-07
   0.1175401325852714E-06
  -0.2142420080055701E-06
   0.4029690490503355E-06
  -0.2596107425022092E-05
   0.2012251480420514E-05
  -0.6071495642218304E-07
  -0.2491519489510033E-05
  -0.1326857434454620E-05
   0.3926707318286815E-06
   0.2388651457857459E-05
   0.1087026068066165E-05
   0.3354251047783523E-07
  -0.9777183722440223E-08
   0.6994769116139287E-07
   0.4225954923296596E-06
   0.1034723131841555E-05
  -0.1638503209789115E-06
   0.1888556919851730E-05
  -0.5191969629282692E-07
  -0.8302717739657564E-07
   0.2928646184480841E-06
  -0.5250471387044345E-06
  -0.1815467287868241E-05
   0.1874594983905311E-06
SCALARS w double 1
LOOKUP_TABLE default
   0.4412866740160595E-05
   0.1967235646254318E-04
   0.5905500525193399E-05
  -0.3353958507485547E-05
  -0.1054608309439041E-04
  -0.1632469220526161E-04
  -0.3168848515594689E-04
  -0.2164780217181396E-04
  -0.1440727080523703E-04
  -0.1405661524107800E-05
   0.6344864987784321E-05
   0.1220609515942278E-04
   0.1028339157000196E-04
   0.1450597162045662E-04
   0.4956813751202366E-05
   0.5000456230317363E-05
   0.2112949323702858E-04
  -0.7730945019404973E-05
  -0.6831177065927661E-05
   0.2359500615619049E-04
   0.2356726098970360E-04
   0.1480932213580235E-04
   0.2778049038412002E-04
   0.1350754328256102E-04
  -0.1283701299731180E-04
   0.1741423909810959E-04
   0.7343201894458800E-05
   0.1310885989101039E-04
  -0.2053466823484561E-04
   0.2122334560755695E-04
   0.1225584556939595E-04
   0.2765726205137773E-04
   0.3323913940959233E-04
  -0.3907608422364857E-05
   0.4301278190054146E-06
   0.1546602380605559E-05
   0.1060994469017451E-05
   0.1237413547109511E-05
   0.1669116635311789E-05
   0.1719673134545954E-05
   0.9014964462279597E-06
   0.5574366205056123E-07
   0.1495920449732558E-06
   0.9206366140309256E-06
   0.7679797644577239E-05
   0.1504526589175538E-05
  -0.4955634146546387E-05
   0.1659949785120932E-05
   0.3121133727485196E-05
   0.1658070612647738E-05
   0.3757277393883432E-05
   0.2331907862295282E-05
   0.1230059976274226E-05
   0.1980358953054752E-05
   0.1817532870255206E-05
   0.1656161220028494E-05
  -0.7209614761663263E-06
   0.1071277915169001E-04
   0.1382945683007780E-05
   0.4957196432146968E-05
   0.2725405794164932E-05
   0.9735526108099591E-06
   0.9360047729176708E-06
   0.9864653708756501E-06
   0.1124435915896622E-05
   0.1926600132504607E-05
   0.1329745607526658E-05
  -0.3884986311725508E-05
  -0.6821510632388958E-05
   0.1827494274318038E-05
   0.1599740126758795E-05
  -0.7659500471095588E-05
  -0.1111180430328338E-04
  -0.1557031194472306E-04
  -0.2390664426904301E-05
   0.7298026635476581E-06
   0.1806485965676844E-05
   0.2328929779022938E-05
   0.2020453637075490E-05
   0.2072105844304716E-05
   0.1602388655921868E-05
  -0.1333903794757818E-05
   0.1172125072531449E-05
   0.1315411696187193E-06
   0.1305698401173842E-05
   0.9482105093552820E-06
   0.8218549911845830E-06
   0.7816131273144884E-06
   0.8336176956825838E-06
   0.1771438558005013E-05
   0.1700761109641154E-05
   0.1328362191263567E-05
   0.1141723640078325E-05
   0.1698157657280174E-05
   0.1639145039725781E-05
   0.1316932081480316E-05
   0.1116065975587065E-05
   0.1023647962629909E-05
   0.1430343545317332E-05
   0.1641460076853091E-05
   0.1628231626061356E-05
   0.1811077169161786E-05
   0.1800801220575265E-05
   0.1721051702376624E-05
   0.1472354874656783E-05
   0.1773369871839654E-05
   0.1814419228224905E-05
   0.1547341174824412E-05
   0.2976547940775856E-05
   0.1891968825008021E-06
   0.2672451491562124E-07
   0.3404278057879673E-06
   0.5264904342435051E-05
   0.1465954076504137E-05
   0.3373886371104334E-06
   0.3002125811788475E-06
   0.3505081214497436E-06
   0.6568114696414709E-07
  -0.3965766176672524E-07
   0.4235235259949781E-05
  -0.3050064128557855E-06
   0.7444514479003042E-06
   0.1968887405158872E-06