# vtk DataFile Version 2.0
FUN3D:global_image_vtk
ASCII
DATASET UNSTRUCTURED_GRID
POINTS 213 double
   -0.5474224527720908E-02    0.2504942126394358E+01    0.8082169247845774E-04
    0.1245420076928180E+01    0.2504942126394358E+01    0.1048423978844127E-03
    0.2497696590161274E+01    0.2504942126394358E+01    0.1104836378041785E-03
    0.3750592000219316E+01    0.2504942126394358E+01    0.1364570022851220E-03
    0.5003221893557217E+01    0.2504942126394358E+01    0.9695067806313132E-04
    0.5004677757730219E+01    0.1281291915003748E+01    0.1646229492601448E-03
    0.5004773233265148E+01    0.2775197973138348E-01    0.1907234218277842E-03
    0.5003582221826500E+01   -0.1225852858120849E+01    0.1617086259254319E-03
    0.5001953053134515E+01   -0.2496588894990435E+01    0.1087092371910148E-03
    0.3750349122005903E+01   -0.2496588894990435E+01    0.1468754878927437E-03
    0.2498611963539534E+01   -0.2496588894990435E+01    0.1014099575163263E-03
    0.1247176261509345E+01   -0.2496588894990435E+01    0.1118958281412220E-03
   -0.3383469652505757E-02   -0.2496588894990435E+01    0.8163625863498394E-04
   -0.4256789880083960E-02   -0.1225734173006506E+01    0.3518765131218969E-04
   -0.5251125685753768E-02    0.2619601495648063E-01    0.1043778815052321E-03
   -0.5675101163537782E-02    0.1278222243531552E+01    0.8322052785167297E-04
    0.9003214217918744E+00    0.1608980307788059E+01    0.8747986548433786E-04
    0.3983173228635397E+01   -0.1561211262270739E+01    0.1766748276819930E-03
    0.4035602579387497E+01    0.1486761266126256E+01    0.1716707047749033E-03
    0.1036614706197667E+01   -0.1455625787809795E+01    0.1057334602207739E-03
    0.1094353949885713E+01   -0.2964610398744433E+00    0.1265432505361675E-03
    0.7298409877477202E+00    0.6874691505129548E+00    0.1054287519396114E-03
    0.1617019123563139E+01    0.8553219978666025E+00    0.1534204880539869E-03
    0.2143200653243216E+01   -0.1627127869725139E+01    0.1616130269572458E-03
    0.4088840979725205E+01   -0.4351036111829277E+00    0.2724113083121670E-03
    0.2977917509313599E+01   -0.8334984944101467E+00    0.2255152651590420E-03
    0.3044093743998181E+01   -0.1814360085633255E+01    0.1621866806658512E-03
    0.3427867629114899E+01    0.3813911924713182E+00    0.2945982523096236E-03
    0.4313225907775678E+01    0.5489145452820490E+00    0.2316713600814391E-03
    0.1823033713305475E+01    0.1771265914466481E+01    0.1845256528172624E-03
    0.2806311649527428E+01    0.1358630605767851E+01    0.1947351855950819E-03
    0.1891861854168224E+01   -0.8481303814147357E+00    0.1680436487611892E-03
    0.2268769674863770E+01    0.7723810290210213E-01    0.2076744628142080E-03
    0.5000000000000000E+01    0.2504942126394358E+01    0.1250000000000000E+01
    0.5000000000000000E+01    0.2504942126394358E+01    0.2500000000000000E+01
    0.5000000000000000E+01    0.2504942126394358E+01    0.3750000000000000E+01
    0.5000000000000000E+01    0.2504942126394358E+01    0.5000000000000000E+01
    0.3750000000000000E+01    0.2504942126394358E+01    0.5000000000000000E+01
    0.2500000000000000E+01    0.2504942126394358E+01    0.5000000000000000E+01
    0.1250000000000000E+01    0.2504942126394358E+01    0.5000000000000000E+01
    0.0000000000000000E+00    0.2504942126394358E+01    0.5000000000000000E+01
    0.0000000000000000E+00    0.2504942126394358E+01    0.3750000000000000E+01
    0.0000000000000000E+00    0.2504942126394358E+01    0.2500000000000000E+01
    0.0000000000000000E+00    0.2504942126394358E+01    0.1250000000000000E+01
    0.9588960369906027E+00    0.2504942126394358E+01    0.9696533635134074E+00
    0.3981953152437098E+01    0.2504942126394358E+01    0.4070563994318885E+01
    0.4036122760748993E+01    0.2504942126394358E+01    0.1017568211262069E+01
    0.9637572721097026E+00    0.2504942126394358E+01    0.3973598325910149E+01
    0.1546540225214412E+01    0.2504942126394358E+01    0.2931570546623369E+01
    0.6973799590125653E+00    0.2504942126394358E+01    0.3070320151822421E+01
    0.8903742902410692E+00    0.2504942126394358E+01    0.2056562651402182E+01
    0.2183042038777302E+01    0.2504942126394358E+01    0.3960694659644651E+01
    0.3855845055169345E+01    0.2504942126394358E+01    0.2933250909205840E+01
    0.3152611483938655E+01    0.2504942126394358E+01    0.3637668660441704E+01
    0.3103307439056897E+01    0.2504942126394358E+01    0.4332607953811380E+01
    0.3266711423523970E+01    0.2504942126394358E+01    0.1889657173325438E+01
    0.4232537818759956E+01    0.2504942126394358E+01    0.1918627332171121E+01
    0.1905523024841220E+01    0.2504942126394358E+01    0.7226299060569138E+00
    0.2879768362525143E+01    0.2504942126394358E+01    0.9080952801356742E+00
    0.2012711742451920E+01    0.2504942126394358E+01    0.1767083037689035E+01
    0.2669681670297483E+01    0.2504942126394358E+01    0.2853394772384843E+01
    0.5000000000000000E+01    0.1250000000000000E+01    0.5000000000000000E+01
    0.5000000000000000E+01    0.0000000000000000E+00    0.5000000000000000E+01
    0.5000000000000000E+01   -0.1250000000000000E+01    0.5000000000000000E+01
    0.5000000000000000E+01   -0.2496588894990435E+01    0.5000000000000000E+01
    0.5000000000000000E+01   -0.2496588894990435E+01    0.3750000000000000E+01
    0.5000000000000000E+01   -0.2496588894990435E+01    0.2500000000000000E+01
    0.5000000000000000E+01   -0.2496588894990435E+01    0.1250000000000000E+01
    0.5000000000000000E+01    0.1578994732800803E+01    0.9058375365086910E+00
    0.5000000000000000E+01   -0.1583989954232354E+01    0.3982050490726493E+01
    0.5000000000000000E+01    0.1453322699199022E+01    0.4033849428301197E+01
    0.5000000000000000E+01   -0.1479596339503735E+01    0.1040505887381675E+01
    0.5000000000000000E+01   -0.3227322616384110E+00    0.1099454400140349E+01
    0.5000000000000000E+01    0.6593508822075582E+00    0.7354504170366591E+00
    0.5000000000000000E+01    0.8256214013940779E+00    0.1622302608453282E+01
    0.5000000000000000E+01   -0.1650070333782557E+01    0.2145871574390382E+01
    0.5000000000000000E+01   -0.4612828702537229E+00    0.4086422318222992E+01
    0.5000000000000000E+01   -0.8579242121530853E+00    0.2979540174134984E+01
    0.5000000000000000E+01   -0.1836846154397680E+01    0.3045064261640043E+01
    0.5000000000000000E+01    0.3508002863614053E+00    0.3428197553792836E+01
    0.5000000000000000E+01    0.5185680230613409E+00    0.4309693860063405E+01
    0.5000000000000000E+01    0.1738996113203182E+01    0.1827272193562204E+01
    0.5000000000000000E+01    0.1325493893339706E+01    0.2808563282768077E+01
    0.5000000000000000E+01   -0.8731419609589618E+00    0.1895995683864404E+01
    0.5000000000000000E+01    0.4906150219227333E-01    0.2273179336307740E+01
    0.0000000000000000E+00    0.1250000000000000E+01    0.5000000000000000E+01
    0.0000000000000000E+00    0.0000000000000000E+00    0.5000000000000000E+01
    0.0000000000000000E+00   -0.1250000000000000E+01    0.5000000000000000E+01
    0.0000000000000000E+00   -0.2496588894990435E+01    0.5000000000000000E+01
    0.1250000000000000E+01   -0.2496588894990435E+01    0.5000000000000000E+01
    0.2500000000000000E+01   -0.2496588894990435E+01    0.5000000000000000E+01
    0.3750000000000000E+01   -0.2496588894990435E+01    0.5000000000000000E+01
    0.4042003247744892E+01    0.1558308132739014E+01    0.5000000000000000E+01
    0.9304122287900499E+00   -0.1548001304379777E+01    0.5000000000000000E+01
    0.1037243024609388E+01    0.1462892710085612E+01    0.5000000000000000E+01
    0.3946240828834967E+01   -0.1445243809615570E+01    0.5000000000000000E+01
    0.4092527262848217E+01   -0.3455338993778935E+00    0.5000000000000000E+01
    0.4293103109154542E+01    0.6277660831404320E+00    0.5000000000000000E+01
    0.3241512314643519E+01    0.7429886854239611E+00    0.5000000000000000E+01
    0.2844289952419609E+01   -0.1588117879734118E+01    0.5000000000000000E+01
    0.7159905765450471E+00   -0.6002320124191652E+00    0.5000000000000000E+01
    0.1754341919796891E+01   -0.7398147869923652E+00    0.5000000000000000E+01
    0.1870296826774691E+01   -0.1788622905643739E+01    0.5000000000000000E+01
    0.9220614901912976E+00    0.3083720183248586E+00    0.5000000000000000E+01
    0.3101523624086016E+01    0.1777901774806180E+01    0.5000000000000000E+01
    0.2192512063922564E+01    0.1576861561598471E+01    0.5000000000000000E+01
    0.2024793420196460E+01    0.4773861992750707E+00    0.5000000000000000E+01
    0.2990627757741975E+01   -0.4878110785814084E+00    0.5000000000000000E+01
    0.0000000000000000E+00   -0.2496588894990435E+01    0.1250000000000000E+01
    0.0000000000000000E+00   -0.2496588894990435E+01    0.2500000000000000E+01
    0.0000000000000000E+00   -0.2496588894990435E+01    0.3750000000000000E+01
    0.0000000000000000E+00    0.1558308132739014E+01    0.4042003247744892E+01
    0.0000000000000000E+00   -0.1548001304379777E+01    0.9304122287900499E+00
    0.0000000000000000E+00    0.1462892710085612E+01    0.1037243024609388E+01
    0.0000000000000000E+00   -0.1445243809615570E+01    0.3946240828834967E+01
    0.0000000000000000E+00   -0.3455338993778935E+00    0.4092527262848217E+01
    0.0000000000000000E+00    0.6277660831404320E+00    0.4293103109154542E+01
    0.0000000000000000E+00    0.7429886854239611E+00    0.3241512314643519E+01
    0.0000000000000000E+00   -0.1588117879734118E+01    0.2844289952419609E+01
    0.0000000000000000E+00   -0.6002320124191652E+00    0.7159905765450471E+00
    0.0000000000000000E+00   -0.7398147869923652E+00    0.1754341919796891E+01
    0.0000000000000000E+00   -0.1788622905643739E+01    0.1870296826774691E+01
    0.0000000000000000E+00    0.3083720183248586E+00    0.9220614901912976E+00
    0.0000000000000000E+00    0.1777901774806180E+01    0.3101523624086016E+01
    0.0000000000000000E+00    0.1576861561598471E+01    0.2192512063922564E+01
[...]
POINT_DATA 213
SCALARS rho double 1
LOOKUP_TABLE default
   0.1000013394379561E+01
   0.1000006941619494E+01
   0.9999876922215818E+00
   0.9999949321819848E+00
   0.1000003746917018E+01
   0.1000005635391460E+01
   0.9999935983329516E+00
   0.9999980904399370E+00
   0.9999990193023683E+00
   0.9999958278539960E+00
   0.9999943742981650E+00
   0.9999993885114791E+00
   0.1000020969756327E+01
   0.1000027295888904E+01
   0.1000020591940046E+01
   0.1000014895669380E+01
   0.1000016763515090E+01
   0.9999901503071378E+00
   0.9999910377426606E+00
   0.1000010249176597E+01
   0.1000010723311093E+01
   0.1000011943571936E+01
   0.1000006598421687E+01
   0.9999952873329075E+00
   0.9999822362742471E+00
   0.9999917479596169E+00
   0.9999938974364477E+00
   0.9999886141117089E+00
   0.9999818757087974E+00
   0.9999993434365347E+00
   0.9999907629143348E+00
   0.1000001587760825E+01
   0.1000001418153154E+01
   0.1000001773533869E+01
   0.1000001233568998E+01
   0.1000000849503638E+01
   0.1000000683848025E+01
   0.1000001186459106E+01
   0.1000001663216784E+01
   0.1000001781554705E+01
   0.1000001431642523E+01
   0.1000002374998866E+01
   0.1000004125121989E+01
   0.1000007789817030E+01
   0.1000005989294513E+01
   0.1000000961308785E+01
   0.9999988659618707E+00
   0.1000002125234791E+01
   0.1000002435476287E+01
   0.1000002896240405E+01
   0.1000003533296845E+01
   0.1000001712542777E+01
   0.1000000715578033E+01
   0.1000001156278191E+01
   0.1000001329571269E+01
   0.9999997385420678E+00
   0.1000000120960639E+01
   0.1000000157510166E+01
   0.9999979961613347E+00
   0.1000001506787220E+01
   0.1000001179056607E+01
   0.1000000667188710E+01
   0.1000000663361576E+01
   0.1000000660398523E+01
   0.1000000735155652E+01
   0.1000000960401713E+01
   0.1000001530571774E+01
   0.1000002262333107E+01
   0.1000001923320841E+01
   0.1000000725481912E+01
   0.1000000688906016E+01
   0.1000002655967144E+01
   0.1000005632455807E+01
   0.1000004767440257E+01
   0.1000000866331864E+01
   0.1000001953550296E+01
   0.1000000655916983E+01
   0.1000001414045637E+01
   0.1000001276735490E+01
   0.1000000944904228E+01
   0.1000000637935775E+01
   0.1000001440137942E+01
   0.1000000997038524E+01
   0.1000002322621594E+01
   0.1000001387098940E+01
   0.1000001361339053E+01
   0.1000001331775590E+01
   0.1000001398026555E+01
   0.1000001474789189E+01
   0.1000001847147690E+01
   0.1000001705608581E+01
   0.1000001252187745E+01
   0.1000001082097801E+01
   0.1000001634530524E+01
   0.1000001636231312E+01
   0.1000001123543272E+01
   0.1000001124490022E+01
   0.1000001014259143E+01
   0.1000001432413292E+01
   0.1000001608265810E+01
   0.1000001506559883E+01
   0.1000001875037273E+01
   0.1000001860895576E+01
   0.1000001554458468E+01
   0.1000001439273389E+01
   0.1000001729126418E+01
   0.1000001769208969E+01
   0.1000001546813113E+01
   0.1000009258725311E+01
   0.1000004426052078E+01
   0.1000002511561211E+01
   0.1000002103271370E+01
   0.1000011252774369E+01
   0.1000009099983016E+01
   0.1000002286874702E+01
   0.1000002163628291E+01
   0.1000001942380312E+01
   0.1000003119383230E+01
   0.1000003790007879E+01
   0.1000012790165197E+01
   0.1000006777349924E+01
   0.1000006446843684E+01
   0.1000010072666904E+01
   0.1000003206098693E+01
   0.1000004882861719E+01
   0.1000005651476858E+01
   0.1000003590488809E+01
   0.1000005468548361E+01
   0.1000001047935011E+01
   0.9999986512616785E+00
   0.1000002268259149E+01
   0.1000002423386655E+01
   0.1000003168759853E+01
   0.1000004080943582E+01
   0.1000001763073993E+01
   0.1000000809648238E+01
   0.1000001216524705E+01
   0.1000001395393880E+01
   0.9999995455245273E+00
   0.1000000492491952E+01
   0.1000000021582713E+01
   0.9999982284136515E+00
   0.1000001628239589E+01
   0.1000001331576095E+01
   0.1000001307409687E+01
   0.1000002036433920E+01
   0.1000002295459153E+01
   0.1000002825481468E+01
   0.1000003788766346E+01
   0.1000006333376545E+01
   0.1000003077529660E+01
   0.1000002610198672E+01
   0.1000002153816023E+01
   0.1000002888346607E+01
   0.1000002897225979E+01
   0.1000005881264759E+01
   0.1000001879125602E+01
   0.1000001359116543E+01
   0.1000000168712077E+01
   0.1000000600144671E+01
   0.1000001103354028E+01
   0.1000000586022188E+01
   0.1000001543334882E+01
   0.1000001719035923E+01
   0.1000001227108403E+01
   0.1000000793989097E+01
   0.1000001466884803E+01
   0.1000002039138062E+01
   0.1000004196318123E+01
   0.1000003195555833E+01
   0.1000001500480086E+01
   0.1000002008042381E+01
   0.1000003004511393E+01
   0.9999987284748647E+00
   0.1000003447904211E+01
   0.1000000215317294E+01
   0.1000000920813726E+01
   0.9999996510549387E+00
   0.1000000218073410E+01
   0.1000007146580150E+01
   0.1000005151170763E+01
   0.1000007009940739E+01
   0.1000000968500011E+01
   0.1000001464471599E+01
   0.1000000721021702E+01
   0.1000000422249048E+01
   0.9999999977327088E+00
   0.1000000824982755E+01
   0.1000001079538342E+01
   0.1000000956225882E+01
   0.1000001363030436E+01
   0.9999994241453811E+00
   0.9999992475043465E+00
   0.9999993359370882E+00
   0.9999999716858962E+00
   0.9999980401967077E+00
   0.9999985751982384E+00
   0.1000000633271023E+01
   0.9999997637788712E+00
   0.9999936939108075E+00
   0.1000002060311949E+01
   0.1000001743674091E+01
   0.1000001110693056E+01
   0.1000000888734373E+01
   0.9999957290704017E+00
   0.9999938733867568E+00
   0.9999969750182859E+00
   0.1000001564574451E+01
   0.1000001219405769E+01
   0.1000000930594660E+01
   0.1000000838756548E+01
   0.1000001756161158E+01
   0.9999946499131812E+00
SCALARS u double 1
LOOKUP_TABLE default
   0.4999825288591774E+00
   0.5000062048915683E+00
   0.5000311876881584E+00
   0.5000258798534374E+00
   0.5000072139008689E+00
   0.5000049634221138E+00
   0.5000128745806656E+00
   0.5000124187786299E+00
   0.5000136740604433E+00
   0.5000303021863703E+00
   0.5000272449483478E+00
   0.5000154320955545E+00
   0.4999841120097635E+00
   0.4999807642564953E+00
   0.4999820999935958E+00
   0.4999827442729926E+00
   0.4999933408143896E+00
   0.5000361756136512E+00
   0.5000294705127264E+00
   0.5000088486609620E+00
   0.5000019929094139E+00
   0.4999923320535520E+00
   0.5000114849189403E+00
   0.5000278042891766E+00
   0.5000416246873606E+00
   0.5000392087056575E+00
   0.5000333612216619E+00
   0.5000435778399926E+00
   0.5000362738036093E+00
   0.5000212482789412E+00
   0.5000319771443182E+00
   0.5000217664497084E+00
   0.5000269606667752E+00
   0.5000039057218778E+00
   0.5000016676883728E+00
   0.5000006257160433E+00
   0.5000001293027075E+00
   0.4999988050420141E+00
   0.4999979264432450E+00
   0.4999975729088319E+00
   0.4999983478287455E+00
   0.4999975391314847E+00
   0.4999957140030372E+00
   0.4999919002799866E+00
   0.4999965846197035E+00
   0.4999999340259767E+00
   0.5000125446255668E+00
   0.4999978491025698E+00
   0.4999987499787786E+00
   0.4999973896607965E+00
   0.4999974736220349E+00
   0.4999987272371662E+00
   0.5000018445605160E+00
   0.5000000246027063E+00
   0.4999990616917147E+00
   0.5000067748081414E+00
   0.5000053667044084E+00
   0.5000111376619978E+00
   0.5000165754502296E+00
   0.5000031295929661E+00
   0.5000011830698828E+00
   0.5000001476135232E+00
   0.5000001374589381E+00
   0.5000000065078739E+00
   0.5000001433512073E+00
   0.5000005227563604E+00
   0.5000016283190932E+00
   0.5000047265613634E+00
   0.5000056194516074E+00
   0.5000005533189212E+00
   0.5000005592238513E+00
   0.5000061895096731E+00
   0.5000032590468241E+00
   0.5000041819686957E+00
   0.5000046120639934E+00
   0.5000022160450138E+00
   0.5000004839641907E+00
   0.5000010381672022E+00
   0.5000009579503593E+00
   0.5000007428142771E+00
   0.5000004531636333E+00
   0.5000027830146798E+00
   0.5000014307903339E+00
   0.5000032414708327E+00
   0.5000024891348169E+00
   0.4999985758555390E+00
   0.4999986030175859E+00
   0.4999984677319041E+00
   0.4999983049117706E+00
   0.4999975343657108E+00
   0.4999978386684096E+00
   0.4999987863990820E+00
   0.4999990060134460E+00
   0.4999978285605338E+00
   0.4999977771561152E+00
   0.4999989716513127E+00
   0.4999990042358474E+00
   0.4999992099890232E+00
   0.4999983480048339E+00
   0.4999980881721551E+00
   0.4999980845859686E+00
   0.4999976136896645E+00
   0.4999975734092051E+00
   0.4999979666636773E+00
   0.4999983055134129E+00
   0.4999977866863638E+00
   0.4999977228342238E+00
   0.4999981933083926E+00
   0.4999906483965914E+00
   0.4999953887466312E+00
   0.4999973537122439E+00
   0.4999976995042143E+00
   0.4999865633736992E+00
   0.4999898150941615E+00
   0.4999975199998883E+00
   0.4999977523779562E+00
   0.4999979988202806E+00
   0.4999968040490918E+00
   0.4999957280686368E+00
   0.4999861050983515E+00
   0.4999923508650491E+00
   0.4999936537565556E+00
   0.4999879115743307E+00
   0.4999967422550468E+00
   0.4999947838258901E+00
   0.4999940404861495E+00
   0.4999961714822270E+00
   0.4999998747581638E+00
   0.5000000162254382E+00
   0.5000156512527600E+00
   0.4999977345677610E+00
   0.4999986827781365E+00
   0.4999971387293912E+00
   0.4999974162107025E+00
   0.4999987132362718E+00
   0.5000018152981867E+00
   0.5000001670911790E+00
   0.4999990888569197E+00
   0.5000072988486846E+00
   0.5000058310798007E+00
   0.5000146072486448E+00
   0.5000173427156942E+00
   0.5000038373355252E+00
   0.5000013572221538E+00
   0.5000010890576730E+00
   0.4999985419279282E+00
   0.4999987915838695E+00
   0.4999998924358213E+00
   0.4999963905154948E+00
   0.4999950174297729E+00
   0.5000006400736088E+00
   0.4999973651632799E+00
   0.4999982665201502E+00
   0.4999972230867480E+00
   0.4999994029988669E+00
   0.4999988351675750E+00
   0.4999980479609263E+00
   0.5000004044534335E+00
   0.5000056857007429E+00
   0.5000025902018537E+00
   0.5000004247036072E+00
   0.5000033011243714E+00
   0.4999988021723171E+00
   0.4999984717008533E+00
   0.4999992373617851E+00
   0.5000020029456073E+00
   0.5000003796187064E+00
   0.4999979581437560E+00
   0.4999960971056976E+00
   0.4999990137654982E+00
   0.5000045409667423E+00
   0.4999978239670517E+00
   0.4999972015439677E+00
   0.5000142808782135E+00
   0.5000085294718980E+00
   0.5000066066805672E+00
   0.5000033413344019E+00
   0.5000116198849146E+00
   0.5000051117833588E+00
   0.4999979943663690E+00
   0.4999954544998330E+00
   0.4999971505431345E+00
   0.4999997538360195E+00
   0.4999989712564105E+00
   0.5000036977823353E+00
   0.5000031445865042E+00
   0.5000089813412592E+00
   0.5000030129880196E+00
   0.5000005620245079E+00
   0.5000004041717057E+00
   0.5000012801603311E+00
   0.5000086834883830E+00
   0.5000130579846911E+00
   0.5000104189276178E+00
   0.5000060025599766E+00
   0.5000186239712270E+00
   0.5000134970814113E+00
   0.5000092908955588E+00
   0.5000132072661596E+00
   0.5000275540219762E+00
   0.4999983392034473E+00
   0.4999983067407552E+00
   0.4999994983752178E+00
   0.5000007290699757E+00
   0.5000230581973866E+00
   0.5000252981565160E+00
   0.5000225373085969E+00
   0.4999989109405091E+00
   0.4999998096013528E+00
   0.5000005482182184E+00
   0.5000040219289347E+00
   0.5000086932224593E+00
   0.5000253957164996E+00
SCALARS v double 1
LOOKUP_TABLE default
   0.0000000000000000E+00
   0.0000000000000000E+00
   0.0000000000000000E+00
   0.0000000000000000E+00
   0.0000000000000000E+00
  -0.8743407058421696E-05
  -0.1485911536617700E-05
   0.8064126320217945E-05
   0.0000000000000000E+00
   0.0000000000000000E+00
   0.0000000000000000E+00
   0.0000000000000000E+00
   0.0000000000000000E+00
   0.3533550237071789E-06
   0.3639554465276956E-05
   0.1415070539592940E-05
   0.1319598106652930E-05
   0.6902012129105718E-05
  -0.3471274296544123E-05
  -0.5870535023536869E-05
   0.1748311889545168E-05
   0.1655116167041998E-05
   0.3666213571014108E-05
  -0.6154060818236695E-05
   0.4439973580543452E-05
  -0.3410211085038882E-05
  -0.2021881675856062E-05
   0.2201727515580939E-05
  -0.5835787892172743E-05
   0.5624861764188544E-05
   0.6073160161600644E-05
  -0.5471216624990615E-05
   0.1501848099839627E-05
   0.0000000000000000E+00
   0.0000000000000000E+00
   0.0000000000000000E+00
   0.0000000000000000E+00
   0.0000000000000000E+00
   0.0000000000000000E+00
   0.0000000000000000E+00
   0.0000000000000000E+00
   0.0000000000000000E+00
   0.0000000000000000E+00
   0.0000000000000000E+00
   0.0000000000000000E+00
   0.0000000000000000E+00
   0.0000000000000000E+00
   0.0000000000000000E+00
   0.0000000000000000E+00
   0.0000000000000000E+00
   0.0000000000000000E+00
   0.0000000000000000E+00
   0.0000000000000000E+00
   0.0000000000000000E+00
   0.0000000000000000E+00
   0.0000000000000000E+00
   0.0000000000000000E+00
   0.0000000000000000E+00
   0.0000000000000000E+00
   0.0000000000000000E+00
   0.0000000000000000E+00
   0.9145837690744815E-07
   0.3445321199701986E-07
   0.1942864674794616E-07
   0.0000000000000000E+00
   0.0000000000000000E+00
   0.0000000000000000E+00
   0.0000000000000000E+00
  -0.1943620572571394E-05
   0.5574476731615984E-07
   0.2232840354810165E-06
   0.2211007762190543E-05
   0.1208814040425361E-05
  -0.2946914282589045E-05
   0.4841635950048205E-06
   0.9704384893297221E-07
   0.1821550915429930E-06
   0.1962782934545931E-06
  -0.7537031440179126E-07
   0.5270053417234610E-06
   0.2215940616106506E-06
  -0.2564172025643744E-07
   0.4837185452372836E-06
   0.4160947107615413E-06
   0.8912598771588028E-06
  -0.7767628361701796E-07
  -0.1423914995234777E-07
   0.6467001967291575E-07
   0.0000000000000000E+00
   0.0000000000000000E+00
   0.0000000000000000E+00
   0.0000000000000000E+00
   0.8252973073729583E-07
   0.1619599058054196E-06
  -0.8381018217185977E-07
  -0.1355336307732287E-07
  -0.1295119605685511E-07
   0.6100449762596394E-07
   0.2950745791843454E-07
   0.8169945443582920E-07
   0.8671421618860508E-07
   0.1360433362360275E-06
   0.1076032545276357E-06
   0.3888501107521350E-07
  -0.1474058258843059E-07
  -0.7693198969806627E-07
   0.3401956053501030E-07
   0.6563729361267216E-07
   0.0000000000000000E+00
   0.0000000000000000E+00
   0.0000000000000000E+00
   0.7395319926808003E-07
   0.8559210072613707E-07
   0.4364060354409785E-06
  -0.2649713141953803E-07
  -0.1162973088030503E-07
  -0.6630101933690617E-08
  -0.1680969648303583E-07
  -0.1021747350415490E-06
   0.2645148050384102E-05
   0.4382578899442218E-06
   0.3127194169418205E-07
   0.1713315345097239E-05
   0.6959886109937492E-07
   0.6730873398665006E-07
  -0.1578053479259837E-06
  -0.2178351792120557E-06
   0.0000000000000000E+00
   0.0000000000000000E+00
   0.0000000000000000E+00
   0.0000000000000000E+00
   0.0000000000000000E+00
   0.0000000000000000E+00
   0.0000000000000000E+00
   0.0000000000000000E+00
   0.0000000000000000E+00
   0.0000000000000000E+00
   0.0000000000000000E+00
   0.0000000000000000E+00
   0.0000000000000000E+00
   0.0000000000000000E+00
   0.0000000000000000E+00
   0.0000000000000000E+00
   0.0000000000000000E+00
   0.5525963629616062E-06
  -0.3481678841763377E-07
   0.2392640710110184E-06
   0.4952233760010228E-06
   0.1131812830474746E-06
   0.6621519952864308E-06
   0.1292953090977312E-05
  -0.1597079260551041E-07
   0.2192367727005146E-07
   0.5239114516619572E-07
   0.7225549703248043E-06
   0.1665858541768643E-05
   0.3424613592017230E-07
   0.3251401329643678E-06
   0.7746867958776533E-06
   0.5682878084580925E-06
   0.4057867590306115E-06
   0.7316212504835132E-06
   0.8940033417159260E-07
   0.1356107572925445E-07
   0.1250840036125210E-06
   0.4345516227510902E-06
   0.1195055732458999E-06
  -0.3433224600304138E-07
   0.1471929258346644E-06
  -0.1100362696334843E-06
  -0.2892283305387520E-06
   0.3916297543052232E-07
  -0.6891916082176460E-07
   0.3508269986051684E-05
   0.2506495231925244E-06
   0.9071929319705547E-06
   0.8248915933516523E-06
   0.3125241154196649E-05
   0.1455187777040109E-05
   0.1046767234275167E-05
  -0.4242421674205682E-07
   0.4623109758443270E-06
   0.1916317817332544E-06
   0.5726845776895455E-07
  -0.1607638326571028E-07
  -0.2328088365252401E-06
   0.3442922306330639E-06
  -0.1315693041119148E-06
  -0.5652491488786368E-07
   0.1169442920886187E-06
  -0.2146513883482482E-06
   0.4019715199218265E-06
  -0.2595001875198008E-05
   0.2011318512118734E-05
  -0.5993043925321674E-07
  -0.2491764612854389E-05
  -0.1325489293521342E-05
   0.3935454807339202E-06
   0.2388421168060240E-05
   0.1088258596159078E-05
   0.3325135513671978E-07
  -0.9027140538139823E-08
   0.7003566067683356E-07
   0.4234659189732840E-06
   0.1034014173132073E-05
  -0.1650076359135983E-06
   0.1890067605371339E-05
  -0.5153631502148749E-07
  -0.8325383504664438E-07
   0.2937743444607274E-06
  -0.5246195300625940E-06
  -0.1814465823435276E-05
   0.1869379745951066E-06
SCALARS w double 1
LOOKUP_TABLE default
   0.4411285800148798E-05
   0.1967232020339707E-04
   0.5900199484159496E-05
  -0.3361185164956690E-05
  -0.1054624821905366E-04
  -0.1631979278709589E-04
  -0.3167503502470872E-04
  -0.2163465543097441E-04
  -0.1439422250092389E-04
  -0.1412461582406907E-05
   0.6338673381327081E-05
   0.1220438644041448E-04
   0.1028337845108415E-04
   0.1450919224444562E-04
   0.4957307328759152E-05
   0.5000841797376295E-05
   0.2112908509028956E-04
  -0.7739409386378619E-05
  -0.6845453993017582E-05
   0.2359016822025042E-04
   0.2356137396488402E-04
   0.1480713228481765E-04
   0.2777871460583691E-04
   0.1349688875174953E-04
  -0.1284113827411283E-04
   0.1740598939091135E-04
   0.7328423353647842E-05
   0.1310313517601718E-04
  -0.2054041832116234E-04
   0.2122151622004398E-04
   0.1224821565132696E-04
   0.2764969054502786E-04
   0.3323675348265270E-04
  -0.3910820955604600E-05
   0.4267659687079610E-06
   0.1547355798957483E-05
   0.1062157393505787E-05
   0.1239250303477936E-05
   0.1670439614954729E-05
   0.1719325132005328E-05
   0.9002699938218616E-06
   0.5583059176408642E-07
   0.1497804108614670E-06
   0.9209456286862308E-06
   0.7678353813413185E-05
   0.1500342203010193E-05
  -0.4956170666647434E-05
   0.1660433906200166E-05
   0.3121578850841809E-05
   0.1658708643821864E-05
   0.3756939719435712E-05
   0.2332504384822615E-05
   0.1228589165311122E-05
   0.1977035607045765E-05
   0.1814572690441779E-05
   0.1657886296647812E-05
  -0.7232162277199815E-06
   0.1071061629875987E-04
   0.1383227424666603E-05
   0.4957166697385616E-05
   0.2725310450557900E-05
   0.9738174432127825E-06
   0.9355057357436838E-06
   0.9863509108518901E-06
   0.1125009714079187E-05
   0.1927527859217716E-05
   0.1326628089754162E-05
  -0.3881365362743898E-05
  -0.6817196937372450E-05
   0.1828975783280835E-05
   0.1601790841328423E-05
  -0.7651969004316681E-05
  -0.1110365856769356E-04
  -0.1556091440497372E-04
  -0.2386949105740143E-05
   0.7294720776797715E-06
   0.1808887927343360E-05
   0.2330071373970165E-05
   0.2019767197911680E-05
   0.2074822303523823E-05
   0.1604627237338615E-05
  -0.1337128919861837E-05
   0.1171892462274630E-05
   0.1349556993812790E-06
   0.1308675225576164E-05
   0.9478391481275064E-06
   0.8220515985785194E-06
   0.7818624710258256E-06
   0.8337495468947750E-06
   0.1772199194489559E-05
   0.1701149024368694E-05
   0.1328146627487024E-05
   0.1142287229933176E-05
   0.1698416928005835E-05
   0.1639033286153431E-05
   0.1316105602881029E-05
   0.1116008089238711E-05
   0.1023176115032476E-05
   0.1430129550275210E-05
   0.1641413398941341E-05
   0.1628280837499739E-05
   0.1811190514038197E-05
   0.1801082738403730E-05
   0.1720889407659588E-05
   0.1474269974272534E-05
   0.1774097629669384E-05
   0.1814213560937599E-05
   0.1547754880682871E-05
   0.2978059271188257E-05
   0.1896265545177133E-06
   0.2695582353008438E-07
   0.3403807988037905E-06
   0.5266715010398249E-05
   0.1466602000156330E-05
   0.3381737564235945E-06
   0.2999122928072764E-06
   0.3503471982714030E-06
   0.6581184852372247E-07
  -0.3924668550156704E-07
   0.4237294440876920E-05
  -0.3047216821688867E-06
   0.7448661292265426E-06
   0.2003089403920670E-06