title="tecplot geometry and solution file"
variables = x y z rho u v w p mach temperature
zone t="boundary 1 bc-1", solutiontime= 0.1000000E+02, strandid=1001, i=32, j=46, f=feblock
 -0.547422452772E-02  0.000000000000E+00 -0.567510116354E-02  0.000000000000E+00  0.000000000000E+00  0.000000000000E+00 -0.525112568575E-02
 -0.425678988008E-02  0.000000000000E+00  0.000000000000E+00  0.000000000000E+00  0.000000000000E+00  0.000000000000E+00  0.000000000000E+00
  0.000000000000E+00  0.000000000000E+00 -0.338346965251E-02  0.000000000000E+00  0.000000000000E+00  0.000000000000E+00  0.000000000000E+00
  0.000000000000E+00  0.000000000000E+00  0.000000000000E+00  0.000000000000E+00  0.000000000000E+00  0.000000000000E+00  0.000000000000E+00
  0.000000000000E+00  0.000000000000E+00  0.000000000000E+00  0.000000000000E+00
  0.250494212639E+01  0.250494212639E+01  0.127822224353E+01  0.146289271009E+01  0.157686156160E+01  0.308372018325E+00  0.261960149565E-01
 -0.122573417301E+01 -0.600232012419E+00  0.250494212639E+01  0.477386199275E+00  0.742988685424E+00 -0.739814786992E+00  0.177790177481E+01
  0.155830813274E+01  0.250494212639E+01 -0.249658889499E+01 -0.154800130438E+01 -0.487811078581E+00  0.250494212639E+01  0.627766083140E+00
 -0.345533899378E+00 -0.178862290564E+01 -0.158811787973E+01  0.125000000000E+01 -0.249658889499E+01 -0.144524380962E+01  0.000000000000E+00
 -0.125000000000E+01 -0.249658889499E+01 -0.249658889499E+01 -0.249658889499E+01
  0.808216924785E-04  0.125000000000E+01  0.832205278517E-04  0.103724302461E+01  0.219251206392E+01  0.922061490191E+00  0.104377881505E-03
  0.351876513122E-04  0.715990576545E+00  0.250000000000E+01  0.202479342020E+01  0.324151231464E+01  0.175434191980E+01  0.310152362409E+01
  0.404200324774E+01  0.375000000000E+01  0.816362586350E-04  0.930412228790E+00  0.299062775774E+01  0.500000000000E+01  0.429310310915E+01
  0.409252726285E+01  0.187029682677E+01  0.284428995242E+01  0.500000000000E+01  0.125000000000E+01  0.394624082883E+01  0.500000000000E+01
  0.500000000000E+01  0.250000000000E+01  0.375000000000E+01  0.500000000000E+01
  0.100001336552E+01  0.100000777615E+01  0.100001491379E+01  0.100000909266E+01  0.100000488905E+01  0.100001010864E+01  0.100002069212E+01
  0.100002741537E+01  0.100001285332E+01  0.100000413192E+01  0.100000562869E+01  0.100000311507E+01  0.100000676537E+01  0.100000319553E+01
  0.100000210426E+01  0.100000235543E+01  0.100002104250E+01  0.100001126863E+01  0.100000359014E+01  0.100000143187E+01  0.100000194462E+01
  0.100000217048E+01  0.100000646202E+01  0.100000379845E+01  0.100000136816E+01  0.100000928562E+01  0.100000229072E+01  0.100000132999E+01
  0.100000140029E+01  0.100000441893E+01  0.100000250382E+01  0.100000146407E+01
  0.499982530851E+00  0.499991925708E+00  0.499982660189E+00  0.499989786182E+00  0.499994804383E+00  0.499987981239E+00  0.499982123599E+00
  0.499980809646E+00  0.499986158850E+00  0.499995725292E+00  0.499994012663E+00  0.499996817547E+00  0.499992279461E+00  0.499996749264E+00
  0.499997719803E+00  0.499997548734E+00  0.499984251147E+00  0.499986662692E+00  0.499996164835E+00  0.499998328651E+00  0.499997994360E+00
  0.499997750071E+00  0.499993635598E+00  0.499995713386E+00  0.499998529698E+00  0.499990510626E+00  0.499997526898E+00  0.499998570380E+00
  0.499998450229E+00  0.499995407714E+00  0.499997358534E+00  0.499998285663E+00
  0.000000000000E+00  0.000000000000E+00  0.143852889228E-05  0.423843558981E-06  0.589127511187E-07  0.164804203868E-05  0.359081168212E-05
  0.286875667926E-06  0.259550067577E-05  0.000000000000E+00 -0.147482254677E-06 -0.261647501739E-07  0.474239531798E-06  0.743173842362E-07
  0.751140116446E-07  0.000000000000E+00  0.000000000000E+00  0.929639903787E-07 -0.210617524900E-06  0.000000000000E+00 -0.694573513520E-08
 -0.150799688069E-07  0.535757385072E-07 -0.587589216454E-07 -0.505894617438E-07  0.000000000000E+00 -0.186615030806E-07 -0.588711190579E-08
  0.575702533014E-07  0.000000000000E+00  0.000000000000E+00  0.000000000000E+00
  0.434851454582E-05  0.935035024074E-06  0.490421984873E-05  0.142663902236E-05  0.761123969782E-06  0.172178271445E-06  0.496094477682E-05
  0.144857896051E-04  0.421042776783E-05  0.136486758345E-06  0.196346768143E-06  0.646689909199E-07 -0.368288326893E-06  0.163439764262E-06
  0.379193227841E-06  0.434118580099E-07  0.103865500777E-04  0.529819387709E-05  0.804874186072E-07  0.858110602760E-06  0.363007199636E-06
  0.303619766389E-06  0.742127970141E-06 -0.436199148300E-07  0.910299823534E-06  0.291097383317E-05  0.340895087460E-06  0.803274190589E-06
  0.762042034228E-06  0.175909690720E-06 -0.101409461297E-08  0.805735033621E-06
  0.714299091947E+00  0.714293494151E+00  0.714300633007E+00  0.714294797429E+00  0.714290602349E+00  0.714295817635E+00  0.714306390637E+00
  0.714313106228E+00  0.714298556659E+00  0.714289844691E+00  0.714291351356E+00  0.714288830453E+00  0.714292479177E+00  0.714288908543E+00
  0.714287818319E+00  0.714288069188E+00  0.714306742259E+00  0.714297005682E+00  0.714289304689E+00  0.714287145528E+00  0.714287657772E+00
  0.714287883812E+00  0.714292174998E+00  0.714289507286E+00  0.714287081273E+00  0.714294989123E+00  0.714288003349E+00  0.714287043547E+00
  0.714287113137E+00  0.714290133363E+00  0.714288217802E+00  0.714287176918E+00
  0.499981190139E+00  0.499991146813E+00  0.499981167190E+00  0.499988880279E+00  0.499994315831E+00  0.499986972267E+00  0.499980060072E+00
  0.499978076720E+00  0.499984877432E+00  0.499995312635E+00  0.499993446873E+00  0.499996505658E+00  0.499991603108E+00  0.499996430160E+00
  0.499997509459E+00  0.499997313377E+00  0.499982152214E+00  0.499985527935E+00  0.499995805735E+00  0.499998185685E+00  0.499997800295E+00
  0.499997533360E+00  0.499992989869E+00  0.499995335452E+00  0.499998393295E+00  0.499989585877E+00  0.499997298408E+00  0.499998437638E+00
  0.499998310705E+00  0.499994965777E+00  0.499997108261E+00  0.499998139760E+00
  0.100000536313E+01  0.100000311564E+01  0.100000597233E+01  0.100000362371E+01  0.100000195423E+01  0.100000403601E+01  0.100000825460E+01
  0.100001093305E+01  0.100000512593E+01  0.100000165064E+01  0.100000226319E+01  0.100000124757E+01  0.100000270546E+01  0.100000127643E+01
  0.100000084138E+01  0.100000094143E+01  0.100000839648E+01  0.100000453928E+01  0.100000143642E+01  0.100000057187E+01  0.100000077626E+01
  0.100000086685E+01  0.100000258296E+01  0.100000151175E+01  0.100000054562E+01  0.100000369911E+01  0.100000091397E+01  0.100000053097E+01
  0.100000055810E+01  0.100000176777E+01  0.100000100110E+01  0.100000058361E+01
        12        19        11        11
        11         5        12        12
        10        14         5         5
        19        13        11        11
        19        24        13        13
        30        23        24        24
        19        12        22        22
        28        22        21        21
        11        13         6         6
         7         6         9         9
        15        12        14        14
        18        13        23        23
        15        25        21        21
        27        19        22        22
        18         8         9         9
        27        31        24        24
         4        11         6         6
         5        14        12        12
         4         2         5         5
        21        12        15        15
        14        16        15        15
        24        19        27        27
        22        29        27        27
        23        26        18        18
        17         8        18        18
         5        11         4         4
         6         3         4         4
        26        23        30        30
         5         2        10        10
        16        14        10        10
         3         6         7         7
        21        25        28        28
        29        22        28        28
         6        13         9         9
         2         4         1         1
        31        27        32        32
        25        15        20        20
        24        23        13        13
         8         7         9         9
        13        18         9         9
        31        30        24        24
        12        21        22        22
        29        32        27        27
         3         1         4         4
        26        17        18        18
        16        20        15        15
zone t="boundary 2 bc-2", solutiontime= 0.1000000E+02, strandid=1002, i=33, j=48, f=feblock
  0.500195305313E+01  0.375034912201E+01  0.249861196354E+01  0.288036736122E+01  0.124717626151E+01  0.190856778359E+01  0.326577225489E+01
  0.201394899013E+01 -0.338346965251E-02  0.962374705946E+00  0.500000000000E+01  0.403430242702E+01  0.423029585421E+01  0.500000000000E+01
  0.385439203165E+01  0.500000000000E+01  0.398133438873E+01  0.315200091180E+01  0.266958048114E+01  0.154798041552E+01  0.218327865435E+01
  0.893688581176E+00  0.000000000000E+00  0.699009801023E+00  0.964460914345E+00  0.310303675842E+01  0.000000000000E+00  0.000000000000E+00
  0.125000000000E+01  0.500000000000E+01  0.375000000000E+01  0.250000000000E+01  0.000000000000E+00
 -0.249658889499E+01 -0.249658889499E+01 -0.249658889499E+01 -0.249658889499E+01 -0.249658889499E+01 -0.249658889499E+01 -0.249658889499E+01
 -0.249658889499E+01 -0.249658889499E+01 -0.249658889499E+01 -0.249658889499E+01 -0.249658889499E+01 -0.249658889499E+01 -0.249658889499E+01
 -0.249658889499E+01 -0.249658889499E+01 -0.249658889499E+01 -0.249658889499E+01 -0.249658889499E+01 -0.249658889499E+01 -0.249658889499E+01
 -0.249658889499E+01 -0.249658889499E+01 -0.249658889499E+01 -0.249658889499E+01 -0.249658889499E+01 -0.249658889499E+01 -0.249658889499E+01
 -0.249658889499E+01 -0.249658889499E+01 -0.249658889499E+01 -0.249658889499E+01 -0.249658889499E+01
  0.108709237191E-03  0.146875487893E-03  0.101409957516E-03  0.901663848142E+00  0.111895828141E-03  0.714929135901E+00  0.188140686189E+01
  0.175892218342E+01  0.816362586350E-04  0.957504934716E+00  0.125000000000E+01  0.100596744181E+01  0.191313547189E+01  0.250000000000E+01
  0.292898120965E+01  0.375000000000E+01  0.406883379958E+01  0.363389309169E+01  0.284756893464E+01  0.292582332356E+01  0.395754068714E+01
  0.205027285783E+01  0.125000000000E+01  0.306703284160E+01  0.397155773791E+01  0.433068631589E+01  0.250000000000E+01  0.375000000000E+01
  0.500000000000E+01  0.500000000000E+01  0.500000000000E+01  0.500000000000E+01  0.500000000000E+01
  0.999998882245E+00  0.999995748458E+00  0.999994387733E+00  0.999998245710E+00  0.999999413709E+00  0.100000005482E+01  0.999999588832E+00
  0.100000160775E+01  0.100002104250E+01  0.100000549064E+01  0.100000234770E+01  0.999998652174E+00  0.100000055637E+01  0.100000158791E+01
  0.100000083017E+01  0.100000094147E+01  0.100000103303E+01  0.100000123436E+01  0.100000133325E+01  0.100000242137E+01  0.100000175687E+01
  0.100000408615E+01  0.100000928562E+01  0.100000317697E+01  0.100000227323E+01  0.100000140028E+01  0.100000441893E+01  0.100000250382E+01
  0.100000182154E+01  0.100000071711E+01  0.100000126255E+01  0.100000173085E+01  0.100000146407E+01
  0.500013172540E+00  0.500029416454E+00  0.500026906134E+00  0.500017802882E+00  0.500015532915E+00  0.500014858315E+00  0.500007689619E+00
  0.500003844713E+00  0.499984251147E+00  0.499999909451E+00  0.500005075162E+00  0.500016202336E+00  0.500006325149E+00  0.500001790068E+00
  0.500001822205E+00  0.500000444153E+00  0.499999896063E+00  0.500000020638E+00  0.500001231572E+00  0.499998551904E+00  0.499998675895E+00
  0.499997368882E+00  0.499990510626E+00  0.499997127186E+00  0.499997740113E+00  0.499999093867E+00  0.499995407714E+00  0.499997358534E+00
  0.499997622956E+00  0.500000064143E+00  0.499998870508E+00  0.499997977860E+00  0.499998285663E+00
  0.000000000000E+00  0.000000000000E+00  0.000000000000E+00  0.000000000000E+00  0.000000000000E+00  0.000000000000E+00  0.000000000000E+00
  0.000000000000E+00  0.000000000000E+00  0.000000000000E+00  0.000000000000E+00  0.000000000000E+00  0.000000000000E+00  0.000000000000E+00
  0.000000000000E+00  0.000000000000E+00  0.000000000000E+00  0.000000000000E+00  0.000000000000E+00  0.000000000000E+00  0.000000000000E+00
  0.000000000000E+00  0.000000000000E+00  0.000000000000E+00  0.000000000000E+00  0.000000000000E+00  0.000000000000E+00  0.000000000000E+00
  0.000000000000E+00  0.000000000000E+00  0.000000000000E+00  0.000000000000E+00  0.000000000000E+00
 -0.148139608111E-04 -0.139446971626E-05  0.645862930025E-05  0.443964202256E-05  0.123359686227E-04  0.101600433632E-04  0.233626958299E-05
  0.611700786584E-05  0.103865500777E-04  0.104783898569E-04 -0.411906689886E-05 -0.168906725943E-05  0.679356082253E-07  0.138937238975E-05
  0.140155355354E-05  0.194830127963E-05  0.151777535419E-05  0.215676653306E-05  0.306210298669E-05  0.386765524075E-05  0.242969706577E-05
  0.448436729055E-05  0.291097383317E-05  0.190893232195E-05  0.188361154307E-05  0.193016740439E-05  0.175909690720E-06 -0.101409461297E-08
  0.183301260682E-05  0.103993156989E-05  0.136019523724E-05  0.174408220480E-05  0.805735033621E-06
  0.714284567942E+00  0.714281424358E+00  0.714280074878E+00  0.714283935708E+00  0.714285108182E+00  0.714285748503E+00  0.714285309963E+00
  0.714287338705E+00  0.714306742259E+00  0.714291212327E+00  0.714288054131E+00  0.714284347185E+00  0.714286267987E+00  0.714287311157E+00
  0.714286548876E+00  0.714286657859E+00  0.714286748918E+00  0.714286950331E+00  0.714287048597E+00  0.714288132952E+00  0.714287468974E+00
  0.714289798300E+00  0.714294989123E+00  0.714288889482E+00  0.714287986277E+00  0.714287112607E+00  0.714290133363E+00  0.714288217802E+00
  0.714287540535E+00  0.714286422055E+00  0.714286974763E+00  0.714287444241E+00  0.714287176918E+00
  0.500013294544E+00  0.500029855074E+00  0.500027476936E+00  0.500017986839E+00  0.500015598633E+00  0.500014860147E+00  0.500007728346E+00
  0.500003678139E+00  0.499982152214E+00  0.499999357909E+00  0.500004843155E+00  0.500016343872E+00  0.500006270446E+00  0.500001628140E+00
  0.500001737642E+00  0.500000349272E+00  0.499999792201E+00  0.499999896619E+00  0.500001097884E+00  0.499998310730E+00  0.499998500978E+00
  0.499996961040E+00  0.499989585877E+00  0.499996810117E+00  0.499997513227E+00  0.499998954527E+00  0.499994965777E+00  0.499997108261E+00
  0.499997439159E+00  0.499999995702E+00  0.499998744981E+00  0.499997805093E+00  0.499998139760E+00
  0.999999512873E+00  0.999998245636E+00  0.999997717083E+00  0.999999264280E+00  0.999999737745E+00  0.999999993086E+00  0.999999845116E+00
  0.100000066644E+01  0.100000839648E+01  0.100000220661E+01  0.100000092809E+01  0.999999433884E+00  0.100000021881E+01  0.100000064771E+01
  0.100000033826E+01  0.100000037954E+01  0.100000041546E+01  0.100000049610E+01  0.100000053479E+01  0.100000096476E+01  0.100000069969E+01
  0.100000163146E+01  0.100000369911E+01  0.100000126830E+01  0.100000090756E+01  0.100000055737E+01  0.100000176777E+01  0.100000100110E+01
  0.100000073520E+01  0.100000027377E+01  0.100000050212E+01  0.100000069108E+01  0.100000058361E+01
        15         7        19        19
         8        20        19        19
        18        19        21        21
         7         4         8         8
         3         6         4         4
        19         7         8         8
        19        18        15        15
        14        13        15        15
         8        22        20        20
        27        24        22        22
        19        20        21        21
        32        26        21        21
        17        18        26        26
        17        16        15        15
        25        29        21        21
        12         7        13        13
        10         8         6         6
        25        20        24        24
         4         6         8         8
        12         2         4         4
        10        23        22        22
        26        31        17        17
        30        16        17        17
         4         7        12        12
        13        11        12        12
        21        20        25        25
        24        28        25        25
        22         8        10        10
         6         5        10        10
        31        26        32        32
         4         2         3         3
         5         6         3         3
        11        13        14        14
        22        23        27        27
        28        24        27        27
        15        13         7         7
         2        12         1         1
        29        25        33        33
        23        10         9         9
        21        26        18        18
        16        14        15        15
        18        17        15        15
        29        32        21        21
        22        24        20        20
        28        33        25        25
        11         1        12        12
        31        30        17        17
         5         9        10        10
zone t="boundary 3 bc-3", solutiontime= 0.1000000E+02, strandid=1003, i=33, j=48, f=feblock
  0.375059200022E+01  0.249769659016E+01  0.500322189356E+01  0.403612276075E+01  0.287976836253E+01  0.124542007693E+01  0.190552302484E+01
  0.500000000000E+01  0.326671142352E+01  0.423253781876E+01  0.201271174245E+01 -0.547422452772E-02  0.958896036991E+00  0.500000000000E+01
  0.266968167030E+01  0.385584505517E+01  0.890374290241E+00  0.154654022521E+01  0.000000000000E+00  0.500000000000E+01  0.315261148394E+01
  0.218304203878E+01  0.398195315244E+01  0.000000000000E+00  0.697379959013E+00  0.963757272110E+00  0.125000000000E+01  0.000000000000E+00
  0.500000000000E+01  0.310330743906E+01  0.250000000000E+01  0.375000000000E+01  0.000000000000E+00
  0.250494212639E+01  0.250494212639E+01  0.250494212639E+01  0.250494212639E+01  0.250494212639E+01  0.250494212639E+01  0.250494212639E+01
  0.250494212639E+01  0.250494212639E+01  0.250494212639E+01  0.250494212639E+01  0.250494212639E+01  0.250494212639E+01  0.250494212639E+01
  0.250494212639E+01  0.250494212639E+01  0.250494212639E+01  0.250494212639E+01  0.250494212639E+01  0.250494212639E+01  0.250494212639E+01
  0.250494212639E+01  0.250494212639E+01  0.250494212639E+01  0.250494212639E+01  0.250494212639E+01  0.250494212639E+01  0.250494212639E+01
  0.250494212639E+01  0.250494212639E+01  0.250494212639E+01  0.250494212639E+01  0.250494212639E+01
  0.136457002285E-03  0.110483637804E-03  0.969506780631E-04  0.101756821126E+01  0.908095280136E+00  0.104842397884E-03  0.722629906057E+00
  0.125000000000E+01  0.188965717333E+01  0.191862733217E+01  0.176708303769E+01  0.808216924785E-04  0.969653363513E+00  0.250000000000E+01
  0.285339477238E+01  0.293325090921E+01  0.205656265140E+01  0.293157054662E+01  0.125000000000E+01  0.375000000000E+01  0.363766866044E+01
  0.396069465964E+01  0.407056399432E+01  0.250000000000E+01  0.307032015182E+01  0.397359832591E+01  0.500000000000E+01  0.375000000000E+01
  0.500000000000E+01  0.433260795381E+01  0.500000000000E+01  0.500000000000E+01  0.500000000000E+01
  0.999994925038E+00  0.999987724595E+00  0.100000371251E+01  0.999998917149E+00  0.999998092604E+00  0.100000699705E+01  0.100000016678E+01
  0.100000188089E+01  0.999999767437E+00  0.100000017059E+01  0.100000149896E+01  0.100001336552E+01  0.100000600879E+01  0.100000122981E+01
  0.100000120252E+01  0.100000069100E+01  0.100000354241E+01  0.100000243663E+01  0.100000777615E+01  0.100000081761E+01  0.100000115550E+01
  0.100000171716E+01  0.100000092820E+01  0.100000413192E+01  0.100000290841E+01  0.100000212728E+01  0.100000175223E+01  0.100000235543E+01
  0.100000067052E+01  0.100000132599E+01  0.100000167080E+01  0.100000118187E+01  0.100000143187E+01
  0.500025514334E+00  0.500031095648E+00  0.500006920716E+00  0.500013156610E+00  0.500017042259E+00  0.500006257967E+00  0.500011135247E+00
  0.500004200172E+00  0.500006735475E+00  0.500005578145E+00  0.500002934066E+00  0.499982530851E+00  0.499996516582E+00  0.500001727349E+00
  0.500000910219E+00  0.500001600089E+00  0.499997447272E+00  0.499998673606E+00  0.499991925708E+00  0.500000522565E+00  0.499999834332E+00
  0.499998748586E+00  0.499999841729E+00  0.499995725292E+00  0.499997381670E+00  0.499997865581E+00  0.499997730981E+00  0.499997548734E+00
  0.500000083810E+00  0.499999104950E+00  0.499998210507E+00  0.499998903042E+00  0.499998328651E+00
  0.000000000000E+00  0.000000000000E+00  0.000000000000E+00  0.000000000000E+00  0.000000000000E+00  0.000000000000E+00  0.000000000000E+00
  0.000000000000E+00  0.000000000000E+00  0.000000000000E+00  0.000000000000E+00  0.000000000000E+00  0.000000000000E+00  0.000000000000E+00
  0.000000000000E+00  0.000000000000E+00  0.000000000000E+00  0.000000000000E+00  0.000000000000E+00  0.000000000000E+00  0.000000000000E+00
  0.000000000000E+00  0.000000000000E+00  0.000000000000E+00  0.000000000000E+00  0.000000000000E+00  0.000000000000E+00  0.000000000000E+00
  0.000000000000E+00  0.000000000000E+00  0.000000000000E+00  0.000000000000E+00  0.000000000000E+00
 -0.326705388426E-05  0.608394521678E-05 -0.108258338144E-04 -0.483476062629E-05  0.145007081934E-05  0.196755356312E-04  0.107382077853E-04
 -0.392361108301E-05  0.150603897367E-05 -0.709297095809E-06  0.482313055047E-05  0.434851454582E-05  0.767169950385E-05  0.524165300997E-06
  0.258575847362E-05  0.101876816578E-05  0.380320580857E-05  0.320896635472E-05  0.935035024074E-06  0.152121523307E-05  0.185675420192E-05
  0.243001111736E-05  0.133669203307E-05  0.136486758345E-06  0.171868815407E-05  0.172857071570E-05  0.177510362991E-05  0.434118580099E-07
  0.982682952950E-06  0.175888145503E-05  0.175564632165E-05  0.125237308400E-05  0.858110602760E-06
  0.714280620407E+00  0.714273414977E+00  0.714289404940E+00  0.714284591915E+00  0.714283778903E+00  0.714292695333E+00  0.714285880629E+00
  0.714287571358E+00  0.714285492185E+00  0.714285884552E+00  0.714287225003E+00  0.714299091947E+00  0.714291721764E+00  0.714286954035E+00
  0.714286923709E+00  0.714286418247E+00  0.714289255710E+00  0.714288154095E+00  0.714293494151E+00  0.714286536711E+00  0.714286877833E+00
  0.714287431962E+00  0.714286647373E+00  0.714289844691E+00  0.714288623666E+00  0.714287840711E+00  0.714287467660E+00  0.714288069188E+00
  0.714286381681E+00  0.714287038384E+00  0.714287380739E+00  0.714286898674E+00  0.714287145528E+00
  0.500026028491E+00  0.500032331689E+00  0.500006557228E+00  0.500013278753E+00  0.500017242804E+00  0.500005564247E+00  0.500011118836E+00
  0.500004020435E+00  0.500006755072E+00  0.500005561198E+00  0.500002780078E+00  0.499981190139E+00  0.499995916230E+00  0.500001600888E+00
  0.500000787556E+00  0.500001526454E+00  0.499997093395E+00  0.499998428842E+00  0.499991146813E+00  0.500000439121E+00  0.499999715970E+00
  0.499998576696E+00  0.499999747201E+00  0.499995312635E+00  0.499997090494E+00  0.499997653157E+00  0.499997555363E+00  0.499997313377E+00
  0.500000017853E+00  0.499998973017E+00  0.499998044954E+00  0.499998783976E+00  0.499998185685E+00
  0.999997943521E+00  0.999995056312E+00  0.100000145440E+01  0.999999511532E+00  0.999999197859E+00  0.100000277640E+01  0.100000006610E+01
  0.100000071901E+01  0.999999921622E+00  0.100000006779E+01  0.100000061604E+01  0.100000536313E+01  0.100000240166E+01  0.100000050584E+01
  0.100000049068E+01  0.100000029454E+01  0.100000141558E+01  0.100000097910E+01  0.100000311564E+01  0.100000033378E+01  0.100000047346E+01
  0.100000068759E+01  0.100000037812E+01  0.100000165064E+01  0.100000116472E+01  0.100000084971E+01  0.100000070249E+01  0.100000094143E+01
  0.100000026383E+01  0.100000052775E+01  0.100000066223E+01  0.100000047627E+01  0.100000057187E+01
        15         9        16        16
        15        18        11        11
        22        15        21        21
        11         5         9         9
         5         7         2         2
        11         9        15        15
        16        21        15        15
        16        10        14        14
        18        17        11        11
        17        25        24        24
        22        18        15        15
        22        30        31        31
        30        21        23        23
        16        20        23        23
        22        27        26        26
        10         9         4         4
         7        11        13        13
        25        18        26        26
        11         7         5         5
         5         1         4         4
        17        19        13        13
        23        32        30        30
        23        20        29        29
         4         9         5         5
         4         8        10        10
        26        18        22        22
        26        28        25        25
        13        11        17        17
        13         6         7         7
        31        30        32        32
         2         1         5         5
         2         7         6         6
        14        10         8         8
        24        19        17        17
        24        25        28        28
         9        10        16        16
         3         4         1         1
        33        26        27        27
        12        13        19        19
        21        30        22        22
        16        14        20        20
        16        23        21        21
        22        31        27        27
        18        25        17        17
        26        33        28        28
         4         3         8         8
        23        29        32        32
        13        12         6         6
zone t="boundary 4 bc-4", solutiontime= 0.1000000E+02, strandid=1004, i=32, j=46, f=feblock
  0.125000000000E+01  0.219251206392E+01  0.103724302461E+01  0.500000000000E+01  0.250000000000E+01  0.375000000000E+01  0.404200324774E+01
  0.500000000000E+01  0.000000000000E+00  0.310152362409E+01  0.202479342020E+01  0.324151231464E+01  0.922061490191E+00  0.000000000000E+00
  0.299062775774E+01  0.394624082883E+01  0.500000000000E+01  0.409252726285E+01  0.500000000000E+01  0.429310310915E+01  0.175434191980E+01
  0.284428995242E+01  0.000000000000E+00  0.000000000000E+00  0.715990576545E+00  0.930412228790E+00  0.125000000000E+01  0.187029682677E+01
  0.500000000000E+01  0.375000000000E+01  0.250000000000E+01  0.000000000000E+00
  0.250494212639E+01  0.157686156160E+01  0.146289271009E+01  0.250494212639E+01  0.250494212639E+01  0.250494212639E+01  0.155830813274E+01
  0.125000000000E+01  0.250494212639E+01  0.177790177481E+01  0.477386199275E+00  0.742988685424E+00  0.308372018325E+00  0.125000000000E+01
 -0.487811078581E+00 -0.144524380962E+01 -0.125000000000E+01 -0.345533899378E+00  0.000000000000E+00  0.627766083140E+00 -0.739814786992E+00
 -0.158811787973E+01  0.000000000000E+00 -0.125000000000E+01 -0.600232012419E+00 -0.154800130438E+01 -0.249658889499E+01 -0.178862290564E+01
 -0.249658889499E+01 -0.249658889499E+01 -0.249658889499E+01 -0.249658889499E+01
  0.500000000000E+01  0.500000000000E+01  0.500000000000E+01  0.500000000000E+01  0.500000000000E+01  0.500000000000E+01  0.500000000000E+01
  0.500000000000E+01  0.500000000000E+01  0.500000000000E+01  0.500000000000E+01  0.500000000000E+01  0.500000000000E+01  0.500000000000E+01
  0.500000000000E+01  0.500000000000E+01  0.500000000000E+01  0.500000000000E+01  0.500000000000E+01  0.500000000000E+01  0.500000000000E+01
  0.500000000000E+01  0.500000000000E+01  0.500000000000E+01  0.500000000000E+01  0.500000000000E+01  0.500000000000E+01  0.500000000000E+01
  0.500000000000E+01  0.500000000000E+01  0.500000000000E+01  0.500000000000E+01
  0.100000175223E+01  0.100000172877E+01  0.100000161653E+01  0.100000067052E+01  0.100000167080E+01  0.100000118187E+01  0.100000108628E+01
  0.100000063993E+01  0.100000143187E+01  0.100000144836E+01  0.100000176880E+01  0.100000144673E+01  0.100000154079E+01  0.100000136816E+01
  0.100000156783E+01  0.100000115112E+01  0.100000063698E+01  0.100000113854E+01  0.100000064519E+01  0.100000099466E+01  0.100000186597E+01
  0.100000163337E+01  0.100000132999E+01  0.100000140029E+01  0.100000149332E+01  0.100000161713E+01  0.100000182154E+01  0.100000185807E+01
  0.100000071711E+01  0.100000126255E+01  0.100000173085E+01  0.100000146407E+01
  0.499997730981E+00  0.499997976820E+00  0.499997861645E+00  0.500000083810E+00  0.499998210507E+00  0.499998903042E+00  0.499998981881E+00
  0.500000123611E+00  0.499998328651E+00  0.499998519223E+00  0.499997834197E+00  0.499998443484E+00  0.499998010880E+00  0.499998529698E+00
  0.499998292588E+00  0.499998887716E+00  0.499999937087E+00  0.499998975656E+00  0.500000117031E+00  0.499999189446E+00  0.499997732926E+00
  0.499998212761E+00  0.499998570380E+00  0.499998450229E+00  0.499998099434E+00  0.499997861338E+00  0.499997622956E+00  0.499997685641E+00
  0.500000064143E+00  0.499998870508E+00  0.499997977860E+00  0.499998285663E+00
  0.000000000000E+00 -0.944261363599E-07 -0.756971692737E-07  0.000000000000E+00  0.000000000000E+00  0.000000000000E+00  0.119444732969E-06
  0.132279759648E-06  0.000000000000E+00 -0.184716794180E-07  0.225240515738E-07  0.179001627204E-07  0.423804754103E-07 -0.505894617438E-07
  0.577715938890E-07 -0.511845106022E-07 -0.231747540003E-07 -0.604008229161E-07  0.551910838214E-08  0.646722596155E-07  0.139773382984E-06
  0.561326330704E-07 -0.588711190579E-08  0.575702533014E-07  0.921436504371E-07  0.165929241867E-06  0.000000000000E+00  0.109644179320E-06
  0.000000000000E+00  0.000000000000E+00  0.000000000000E+00  0.000000000000E+00