# vtk DataFile Version 2.0
FUN3D:global_image_vtk
ASCII
DATASET UNSTRUCTURED_GRID
POINTS 213 double
   -0.5474224527720909E-02    0.2504942126394358E+01    0.8082169247845777E-04
    0.1245420076928180E+01    0.2504942126394358E+01    0.1048423978844127E-03
    0.2497696590161274E+01    0.2504942126394358E+01    0.1104836378041785E-03
    0.3750592000219316E+01    0.2504942126394358E+01    0.1364570022851220E-03
    0.5003221893557217E+01    0.2504942126394358E+01    0.9695067806313134E-04
    0.5004677757730219E+01    0.1281291915003748E+01    0.1646229492601449E-03
    0.5004773233265148E+01    0.2775197973138349E-01    0.1907234218277843E-03
    0.5003582221826500E+01   -0.1225852858120849E+01    0.1617086259254320E-03
    0.5001953053134515E+01   -0.2496588894990435E+01    0.1087092371910148E-03
    0.3750349122005903E+01   -0.2496588894990435E+01    0.1468754878927437E-03
    0.2498611963539534E+01   -0.2496588894990435E+01    0.1014099575163264E-03
    0.1247176261509345E+01   -0.2496588894990435E+01    0.1118958281412220E-03
   -0.3383469652505758E-02   -0.2496588894990435E+01    0.8163625863498397E-04
   -0.4256789880083962E-02   -0.1225734173006506E+01    0.3518765131218970E-04
   -0.5251125685753769E-02    0.2619601495648064E-01    0.1043778815052321E-03
   -0.5675101163537783E-02    0.1278222243531552E+01    0.8322052785167299E-04
    0.9003214217918744E+00    0.1608980307788059E+01    0.8747986548433789E-04
    0.3983173228635397E+01   -0.1561211262270739E+01    0.1766748276819930E-03
    0.4035602579387497E+01    0.1486761266126256E+01    0.1716707047749034E-03
    0.1036614706197667E+01   -0.1455625787809795E+01    0.1057334602207739E-03
    0.1094353949885713E+01   -0.2964610398744433E+00    0.1265432505361675E-03
    0.7298409877477202E+00    0.6874691505129548E+00    0.1054287519396114E-03
    0.1617019123563139E+01    0.8553219978666025E+00    0.1534204880539870E-03
    0.2143200653243216E+01   -0.1627127869725139E+01    0.1616130269572459E-03
    0.4088840979725205E+01   -0.4351036111829277E+00    0.2724113083121672E-03
    0.2977917509313599E+01   -0.8334984944101467E+00    0.2255152651590421E-03
    0.3044093743998181E+01   -0.1814360085633255E+01    0.1621866806658512E-03
    0.3427867629114899E+01    0.3813911924713182E+00    0.2945982523096237E-03
    0.4313225907775678E+01    0.5489145452820490E+00    0.2316713600814391E-03
    0.1823033713305475E+01    0.1771265914466481E+01    0.1845256528172624E-03
    0.2806311649527428E+01    0.1358630605767851E+01    0.1947351855950819E-03
    0.1891861854168224E+01   -0.8481303814147357E+00    0.1680436487611893E-03
    0.2268769674863770E+01    0.7723810290210215E-01    0.2076744628142081E-03
    0.5000000000000000E+01    0.2504942126394358E+01    0.1250000000000000E+01
    0.5000000000000000E+01    0.2504942126394358E+01    0.2500000000000000E+01
    0.5000000000000000E+01    0.2504942126394358E+01    0.3750000000000000E+01
    0.5000000000000000E+01    0.2504942126394358E+01    0.5000000000000000E+01
    0.3750000000000000E+01    0.2504942126394358E+01    0.5000000000000000E+01
    0.2500000000000000E+01    0.2504942126394358E+01    0.5000000000000000E+01
    0.1250000000000000E+01    0.2504942126394358E+01    0.5000000000000000E+01
    0.0000000000000000E+00    0.2504942126394358E+01    0.5000000000000000E+01
    0.0000000000000000E+00    0.2504942126394358E+01    0.3750000000000000E+01
    0.0000000000000000E+00    0.2504942126394358E+01    0.2500000000000000E+01
    0.0000000000000000E+00    0.2504942126394358E+01    0.1250000000000000E+01
    0.9588960369906027E+00    0.2504942126394358E+01    0.9696533635134074E+00
    0.3981953152437098E+01    0.2504942126394358E+01    0.4070563994318884E+01
    0.4036122760748993E+01    0.2504942126394358E+01    0.1017568211262069E+01
    0.9637572721097026E+00    0.2504942126394358E+01    0.3973598325910149E+01
    0.1546540225214412E+01    0.2504942126394358E+01    0.2931570546623369E+01
    0.6973799590125652E+00    0.2504942126394358E+01    0.3070320151822421E+01
    0.8903742902410691E+00    0.2504942126394358E+01    0.2056562651402181E+01
    0.2183042038777302E+01    0.2504942126394358E+01    0.3960694659644651E+01
    0.3855845055169345E+01    0.2504942126394358E+01    0.2933250909205840E+01
    0.3152611483938655E+01    0.2504942126394358E+01    0.3637668660441704E+01
    0.3103307439056897E+01    0.2504942126394358E+01    0.4332607953811380E+01
    0.3266711423523970E+01    0.2504942126394358E+01    0.1889657173325437E+01
    0.4232537818759956E+01    0.2504942126394358E+01    0.1918627332171121E+01
    0.1905523024841220E+01    0.2504942126394358E+01    0.7226299060569138E+00
    0.2879768362525143E+01    0.2504942126394358E+01    0.9080952801356742E+00
    0.2012711742451919E+01    0.2504942126394358E+01    0.1767083037689035E+01
    0.2669681670297483E+01    0.2504942126394358E+01    0.2853394772384842E+01
    0.5000000000000000E+01    0.1250000000000000E+01    0.5000000000000000E+01
    0.5000000000000000E+01    0.0000000000000000E+00    0.5000000000000000E+01
    0.5000000000000000E+01   -0.1250000000000000E+01    0.5000000000000000E+01
    0.5000000000000000E+01   -0.2496588894990435E+01    0.5000000000000000E+01
    0.5000000000000000E+01   -0.2496588894990435E+01    0.3750000000000000E+01
    0.5000000000000000E+01   -0.2496588894990435E+01    0.2500000000000000E+01
    0.5000000000000000E+01   -0.2496588894990435E+01    0.1250000000000000E+01
    0.5000000000000000E+01    0.1578994732800803E+01    0.9058375365086910E+00
    0.5000000000000000E+01   -0.1583989954232354E+01    0.3982050490726493E+01
    0.5000000000000000E+01    0.1453322699199022E+01    0.4033849428301197E+01
    0.5000000000000000E+01   -0.1479596339503735E+01    0.1040505887381675E+01
    0.5000000000000000E+01   -0.3227322616384110E+00    0.1099454400140349E+01
    0.5000000000000000E+01    0.6593508822075582E+00    0.7354504170366591E+00
    0.5000000000000000E+01    0.8256214013940779E+00    0.1622302608453282E+01
    0.5000000000000000E+01   -0.1650070333782557E+01    0.2145871574390382E+01
    0.5000000000000000E+01   -0.4612828702537229E+00    0.4086422318222992E+01
    0.5000000000000000E+01   -0.8579242121530853E+00    0.2979540174134984E+01
    0.5000000000000000E+01   -0.1836846154397680E+01    0.3045064261640043E+01
    0.5000000000000000E+01    0.3508002863614053E+00    0.3428197553792836E+01
    0.5000000000000000E+01    0.5185680230613409E+00    0.4309693860063405E+01
    0.5000000000000000E+01    0.1738996113203182E+01    0.1827272193562204E+01
    0.5000000000000000E+01    0.1325493893339706E+01    0.2808563282768077E+01
    0.5000000000000000E+01   -0.8731419609589618E+00    0.1895995683864404E+01
    0.5000000000000000E+01    0.4906150219227333E-01    0.2273179336307740E+01
    0.0000000000000000E+00    0.1250000000000000E+01    0.5000000000000000E+01
    0.0000000000000000E+00    0.0000000000000000E+00    0.5000000000000000E+01
    0.0000000000000000E+00   -0.1250000000000000E+01    0.5000000000000000E+01
    0.0000000000000000E+00   -0.2496588894990435E+01    0.5000000000000000E+01
    0.1250000000000000E+01   -0.2496588894990435E+01    0.5000000000000000E+01
    0.2500000000000000E+01   -0.2496588894990435E+01    0.5000000000000000E+01
    0.3750000000000000E+01   -0.2496588894990435E+01    0.5000000000000000E+01
    0.4042003247744892E+01    0.1558308132739014E+01    0.5000000000000000E+01
    0.9304122287900499E+00   -0.1548001304379777E+01    0.5000000000000000E+01
    0.1037243024609388E+01    0.1462892710085612E+01    0.5000000000000000E+01
    0.3946240828834967E+01   -0.1445243809615570E+01    0.5000000000000000E+01
    0.4092527262848217E+01   -0.3455338993778935E+00    0.5000000000000000E+01
    0.4293103109154542E+01    0.6277660831404320E+00    0.5000000000000000E+01
    0.3241512314643519E+01    0.7429886854239611E+00    0.5000000000000000E+01
    0.2844289952419609E+01   -0.1588117879734118E+01    0.5000000000000000E+01
    0.7159905765450471E+00   -0.6002320124191652E+00    0.5000000000000000E+01
    0.1754341919796891E+01   -0.7398147869923652E+00    0.5000000000000000E+01
    0.1870296826774691E+01   -0.1788622905643739E+01    0.5000000000000000E+01
    0.9220614901912976E+00    0.3083720183248586E+00    0.5000000000000000E+01
    0.3101523624086016E+01    0.1777901774806180E+01    0.5000000000000000E+01
    0.2192512063922564E+01    0.1576861561598471E+01    0.5000000000000000E+01
    0.2024793420196460E+01    0.4773861992750707E+00    0.5000000000000000E+01
    0.2990627757741975E+01   -0.4878110785814084E+00    0.5000000000000000E+01
    0.0000000000000000E+00   -0.2496588894990435E+01    0.1250000000000000E+01
    0.0000000000000000E+00   -0.2496588894990435E+01    0.2500000000000000E+01
    0.0000000000000000E+00   -0.2496588894990435E+01    0.3750000000000000E+01
    0.0000000000000000E+00    0.1558308132739014E+01    0.4042003247744892E+01
    0.0000000000000000E+00   -0.1548001304379777E+01    0.9304122287900499E+00
    0.0000000000000000E+00    0.1462892710085612E+01    0.1037243024609388E+01
    0.0000000000000000E+00   -0.1445243809615570E+01    0.3946240828834967E+01
    0.0000000000000000E+00   -0.3455338993778935E+00    0.4092527262848217E+01
    0.0000000000000000E+00    0.6277660831404320E+00    0.4293103109154542E+01
    0.0000000000000000E+00    0.7429886854239611E+00    0.3241512314643519E+01
    0.0000000000000000E+00   -0.1588117879734118E+01    0.2844289952419609E+01
    0.0000000000000000E+00   -0.6002320124191652E+00    0.7159905765450471E+00
    0.0000000000000000E+00   -0.7398147869923652E+00    0.1754341919796891E+01
    0.0000000000000000E+00   -0.1788622905643739E+01    0.1870296826774691E+01
    0.0000000000000000E+00    0.3083720183248586E+00    0.9220614901912976E+00
    0.0000000000000000E+00    0.1777901774806180E+01    0.3101523624086016E+01
    0.0000000000000000E+00    0.1576861561598471E+01    0.2192512063922564E+01
[...]
POINT_DATA 213
SCALARS rho double 1
LOOKUP_TABLE default
   0.1000013394379208E+01
   0.1000006941619109E+01
   0.9999876922192190E+00
   0.9999949321803840E+00
   0.1000003746917255E+01
   0.1000005635404460E+01
   0.9999935983449945E+00
   0.9999980904444395E+00
   0.9999990193006135E+00
   0.9999958278498221E+00
   0.9999943742987674E+00
   0.9999993885116012E+00
   0.1000020969757571E+01
   0.1000027295888664E+01
   0.1000020591940839E+01
   0.1000014895669004E+01
   0.1000016763515067E+01
   0.9999901503075382E+00
   0.9999910377445382E+00
   0.1000010249177901E+01
   0.1000010723310564E+01
   0.1000011943572294E+01
   0.1000006598421923E+01
   0.9999952873344440E+00
   0.9999822362800782E+00
   0.9999917479592242E+00
   0.9999938974389665E+00
   0.9999886141144233E+00
   0.9999818757203348E+00
   0.9999993434354597E+00
   0.9999907629137677E+00
   0.1000001587760522E+01
   0.1000001418153235E+01
   0.1000001773532217E+01
   0.1000001233570043E+01
   0.1000000849501907E+01
   0.1000000683849230E+01
   0.1000001186461374E+01
   0.1000001663216191E+01
   0.1000001781554805E+01
   0.1000001431642498E+01
   0.1000002374998997E+01
   0.1000004125122345E+01
   0.1000007789817212E+01
   0.1000005989294287E+01
   0.1000000961307795E+01
   0.9999988659589162E+00
   0.1000002125235193E+01
   0.1000002435476635E+01
   0.1000002896240756E+01
   0.1000003533297091E+01
   0.1000001712543373E+01
   0.1000000715578718E+01
   0.1000001156278657E+01
   0.1000001329571274E+01
   0.9999997385425300E+00
   0.1000000120960674E+01
   0.1000000157509615E+01
   0.9999979961583804E+00
   0.1000001506787860E+01
   0.1000001179056318E+01
   0.1000000667188672E+01
   0.1000000663359718E+01
   0.1000000660397050E+01
   0.1000000735155768E+01
   0.1000000960402865E+01
   0.1000001530570028E+01
   0.1000002262335244E+01
   0.1000001923318679E+01
   0.1000000725482428E+01
   0.1000000688904387E+01
   0.1000002655967704E+01
   0.1000005632454055E+01
   0.1000004767442637E+01
   0.1000000866331767E+01
   0.1000001953549523E+01
   0.1000000655916918E+01
   0.1000001414046596E+01
   0.1000001276735026E+01
   0.1000000944905045E+01
   0.1000000637934983E+01
   0.1000001440137950E+01
   0.1000000997039324E+01
   0.1000002322621070E+01
   0.1000001387100667E+01
   0.1000001361339212E+01
   0.1000001331775730E+01
   0.1000001398026606E+01
   0.1000001474789445E+01
   0.1000001847147827E+01
   0.1000001705609479E+01
   0.1000001252187058E+01
   0.1000001082099801E+01
   0.1000001634530961E+01
   0.1000001636231536E+01
   0.1000001123542438E+01
   0.1000001124489797E+01
   0.1000001014258126E+01
   0.1000001432413351E+01
   0.1000001608265762E+01
   0.1000001506560008E+01
   0.1000001875037344E+01
   0.1000001860896038E+01
   0.1000001554458678E+01
   0.1000001439274214E+01
   0.1000001729126539E+01
   0.1000001769209720E+01
   0.1000001546814464E+01
   0.1000009258725742E+01
   0.1000004426051904E+01
   0.1000002511561290E+01
   0.1000002103271758E+01
   0.1000011252773208E+01
   0.1000009099983041E+01
   0.1000002286874688E+01
   0.1000002163628503E+01
   0.1000001942380620E+01
   0.1000003119383525E+01
   0.1000003790008182E+01
   0.1000012790166529E+01
   0.1000006777350331E+01
   0.1000006446843912E+01
   0.1000010072667825E+01
   0.1000003206098877E+01
   0.1000004882861946E+01
   0.1000005651476904E+01
   0.1000003590488670E+01
   0.1000005468548140E+01
   0.1000001047936374E+01
   0.9999986512641744E+00
   0.1000002268259102E+01
   0.1000002423386964E+01
   0.1000003168759859E+01
   0.1000004080943554E+01
   0.1000001763073955E+01
   0.1000000809647532E+01
   0.1000001216525055E+01
   0.1000001395393876E+01
   0.9999995455234008E+00
   0.1000000492491467E+01
   0.1000000021582830E+01
   0.9999982284132194E+00
   0.1000001628238949E+01
   0.1000001331576571E+01
   0.1000001307409994E+01
   0.1000002036434073E+01
   0.1000002295459251E+01
   0.1000002825481731E+01
   0.1000003788766419E+01
   0.1000006333376755E+01
   0.1000003077530145E+01
   0.1000002610198814E+01
   0.1000002153816343E+01
   0.1000002888346887E+01
   0.1000002897225999E+01
   0.1000005881264442E+01
   0.1000001879125453E+01
   0.1000001359116843E+01
   0.1000000168712529E+01
   0.1000000600145610E+01
   0.1000001103354143E+01
   0.1000000586023438E+01
   0.1000001543334702E+01
   0.1000001719036171E+01
   0.1000001227108374E+01
   0.1000000793989680E+01
   0.1000001466884915E+01
   0.1000002039138316E+01
   0.1000004196318365E+01
   0.1000003195555915E+01
   0.1000001500480030E+01
   0.1000002008042518E+01
   0.1000003004511439E+01
   0.9999987284735703E+00
   0.1000003447903757E+01
   0.1000000215317888E+01
   0.1000000920813633E+01
   0.9999996510545036E+00
   0.1000000218073460E+01
   0.1000007146580147E+01
   0.1000005151170611E+01
   0.1000007009940766E+01
   0.1000000968499765E+01
   0.1000001464472164E+01
   0.1000000721022390E+01
   0.1000000422248938E+01
   0.9999999977325142E+00
   0.1000000824982217E+01
   0.1000001079538784E+01
   0.1000000956226226E+01
   0.1000001363030588E+01
   0.9999994241458628E+00
   0.9999992475035769E+00
   0.9999993359372571E+00
   0.9999999716862226E+00
   0.9999980401962837E+00
   0.9999985751974273E+00
   0.1000000633271478E+01
   0.9999997637782274E+00
   0.9999936939099829E+00
   0.1000002060311981E+01
   0.1000001743674149E+01
   0.1000001110692905E+01
   0.1000000888734246E+01
   0.9999957290679957E+00
   0.9999938733864382E+00
   0.9999969750200843E+00
   0.1000001564574483E+01
   0.1000001219406268E+01
   0.1000000930594190E+01
   0.1000000838756568E+01
   0.1000001756160594E+01
   0.9999946499120530E+00
SCALARS u double 1
LOOKUP_TABLE default
   0.4999825288584815E+00
   0.5000062048905307E+00
   0.5000311876916078E+00
   0.5000258798633039E+00
   0.5000072139090763E+00
   0.5000049634268763E+00
   0.5000128745802023E+00
   0.5000124187737658E+00
   0.5000136740586407E+00
   0.5000303021739074E+00
   0.5000272449384739E+00
   0.5000154320930394E+00
   0.4999841120102971E+00
   0.4999807642582381E+00
   0.4999820999934445E+00
   0.4999827442731702E+00
   0.4999933408142948E+00
   0.5000361756051146E+00
   0.5000294705314462E+00
   0.5000088486603513E+00
   0.5000019929064021E+00
   0.4999923320528610E+00
   0.5000114849202688E+00
   0.5000278042870054E+00
   0.5000416246931569E+00
   0.5000392087015924E+00
   0.5000333612165961E+00
   0.5000435778503343E+00
   0.5000362738275675E+00
   0.5000212482786152E+00
   0.5000319771483148E+00
   0.5000217664456603E+00
   0.5000269606670470E+00
   0.5000039057144877E+00
   0.5000016676886341E+00
   0.5000006257171067E+00
   0.5000001293014598E+00
   0.4999988050422326E+00
   0.4999979264413905E+00
   0.4999975729090281E+00
   0.4999983478289801E+00
   0.4999975391312392E+00
   0.4999957140027594E+00
   0.4999919002797971E+00
   0.4999965846198424E+00
   0.4999999340234116E+00
   0.5000125446121770E+00
   0.4999978491025509E+00
   0.4999987499778022E+00
   0.4999973896604269E+00
   0.4999974736216211E+00
   0.4999987272362151E+00
   0.5000018445629797E+00
   0.5000000246004841E+00
   0.4999990616877170E+00
   0.5000067748079640E+00
   0.5000053667021123E+00
   0.5000111376630821E+00
   0.5000165754427168E+00
   0.5000031295926343E+00
   0.5000011830697851E+00
   0.5000001476111040E+00
   0.5000001374554401E+00
   0.5000000065091627E+00
   0.5000001433538122E+00
   0.5000005227533997E+00
   0.5000016283213253E+00
   0.5000047265626665E+00
   0.5000056194475467E+00
   0.5000005533182752E+00
   0.5000005592244405E+00
   0.5000061895077085E+00
   0.5000032590431353E+00
   0.5000041819618511E+00
   0.5000046120609893E+00
   0.5000022160477158E+00
   0.5000004839656629E+00
   0.5000010381677111E+00
   0.5000009579499793E+00
   0.5000007428156474E+00
   0.5000004531638040E+00
   0.5000027830135887E+00
   0.5000014307918957E+00
   0.5000032414713137E+00
   0.5000024891356872E+00
   0.4999985758554405E+00
   0.4999986030174923E+00
   0.4999984677315266E+00
   0.4999983049115025E+00
   0.4999975343657412E+00
   0.4999978386698611E+00
   0.4999987864053313E+00
   0.4999990060106663E+00
   0.4999978285603531E+00
   0.4999977771557159E+00
   0.4999989716529578E+00
   0.4999990042305830E+00
   0.4999992099801558E+00
   0.4999983479980136E+00
   0.4999980881754961E+00
   0.4999980845854579E+00
   0.4999976136893799E+00
   0.4999975734096343E+00
   0.4999979666631080E+00
   0.4999983055116367E+00
   0.4999977866849699E+00
   0.4999977228313544E+00
   0.4999981933070275E+00
   0.4999906483959088E+00
   0.4999953887467758E+00
   0.4999973537123384E+00
   0.4999976995044266E+00
   0.4999865633749889E+00
   0.4999898150942730E+00
   0.4999975199999415E+00
   0.4999977523782083E+00
   0.4999979988204546E+00
   0.4999968040488114E+00
   0.4999957280679748E+00
   0.4999861050985301E+00
   0.4999923508644972E+00
   0.4999936537561985E+00
   0.4999879115750358E+00
   0.4999967422548715E+00
   0.4999947838257683E+00
   0.4999940404854727E+00
   0.4999961714821765E+00
   0.4999998747588589E+00
   0.5000000162246580E+00
   0.5000156512591594E+00
   0.4999977345676674E+00
   0.4999986827774847E+00
   0.4999971387292653E+00
   0.4999974162107555E+00
   0.4999987132348230E+00
   0.5000018152942434E+00
   0.5000001670884402E+00
   0.4999990888567331E+00
   0.5000072988527943E+00
   0.5000058310832257E+00
   0.5000146072523499E+00
   0.5000173427223337E+00
   0.5000038373366948E+00
   0.5000013572200521E+00
   0.5000010890587111E+00
   0.4999985419280467E+00
   0.4999987915838122E+00
   0.4999998924363656E+00
   0.4999963905149798E+00
   0.4999950174306370E+00
   0.5000006400742293E+00
   0.4999973651629795E+00
   0.4999982665200156E+00
   0.4999972230864886E+00
   0.4999994029984445E+00
   0.4999988351683135E+00
   0.4999980479613678E+00
   0.5000004044535651E+00
   0.5000056857030054E+00
   0.5000025902051336E+00
   0.5000004247039591E+00
   0.5000033011287026E+00
   0.4999988021719604E+00
   0.4999984716996117E+00
   0.4999992373585771E+00
   0.5000020029471570E+00
   0.5000003796192697E+00
   0.4999979581434104E+00
   0.4999960971058803E+00
   0.4999990137656774E+00
   0.5000045409670315E+00
   0.4999978239670613E+00
   0.4999972015437455E+00
   0.5000142808758035E+00
   0.5000085294710820E+00
   0.5000066066816748E+00
   0.5000033413348292E+00
   0.5000116198855644E+00
   0.5000051117838952E+00
   0.4999979943668607E+00
   0.4999954544998674E+00
   0.4999971505437307E+00
   0.4999997538355872E+00
   0.4999989712540651E+00
   0.5000036977844609E+00
   0.5000031445849340E+00
   0.5000089813444069E+00
   0.5000030129887377E+00
   0.5000005620220507E+00
   0.5000004041727789E+00
   0.5000012801595434E+00
   0.5000086834861914E+00
   0.5000130579792328E+00
   0.5000104189280888E+00
   0.5000060025611038E+00
   0.5000186239697118E+00
   0.5000134970844547E+00
   0.5000092908944573E+00
   0.5000132072630140E+00
   0.5000275540192750E+00
   0.4999983392032555E+00
   0.4999983067412748E+00
   0.4999994983767557E+00
   0.5000007290707064E+00
   0.5000230581935827E+00
   0.5000252981485687E+00
   0.5000225373109083E+00
   0.4999989109411780E+00
   0.4999998096001135E+00
   0.5000005482162404E+00
   0.5000040219285797E+00
   0.5000086932236868E+00
   0.5000253957123546E+00
SCALARS v double 1
LOOKUP_TABLE default
   0.0000000000000000E+00
   0.0000000000000000E+00
   0.0000000000000000E+00
   0.0000000000000000E+00
   0.0000000000000000E+00
  -0.8743410133850431E-05
  -0.1485917279031272E-05
   0.8064124676748608E-05
   0.0000000000000000E+00
   0.0000000000000000E+00
   0.0000000000000000E+00
   0.0000000000000000E+00
   0.0000000000000000E+00
   0.3533550934952785E-06
   0.3639554233857380E-05
   0.1415070299544154E-05
   0.1319597012574668E-05
   0.6902013227908915E-05
  -0.3471285901744810E-05
  -0.5870535376323418E-05
   0.1748312239933754E-05
   0.1655116865168746E-05
   0.3666212115312762E-05
  -0.6154061779938263E-05
   0.4439975873372255E-05
  -0.3410210363889910E-05
  -0.2021881867674121E-05
   0.2201726929642163E-05
  -0.5835796116812770E-05
   0.5624860281010893E-05
   0.6073156844971493E-05
  -0.5471216799447194E-05
   0.1501847691379484E-05
   0.0000000000000000E+00
   0.0000000000000000E+00
   0.0000000000000000E+00
   0.0000000000000000E+00
   0.0000000000000000E+00
   0.0000000000000000E+00
   0.0000000000000000E+00
   0.0000000000000000E+00
   0.0000000000000000E+00
   0.0000000000000000E+00
   0.0000000000000000E+00
   0.0000000000000000E+00
   0.0000000000000000E+00
   0.0000000000000000E+00
   0.0000000000000000E+00
   0.0000000000000000E+00
   0.0000000000000000E+00
   0.0000000000000000E+00
   0.0000000000000000E+00
   0.0000000000000000E+00
   0.0000000000000000E+00
   0.0000000000000000E+00
   0.0000000000000000E+00
   0.0000000000000000E+00
   0.0000000000000000E+00
   0.0000000000000000E+00
   0.0000000000000000E+00
   0.0000000000000000E+00
   0.9145105407526718E-07
   0.3444920330274525E-07
   0.1942690295584189E-07
   0.0000000000000000E+00
   0.0000000000000000E+00
   0.0000000000000000E+00
   0.0000000000000000E+00
  -0.1943616349751531E-05
   0.5574393856618953E-07
   0.2232835473337148E-06
   0.2211006294882624E-05
   0.1208813557433181E-05
  -0.2946912425378954E-05
   0.4841665984727200E-06
   0.9704361000284400E-07
   0.1821540203057222E-06
   0.1962774972261006E-06
  -0.7537083759235818E-07
   0.5270051763599925E-06
   0.2215921861203484E-06
  -0.2563977334261845E-07
   0.4837193343027954E-06
   0.4160942263732994E-06
   0.8912599554164960E-06
  -0.7767652996396559E-07
  -0.1423941872348056E-07
   0.6466971233996406E-07
   0.0000000000000000E+00
   0.0000000000000000E+00
   0.0000000000000000E+00
   0.0000000000000000E+00
   0.8252479614568521E-07
   0.1619600970216683E-06
  -0.8380916125177162E-07
  -0.1355701995618565E-07
  -0.1295509757934171E-07
   0.6099920941356190E-07
   0.2950576909141426E-07
   0.8169641650081684E-07
   0.8671418399377018E-07
   0.1360423830819676E-06
   0.1076037001589859E-06
   0.3888500185724098E-07
  -0.1474037728037196E-07
  -0.7693149538326181E-07
   0.3401886264782084E-07
   0.6563301340772400E-07
   0.0000000000000000E+00
   0.0000000000000000E+00
   0.0000000000000000E+00
   0.7395356561014458E-07
   0.8559198025740911E-07
   0.4364063396467881E-06
  -0.2649670410042466E-07
  -0.1162926875035870E-07
  -0.6629744282373861E-08
  -0.1680979651181208E-07
  -0.1021745365301023E-06
   0.2645147881547289E-05
   0.4382574578031351E-06
   0.3127216070868982E-07
   0.1713316535495117E-05
   0.6959894398481111E-07
   0.6730866996391227E-07
  -0.1578059978296426E-06
  -0.2178355160965382E-06
   0.0000000000000000E+00
   0.0000000000000000E+00
   0.0000000000000000E+00
   0.0000000000000000E+00
   0.0000000000000000E+00
   0.0000000000000000E+00
   0.0000000000000000E+00
   0.0000000000000000E+00
   0.0000000000000000E+00
   0.0000000000000000E+00
   0.0000000000000000E+00
   0.0000000000000000E+00
   0.0000000000000000E+00
   0.0000000000000000E+00
   0.0000000000000000E+00
   0.0000000000000000E+00
   0.0000000000000000E+00
   0.5525963366130493E-06
  -0.3481669437603947E-07
   0.2392635292779924E-06
   0.4952225634145211E-06
   0.1131808032380624E-06
   0.6621525168842679E-06
   0.1292953246843634E-05
  -0.1597106660597137E-07
   0.2192358755106100E-07
   0.5239093551471722E-07
   0.7225548238741118E-06
   0.1665859067500470E-05
   0.3424689854963125E-07
   0.3251400040706897E-06
   0.7746859064628718E-06
   0.5682867889949730E-06
   0.4057868229398896E-06
   0.7316199784485285E-06
   0.8940037932426739E-07
   0.1356131651195471E-07
   0.1250834703304959E-06
   0.4345514610317817E-06
   0.1195060143212444E-06
  -0.3433207794816044E-07
   0.1471921764339257E-06
  -0.1100366579488488E-06
  -0.2892286242365013E-06
   0.3916324379103500E-07
  -0.6891913734331928E-07
   0.3508271328766211E-05
   0.2506503181863806E-06
   0.9071927451358849E-06
   0.8248913731970864E-06
   0.3125241893103321E-05
   0.1455187697192823E-05
   0.1046768335996171E-05
  -0.4242488420425137E-07
   0.4623109850513223E-06
   0.1916308245174407E-06
   0.5726871376666324E-07
  -0.1607603555825407E-07
  -0.2328078558388780E-06
   0.3442923706897467E-06
  -0.1315690174458473E-06
  -0.5652511521005929E-07
   0.1169436891432278E-06
  -0.2146505981035519E-06
   0.4019714304309675E-06
  -0.2594999550514691E-05
   0.2011318742451904E-05
  -0.5993025914098884E-07
  -0.2491764736024244E-05
  -0.1325489862665806E-05
   0.3935459133795693E-06
   0.2388420907946600E-05
   0.1088258620148712E-05
   0.3325198177471749E-07
  -0.9026668176725461E-08
   0.7003462878661436E-07
   0.4234661078072468E-06
   0.1034016810837217E-05
  -0.1650064903342979E-06
   0.1890067334152388E-05
  -0.5153573714607011E-07
  -0.8325381350919634E-07
   0.2937745100992703E-06
  -0.5246193984818407E-06
  -0.1814466330854390E-05
   0.1869391077971116E-06
SCALARS w double 1
LOOKUP_TABLE default
   0.4411284171466476E-05
   0.1967231887993999E-04
   0.5900194901815162E-05
  -0.3361191988798041E-05
  -0.1054625565260381E-04
  -0.1631978982086752E-04
  -0.3167502577846270E-04
  -0.2163465602052219E-04
  -0.1439423457944925E-04
  -0.1412460191067705E-05
   0.6338675463175518E-05
   0.1220438860787200E-04
   0.1028338101187042E-04
   0.1450919259992295E-04
   0.4957308075997348E-05
   0.5000841893110181E-05
   0.2112908485810340E-04
  -0.7739414663141831E-05
  -0.6845470520059073E-05
   0.2359016961850697E-04
   0.2356137268949891E-04
   0.1480713164177809E-04
   0.2777871279427113E-04
   0.1349689003021561E-04
  -0.1284114181366524E-04
   0.1740598888069161E-04
   0.7328422991185970E-05
   0.1310313117582478E-04
  -0.2054042579149044E-04
   0.2122151486619808E-04
   0.1224820955227154E-04
   0.2764969132335066E-04
   0.3323675193485487E-04
  -0.3910823715916256E-05
   0.4267654890854928E-06
   0.1547356279750291E-05
   0.1062152338383595E-05
   0.1239246460403801E-05
   0.1670442486482404E-05
   0.1719326558236339E-05
   0.9002705063575901E-06
   0.5583068263765264E-07
   0.1497805111438778E-06
   0.9209456829377402E-06
   0.7678353229694533E-05
   0.1500341308567330E-05
  -0.4956170498259194E-05
   0.1660434013409197E-05
   0.3121578687158091E-05
   0.1658708807787529E-05
   0.3756939613583051E-05
   0.2332504000664914E-05
   0.1228589384837581E-05
   0.1977033801908134E-05
   0.1814573024029505E-05
   0.1657887783850109E-05
  -0.7232181268306229E-06
   0.1071061508731803E-04
   0.1383228593582793E-05
   0.4957167036952656E-05
   0.2725309886517868E-05
   0.9738150786889850E-06
   0.9355068179953083E-06
   0.9863525990206139E-06
   0.1125010967540387E-05
   0.1927526950139330E-05
   0.1326630174253751E-05
  -0.3881365336982232E-05
  -0.6817194606577549E-05
   0.1828976377551740E-05
   0.1601790888562782E-05
  -0.7651968506546194E-05
  -0.1110365438225601E-04
  -0.1556090749383966E-04
  -0.2386947446814587E-05
   0.7294741339486949E-06
   0.1808889233597849E-05
   0.2330071904156033E-05
   0.2019767145965658E-05
   0.2074823736990188E-05
   0.1604627980264275E-05
  -0.1337130323556652E-05
   0.1171893419224464E-05
   0.1349564136122189E-06
   0.1308676024597185E-05
   0.9478391451163234E-06
   0.8220517286705338E-06
   0.7818627089566440E-06
   0.8337490463321612E-06
   0.1772198841693579E-05
   0.1701147959613595E-05
   0.1328148586495946E-05
   0.1142283188479863E-05
   0.1698416431732381E-05
   0.1639033977138507E-05
   0.1316106817786865E-05
   0.1116007847167943E-05
   0.1023176448019909E-05
   0.1430129755841579E-05
   0.1641413536127585E-05
   0.1628281145157331E-05
   0.1811190722973117E-05
   0.1801082001176666E-05
   0.1720889802023125E-05
   0.1474269849563034E-05
   0.1774099122901698E-05
   0.1814213633821409E-05
   0.1547753085754910E-05
   0.2978059285855467E-05
   0.1896265970080123E-06
   0.2695578688769655E-07
   0.3403809749676625E-06
   0.5266714751291814E-05
   0.1466602348111099E-05
   0.3381739354989314E-06
   0.2999125630097430E-06
   0.3503472144212841E-06
   0.6581175510555366E-07
  -0.3924632316462500E-07
   0.4237295296058772E-05
  -0.3047224702814738E-06
   0.7448660550229484E-06
   0.2003107175255778E-06