# vtk DataFile Version 2.0
FUN3D:global_image_vtk
ASCII
DATASET UNSTRUCTURED_GRID
POINTS 213 double
   -0.5474224527720909E-02    0.2504942126394358E+01    0.8082169247845777E-04
    0.1245420076928180E+01    0.2504942126394358E+01    0.1048423978844127E-03
    0.2497696590161274E+01    0.2504942126394358E+01    0.1104836378041785E-03
    0.3750592000219316E+01    0.2504942126394358E+01    0.1364570022851220E-03
    0.5003221893557217E+01    0.2504942126394358E+01    0.9695067806313134E-04
    0.5004677757730219E+01    0.1281291915003748E+01    0.1646229492601449E-03
    0.5004773233265148E+01    0.2775197973138349E-01    0.1907234218277843E-03
    0.5003582221826500E+01   -0.1225852858120849E+01    0.1617086259254320E-03
    0.5001953053134515E+01   -0.2496588894990435E+01    0.1087092371910148E-03
    0.3750349122005903E+01   -0.2496588894990435E+01    0.1468754878927437E-03
    0.2498611963539534E+01   -0.2496588894990435E+01    0.1014099575163264E-03
    0.1247176261509345E+01   -0.2496588894990435E+01    0.1118958281412220E-03
   -0.3383469652505758E-02   -0.2496588894990435E+01    0.8163625863498397E-04
   -0.4256789880083962E-02   -0.1225734173006506E+01    0.3518765131218970E-04
   -0.5251125685753769E-02    0.2619601495648064E-01    0.1043778815052321E-03
   -0.5675101163537783E-02    0.1278222243531552E+01    0.8322052785167299E-04
    0.9003214217918744E+00    0.1608980307788059E+01    0.8747986548433789E-04
    0.3983173228635397E+01   -0.1561211262270739E+01    0.1766748276819930E-03
    0.4035602579387497E+01    0.1486761266126256E+01    0.1716707047749034E-03
    0.1036614706197667E+01   -0.1455625787809795E+01    0.1057334602207739E-03
    0.1094353949885713E+01   -0.2964610398744433E+00    0.1265432505361675E-03
    0.7298409877477202E+00    0.6874691505129548E+00    0.1054287519396114E-03
    0.1617019123563139E+01    0.8553219978666025E+00    0.1534204880539870E-03
    0.2143200653243216E+01   -0.1627127869725139E+01    0.1616130269572459E-03
    0.4088840979725205E+01   -0.4351036111829277E+00    0.2724113083121672E-03
    0.2977917509313599E+01   -0.8334984944101467E+00    0.2255152651590421E-03
    0.3044093743998181E+01   -0.1814360085633255E+01    0.1621866806658512E-03
    0.3427867629114899E+01    0.3813911924713182E+00    0.2945982523096237E-03
    0.4313225907775678E+01    0.5489145452820490E+00    0.2316713600814391E-03
    0.1823033713305475E+01    0.1771265914466481E+01    0.1845256528172624E-03
    0.2806311649527428E+01    0.1358630605767851E+01    0.1947351855950819E-03
    0.1891861854168224E+01   -0.8481303814147357E+00    0.1680436487611893E-03
    0.2268769674863770E+01    0.7723810290210215E-01    0.2076744628142081E-03
    0.5000000000000000E+01    0.2504942126394358E+01    0.1250000000000000E+01
    0.5000000000000000E+01    0.2504942126394358E+01    0.2500000000000000E+01
    0.5000000000000000E+01    0.2504942126394358E+01    0.3750000000000000E+01
    0.5000000000000000E+01    0.2504942126394358E+01    0.5000000000000000E+01
    0.3750000000000000E+01    0.2504942126394358E+01    0.5000000000000000E+01
    0.2500000000000000E+01    0.2504942126394358E+01    0.5000000000000000E+01
    0.1250000000000000E+01    0.2504942126394358E+01    0.5000000000000000E+01
    0.0000000000000000E+00    0.2504942126394358E+01    0.5000000000000000E+01
    0.0000000000000000E+00    0.2504942126394358E+01    0.3750000000000000E+01
    0.0000000000000000E+00    0.2504942126394358E+01    0.2500000000000000E+01
    0.0000000000000000E+00    0.2504942126394358E+01    0.1250000000000000E+01
    0.9588960369906027E+00    0.2504942126394358E+01    0.9696533635134074E+00
    0.3981953152437098E+01    0.2504942126394358E+01    0.4070563994318884E+01
    0.4036122760748993E+01    0.2504942126394358E+01    0.1017568211262069E+01
    0.9637572721097026E+00    0.2504942126394358E+01    0.3973598325910149E+01
    0.1546540225214412E+01    0.2504942126394358E+01    0.2931570546623369E+01
    0.6973799590125652E+00    0.2504942126394358E+01    0.3070320151822421E+01
    0.8903742902410691E+00    0.2504942126394358E+01    0.2056562651402181E+01
    0.2183042038777302E+01    0.2504942126394358E+01    0.3960694659644651E+01
    0.3855845055169345E+01    0.2504942126394358E+01    0.2933250909205840E+01
    0.3152611483938655E+01    0.2504942126394358E+01    0.3637668660441704E+01
    0.3103307439056897E+01    0.2504942126394358E+01    0.4332607953811380E+01
    0.3266711423523970E+01    0.2504942126394358E+01    0.1889657173325437E+01
    0.4232537818759956E+01    0.2504942126394358E+01    0.1918627332171121E+01
    0.1905523024841220E+01    0.2504942126394358E+01    0.7226299060569138E+00
    0.2879768362525143E+01    0.2504942126394358E+01    0.9080952801356742E+00
    0.2012711742451919E+01    0.2504942126394358E+01    0.1767083037689035E+01
    0.2669681670297483E+01    0.2504942126394358E+01    0.2853394772384842E+01
    0.5000000000000000E+01    0.1250000000000000E+01    0.5000000000000000E+01
    0.5000000000000000E+01    0.0000000000000000E+00    0.5000000000000000E+01
    0.5000000000000000E+01   -0.1250000000000000E+01    0.5000000000000000E+01
    0.5000000000000000E+01   -0.2496588894990435E+01    0.5000000000000000E+01
    0.5000000000000000E+01   -0.2496588894990435E+01    0.3750000000000000E+01
    0.5000000000000000E+01   -0.2496588894990435E+01    0.2500000000000000E+01
    0.5000000000000000E+01   -0.2496588894990435E+01    0.1250000000000000E+01
    0.5000000000000000E+01    0.1578994732800803E+01    0.9058375365086910E+00
    0.5000000000000000E+01   -0.1583989954232354E+01    0.3982050490726493E+01
    0.5000000000000000E+01    0.1453322699199022E+01    0.4033849428301197E+01
    0.5000000000000000E+01   -0.1479596339503735E+01    0.1040505887381675E+01
    0.5000000000000000E+01   -0.3227322616384110E+00    0.1099454400140349E+01
    0.5000000000000000E+01    0.6593508822075582E+00    0.7354504170366591E+00
    0.5000000000000000E+01    0.8256214013940779E+00    0.1622302608453282E+01
    0.5000000000000000E+01   -0.1650070333782557E+01    0.2145871574390382E+01
    0.5000000000000000E+01   -0.4612828702537229E+00    0.4086422318222992E+01
    0.5000000000000000E+01   -0.8579242121530853E+00    0.2979540174134984E+01
    0.5000000000000000E+01   -0.1836846154397680E+01    0.3045064261640043E+01
    0.5000000000000000E+01    0.3508002863614053E+00    0.3428197553792836E+01
    0.5000000000000000E+01    0.5185680230613409E+00    0.4309693860063405E+01
    0.5000000000000000E+01    0.1738996113203182E+01    0.1827272193562204E+01
    0.5000000000000000E+01    0.1325493893339706E+01    0.2808563282768077E+01
    0.5000000000000000E+01   -0.8731419609589618E+00    0.1895995683864404E+01
    0.5000000000000000E+01    0.4906150219227333E-01    0.2273179336307740E+01
    0.0000000000000000E+00    0.1250000000000000E+01    0.5000000000000000E+01
    0.0000000000000000E+00    0.0000000000000000E+00    0.5000000000000000E+01
    0.0000000000000000E+00   -0.1250000000000000E+01    0.5000000000000000E+01
    0.0000000000000000E+00   -0.2496588894990435E+01    0.5000000000000000E+01
    0.1250000000000000E+01   -0.2496588894990435E+01    0.5000000000000000E+01
    0.2500000000000000E+01   -0.2496588894990435E+01    0.5000000000000000E+01
    0.3750000000000000E+01   -0.2496588894990435E+01    0.5000000000000000E+01
    0.4042003247744892E+01    0.1558308132739014E+01    0.5000000000000000E+01
    0.9304122287900499E+00   -0.1548001304379777E+01    0.5000000000000000E+01
    0.1037243024609388E+01    0.1462892710085612E+01    0.5000000000000000E+01
    0.3946240828834967E+01   -0.1445243809615570E+01    0.5000000000000000E+01
    0.4092527262848217E+01   -0.3455338993778935E+00    0.5000000000000000E+01
    0.4293103109154542E+01    0.6277660831404320E+00    0.5000000000000000E+01
    0.3241512314643519E+01    0.7429886854239611E+00    0.5000000000000000E+01
    0.2844289952419609E+01   -0.1588117879734118E+01    0.5000000000000000E+01
    0.7159905765450471E+00   -0.6002320124191652E+00    0.5000000000000000E+01
    0.1754341919796891E+01   -0.7398147869923652E+00    0.5000000000000000E+01
    0.1870296826774691E+01   -0.1788622905643739E+01    0.5000000000000000E+01
    0.9220614901912976E+00    0.3083720183248586E+00    0.5000000000000000E+01
    0.3101523624086016E+01    0.1777901774806180E+01    0.5000000000000000E+01
    0.2192512063922564E+01    0.1576861561598471E+01    0.5000000000000000E+01
    0.2024793420196460E+01    0.4773861992750707E+00    0.5000000000000000E+01
    0.2990627757741975E+01   -0.4878110785814084E+00    0.5000000000000000E+01
    0.0000000000000000E+00   -0.2496588894990435E+01    0.1250000000000000E+01
    0.0000000000000000E+00   -0.2496588894990435E+01    0.2500000000000000E+01
    0.0000000000000000E+00   -0.2496588894990435E+01    0.3750000000000000E+01
    0.0000000000000000E+00    0.1558308132739014E+01    0.4042003247744892E+01
    0.0000000000000000E+00   -0.1548001304379777E+01    0.9304122287900499E+00
    0.0000000000000000E+00    0.1462892710085612E+01    0.1037243024609388E+01
    0.0000000000000000E+00   -0.1445243809615570E+01    0.3946240828834967E+01
    0.0000000000000000E+00   -0.3455338993778935E+00    0.4092527262848217E+01
    0.0000000000000000E+00    0.6277660831404320E+00    0.4293103109154542E+01
    0.0000000000000000E+00    0.7429886854239611E+00    0.3241512314643519E+01
    0.0000000000000000E+00   -0.1588117879734118E+01    0.2844289952419609E+01
    0.0000000000000000E+00   -0.6002320124191652E+00    0.7159905765450471E+00
    0.0000000000000000E+00   -0.7398147869923652E+00    0.1754341919796891E+01
    0.0000000000000000E+00   -0.1788622905643739E+01    0.1870296826774691E+01
    0.0000000000000000E+00    0.3083720183248586E+00    0.9220614901912976E+00
    0.0000000000000000E+00    0.1777901774806180E+01    0.3101523624086016E+01
    0.0000000000000000E+00    0.1576861561598471E+01    0.2192512063922564E+01
[...]
POINT_DATA 213
SCALARS rho double 1
LOOKUP_TABLE default
   0.1000013394379208E+01
   0.1000006941619109E+01
   0.9999876922192196E+00
   0.9999949321803848E+00
   0.1000003746917257E+01
   0.1000005635404456E+01
   0.9999935983449960E+00
   0.9999980904444388E+00
   0.9999990193006080E+00
   0.9999958278498174E+00
   0.9999943742987655E+00
   0.9999993885116010E+00
   0.1000020969757572E+01
   0.1000027295888664E+01
   0.1000020591940838E+01
   0.1000014895669004E+01
   0.1000016763515067E+01
   0.9999901503075357E+00
   0.9999910377445412E+00
   0.1000010249177900E+01
   0.1000010723310565E+01
   0.1000011943572293E+01
   0.1000006598421924E+01
   0.9999952873344429E+00
   0.9999822362800793E+00
   0.9999917479592250E+00
   0.9999938974389641E+00
   0.9999886141144255E+00
   0.9999818757203331E+00
   0.9999993434354598E+00
   0.9999907629137686E+00
   0.1000001587760521E+01
   0.1000001418153237E+01
   0.1000001773532216E+01
   0.1000001233570044E+01
   0.1000000849501906E+01
   0.1000000683849230E+01
   0.1000001186461375E+01
   0.1000001663216192E+01
   0.1000001781554806E+01
   0.1000001431642497E+01
   0.1000002374998997E+01
   0.1000004125122344E+01
   0.1000007789817212E+01
   0.1000005989294287E+01
   0.1000000961307794E+01
   0.9999988659589151E+00
   0.1000002125235193E+01
   0.1000002435476635E+01
   0.1000002896240757E+01
   0.1000003533297091E+01
   0.1000001712543372E+01
   0.1000000715578718E+01
   0.1000001156278657E+01
   0.1000001329571274E+01
   0.9999997385425295E+00
   0.1000000120960674E+01
   0.1000000157509615E+01
   0.9999979961583804E+00
   0.1000001506787860E+01
   0.1000001179056319E+01
   0.1000000667188674E+01
   0.1000000663359720E+01
   0.1000000660397051E+01
   0.1000000735155769E+01
   0.1000000960402867E+01
   0.1000001530570028E+01
   0.1000002262335246E+01
   0.1000001923318678E+01
   0.1000000725482427E+01
   0.1000000688904386E+01
   0.1000002655967706E+01
   0.1000005632454055E+01
   0.1000004767442637E+01
   0.1000000866331766E+01
   0.1000001953549523E+01
   0.1000000655916918E+01
   0.1000001414046595E+01
   0.1000001276735025E+01
   0.1000000944905045E+01
   0.1000000637934983E+01
   0.1000001440137952E+01
   0.1000000997039324E+01
   0.1000002322621069E+01
   0.1000001387100665E+01
   0.1000001361339213E+01
   0.1000001331775730E+01
   0.1000001398026607E+01
   0.1000001474789446E+01
   0.1000001847147826E+01
   0.1000001705609479E+01
   0.1000001252187058E+01
   0.1000001082099803E+01
   0.1000001634530961E+01
   0.1000001636231537E+01
   0.1000001123542438E+01
   0.1000001124489798E+01
   0.1000001014258129E+01
   0.1000001432413352E+01
   0.1000001608265761E+01
   0.1000001506560009E+01
   0.1000001875037343E+01
   0.1000001860896037E+01
   0.1000001554458678E+01
   0.1000001439274214E+01
   0.1000001729126540E+01
   0.1000001769209720E+01
   0.1000001546814465E+01
   0.1000009258725740E+01
   0.1000004426051905E+01
   0.1000002511561290E+01
   0.1000002103271758E+01
   0.1000011252773210E+01
   0.1000009099983042E+01
   0.1000002286874688E+01
   0.1000002163628503E+01
   0.1000001942380620E+01
   0.1000003119383524E+01
   0.1000003790008183E+01
   0.1000012790166528E+01
   0.1000006777350331E+01
   0.1000006446843912E+01
   0.1000010072667823E+01
   0.1000003206098877E+01
   0.1000004882861946E+01
   0.1000005651476904E+01
   0.1000003590488670E+01
   0.1000005468548140E+01
   0.1000001047936375E+01
   0.9999986512641756E+00
   0.1000002268259101E+01
   0.1000002423386964E+01
   0.1000003168759859E+01
   0.1000004080943554E+01
   0.1000001763073955E+01
   0.1000000809647531E+01
   0.1000001216525055E+01
   0.1000001395393876E+01
   0.9999995455234008E+00
   0.1000000492491467E+01
   0.1000000021582830E+01
   0.9999982284132203E+00
   0.1000001628238949E+01
   0.1000001331576571E+01
   0.1000001307409994E+01
   0.1000002036434073E+01
   0.1000002295459251E+01
   0.1000002825481730E+01
   0.1000003788766419E+01
   0.1000006333376754E+01
   0.1000003077530144E+01
   0.1000002610198814E+01
   0.1000002153816343E+01
   0.1000002888346887E+01
   0.1000002897225999E+01
   0.1000005881264442E+01
   0.1000001879125453E+01
   0.1000001359116843E+01
   0.1000000168712529E+01
   0.1000000600145610E+01
   0.1000001103354143E+01
   0.1000000586023438E+01
   0.1000001543334702E+01
   0.1000001719036171E+01
   0.1000001227108374E+01
   0.1000000793989680E+01
   0.1000001466884915E+01
   0.1000002039138316E+01
   0.1000004196318365E+01
   0.1000003195555915E+01
   0.1000001500480030E+01
   0.1000002008042518E+01
   0.1000003004511439E+01
   0.9999987284735694E+00
   0.1000003447903757E+01
   0.1000000215317888E+01
   0.1000000920813633E+01
   0.9999996510545041E+00
   0.1000000218073460E+01
   0.1000007146580147E+01
   0.1000005151170611E+01
   0.1000007009940766E+01
   0.1000000968499765E+01
   0.1000001464472164E+01
   0.1000000721022390E+01
   0.1000000422248937E+01
   0.9999999977325148E+00
   0.1000000824982217E+01
   0.1000001079538783E+01
   0.1000000956226226E+01
   0.1000001363030589E+01
   0.9999994241458622E+00
   0.9999992475035772E+00
   0.9999993359372571E+00
   0.9999999716862227E+00
   0.9999980401962831E+00
   0.9999985751974272E+00
   0.1000000633271477E+01
   0.9999997637782285E+00
   0.9999936939099831E+00
   0.1000002060311981E+01
   0.1000001743674149E+01
   0.1000001110692905E+01
   0.1000000888734246E+01
   0.9999957290679966E+00
   0.9999938733864395E+00
   0.9999969750200840E+00
   0.1000001564574483E+01
   0.1000001219406268E+01
   0.1000000930594190E+01
   0.1000000838756568E+01
   0.1000001756160594E+01
   0.9999946499120528E+00
SCALARS u double 1
LOOKUP_TABLE default
   0.4999825288584836E+00
   0.5000062048905322E+00
   0.5000311876916054E+00
   0.5000258798632939E+00
   0.5000072139090653E+00
   0.5000049634268700E+00
   0.5000128745802034E+00
   0.5000124187737758E+00
   0.5000136740586545E+00
   0.5000303021739169E+00
   0.5000272449384723E+00
   0.5000154320930377E+00
   0.4999841120102972E+00
   0.4999807642582380E+00
   0.4999820999934427E+00
   0.4999827442731695E+00
   0.4999933408142950E+00
   0.5000361756051220E+00
   0.5000294705314312E+00
   0.5000088486603513E+00
   0.5000019929064021E+00
   0.4999923320528596E+00
   0.5000114849202676E+00
   0.5000278042870058E+00
   0.5000416246931648E+00
   0.5000392087015955E+00
   0.5000333612165963E+00
   0.5000435778503327E+00
   0.5000362738275593E+00
   0.5000212482786157E+00
   0.5000319771483114E+00
   0.5000217664456614E+00
   0.5000269606670482E+00
   0.5000039057144977E+00
   0.5000016676886343E+00
   0.5000006257171066E+00
   0.5000001293014573E+00
   0.4999988050422271E+00
   0.4999979264413874E+00
   0.4999975729090265E+00
   0.4999983478289795E+00
   0.4999975391312388E+00
   0.4999957140027605E+00
   0.4999919002797958E+00
   0.4999965846198417E+00
   0.4999999340234114E+00
   0.5000125446121906E+00
   0.4999978491025505E+00
   0.4999987499778025E+00
   0.4999973896604266E+00
   0.4999974736216209E+00
   0.4999987272362149E+00
   0.5000018445629782E+00
   0.5000000246004846E+00
   0.4999990616877165E+00
   0.5000067748079660E+00
   0.5000053667021178E+00
   0.5000111376630817E+00
   0.5000165754427248E+00
   0.5000031295926345E+00
   0.5000011830697847E+00
   0.5000001476111047E+00
   0.5000001374554442E+00
   0.5000000065091613E+00
   0.5000001433538119E+00
   0.5000005227533998E+00
   0.5000016283213264E+00
   0.5000047265626587E+00
   0.5000056194475501E+00
   0.5000005533182742E+00
   0.5000005592244396E+00
   0.5000061895077027E+00
   0.5000032590431321E+00
   0.5000041819618523E+00
   0.5000046120609909E+00
   0.5000022160477148E+00
   0.5000004839656619E+00
   0.5000010381677115E+00
   0.5000009579499798E+00
   0.5000007428156480E+00
   0.5000004531638044E+00
   0.5000027830135919E+00
   0.5000014307918944E+00
   0.5000032414713131E+00
   0.5000024891356870E+00
   0.4999985758554393E+00
   0.4999986030174927E+00
   0.4999984677315256E+00
   0.4999983049115029E+00
   0.4999975343657410E+00
   0.4999978386698616E+00
   0.4999987864053310E+00
   0.4999990060106654E+00
   0.4999978285603535E+00
   0.4999977771557145E+00
   0.4999989716529569E+00
   0.4999990042305885E+00
   0.4999992099801657E+00
   0.4999983479980175E+00
   0.4999980881754965E+00
   0.4999980845854577E+00
   0.4999976136893803E+00
   0.4999975734096344E+00
   0.4999979666631072E+00
   0.4999983055116329E+00
   0.4999977866849680E+00
   0.4999977228313542E+00
   0.4999981933070288E+00
   0.4999906483959125E+00
   0.4999953887467753E+00
   0.4999973537123385E+00
   0.4999976995044265E+00
   0.4999865633749854E+00
   0.4999898150942719E+00
   0.4999975199999409E+00
   0.4999977523782094E+00
   0.4999979988204561E+00
   0.4999968040488120E+00
   0.4999957280679734E+00
   0.4999861050985321E+00
   0.4999923508644988E+00
   0.4999936537561969E+00
   0.4999879115750379E+00
   0.4999967422548718E+00
   0.4999947838257689E+00
   0.4999940404854722E+00
   0.4999961714821770E+00
   0.4999998747588592E+00
   0.5000000162246594E+00
   0.5000156512591534E+00
   0.4999977345676672E+00
   0.4999986827774840E+00
   0.4999971387292647E+00
   0.4999974162107558E+00
   0.4999987132348218E+00
   0.5000018152942444E+00
   0.5000001670884396E+00
   0.4999990888567325E+00
   0.5000072988527936E+00
   0.5000058310832229E+00
   0.5000146072523501E+00
   0.5000173427223320E+00
   0.5000038373366953E+00
   0.5000013572200519E+00
   0.5000010890587112E+00
   0.4999985419280464E+00
   0.4999987915838126E+00
   0.4999998924363658E+00
   0.4999963905149794E+00
   0.4999950174306372E+00
   0.5000006400742291E+00
   0.4999973651629798E+00
   0.4999982665200152E+00
   0.4999972230864889E+00
   0.4999994029984444E+00
   0.4999988351683132E+00
   0.4999980479613674E+00
   0.5000004044535650E+00
   0.5000056857030043E+00
   0.5000025902051317E+00
   0.5000004247039583E+00
   0.5000033011286993E+00
   0.4999988021719596E+00
   0.4999984716996111E+00
   0.4999992373585763E+00
   0.5000020029471566E+00
   0.5000003796192688E+00
   0.4999979581434104E+00
   0.4999960971058805E+00
   0.4999990137656773E+00
   0.5000045409670310E+00
   0.4999978239670613E+00
   0.4999972015437452E+00
   0.5000142808758035E+00
   0.5000085294710823E+00
   0.5000066066816745E+00
   0.5000033413348289E+00
   0.5000116198855639E+00
   0.5000051117838951E+00
   0.4999979943668604E+00
   0.4999954544998670E+00
   0.4999971505437300E+00
   0.4999997538355865E+00
   0.4999989712540648E+00
   0.5000036977844620E+00
   0.5000031445849353E+00
   0.5000089813444044E+00
   0.5000030129887388E+00
   0.5000005620220515E+00
   0.5000004041727781E+00
   0.5000012801595431E+00
   0.5000086834861942E+00
   0.5000130579792345E+00
   0.5000104189280883E+00
   0.5000060025611037E+00
   0.5000186239697120E+00
   0.5000134970844542E+00
   0.5000092908944566E+00
   0.5000132072630110E+00
   0.5000275540192762E+00
   0.4999983392032549E+00
   0.4999983067412739E+00
   0.4999994983767552E+00
   0.5000007290707054E+00
   0.5000230581935828E+00
   0.5000252981485704E+00
   0.5000225373109051E+00
   0.4999989109411775E+00
   0.4999998096001134E+00
   0.5000005482162406E+00
   0.5000040219285797E+00
   0.5000086932236865E+00
   0.5000253957123552E+00
SCALARS v double 1
LOOKUP_TABLE default
   0.0000000000000000E+00
   0.0000000000000000E+00
   0.0000000000000000E+00
   0.0000000000000000E+00
   0.0000000000000000E+00
  -0.8743410135439398E-05
  -0.1485917280507249E-05
   0.8064124670753943E-05
   0.0000000000000000E+00
   0.0000000000000000E+00
   0.0000000000000000E+00
   0.0000000000000000E+00
   0.0000000000000000E+00
   0.3533550941573929E-06
   0.3639554233977676E-05
   0.1415070300321533E-05
   0.1319597012980879E-05
   0.6902013224584944E-05
  -0.3471285901003787E-05
  -0.5870535375601109E-05
   0.1748312239486773E-05
   0.1655116864660440E-05
   0.3666212115182262E-05
  -0.6154061779248898E-05
   0.4439975868667845E-05
  -0.3410210364185101E-05
  -0.2021881868600862E-05
   0.2201726925314436E-05
  -0.5835796117486842E-05
   0.5624860281384132E-05
   0.6073156844807002E-05
  -0.5471216799531333E-05
   0.1501847690888608E-05
   0.0000000000000000E+00
   0.0000000000000000E+00
   0.0000000000000000E+00
   0.0000000000000000E+00
   0.0000000000000000E+00
   0.0000000000000000E+00
   0.0000000000000000E+00
   0.0000000000000000E+00
   0.0000000000000000E+00
   0.0000000000000000E+00
   0.0000000000000000E+00
   0.0000000000000000E+00
   0.0000000000000000E+00
   0.0000000000000000E+00
   0.0000000000000000E+00
   0.0000000000000000E+00
   0.0000000000000000E+00
   0.0000000000000000E+00
   0.0000000000000000E+00
   0.0000000000000000E+00
   0.0000000000000000E+00
   0.0000000000000000E+00
   0.0000000000000000E+00
   0.0000000000000000E+00
   0.0000000000000000E+00
   0.0000000000000000E+00
   0.0000000000000000E+00
   0.0000000000000000E+00
   0.9145105141925122E-07
   0.3444920002159025E-07
   0.1942690159246719E-07
   0.0000000000000000E+00
   0.0000000000000000E+00
   0.0000000000000000E+00
   0.0000000000000000E+00
  -0.1943616353258286E-05
   0.5574393840651764E-07
   0.2232835469259442E-06
   0.2211006292031126E-05
   0.1208813556020678E-05
  -0.2946912427418284E-05
   0.4841665984253927E-06
   0.9704361117193331E-07
   0.1821540188241412E-06
   0.1962774989486573E-06
  -0.7537083686392314E-07
   0.5270051770654363E-06
   0.2215921843136385E-06
  -0.2563977327813986E-07
   0.4837193363006475E-06
   0.4160942280142957E-06
   0.8912599584362256E-06
  -0.7767652978313564E-07
  -0.1423941861239752E-07
   0.6466971231733554E-07
   0.0000000000000000E+00
   0.0000000000000000E+00
   0.0000000000000000E+00
   0.0000000000000000E+00
   0.8252479251885853E-07
   0.1619600966141174E-06
  -0.8380916138779766E-07
  -0.1355702002602635E-07
  -0.1295509678835145E-07
   0.6099920709052618E-07
   0.2950576838745050E-07
   0.8169641657261445E-07
   0.8671418323748647E-07
   0.1360423823075088E-06
   0.1076036998744096E-06
   0.3888500082472985E-07
  -0.1474037989777596E-07
  -0.7693149605538117E-07
   0.3401886224232248E-07
   0.6563301533346185E-07
   0.0000000000000000E+00
   0.0000000000000000E+00
   0.0000000000000000E+00
   0.7395356567417254E-07
   0.8559197994445619E-07
   0.4364063397364803E-06
  -0.2649670373055281E-07
  -0.1162926828815522E-07
  -0.6629744027965866E-08
  -0.1680979657227874E-07
  -0.1021745362120681E-06
   0.2645147882296933E-05
   0.4382574586282628E-06
   0.3127216067952052E-07
   0.1713316535897399E-05
   0.6959894380699847E-07
   0.6730866987365789E-07
  -0.1578059979865872E-06
  -0.2178355161592641E-06
   0.0000000000000000E+00
   0.0000000000000000E+00
   0.0000000000000000E+00
   0.0000000000000000E+00
   0.0000000000000000E+00
   0.0000000000000000E+00
   0.0000000000000000E+00
   0.0000000000000000E+00
   0.0000000000000000E+00
   0.0000000000000000E+00
   0.0000000000000000E+00
   0.0000000000000000E+00
   0.0000000000000000E+00
   0.0000000000000000E+00
   0.0000000000000000E+00
   0.0000000000000000E+00
   0.0000000000000000E+00
   0.5525963367361545E-06
  -0.3481669448083635E-07
   0.2392635291077500E-06
   0.4952225637068825E-06
   0.1131808032282658E-06
   0.6621525173318030E-06
   0.1292953246844293E-05
  -0.1597106643756283E-07
   0.2192358766946176E-07
   0.5239093536041816E-07
   0.7225548237384302E-06
   0.1665859067686252E-05
   0.3424689811080134E-07
   0.3251400040282493E-06
   0.7746859078929937E-06
   0.5682867904373267E-06
   0.4057868225345033E-06
   0.7316199812437404E-06
   0.8940037912152214E-07
   0.1356131672749302E-07
   0.1250834693392012E-06
   0.4345514620780935E-06
   0.1195060139690517E-06
  -0.3433207792533190E-07
   0.1471921769139550E-06
  -0.1100366578614768E-06
  -0.2892286243402216E-06
   0.3916324339324714E-07
  -0.6891913714080479E-07
   0.3508271329395042E-05
   0.2506503178223525E-06
   0.9071927449346785E-06
   0.8248913738132126E-06
   0.3125241893211844E-05
   0.1455187697706609E-05
   0.1046768335827212E-05
  -0.4242488404343047E-07
   0.4623109851899103E-06
   0.1916308234973252E-06
   0.5726871394562315E-07
  -0.1607603338788343E-07
  -0.2328078552014983E-06
   0.3442923705872424E-06
  -0.1315690168154645E-06
  -0.5652511522066690E-07
   0.1169436886816575E-06
  -0.2146505981887680E-06
   0.4019714316481527E-06
  -0.2594999552789600E-05
   0.2011318743923808E-05
  -0.5993025842341519E-07
  -0.2491764736313322E-05
  -0.1325489862253270E-05
   0.3935459141588197E-06
   0.2388420907146230E-05
   0.1088258618519223E-05
   0.3325198183021704E-07
  -0.9026668947615445E-08
   0.7003462790730255E-07
   0.4234661079662905E-06
   0.1034016809106463E-05
  -0.1650064940914071E-06
   0.1890067333032689E-05
  -0.5153573810644453E-07
  -0.8325381429353305E-07
   0.2937745102904561E-06
  -0.5246193981788092E-06
  -0.1814466330943244E-05
   0.1869391063073003E-06
SCALARS w double 1
LOOKUP_TABLE default
   0.4411284171383955E-05
   0.1967231888053523E-04
   0.5900194905399834E-05
  -0.3361191983142296E-05
  -0.1054625564599945E-04
  -0.1631978981999527E-04
  -0.3167502577903020E-04
  -0.2163465602370314E-04
  -0.1439423458404952E-04
  -0.1412460195647457E-05
   0.6338675462422454E-05
   0.1220438860795253E-04
   0.1028338101166409E-04
   0.1450919259932430E-04
   0.4957308076269258E-05
   0.5000841893891819E-05
   0.2112908485806231E-04
  -0.7739414665699476E-05
  -0.6845470509524380E-05
   0.2359016961675937E-04
   0.2356137269106705E-04
   0.1480713164311730E-04
   0.2777871279425097E-04
   0.1349689002771455E-04
  -0.1284114181540185E-04
   0.1740598887888425E-04
   0.7328422985586067E-05
   0.1310313117716296E-04
  -0.2054042578570417E-04
   0.2122151486652129E-04
   0.1224820955511439E-04
   0.2764969132287609E-04
   0.3323675193550607E-04
  -0.3910823718379686E-05
   0.4267654883156598E-06
   0.1547356280490599E-05
   0.1062152336871428E-05
   0.1239246458850960E-05
   0.1670442486484101E-05
   0.1719326558383199E-05
   0.9002705080364220E-06
   0.5583068301420301E-07
   0.1497805111410864E-06
   0.9209456828080582E-06
   0.7678353230072176E-05
   0.1500341309117334E-05
  -0.4956170502274220E-05
   0.1660434013714679E-05
   0.3121578687066393E-05
   0.1658708808000313E-05
   0.3756939613781756E-05
   0.2332504000673296E-05
   0.1228589384148468E-05
   0.1977033802184360E-05
   0.1814573024060651E-05
   0.1657887781731773E-05
  -0.7232181285603092E-06
   0.1071061508840357E-04
   0.1383228591362172E-05
   0.4957167036105058E-05
   0.2725309885798911E-05
   0.9738150757296704E-06
   0.9355068167262099E-06
   0.9863525995394864E-06
   0.1125010968980596E-05
   0.1927526950409706E-05
   0.1326630175209086E-05
  -0.3881365335792346E-05
  -0.6817194607338791E-05
   0.1828976377423397E-05
   0.1601790886888709E-05
  -0.7651968506120402E-05
  -0.1110365438187044E-04
  -0.1556090749474933E-04
  -0.2386947446601931E-05
   0.7294741357151992E-06
   0.1808889231608850E-05
   0.2330071903407266E-05
   0.2019767145899500E-05
   0.2074823734510989E-05
   0.1604627977525123E-05
  -0.1337130325157321E-05
   0.1171893418366379E-05
   0.1349564152783201E-06
   0.1308676024632666E-05
   0.9478391460942199E-06
   0.8220517289143991E-06
   0.7818627084358325E-06
   0.8337490466066271E-06
   0.1772198842567837E-05
   0.1701147959390170E-05
   0.1328148588228774E-05
   0.1142283186354480E-05
   0.1698416432730106E-05
   0.1639033977554030E-05
   0.1316106818382164E-05
   0.1116007846487673E-05
   0.1023176445964335E-05
   0.1430129755878749E-05
   0.1641413535770365E-05
   0.1628281145300079E-05
   0.1811190723928669E-05
   0.1801082002112499E-05
   0.1720889802198155E-05
   0.1474269849382725E-05
   0.1774099123175667E-05
   0.1814213634115025E-05
   0.1547753083968895E-05
   0.2978059287091388E-05
   0.1896265970015442E-06
   0.2695578702360490E-07
   0.3403809752559098E-06
   0.5266714752723070E-05
   0.1466602348178760E-05
   0.3381739354804511E-06
   0.2999125633461436E-06
   0.3503472149629648E-06
   0.6581175506798650E-07
  -0.3924632331813959E-07
   0.4237295294881747E-05
  -0.3047224706635374E-06
   0.7448660549128747E-06
   0.2003107154856016E-06