# vtk DataFile Version 2.0
FUN3D:global_image_vtk
ASCII
DATASET UNSTRUCTURED_GRID
POINTS 213 double
   -0.5474685441690063E-02    0.2504941971167291E+01    0.8038138598631660E-04
    0.1245419105183471E+01    0.2504941971167291E+01    0.1039425058012577E-03
    0.2497696093128781E+01    0.2504941971167291E+01    0.1101298164666318E-03
    0.3750590968915823E+01    0.2504941971167291E+01    0.1356499004945289E-03
    0.5003221331742151E+01    0.2504941971167291E+01    0.9668873038864824E-04
    0.5004676687979097E+01    0.1281291202167039E+01    0.1638053019383238E-03
    0.5004772673778115E+01    0.2775079906482875E-01    0.1903478008444818E-03
    0.5003581183341212E+01   -0.1225853508883529E+01    0.1607765204485461E-03
    0.5001952533742191E+01   -0.2496589036641631E+01    0.1082258890299772E-03
    0.3750348111606544E+01   -0.2496589036641631E+01    0.1458753696816364E-03
    0.2498611462994928E+01   -0.2496589036641631E+01    0.1008933264248785E-03
    0.1247175269333275E+01   -0.2496589036641631E+01    0.1108587619167431E-03
   -0.3383959865718813E-02   -0.2496589036641631E+01    0.8107259626499711E-04
   -0.4257768979766491E-02   -0.1225734811642590E+01    0.3415458742306255E-04
   -0.5251592448510593E-02    0.2619486024420468E-01    0.1038724387187886E-03
   -0.5676060312425949E-02    0.1278221569065708E+01    0.8224601702155958E-04
    0.9003209617952568E+00    0.1608979112280158E+01    0.8704140727760987E-04
    0.3983172210692289E+01   -0.1561211904840279E+01    0.1757116720369488E-03
    0.4035602039224468E+01    0.1486760030415519E+01    0.1713312862101628E-03
    0.1036613723302903E+01   -0.1455626429916847E+01    0.1047189301531800E-03
    0.1094353480630801E+01   -0.2964622010671859E+00    0.1260590236920599E-03
    0.7298400267479992E+00    0.6874684746719115E+00    0.1044598640546622E-03
    0.1617018659308945E+01    0.8553208024939365E+00    0.1529810904969944E-03
    0.2143199662875790E+01   -0.1627128509216730E+01    0.1606170425224044E-03
    0.4088840445400889E+01   -0.4351047825936265E+00    0.2719933294106347E-03
    0.2977916511248925E+01   -0.8334991483094494E+00    0.2245596931860764E-03
    0.3044093241383418E+01   -0.1814361225108581E+01    0.1617000112418842E-03
    0.3427866614805211E+01    0.3813904839972497E+00    0.2936955483435208E-03
    0.4313225355351750E+01    0.5489133376342497E+00    0.2313009573594043E-03
    0.1823032737597358E+01    0.1771265193544254E+01    0.1836202887152137E-03
    0.2806311152168375E+01    0.1358629373600682E+01    0.1943492163988822E-03
    0.1891860875936711E+01   -0.8481310365607544E+00    0.1670645501816173E-03
    0.2268769200166910E+01    0.7723691819196579E-01    0.2072307783084761E-03
    0.5000000000000000E+01    0.2504941971167291E+01    0.1250000000000000E+01
    0.5000000000000000E+01    0.2504941971167291E+01    0.2500000000000000E+01
    0.5000000000000000E+01    0.2504941971167291E+01    0.3750000000000000E+01
    0.5000000000000000E+01    0.2504941971167291E+01    0.5000000000000000E+01
    0.3750000000000000E+01    0.2504941971167291E+01    0.5000000000000000E+01
    0.2500000000000000E+01    0.2504941971167291E+01    0.5000000000000000E+01
    0.1250000000000000E+01    0.2504941971167291E+01    0.5000000000000000E+01
    0.0000000000000000E+00    0.2504941971167291E+01    0.5000000000000000E+01
    0.0000000000000000E+00    0.2504941971167291E+01    0.3750000000000000E+01
    0.0000000000000000E+00    0.2504941971167291E+01    0.2500000000000000E+01
    0.0000000000000000E+00    0.2504941971167291E+01    0.1250000000000000E+01
    0.9588956434871085E+00    0.2504941971167291E+01    0.9696525519543872E+00
    0.3981953078951401E+01    0.2504941971167291E+01    0.4070563854751271E+01
    0.4036122187252336E+01    0.2504941971167291E+01    0.1017567520094671E+01
    0.9637572773153888E+00    0.2504941971167291E+01    0.3973598203142229E+01
    0.1546540136992396E+01    0.2504941971167291E+01    0.2931570169315600E+01
    0.6973799521244314E+00    0.2504941971167291E+01    0.3070319952453756E+01
    0.8903742148356887E+00    0.2504941971167291E+01    0.2056562238187738E+01
    0.2183041995146012E+01    0.2504941971167291E+01    0.3960694449828019E+01
    0.3855844872709870E+01    0.2504941971167291E+01    0.2933250588118630E+01
    0.3152611367438029E+01    0.2504941971167291E+01    0.3637668388416195E+01
    0.3103307385241870E+01    0.2504941971167291E+01    0.4332607813099731E+01
    0.3266711045517940E+01    0.2504941971167291E+01    0.1889656617463738E+01
    0.4232537554484796E+01    0.2504941971167291E+01    0.1918626969802351E+01
    0.1905522374036519E+01    0.2504941971167291E+01    0.7226290832134606E+00
    0.2879767723645806E+01    0.2504941971167291E+01    0.9080945892181983E+00
    0.2012711365064515E+01    0.2504941971167291E+01    0.1767082390977754E+01
    0.2669681472994637E+01    0.2504941971167291E+01    0.2853394335010791E+01
    0.5000000000000000E+01    0.1250000000000000E+01    0.5000000000000000E+01
    0.5000000000000000E+01    0.0000000000000000E+00    0.5000000000000000E+01
    0.5000000000000000E+01   -0.1250000000000000E+01    0.5000000000000000E+01
    0.5000000000000000E+01   -0.2496589036641631E+01    0.5000000000000000E+01
    0.5000000000000000E+01   -0.2496589036641631E+01    0.3750000000000000E+01
    0.5000000000000000E+01   -0.2496589036641631E+01    0.2500000000000000E+01
    0.5000000000000000E+01   -0.2496589036641631E+01    0.1250000000000000E+01
    0.5000000000000000E+01    0.1578994732800803E+01    0.9058375365086910E+00
    0.5000000000000000E+01   -0.1583989954232354E+01    0.3982050490726493E+01
    0.5000000000000000E+01    0.1453322699199022E+01    0.4033849428301197E+01
    0.5000000000000000E+01   -0.1479596339503735E+01    0.1040505887381675E+01
    0.5000000000000000E+01   -0.3227322616384110E+00    0.1099454400140349E+01
    0.5000000000000000E+01    0.6593508822075582E+00    0.7354504170366591E+00
    0.5000000000000000E+01    0.8256214013940779E+00    0.1622302608453282E+01
    0.5000000000000000E+01   -0.1650070333782557E+01    0.2145871574390382E+01
    0.5000000000000000E+01   -0.4612828702537229E+00    0.4086422318222992E+01
    0.5000000000000000E+01   -0.8579242121530853E+00    0.2979540174134984E+01
    0.5000000000000000E+01   -0.1836846154397680E+01    0.3045064261640043E+01
    0.5000000000000000E+01    0.3508002863614053E+00    0.3428197553792836E+01
    0.5000000000000000E+01    0.5185680230613409E+00    0.4309693860063405E+01
    0.5000000000000000E+01    0.1738996113203182E+01    0.1827272193562204E+01
    0.5000000000000000E+01    0.1325493893339706E+01    0.2808563282768077E+01
    0.5000000000000000E+01   -0.8731419609589618E+00    0.1895995683864404E+01
    0.5000000000000000E+01    0.4906150219227333E-01    0.2273179336307740E+01
    0.0000000000000000E+00    0.1250000000000000E+01    0.5000000000000000E+01
    0.0000000000000000E+00    0.0000000000000000E+00    0.5000000000000000E+01
    0.0000000000000000E+00   -0.1250000000000000E+01    0.5000000000000000E+01
    0.0000000000000000E+00   -0.2496589036641631E+01    0.5000000000000000E+01
    0.1250000000000000E+01   -0.2496589036641631E+01    0.5000000000000000E+01
    0.2500000000000000E+01   -0.2496589036641631E+01    0.5000000000000000E+01
    0.3750000000000000E+01   -0.2496589036641631E+01    0.5000000000000000E+01
    0.4042003247744892E+01    0.1558308132739014E+01    0.5000000000000000E+01
    0.9304122287900499E+00   -0.1548001304379777E+01    0.5000000000000000E+01
    0.1037243024609388E+01    0.1462892710085612E+01    0.5000000000000000E+01
    0.3946240828834967E+01   -0.1445243809615570E+01    0.5000000000000000E+01
    0.4092527262848217E+01   -0.3455338993778935E+00    0.5000000000000000E+01
    0.4293103109154542E+01    0.6277660831404320E+00    0.5000000000000000E+01
    0.3241512314643519E+01    0.7429886854239611E+00    0.5000000000000000E+01
    0.2844289952419609E+01   -0.1588117879734118E+01    0.5000000000000000E+01
    0.7159905765450471E+00   -0.6002320124191652E+00    0.5000000000000000E+01
    0.1754341919796891E+01   -0.7398147869923652E+00    0.5000000000000000E+01
    0.1870296826774691E+01   -0.1788622905643739E+01    0.5000000000000000E+01
    0.9220614901912976E+00    0.3083720183248586E+00    0.5000000000000000E+01
    0.3101523624086016E+01    0.1777901774806180E+01    0.5000000000000000E+01
    0.2192512063922564E+01    0.1576861561598471E+01    0.5000000000000000E+01
    0.2024793420196460E+01    0.4773861992750707E+00    0.5000000000000000E+01
    0.2990627757741975E+01   -0.4878110785814084E+00    0.5000000000000000E+01
    0.0000000000000000E+00   -0.2496589036641631E+01    0.1250000000000000E+01
    0.0000000000000000E+00   -0.2496589036641631E+01    0.2500000000000000E+01
    0.0000000000000000E+00   -0.2496589036641631E+01    0.3750000000000000E+01
    0.0000000000000000E+00    0.1558308132739014E+01    0.4042003247744892E+01
    0.0000000000000000E+00   -0.1548001304379777E+01    0.9304122287900499E+00
    0.0000000000000000E+00    0.1462892710085612E+01    0.1037243024609388E+01
    0.0000000000000000E+00   -0.1445243809615570E+01    0.3946240828834967E+01
    0.0000000000000000E+00   -0.3455338993778935E+00    0.4092527262848217E+01
    0.0000000000000000E+00    0.6277660831404320E+00    0.4293103109154542E+01
    0.0000000000000000E+00    0.7429886854239611E+00    0.3241512314643519E+01
    0.0000000000000000E+00   -0.1588117879734118E+01    0.2844289952419609E+01
    0.0000000000000000E+00   -0.6002320124191652E+00    0.7159905765450471E+00
    0.0000000000000000E+00   -0.7398147869923652E+00    0.1754341919796891E+01
    0.0000000000000000E+00   -0.1788622905643739E+01    0.1870296826774691E+01
    0.0000000000000000E+00    0.3083720183248586E+00    0.9220614901912976E+00
    0.0000000000000000E+00    0.1777901774806180E+01    0.3101523624086016E+01
    0.0000000000000000E+00    0.1576861561598471E+01    0.2192512063922564E+01
[...]
POINT_DATA 213
SCALARS rho double 1
LOOKUP_TABLE default
   0.1346125694796171E+01
   0.9572084527647177E+00
   0.9461020639078119E+00
   0.9421833077514675E+00
   0.8436100785905032E+00
   0.7742024922725259E+00
   0.7627632914204214E+00
   0.7661496233415012E+00
   0.8310481703367266E+00
   0.9353608197671142E+00
   0.9344036383958099E+00
   0.9615898876470030E+00
   0.1448480208888122E+01
   0.1495421840745494E+01
   0.1646754928386007E+01
   0.1426608058877444E+01
   0.1009808068720546E+01
   0.9511456929613183E+00
   0.9438291099370199E+00
   0.9574489508572960E+00
   0.9414832416640706E+00
   0.1037118221425504E+01
   0.9258147537148549E+00
   0.9322497228173983E+00
   0.9538141799783574E+00
   0.9520438484218445E+00
   0.9350971720205273E+00
   0.9565537237118930E+00
   0.9378700247680086E+00
   0.9303318784868111E+00
   0.9446515867126483E+00
   0.8862352513653066E+00
   0.9424046836435385E+00
   0.9637217255546094E+00
   0.1008362577771464E+01
   0.1006713364979950E+01
   0.1001959240549337E+01
   0.1003218316276310E+01
   0.1004120538082294E+01
   0.1005207992650280E+01
   0.1004249813847909E+01
   0.1008267843881786E+01
   0.1023867443067884E+01
   0.1063751875324936E+01
   0.1019386187162553E+01
   0.1001778934113208E+01
   0.9645975233959347E+00
   0.1005263110528869E+01
   0.1000745578316709E+01
   0.1008695104813589E+01
   0.1008032475142374E+01
   0.1002354650880921E+01
   0.9980224682790609E+00
   0.1000594440604981E+01
   0.1001621537589701E+01
   0.9828107810948312E+00
   0.9844011041687633E+00
   0.9834292502931208E+00
   0.9790423922415734E+00
   0.9904798796909297E+00
   0.9935224893886208E+00
   0.1002009103475674E+01
   0.1002132311998029E+01
   0.1002273033582340E+01
   0.1001793219489188E+01
   0.1009814972833392E+01
   0.1006499311746351E+01
   0.9560849990714075E+00
   0.9252996566846428E+00
   0.1007053712651865E+01
   0.1004491538498358E+01
   0.9144889717497044E+00
   0.9091476761027141E+00
   0.8752502590928943E+00
   0.9768039036525078E+00
   0.1000530366597898E+01
   0.1005826553460181E+01
   0.1012895293779665E+01
   0.1011677102427478E+01
   0.1010415988351595E+01
   0.1005456560095716E+01
   0.9909260255110187E+00
   0.1005152543423357E+01
   0.9860803849583196E+00
   0.1005592650627447E+01
   0.1004239968494962E+01
   0.1002886283632249E+01
   0.1003350788888626E+01
   0.1003998912068584E+01
   0.1005116700254013E+01
   0.1003224183257987E+01
   0.1002669183700799E+01
   0.1002590255848407E+01
   0.1004070004659131E+01
   0.1004304937933142E+01
   0.1001643036025503E+01
   0.1002279357321899E+01
   0.1002547248781977E+01
   0.1003472641567324E+01
   0.1003380931080900E+01
   0.1003233776571531E+01
   0.1004430854293399E+01
   0.1004325283197200E+01
   0.1003653379478006E+01
   0.1003719191863772E+01
   0.1004319534138409E+01
   0.1004463155501089E+01
   0.1003629980599647E+01
   0.1064490581493544E+01
   0.1028445780971468E+01
   0.1009607603147355E+01
   0.1006626774102676E+01
   0.1163979474301378E+01
   0.1086026004530845E+01
   0.1007908398971675E+01
   0.1007252664643614E+01
   0.1006796746946192E+01
   0.1013053608644299E+01
   0.1019342644427341E+01
   0.1235143811205288E+01
   0.1032536232933634E+01
   0.1046567728934203E+01
   0.1201703012923367E+01
   0.1014671125332394E+01
   0.1032295324199352E+01
   0.1028222151031623E+01
   0.1014641483573336E+01
   0.1029002257770447E+01
   0.1002002818476381E+01
   0.9607830580820055E+00
   0.1006859706957371E+01
   0.1001326954010039E+01
   0.1010800868392034E+01
   0.1012237273234303E+01
   0.1000940436429746E+01
   0.9979317235317201E+00
   0.9980683699440425E+00
   0.1001191956733436E+01
   0.9841985797708256E+00
   0.9815070579349491E+00
   0.9648654914695791E+00
   0.9680713427302862E+00
   0.9914149190810116E+00
   0.9910916479216320E+00
   0.9925598184525991E+00
   0.1001728510387250E+01
   0.9993250772469862E+00
   0.9941444029265147E+00
   0.1006981383545158E+01
   0.1022611654050734E+01
   0.1001121691833200E+01
   0.1008784265586799E+01
   0.1004775043985261E+01
   0.1009029447306728E+01
   0.9967197949768093E+00
   0.1005567613152644E+01
   0.1003325685873304E+01
   0.9949865129967023E+00
   0.9833521892790524E+00
   0.9944521638504084E+00
   0.9973482230863593E+00
   0.9932519263849505E+00
   0.1001312608249049E+01
   0.1003001448725934E+01
   0.1002189173482838E+01
   0.9947119516184391E+00
   0.9937839725485349E+00
   0.1004862069432106E+01
   0.1020102936709553E+01
   0.1005341234391229E+01
   0.9817063601277449E+00
   0.1004975501327930E+01
   0.1012376568815317E+01
   0.9873747459242614E+00
   0.9551282272141164E+00
   0.9865280377056406E+00
   0.9865952832622858E+00
   0.9920084248960089E+00
   0.9934470865439922E+00
   0.9960657346530504E+00
   0.1037405690909357E+01
   0.1033165796316030E+01
   0.1001443358073574E+01
   0.1001929574473309E+01
   0.9912286695852768E+00
   0.9911121698768728E+00
   0.9649300819288702E+00
   0.9933729920342939E+00
   0.1006089075111743E+01
   0.1001962080811798E+01
   0.9908628495068609E+00
   0.9742274508734918E+00
   0.9420781785086659E+00
   0.9821604770833160E+00
   0.9794777371334421E+00
   0.9704352201667026E+00
   0.9720842372276902E+00
   0.9557868488075295E+00
   0.9497981758175315E+00
   0.9529847958461074E+00
   0.1002637256815284E+01
   0.1002476301970757E+01
   0.1000513242287925E+01
   0.1001675737919762E+01
   0.9610108169557010E+00
   0.9492469479940656E+00
   0.9586432519906324E+00
   0.1001121462568685E+01
   0.1000500591166404E+01
   0.1001161102485526E+01
   0.9807429276960816E+00
   0.9805608284045669E+00
   0.9629214371681076E+00
SCALARS u double 1
LOOKUP_TABLE default
   0.0000000000000000E+00
   0.0000000000000000E+00
   0.0000000000000000E+00
   0.0000000000000000E+00
   0.0000000000000000E+00
   0.0000000000000000E+00
   0.0000000000000000E+00
   0.0000000000000000E+00
   0.0000000000000000E+00
   0.0000000000000000E+00
   0.0000000000000000E+00
   0.0000000000000000E+00
   0.0000000000000000E+00
   0.0000000000000000E+00
   0.0000000000000000E+00
   0.0000000000000000E+00
   0.0000000000000000E+00
   0.0000000000000000E+00
   0.0000000000000000E+00
   0.0000000000000000E+00
   0.0000000000000000E+00
   0.0000000000000000E+00
   0.0000000000000000E+00
   0.0000000000000000E+00
   0.0000000000000000E+00
   0.0000000000000000E+00
   0.0000000000000000E+00
   0.0000000000000000E+00
   0.0000000000000000E+00
   0.0000000000000000E+00
   0.0000000000000000E+00
   0.0000000000000000E+00
   0.0000000000000000E+00
   0.4946084390403301E+00
   0.5336296229396230E+00
   0.5182737288741371E+00
   0.4930696975718006E+00
   0.4847718119408594E+00
   0.4868108136215759E+00
   0.4891429098222740E+00
   0.4958014376856375E+00
   0.4899016128305094E+00
   0.4718097598415666E+00
   0.4448926899587164E+00
   0.4844425910270771E+00
   0.5097672109152619E+00
   0.4402157107389184E+00
   0.4949584587264927E+00
   0.5222981757400272E+00
   0.4962761335160894E+00
   0.5223877814044893E+00
   0.5038134104987519E+00
   0.5644352140169039E+00
   0.5245862239270116E+00
   0.4990946955700127E+00
   0.5729384848058992E+00
   0.5693720714277629E+00
   0.3752129680555525E+00
   0.4003935337289326E+00
   0.5599622500290227E+00
   0.5562276759088326E+00
   0.4942631174083065E+00
   0.4948654038379449E+00
   0.4925634782160295E+00
   0.4913991786278473E+00
   0.5162611628896504E+00
   0.5363588932424886E+00
   0.4951213607875163E+00
   0.4520531595291024E+00
   0.5129024774601982E+00
   0.5117690526466550E+00
   0.4786251287211853E+00
   0.4931155293858616E+00
   0.4600306954373310E+00
   0.5242629198942669E+00
   0.5299866667529138E+00
   0.5129711999262114E+00
   0.5328938855274172E+00
   0.5309772093587929E+00
   0.5309771260032683E+00
   0.5063651410167976E+00
   0.5279605765589305E+00
   0.5409254473520718E+00
   0.5363677255166447E+00
   0.5374194372046839E+00
   0.4965359093627150E+00
   0.4975361620576707E+00
   0.4963807509447994E+00
   0.4955144774623506E+00
   0.4904151887411503E+00
   0.4902491479027397E+00
   0.4861626503315324E+00
   0.4854037739486380E+00
   0.4931941380558107E+00
   0.4910329234529700E+00
   0.4831698316704793E+00
   0.4872469605539459E+00
   0.4880010969404937E+00
   0.4872294036566935E+00
   0.4882160211825612E+00
   0.4952567366102104E+00
   0.4900705809522941E+00
   0.4903581267311299E+00
   0.4944346859693041E+00
   0.4868163397682812E+00
   0.4892720557096086E+00
   0.4881455378810500E+00
   0.4878245184536384E+00
   0.4449022026406398E+00
   0.4700099664047582E+00
   0.4891756201751471E+00
   0.4885980866227766E+00
   0.4510286412221162E+00
   0.4681799610771218E+00
   0.4876648975240569E+00
   0.4868253758067004E+00
   0.4909267533148832E+00
   0.4793946319363186E+00
   0.4657884653213604E+00
   0.3794302312506666E+00
   0.4903697421167734E+00
   0.4487929174615824E+00
   0.4432385355260897E+00
   0.4845729179217864E+00
   0.4621884481320296E+00
   0.4663602298884570E+00
   0.4747774268406422E+00
   0.4893613112006183E+00
   0.5085681474237972E+00
   0.4304904287089585E+00
   0.4927280753895718E+00
   0.5320316185099455E+00
   0.4913826501723292E+00
   0.5209404404684796E+00
   0.5061319828047663E+00
   0.5690636320470002E+00
   0.5275039918422006E+00
   0.5015047795155801E+00
   0.5821373618613811E+00
   0.5691503700217418E+00
   0.3402452490602638E+00
   0.3785432685556853E+00
   0.5753091283338714E+00
   0.5668547247073886E+00
   0.5703055450940470E+00
   0.5291879661617325E+00
   0.5449833828652858E+00
   0.5719093999232527E+00
   0.5385694587091790E+00
   0.5475896936889277E+00
   0.5821565652939822E+00
   0.4925313046001146E+00
   0.5041557177772628E+00
   0.4961299804140887E+00
   0.5562803684740075E+00
   0.4757814624157537E+00
   0.4950174786318901E+00
   0.5496174672072778E+00
   0.5889519110818265E+00
   0.5839568631087249E+00
   0.5468163498067895E+00
   0.5803877175569199E+00
   0.5106055693788852E+00
   0.5029532236716211E+00
   0.5033085380851454E+00
   0.5676232052870114E+00
   0.5564629528967068E+00
   0.4947135441323420E+00
   0.5506799461326943E+00
   0.5513545696829873E+00
   0.5658254157230906E+00
   0.4919953536842100E+00
   0.4927852057935225E+00
   0.3865438338108561E+00
   0.3687907202102865E+00
   0.5574381187364844E+00
   0.5761778935277849E+00
   0.4194381851565614E+00
   0.5822999347244217E+00
   0.4268238595782715E+00
   0.5397390504913866E+00
   0.5016174621437436E+00
   0.5119228251417911E+00
   0.5048434168007312E+00
   0.5752768158184656E+00
   0.5878367583822556E+00
   0.5382358738623330E+00
   0.5679645541100907E+00
   0.5352016964049801E+00
   0.5338463699699361E+00
   0.5582293100247256E+00
   0.5511563293009430E+00
   0.4256775843519402E+00
   0.5272986084059184E+00
   0.5796794667591796E+00
   0.3318312940209045E+00
   0.4761441131774728E+00
   0.5446494937269645E+00
   0.4800669226981650E+00
   0.3006201115470304E+00
   0.5031625243250784E+00
   0.5017180913079282E+00
   0.5129133729797087E+00
   0.5414117118086924E+00
   0.3435217015008369E+00
   0.3398080158395747E+00
   0.3190194433778098E+00
   0.5066187045011923E+00
   0.5123864689540958E+00
   0.5329068386150687E+00
   0.5881307275880259E+00
   0.4644883168924273E+00
   0.3529622376807841E+00
SCALARS v double 1
LOOKUP_TABLE default
   0.0000000000000000E+00
   0.0000000000000000E+00
   0.0000000000000000E+00
   0.0000000000000000E+00
   0.0000000000000000E+00
   0.0000000000000000E+00
   0.0000000000000000E+00
   0.0000000000000000E+00
   0.0000000000000000E+00
   0.0000000000000000E+00
   0.0000000000000000E+00
   0.0000000000000000E+00
   0.0000000000000000E+00
   0.0000000000000000E+00
   0.0000000000000000E+00
   0.0000000000000000E+00
   0.0000000000000000E+00
   0.0000000000000000E+00
   0.0000000000000000E+00
   0.0000000000000000E+00
   0.0000000000000000E+00
   0.0000000000000000E+00
   0.0000000000000000E+00
   0.0000000000000000E+00
   0.0000000000000000E+00
   0.0000000000000000E+00
   0.0000000000000000E+00
   0.0000000000000000E+00
   0.0000000000000000E+00
   0.0000000000000000E+00
   0.0000000000000000E+00
   0.0000000000000000E+00
   0.0000000000000000E+00
   0.0000000000000000E+00
   0.0000000000000000E+00
   0.0000000000000000E+00
   0.0000000000000000E+00
   0.0000000000000000E+00
   0.0000000000000000E+00
   0.0000000000000000E+00
   0.0000000000000000E+00
   0.0000000000000000E+00
   0.0000000000000000E+00
   0.0000000000000000E+00
   0.0000000000000000E+00
   0.0000000000000000E+00
   0.0000000000000000E+00
   0.0000000000000000E+00
   0.0000000000000000E+00
   0.0000000000000000E+00
   0.0000000000000000E+00
   0.0000000000000000E+00
   0.0000000000000000E+00
   0.0000000000000000E+00
   0.0000000000000000E+00
   0.0000000000000000E+00
   0.0000000000000000E+00
   0.0000000000000000E+00
   0.0000000000000000E+00
   0.0000000000000000E+00
   0.0000000000000000E+00
   0.8513955360434593E-03
  -0.1262646023070807E-02
  -0.1293747196401532E-02
   0.0000000000000000E+00
   0.0000000000000000E+00
   0.0000000000000000E+00
   0.0000000000000000E+00
  -0.1933774494544080E-01
   0.5035656971514624E-03
   0.2213150726907385E-02
   0.1419313534927926E-01
  -0.6753674551774925E-02
  -0.8171004420975259E-02
  -0.1325788718021226E-01
   0.4993929178382683E-02
   0.7358934070795409E-03
   0.3478388764905902E-02
   0.1946723832699828E-02
   0.3168072266655895E-02
   0.1755557793783984E-02
  -0.7295454604876676E-02
  -0.6912294258198655E-04
   0.4552258095460383E-02
  -0.4165984000322045E-03
  -0.6650692158917985E-04
  -0.2024618782412657E-03
   0.8052041902679065E-03
   0.0000000000000000E+00
   0.0000000000000000E+00
   0.0000000000000000E+00
   0.0000000000000000E+00
   0.4747328653182878E-03
   0.1624022890307327E-02
  -0.1273125041853373E-02
  -0.9977717767269698E-03
  -0.2076428544261381E-02
  -0.9960615485169371E-03
  -0.7502640411780345E-03
  -0.7419340926138556E-03
   0.6055381866026551E-04
  -0.5966235993541739E-03
   0.8041021995715210E-03
  -0.1730002248433563E-02
   0.3146405561654711E-03
  -0.5710223163285712E-04
  -0.8890514618102988E-03
  -0.1052087353789007E-02
   0.0000000000000000E+00
   0.0000000000000000E+00
   0.0000000000000000E+00
  -0.1035601496445682E-02
  -0.7789944224353593E-02
   0.1821259126100599E-01
  -0.2902416971185579E-04
  -0.1377098222241661E-02
  -0.2028456947005346E-02
  -0.5613671772718900E-02
  -0.1620474381078240E-02
  -0.6357462322348899E-02
  -0.4327186037956736E-02
   0.1517793743078271E-02
   0.3300594270581619E-01
   0.4394529829078103E-04
  -0.2766565870397042E-02
   0.3629287488198582E-02
   0.3910358756424623E-03
   0.0000000000000000E+00
   0.0000000000000000E+00
   0.0000000000000000E+00
   0.0000000000000000E+00
   0.0000000000000000E+00
   0.0000000000000000E+00
   0.0000000000000000E+00
   0.0000000000000000E+00
   0.0000000000000000E+00
   0.0000000000000000E+00
   0.0000000000000000E+00
   0.0000000000000000E+00
   0.0000000000000000E+00
   0.0000000000000000E+00
   0.0000000000000000E+00
   0.0000000000000000E+00
   0.0000000000000000E+00
   0.5001778196299353E-02
   0.3214065065724471E-02
   0.8126045455211065E-02
   0.6096300950008907E-02
   0.1117411732735728E-01
   0.1403811528123828E-01
  -0.3216221144901109E-03
   0.5161911444149736E-02
   0.2930107585324294E-02
   0.3378096200237993E-02
   0.3728544903384030E-02
  -0.1469573980207901E-01
  -0.6136953896330338E-03
   0.6639776179997830E-02
   0.1457244614324566E-02
   0.1959300739018816E-02
   0.4263980430204636E-02
  -0.2812426158146370E-02
   0.1267609577194814E-02
   0.2851959414342221E-02
   0.1534868031405816E-02
   0.2563344866180217E-02
   0.2013569101301820E-02
   0.2154333995320243E-02
   0.8583998694346253E-02
  -0.3830083253380195E-02
   0.6155698670902299E-02
   0.4725666910429256E-04
  -0.4231582248166078E-03
  -0.1674129340542830E-01
  -0.4996659887244727E-02
  -0.4827349435059497E-02
   0.3399378242595951E-02
  -0.6077437487940605E-02
   0.3194967241519496E-04
  -0.3284948881754266E-01
  -0.3181989491005573E-02
   0.4581319063920214E-02
   0.9682240723923648E-03
   0.2133486665784303E-02
   0.4530687697946481E-02
   0.2692787741503319E-02
   0.3243073203970940E-02
   0.5223605127043777E-02
   0.1957627594950604E-02
   0.7485460677649199E-03
  -0.5693750210208578E-04
  -0.5322690140562763E-02
  -0.6972866624887517E-02
  -0.9635303160460126E-03
   0.1062718465646672E-02
  -0.2106021482052278E-02
  -0.3219291745888262E-02
  -0.2544864648770900E-02
  -0.4131306124126713E-02
  -0.7566170041721164E-02
  -0.2012358476861087E-02
   0.6515130175090668E-03
  -0.1916276468159455E-03
   0.1227816750977288E-02
  -0.3502806472663131E-02
   0.4846684277736444E-02
  -0.8642681610464237E-02
   0.3341930297509786E-04
  -0.3327777675256885E-03
   0.2558606058705645E-02
   0.1615750370951338E-02
   0.2039006090882484E-02
  -0.5641501447131419E-02
SCALARS w double 1
LOOKUP_TABLE default
   0.0000000000000000E+00
   0.0000000000000000E+00
   0.0000000000000000E+00
   0.0000000000000000E+00
   0.0000000000000000E+00
   0.0000000000000000E+00
   0.0000000000000000E+00
   0.0000000000000000E+00
   0.0000000000000000E+00
   0.0000000000000000E+00
   0.0000000000000000E+00
   0.0000000000000000E+00
   0.0000000000000000E+00
   0.0000000000000000E+00
   0.0000000000000000E+00
   0.0000000000000000E+00
   0.0000000000000000E+00
   0.0000000000000000E+00
   0.0000000000000000E+00
   0.0000000000000000E+00
   0.0000000000000000E+00
   0.0000000000000000E+00
   0.0000000000000000E+00
   0.0000000000000000E+00
   0.0000000000000000E+00
   0.0000000000000000E+00
   0.0000000000000000E+00
   0.0000000000000000E+00
   0.0000000000000000E+00
   0.0000000000000000E+00
   0.0000000000000000E+00
   0.0000000000000000E+00
   0.0000000000000000E+00
  -0.1007241858922397E+00
  -0.4245528620582256E-01
   0.7158753615129869E-03
   0.5704943558367123E-02
   0.5684952911821292E-03
   0.1606878242803340E-02
   0.3372604798002938E-02
   0.2364299402580518E-02
   0.4720647222282963E-03
   0.3528387233050058E-02
   0.4533336070131311E-01
   0.6563397479811828E-01
   0.8384124266406084E-03
  -0.2266132317405270E-01
   0.4271064976064486E-02
   0.1341970173599647E-01
   0.1029750710298252E-01
   0.4870834203713922E-01
   0.2381551735220000E-02
  -0.6534999693242989E-02
  -0.7372433721275571E-03
   0.3056375870817895E-03
   0.3846852349356083E-02
  -0.3893635252290465E-01
   0.1820273584096772E-01
   0.1120446069783650E-01
   0.3395774046044062E-01
   0.8380191415442788E-02
   0.4924617876956033E-02
   0.4973761413441439E-02
   0.4900522917453618E-02
   0.6056718409337254E-02
   0.2695309307556547E-02
  -0.4127769734062062E-01
  -0.9927104317847352E-01
  -0.1120360380853810E+00
   0.5144525313310233E-02
   0.4216388428306744E-02
  -0.1002595860482225E+00
  -0.9892594349067899E-01
  -0.9835483711505394E-01
  -0.9443969382457122E-01
  -0.6790972039197349E-01
   0.5196996620979247E-02
  -0.1927315220195651E-01
  -0.1563508313095209E-01
  -0.5964345919506816E-02
   0.6822779802463656E-02
  -0.7999951897209551E-01
  -0.2776431479434722E-01
  -0.8086526756575420E-01
  -0.5863339146028252E-01
   0.3073989812113508E-02
   0.2685175147707330E-02
   0.2644703078774330E-02
   0.3457404374778980E-02
   0.3998529298518223E-02
   0.1199876519473800E-02
  -0.1355432377612185E-03
   0.2028966191358630E-02
   0.4894373680659689E-02
   0.3864560753656033E-02
   0.1126430713200075E-02
   0.1188310627291982E-02
   0.1460245323284627E-02
  -0.2199459239789023E-04
   0.9121998348215095E-04
   0.4387187200718308E-02
   0.2712579859883894E-02
   0.2317255083761845E-02
   0.5007037344016920E-02
   0.1069971393882651E-02
   0.2707114404565307E-02
   0.2010664724067533E-02
   0.3391927294819103E-04
   0.8386260354652648E-01
   0.2832480964334064E-02
  -0.8469296581178848E-03
  -0.1274285298771243E-03
   0.1410903979825476E+00
   0.1236626536393907E+00
  -0.1228867735325732E-02
  -0.4383136247450467E-02
  -0.2804612791940897E-03
  -0.6477826838253264E-02
  -0.1895598713954004E-02
   0.1559394040483223E+00
   0.7528604328438591E-01
   0.2567550695077129E-01
   0.1661313051472771E+00