title="tecplot geometry and solution file"
variables = x y z rho u v w p mach temperature
zone t="boundary 1 bc-1", solutiontime= 0.2000000E+02, strandid=1001, i=32, j=46, f=feblock
  0.000000000000E+00  0.000000000000E+00  0.000000000000E+00  0.000000000000E+00  0.000000000000E+00  0.000000000000E+00  0.000000000000E+00
  0.000000000000E+00  0.000000000000E+00  0.000000000000E+00  0.000000000000E+00  0.000000000000E+00  0.000000000000E+00  0.000000000000E+00
  0.000000000000E+00  0.000000000000E+00  0.000000000000E+00  0.000000000000E+00  0.000000000000E+00  0.000000000000E+00  0.000000000000E+00
  0.000000000000E+00  0.000000000000E+00  0.000000000000E+00  0.000000000000E+00  0.000000000000E+00  0.000000000000E+00  0.000000000000E+00
  0.000000000000E+00  0.000000000000E+00  0.000000000000E+00  0.000000000000E+00
  0.250000000000E+01  0.250000000000E+01  0.125000000000E+01  0.146289271009E+01  0.157686156160E+01  0.308372018325E+00  0.000000000000E+00
 -0.125000000000E+01 -0.600232012419E+00  0.250000000000E+01  0.477386199275E+00  0.742988685424E+00 -0.739814786992E+00  0.177790177481E+01
  0.155830813274E+01  0.250000000000E+01 -0.250000000000E+01 -0.154800130438E+01 -0.487811078581E+00  0.250000000000E+01  0.627766083140E+00
 -0.345533899378E+00 -0.178862290564E+01 -0.158811787973E+01  0.125000000000E+01 -0.250000000000E+01 -0.144524380962E+01  0.000000000000E+00
 -0.125000000000E+01 -0.250000000000E+01 -0.250000000000E+01 -0.250000000000E+01
  0.000000000000E+00  0.125000000000E+01  0.000000000000E+00  0.103724302461E+01  0.219251206392E+01  0.922061490191E+00  0.000000000000E+00
  0.000000000000E+00  0.715990576545E+00  0.250000000000E+01  0.202479342020E+01  0.324151231464E+01  0.175434191980E+01  0.310152362409E+01
  0.404200324774E+01  0.375000000000E+01  0.000000000000E+00  0.930412228790E+00  0.299062775774E+01  0.500000000000E+01  0.429310310915E+01
  0.409252726285E+01  0.187029682677E+01  0.284428995242E+01  0.500000000000E+01  0.125000000000E+01  0.394624082883E+01  0.500000000000E+01
  0.500000000000E+01  0.250000000000E+01  0.375000000000E+01  0.500000000000E+01
  0.724984287505E+01  0.821478218511E+01  0.680643330196E+01  0.835880157402E+01  0.780795677462E+01  0.808060947513E+01  0.639491526810E+01
  0.691964820213E+01  0.773680781722E+01  0.755524866067E+01  0.754408493084E+01  0.730718613766E+01  0.741060962453E+01  0.735120917432E+01
  0.730334723640E+01  0.729602107189E+01  0.756311935008E+01  0.749827456296E+01  0.728993388682E+01  0.726827247196E+01  0.715891105707E+01
  0.720825183210E+01  0.709513412133E+01  0.718643916063E+01  0.711715409649E+01  0.706880190650E+01  0.700697945922E+01  0.697854069423E+01
  0.688453973458E+01  0.687515137912E+01  0.670108360297E+01  0.676115004347E+01
  0.000000000000E+00 -0.537246329928E+00  0.000000000000E+00 -0.334597093225E+00 -0.468743952712E+00 -0.359221926094E+00  0.000000000000E+00
  0.000000000000E+00 -0.414223542924E+00 -0.586631842498E+00 -0.473911695221E+00 -0.541349616536E+00 -0.429834185777E+00 -0.335881393468E+00
 -0.462840284352E+00 -0.566885528447E+00  0.000000000000E+00 -0.425073382105E+00 -0.530158820154E+00 -0.458391790576E+00 -0.497891352518E+00
 -0.472670751625E+00 -0.298203621769E+00 -0.483795618088E+00 -0.326726872086E+00 -0.347532081788E+00 -0.403881723211E+00 -0.337633444886E+00
 -0.302676651182E+00 -0.122779784416E+00 -0.156374460679E+00 -0.201243874742E+00
  0.000000000000E+00  0.000000000000E+00  0.000000000000E+00 -0.601726514141E-01 -0.852215189764E-01 -0.882972868933E-01  0.000000000000E+00
  0.000000000000E+00 -0.896208018159E-01  0.000000000000E+00 -0.114708578072E+00 -0.137386096749E+00 -0.233021066679E+00 -0.428613801061E-01
 -0.773912847212E-01  0.000000000000E+00  0.000000000000E+00 -0.199468393994E+00 -0.190918281990E+00  0.000000000000E+00 -0.167612148093E+00
 -0.241756801403E+00 -0.157547928509E+00 -0.138052066289E+00 -0.146598828795E+00  0.000000000000E+00 -0.188104821896E+00 -0.279638683451E+00
 -0.273555031716E+00  0.000000000000E+00  0.000000000000E+00  0.000000000000E+00
  0.000000000000E+00  0.180997612957E-02  0.000000000000E+00  0.474941605588E-01  0.125213607040E+00  0.518339810142E-01  0.000000000000E+00
  0.000000000000E+00  0.880767167154E-01  0.143046396955E+00  0.102549176568E+00  0.271248921964E+00  0.151778198621E+00  0.186855468442E+00
  0.224269746906E+00  0.258892232721E+00  0.000000000000E+00  0.277198845323E-01  0.214000360313E+00 -0.399631090710E-01  0.146842460100E+00
  0.190555766061E+00  0.917023217679E-01  0.177616962826E+00  0.133576159110E-01  0.289922502381E-01  0.100874343285E+00  0.148978573450E-01
  0.594860725995E-01  0.836690496425E-01  0.112356491661E+00  0.950503670011E-01
  0.295428972667E+01  0.512847545594E+01  0.300457390510E+01  0.384443516746E+01  0.429301251518E+01  0.413865189045E+01  0.338637736296E+01
  0.346100585112E+01  0.433395297033E+01  0.511343913181E+01  0.447764121573E+01  0.489674959895E+01  0.438699085814E+01  0.549592957047E+01
  0.434356709259E+01  0.470747751572E+01  0.460114663575E+01  0.456193637608E+01  0.480600683862E+01  0.519321348550E+01  0.466279026077E+01
  0.455842745351E+01  0.540272880303E+01  0.489642288050E+01  0.546724350258E+01  0.510130574351E+01  0.507225956099E+01  0.544830018889E+01
  0.534645204599E+01  0.570658432688E+01  0.560357035239E+01  0.548517865165E+01
  0.000000000000E+00  0.574666379550E+00  0.000000000000E+00  0.427782204128E+00  0.561467385797E+00  0.441115556247E+00  0.000000000000E+00
  0.000000000000E+00  0.488793524058E+00  0.620314121510E+00  0.546605308037E+00  0.641025234090E+00  0.562350629682E+00  0.378019914843E+00
  0.569984849986E+00  0.655715995964E+00  0.000000000000E+00  0.509656084884E+00  0.627403362956E+00  0.460060050205E+00  0.571239472688E+00
  0.599482893790E+00  0.338506662695E+00  0.546285844086E+00  0.345558392886E+00  0.346951764819E+00  0.453775001615E+00  0.419573895480E+00
  0.395407364708E+00  0.137829804943E+00  0.177962338974E+00  0.208833963515E+00
  0.570495897445E+00  0.874017773877E+00  0.618004067699E+00  0.643897236558E+00  0.769755480817E+00  0.717039063014E+00  0.741359050025E+00
  0.700239094537E+00  0.784242584513E+00  0.947528679207E+00  0.830942090325E+00  0.938179117021E+00  0.828782989873E+00  0.104667153610E+01
  0.832631084458E+00  0.903296256558E+00  0.851712764519E+00  0.851757410707E+00  0.922972646738E+00  0.100030631869E+01  0.911857447738E+00
  0.885346209257E+00  0.106605741271E+01  0.953878809725E+00  0.107544965303E+01  0.101033076544E+01  0.101344144459E+01  0.109301078817E+01
  0.108722342422E+01  0.116204249435E+01  0.117070595715E+01  0.113579051832E+01
        12        19        11        11
        11         5        12        12
        10        14         5         5
        19        13        11        11
        19        24        13        13
        30        23        24        24
        19        12        22        22
        28        22        21        21
        11        13         6         6
         7         6         9         9
        15        12        14        14
        18        13        23        23
        15        25        21        21
        27        19        22        22
        18         8         9         9
        27        31        24        24
         4        11         6         6
         5        14        12        12
         4         2         5         5
        21        12        15        15
        14        16        15        15
        24        19        27        27
        22        29        27        27
        23        26        18        18
        17         8        18        18
         5        11         4         4
         6         3         4         4
        26        23        30        30
         5         2        10        10
        16        14        10        10
         3         6         7         7
        21        25        28        28
        29        22        28        28
         6        13         9         9
         2         4         1         1
        31        27        32        32
        25        15        20        20
        24        23        13        13
         8         7         9         9
        13        18         9         9
        31        30        24        24
        12        21        22        22
        29        32        27        27
         3         1         4         4
        26        17        18        18
        16        20        15        15
zone t="boundary 2 bc-2", solutiontime= 0.2000000E+02, strandid=1002, i=33, j=48, f=feblock
  0.500000000000E+01  0.375000000000E+01  0.250000000000E+01  0.288078410721E+01  0.125000000000E+01  0.190974100652E+01  0.326683758169E+01
  0.201431602454E+01  0.000000000000E+00  0.963108083381E+00  0.500000000000E+01  0.403552511878E+01  0.423153924130E+01  0.500000000000E+01
  0.385533350601E+01  0.500000000000E+01  0.398173246726E+01  0.315249557942E+01  0.267000324704E+01  0.154774304040E+01  0.218329375016E+01
  0.893127759452E+00  0.000000000000E+00  0.698517061619E+00  0.964171764089E+00  0.310324758057E+01  0.000000000000E+00  0.000000000000E+00
  0.125000000000E+01  0.500000000000E+01  0.375000000000E+01  0.250000000000E+01  0.000000000000E+00
 -0.250000000000E+01 -0.250000000000E+01 -0.250000000000E+01 -0.250000000000E+01 -0.250000000000E+01 -0.250000000000E+01 -0.250000000000E+01
 -0.250000000000E+01 -0.250000000000E+01 -0.250000000000E+01 -0.250000000000E+01 -0.250000000000E+01 -0.250000000000E+01 -0.250000000000E+01
 -0.250000000000E+01 -0.250000000000E+01 -0.250000000000E+01 -0.250000000000E+01 -0.250000000000E+01 -0.250000000000E+01 -0.250000000000E+01
 -0.250000000000E+01 -0.250000000000E+01 -0.250000000000E+01 -0.250000000000E+01 -0.250000000000E+01 -0.250000000000E+01 -0.250000000000E+01
 -0.250000000000E+01 -0.250000000000E+01 -0.250000000000E+01 -0.250000000000E+01 -0.250000000000E+01
  0.000000000000E+00  0.000000000000E+00  0.000000000000E+00  0.904659890645E+00  0.000000000000E+00  0.717002441913E+00  0.188609243358E+01
  0.176246431481E+01  0.000000000000E+00  0.961328577125E+00  0.125000000000E+01  0.101201586758E+01  0.191586535653E+01  0.250000000000E+01
  0.293121848150E+01  0.375000000000E+01  0.406975391361E+01  0.363585050272E+01  0.285047954584E+01  0.292817774674E+01  0.395907379566E+01
  0.205246550326E+01  0.125000000000E+01  0.306828197606E+01  0.397245519226E+01  0.433168271247E+01  0.250000000000E+01  0.375000000000E+01
  0.500000000000E+01  0.500000000000E+01  0.500000000000E+01  0.500000000000E+01  0.500000000000E+01
  0.698751200822E+00  0.252343259198E+02  0.103996027229E+02  0.824098553390E+01  0.751600001283E+01  0.633699820167E+01  0.628421293723E+01
  0.620155861577E+01  0.756311935008E+01  0.674584588861E+01  0.525260774704E+01  0.573894320629E+01  0.637750333826E+01  0.643110986372E+01
  0.617351887487E+01  0.639867285922E+01  0.611686435866E+01  0.623552597544E+01  0.631517713343E+01  0.670196623149E+01  0.646475750079E+01
  0.681451901365E+01  0.706880190650E+01  0.699870280708E+01  0.678065072363E+01  0.617983132062E+01  0.687515137912E+01  0.670108360297E+01
  0.692273633460E+01  0.629246477592E+01  0.613023131615E+01  0.658672555198E+01  0.676115004347E+01
  0.000000000000E+00  0.000000000000E+00  0.000000000000E+00 -0.171687564955E+00  0.000000000000E+00 -0.207446933952E+00 -0.131588550837E+00
 -0.225481355335E+00  0.000000000000E+00 -0.244936937583E+00  0.202884711272E+00  0.769787225483E-01 -0.107785967395E+00 -0.372847715237E-02
 -0.739787237592E-01 -0.129752033737E-01  0.890685401467E-02 -0.204822771612E+00 -0.199287973358E+00 -0.220787370101E+00 -0.149186085028E+00
 -0.232631526074E+00 -0.347532081788E+00 -0.274303494021E+00 -0.259648692360E+00 -0.130859233830E+00 -0.122779784416E+00 -0.156374460679E+00
 -0.230000141079E+00  0.332960767229E-01 -0.149282551352E+00 -0.255647974536E+00 -0.201243874742E+00
  0.000000000000E+00  0.000000000000E+00  0.000000000000E+00  0.000000000000E+00  0.000000000000E+00  0.000000000000E+00  0.000000000000E+00
  0.000000000000E+00  0.000000000000E+00  0.000000000000E+00  0.000000000000E+00  0.000000000000E+00  0.000000000000E+00  0.000000000000E+00
  0.000000000000E+00  0.000000000000E+00  0.000000000000E+00  0.000000000000E+00  0.000000000000E+00  0.000000000000E+00  0.000000000000E+00
  0.000000000000E+00  0.000000000000E+00  0.000000000000E+00  0.000000000000E+00  0.000000000000E+00  0.000000000000E+00  0.000000000000E+00
  0.000000000000E+00  0.000000000000E+00  0.000000000000E+00  0.000000000000E+00  0.000000000000E+00
  0.000000000000E+00  0.000000000000E+00  0.000000000000E+00 -0.127806045336E+00  0.000000000000E+00 -0.736128875290E-01  0.633304595899E-01
  0.730715619911E-01  0.000000000000E+00 -0.925341399784E-02  0.645542788087E-01 -0.781647904358E-01  0.145031748877E+00  0.308590919858E+00
  0.347587882104E+00  0.415030637969E+00  0.385734669753E+00  0.334388429729E+00  0.269942144141E+00  0.242494430610E+00  0.275451661363E+00
  0.122270652101E+00  0.289922502381E-01  0.212529286611E+00  0.209725604218E+00  0.179515519550E+00  0.836690496425E-01  0.112356491661E+00
  0.117485663980E+00  0.192560142177E+00  0.457919900454E-01  0.579058629141E-01  0.950503670011E-01
  0.572806355037E+00  0.363044732717E+00  0.443510674561E+01  0.426171854628E+01  0.362507976835E+01  0.324535063987E+01  0.362368053995E+01
  0.360254652845E+01  0.460114663575E+01  0.353835676824E+01  0.365147988218E+01  0.365865846018E+01  0.393313857534E+01  0.418665608795E+01
  0.365502507102E+01  0.393964783540E+01  0.367455939538E+01  0.363185212339E+01  0.357082580719E+01  0.386356668762E+01  0.400561953445E+01
  0.409139054130E+01  0.510130574351E+01  0.433634511354E+01  0.441149823688E+01  0.415637078837E+01  0.570658432688E+01  0.560357035239E+01
  0.496197148337E+01  0.438406943801E+01  0.439349936672E+01  0.479857965675E+01  0.548517865165E+01
  0.000000000000E+00  0.000000000000E+00  0.000000000000E+00  0.251546388455E+00  0.000000000000E+00  0.259960695045E+00  0.162533980222E+00
  0.262831540935E+00  0.000000000000E+00  0.286033804406E+00  0.215813838078E+00  0.116124090377E+00  0.194467375005E+00  0.323266084523E+00
  0.390339045621E+00  0.447244003566E+00  0.420728753209E+00  0.434251590944E+00  0.377123536429E+00  0.365047463996E+00  0.336339896885E+00
  0.286652087811E+00  0.346951764819E+00  0.372577057814E+00  0.349724162887E+00  0.228934137326E+00  0.137829804943E+00  0.177962338974E+00
  0.257822166670E+00  0.197866072955E+00  0.155885404278E+00  0.259550069517E+00  0.208833963515E+00
  0.114766013441E+01  0.201417159872E-01  0.597056407762E+00  0.723991801740E+00  0.675241041383E+00  0.716978410160E+00  0.807285304715E+00
  0.813273799752E+00  0.851712764519E+00  0.734333330073E+00  0.973244544661E+00  0.892520044220E+00  0.863409035390E+00  0.911400776434E+00
  0.828868462727E+00  0.861976708437E+00  0.841016385504E+00  0.815423268666E+00  0.791609803563E+00  0.807075591825E+00  0.867452081157E+00
  0.840550411019E+00  0.101033076544E+01  0.867429768959E+00  0.910841419705E+00  0.941598370864E+00  0.116204249435E+01  0.117070595715E+01
  0.100347026681E+01  0.975404302094E+00  0.100337145471E+01  0.101993190189E+01  0.113579051832E+01
        15         7        19        19
         8        20        19        19
        18        19        21        21
         7         4         8         8
         3         6         4         4
        19         7         8         8
        19        18        15        15
        14        13        15        15
         8        22        20        20
        27        24        22        22
        19        20        21        21
        32        26        21        21
        17        18        26        26
        17        16        15        15
        25        29        21        21
        12         7        13        13
        10         8         6         6
        25        20        24        24
         4         6         8         8
        12         2         4         4
        10        23        22        22
        26        31        17        17
        30        16        17        17
         4         7        12        12
        13        11        12        12
        21        20        25        25
        24        28        25        25
        22         8        10        10
         6         5        10        10
        31        26        32        32
         4         2         3         3
         5         6         3         3
        11        13        14        14
        22        23        27        27
        28        24        27        27
        15        13         7         7
         2        12         1         1
        29        25        33        33
        23        10         9         9
        21        26        18        18
        16        14        15        15
        18        17        15        15
        29        32        21        21
        22        24        20        20
        28        33        25        25
        11         1        12        12
        31        30        17        17
         5         9        10        10
zone t="boundary 3 bc-3", solutiontime= 0.2000000E+02, strandid=1003, i=33, j=48, f=feblock
  0.375000000000E+01  0.250000000000E+01  0.500000000000E+01  0.403552511878E+01  0.288078410721E+01  0.125000000000E+01  0.190974100652E+01
  0.500000000000E+01  0.326683758169E+01  0.423153924130E+01  0.201431602454E+01  0.000000000000E+00  0.963108083381E+00  0.500000000000E+01
  0.267000324704E+01  0.385533350601E+01  0.893127759452E+00  0.154774304040E+01  0.000000000000E+00  0.500000000000E+01  0.315249557942E+01
  0.218329375016E+01  0.398173246726E+01  0.000000000000E+00  0.698517061619E+00  0.964171764089E+00  0.125000000000E+01  0.000000000000E+00
  0.500000000000E+01  0.310324758057E+01  0.250000000000E+01  0.375000000000E+01  0.000000000000E+00
  0.250000000000E+01  0.250000000000E+01  0.250000000000E+01  0.250000000000E+01  0.250000000000E+01  0.250000000000E+01  0.250000000000E+01
  0.250000000000E+01  0.250000000000E+01  0.250000000000E+01  0.250000000000E+01  0.250000000000E+01  0.250000000000E+01  0.250000000000E+01
  0.250000000000E+01  0.250000000000E+01  0.250000000000E+01  0.250000000000E+01  0.250000000000E+01  0.250000000000E+01  0.250000000000E+01
  0.250000000000E+01  0.250000000000E+01  0.250000000000E+01  0.250000000000E+01  0.250000000000E+01  0.250000000000E+01  0.250000000000E+01
  0.250000000000E+01  0.250000000000E+01  0.250000000000E+01  0.250000000000E+01  0.250000000000E+01
  0.000000000000E+00  0.000000000000E+00  0.000000000000E+00  0.101201586758E+01  0.904659890645E+00  0.000000000000E+00  0.717002441913E+00
  0.125000000000E+01  0.188609243358E+01  0.191586535653E+01  0.176246431481E+01  0.000000000000E+00  0.961328577125E+00  0.250000000000E+01
  0.285047954584E+01  0.293121848150E+01  0.205246550326E+01  0.292817774674E+01  0.125000000000E+01  0.375000000000E+01  0.363585050272E+01
  0.395907379566E+01  0.406975391361E+01  0.250000000000E+01  0.306828197606E+01  0.397245519226E+01  0.500000000000E+01  0.375000000000E+01
  0.500000000000E+01  0.433168271247E+01  0.500000000000E+01  0.500000000000E+01  0.500000000000E+01
  0.241097737658E+02  0.142841454686E+02  0.694749490676E+00  0.146483863168E+01  0.152568675819E+02  0.815002828679E+01  0.859590270405E+01
  0.555353785707E+01  0.838747166191E+01  0.887771126979E+01  0.782907305828E+01  0.724984287505E+01  0.797982702627E+01  0.827478711766E+01
  0.791677578563E+01  0.793798797218E+01  0.793622166250E+01  0.799972448210E+01  0.821478218511E+01  0.790950369224E+01  0.792172382386E+01
  0.772511718743E+01  0.777601221871E+01  0.755524866067E+01  0.770889965391E+01  0.752140263946E+01  0.778303324545E+01  0.729602107189E+01
  0.788495143747E+01  0.779857234574E+01  0.804754938702E+01  0.798612882535E+01  0.726827247196E+01
  0.000000000000E+00  0.000000000000E+00  0.000000000000E+00  0.624120059604E+00  0.203265738306E-01  0.000000000000E+00 -0.933653893106E-01
  0.104321892569E+00 -0.100998866824E+00 -0.128334004210E+00 -0.193188819975E+00  0.000000000000E+00 -0.275722710970E+00  0.213848243585E+00
 -0.197577661225E+00 -0.100933645769E+00 -0.318500819426E+00 -0.279496896946E+00 -0.537246329928E+00  0.121654622179E+00 -0.194425053201E+00
 -0.224048279782E+00 -0.140347121534E+00 -0.586631842498E+00 -0.405875015225E+00 -0.349779893225E+00 -0.267929408617E+00 -0.566885528447E+00
 -0.335171700938E-01 -0.181103659290E+00 -0.192956312079E+00 -0.186657486388E+00 -0.458391790576E+00
  0.000000000000E+00  0.000000000000E+00  0.000000000000E+00  0.000000000000E+00  0.000000000000E+00  0.000000000000E+00  0.000000000000E+00
  0.000000000000E+00  0.000000000000E+00  0.000000000000E+00  0.000000000000E+00  0.000000000000E+00  0.000000000000E+00  0.000000000000E+00
  0.000000000000E+00  0.000000000000E+00  0.000000000000E+00  0.000000000000E+00  0.000000000000E+00  0.000000000000E+00  0.000000000000E+00
  0.000000000000E+00  0.000000000000E+00  0.000000000000E+00  0.000000000000E+00  0.000000000000E+00  0.000000000000E+00  0.000000000000E+00
  0.000000000000E+00  0.000000000000E+00  0.000000000000E+00  0.000000000000E+00  0.000000000000E+00
  0.000000000000E+00  0.000000000000E+00  0.000000000000E+00 -0.536180746450E+00 -0.107926625171E+00  0.000000000000E+00 -0.277901954786E-02
 -0.752191586312E-01  0.167104841117E+00  0.330825902801E+00  0.108024089498E+00  0.000000000000E+00  0.670333260445E-02  0.387850945843E+00
  0.356037206503E+00  0.493859371170E+00  0.147448338967E+00  0.339289451882E+00  0.180997612957E-02  0.531710183394E+00  0.500128394688E+00
  0.439188319242E+00  0.546856895680E+00  0.143046396955E+00  0.261256013335E+00  0.266379881791E+00  0.238759720725E+00  0.258892232721E+00
  0.256550538101E+00  0.376314058510E+00  0.158496593993E+00  0.923333850870E-01 -0.399631090710E-01
  0.326217691943E+00  0.160442236123E+01  0.560634334868E+00  0.714876941412E+00  0.180783366782E+01  0.188959739595E+01  0.197183597595E+01
  0.228373422238E+01  0.216267636985E+01  0.271848626303E+01  0.232312825529E+01  0.295428972667E+01  0.252337789983E+01  0.415785457900E+01
  0.263374701611E+01  0.286493192231E+01  0.291610003663E+01  0.288681396795E+01  0.512847545594E+01  0.429786535042E+01  0.294106544006E+01
  0.321936385568E+01  0.382190413528E+01  0.511343913181E+01  0.301402749260E+01  0.362908866115E+01  0.488030828646E+01  0.470747751572E+01
  0.523324463705E+01  0.408824750389E+01  0.531693962258E+01  0.546439308246E+01  0.519321348550E+01
  0.000000000000E+00  0.000000000000E+00  0.000000000000E+00  0.995438838741E+00  0.269641642518E+00  0.000000000000E+00  0.164825554158E+00
  0.169503502624E+00  0.324982166113E+00  0.541953885599E+00  0.343410257876E+00  0.000000000000E+00  0.414517073982E+00  0.528061301445E+00
  0.596643118617E+00  0.709125800197E+00  0.489348700299E+00  0.618454773913E+00  0.574666379550E+00  0.625372878720E+00  0.744280392377E+00
  0.645478358138E+00  0.680611841287E+00  0.620314121510E+00  0.652418848016E+00  0.534942710785E+00  0.383029186169E+00  0.655715995964E+00
  0.268409542681E+00  0.487485429222E+00  0.259637067274E+00  0.212769911928E+00  0.460060050205E+00
  0.189427231113E-01  0.157250660227E+00  0.112974256095E+01  0.683234109433E+00  0.165890352089E+00  0.324592291124E+00  0.321149559432E+00
  0.575710113737E+00  0.360984458706E+00  0.428700669866E+00  0.415423324472E+00  0.570495897445E+00  0.442707473249E+00  0.703461772228E+00
  0.465750947405E+00  0.505279764254E+00  0.514418601811E+00  0.505209843685E+00  0.874017773877E+00  0.760731864438E+00  0.519772174294E+00
  0.583435731600E+00  0.688098943122E+00  0.947528679207E+00  0.547372346131E+00  0.675502212706E+00  0.877862317373E+00  0.903296256558E+00
  0.929180420447E+00  0.733922345232E+00  0.924966733801E+00  0.957929740772E+00  0.100030631869E+01
        15         9        16        16
        15        18        11        11
        22        15        21        21
        11         5         9         9
         5         7         2         2
        11         9        15        15
        16        21        15        15
        16        10        14        14
        18        17        11        11
        17        25        24        24
        22        18        15        15
        22        30        31        31
        30        21        23        23
        16        20        23        23
        22        27        26        26
        10         9         4         4
         7        11        13        13
        25        18        26        26
        11         7         5         5
         5         1         4         4
        17        19        13        13
        23        32        30        30
        23        20        29        29
         4         9         5         5
         4         8        10        10
        26        18        22        22
        26        28        25        25
        13        11        17        17
        13         6         7         7
        31        30        32        32
         2         1         5         5
         2         7         6         6
        14        10         8         8
        24        19        17        17
        24        25        28        28
         9        10        16        16
         3         4         1         1
        33        26        27        27
        12        13        19        19
        21        30        22        22
        16        14        20        20
        16        23        21        21
        22        31        27        27
        18        25        17        17
        26        33        28        28
         4         3         8         8
        23        29        32        32
        13        12         6         6
zone t="boundary 4 bc-4", solutiontime= 0.2000000E+02, strandid=1004, i=32, j=46, f=feblock
  0.125000000000E+01  0.219251206392E+01  0.103724302461E+01  0.500000000000E+01  0.250000000000E+01  0.375000000000E+01  0.404200324774E+01
  0.500000000000E+01  0.000000000000E+00  0.310152362409E+01  0.202479342020E+01  0.324151231464E+01  0.922061490191E+00  0.000000000000E+00
  0.299062775774E+01  0.394624082883E+01  0.500000000000E+01  0.409252726285E+01  0.500000000000E+01  0.429310310915E+01  0.175434191980E+01
  0.284428995242E+01  0.000000000000E+00  0.000000000000E+00  0.715990576545E+00  0.930412228790E+00  0.125000000000E+01  0.187029682677E+01
  0.500000000000E+01  0.375000000000E+01  0.250000000000E+01  0.000000000000E+00
  0.250000000000E+01  0.157686156160E+01  0.146289271009E+01  0.250000000000E+01  0.250000000000E+01  0.250000000000E+01  0.155830813274E+01
  0.125000000000E+01  0.250000000000E+01  0.177790177481E+01  0.477386199275E+00  0.742988685424E+00  0.308372018325E+00  0.125000000000E+01
 -0.487811078581E+00 -0.144524380962E+01 -0.125000000000E+01 -0.345533899378E+00  0.000000000000E+00  0.627766083140E+00 -0.739814786992E+00
 -0.158811787973E+01  0.000000000000E+00 -0.125000000000E+01 -0.600232012419E+00 -0.154800130438E+01 -0.250000000000E+01 -0.178862290564E+01
 -0.250000000000E+01 -0.250000000000E+01 -0.250000000000E+01 -0.250000000000E+01
  0.500000000000E+01  0.500000000000E+01  0.500000000000E+01  0.500000000000E+01  0.500000000000E+01  0.500000000000E+01  0.500000000000E+01
  0.500000000000E+01  0.500000000000E+01  0.500000000000E+01  0.500000000000E+01  0.500000000000E+01  0.500000000000E+01  0.500000000000E+01
  0.500000000000E+01  0.500000000000E+01  0.500000000000E+01  0.500000000000E+01  0.500000000000E+01  0.500000000000E+01  0.500000000000E+01
  0.500000000000E+01  0.500000000000E+01  0.500000000000E+01  0.500000000000E+01  0.500000000000E+01  0.500000000000E+01  0.500000000000E+01
  0.500000000000E+01  0.500000000000E+01  0.500000000000E+01  0.500000000000E+01
  0.778303324545E+01  0.771996343421E+01  0.745215298225E+01  0.788495143747E+01  0.804754938702E+01  0.798612882535E+01  0.769414857637E+01
  0.734841427288E+01  0.726827247196E+01  0.787978279847E+01  0.737388926629E+01  0.728127419437E+01  0.728304993310E+01  0.711715409649E+01
  0.682407275842E+01  0.618965823473E+01  0.635337417231E+01  0.668192800904E+01  0.678910729132E+01  0.705608323914E+01  0.709742755395E+01
  0.649570177269E+01  0.697854069423E+01  0.688453973458E+01  0.723677203666E+01  0.698780883721E+01  0.692273633460E+01  0.687307170866E+01
  0.629246477592E+01  0.613023131615E+01  0.658672555198E+01  0.676115004347E+01
 -0.267929408617E+00 -0.170448920790E+00 -0.275877337547E+00 -0.335171700938E-01 -0.192956312079E+00 -0.186657486388E+00 -0.838364448250E-01
  0.352962192530E-01 -0.458391790576E+00 -0.158330106310E+00 -0.226204126650E+00 -0.122687581119E+00 -0.279423054805E+00 -0.326726872086E+00
 -0.102283595534E+00 -0.394572302079E-01 -0.975114783474E-02 -0.282683411691E-02  0.191308962230E-01 -0.344259290211E-02 -0.218443080282E+00
 -0.170070207016E+00 -0.337633444886E+00 -0.302676651182E+00 -0.309436466213E+00 -0.316510345538E+00 -0.230000141079E+00 -0.339286638695E+00
  0.332960767229E-01 -0.149282551352E+00 -0.255647974536E+00 -0.201243874742E+00
  0.000000000000E+00 -0.573367891099E-01 -0.986885194379E-01  0.000000000000E+00  0.000000000000E+00  0.000000000000E+00 -0.699816432476E-01
 -0.856302081436E-01  0.000000000000E+00 -0.234550121970E-01 -0.154479715301E+00 -0.875156554251E-01 -0.234963945253E+00 -0.146598828795E+00
 -0.211444139792E+00 -0.196912319318E+00 -0.249718338506E+00 -0.170917922110E+00 -0.120407398470E+00 -0.576552982083E-01 -0.247933607297E+00
 -0.219437671767E+00 -0.279638683451E+00 -0.273555031716E+00 -0.289889971451E+00 -0.232868646928E+00  0.000000000000E+00 -0.224275192975E+00
  0.000000000000E+00  0.000000000000E+00  0.000000000000E+00  0.000000000000E+00