# vtk DataFile Version 2.0
FUN3D:global_image_vtk
ASCII
DATASET UNSTRUCTURED_GRID
POINTS 213 double
    0.0000000000000000E+00    0.2500000000000000E+01    0.0000000000000000E+00
    0.1250000000000000E+01    0.2500000000000000E+01    0.0000000000000000E+00
    0.2500000000000000E+01    0.2500000000000000E+01    0.0000000000000000E+00
    0.3750000000000000E+01    0.2500000000000000E+01    0.0000000000000000E+00
    0.5000000000000000E+01    0.2500000000000000E+01    0.0000000000000000E+00
    0.5000000000000000E+01    0.1250000000000000E+01    0.0000000000000000E+00
    0.5000000000000000E+01    0.0000000000000000E+00    0.0000000000000000E+00
    0.5000000000000000E+01   -0.1250000000000000E+01    0.0000000000000000E+00
    0.5000000000000000E+01   -0.2500000000000000E+01    0.0000000000000000E+00
    0.3750000000000000E+01   -0.2500000000000000E+01    0.0000000000000000E+00
    0.2500000000000000E+01   -0.2500000000000000E+01    0.0000000000000000E+00
    0.1250000000000000E+01   -0.2500000000000000E+01    0.0000000000000000E+00
    0.0000000000000000E+00   -0.2500000000000000E+01    0.0000000000000000E+00
    0.0000000000000000E+00   -0.1250000000000000E+01    0.0000000000000000E+00
    0.0000000000000000E+00    0.0000000000000000E+00    0.0000000000000000E+00
    0.0000000000000000E+00    0.1250000000000000E+01    0.0000000000000000E+00
    0.9058375365086910E+00    0.1578994732800803E+01    0.0000000000000000E+00
    0.3982050490726493E+01   -0.1583989954232354E+01    0.0000000000000000E+00
    0.4033849428301197E+01    0.1453322699199022E+01    0.0000000000000000E+00
    0.1040505887381675E+01   -0.1479596339503735E+01    0.0000000000000000E+00
    0.1099454400140349E+01   -0.3227322616384110E+00    0.0000000000000000E+00
    0.7354504170366591E+00    0.6593508822075582E+00    0.0000000000000000E+00
    0.1622302608453282E+01    0.8256214013940779E+00    0.0000000000000000E+00
    0.2145871574390382E+01   -0.1650070333782557E+01    0.0000000000000000E+00
    0.4086422318222992E+01   -0.4612828702537229E+00    0.0000000000000000E+00
    0.2979540174134984E+01   -0.8579242121530853E+00    0.0000000000000000E+00
    0.3045064261640043E+01   -0.1836846154397680E+01    0.0000000000000000E+00
    0.3428197553792836E+01    0.3508002863614053E+00    0.0000000000000000E+00
    0.4309693860063405E+01    0.5185680230613409E+00    0.0000000000000000E+00
    0.1827272193562204E+01    0.1738996113203182E+01    0.0000000000000000E+00
    0.2808563282768077E+01    0.1325493893339706E+01    0.0000000000000000E+00
    0.1895995683864404E+01   -0.8731419609589618E+00    0.0000000000000000E+00
    0.2273179336307740E+01    0.4906150219227333E-01    0.0000000000000000E+00
    0.5000000000000000E+01    0.2500000000000000E+01    0.1250000000000000E+01
    0.5000000000000000E+01    0.2500000000000000E+01    0.2500000000000000E+01
    0.5000000000000000E+01    0.2500000000000000E+01    0.3750000000000000E+01
    0.5000000000000000E+01    0.2500000000000000E+01    0.5000000000000000E+01
    0.3750000000000000E+01    0.2500000000000000E+01    0.5000000000000000E+01
    0.2500000000000000E+01    0.2500000000000000E+01    0.5000000000000000E+01
    0.1250000000000000E+01    0.2500000000000000E+01    0.5000000000000000E+01
    0.0000000000000000E+00    0.2500000000000000E+01    0.5000000000000000E+01
    0.0000000000000000E+00    0.2500000000000000E+01    0.3750000000000000E+01
    0.0000000000000000E+00    0.2500000000000000E+01    0.2500000000000000E+01
    0.0000000000000000E+00    0.2500000000000000E+01    0.1250000000000000E+01
    0.9631080833812172E+00    0.2500000000000000E+01    0.9613285771248219E+00
    0.3981732467264904E+01    0.2500000000000000E+01    0.4069753913607991E+01
    0.4035525118777670E+01    0.2500000000000000E+01    0.1012015867579395E+01
    0.9641717640894248E+00    0.2500000000000000E+01    0.3972455192261839E+01
    0.1547743040396780E+01    0.2500000000000000E+01    0.2928177746738678E+01
    0.6985170616192014E+00    0.2500000000000000E+01    0.3068281976055466E+01
    0.8931277594515110E+00    0.2500000000000000E+01    0.2052465503257726E+01
    0.2183293750162785E+01    0.2500000000000000E+01    0.3959073795658649E+01
    0.3855333506014705E+01    0.2500000000000000E+01    0.2931218481500625E+01
    0.3152495579421047E+01    0.2500000000000000E+01    0.3635850502723324E+01
    0.3103247580566054E+01    0.2500000000000000E+01    0.4331682712472464E+01
    0.3266837581688852E+01    0.2500000000000000E+01    0.1886092433583972E+01
    0.4231539241296245E+01    0.2500000000000000E+01    0.1915865356532799E+01
    0.1909741006522088E+01    0.2500000000000000E+01    0.7170024419130505E+00
    0.2880784107213163E+01    0.2500000000000000E+01    0.9046598906449592E+00
    0.2014316024535771E+01    0.2500000000000000E+01    0.1762464314805728E+01
    0.2670003247036656E+01    0.2500000000000000E+01    0.2850479545835163E+01
    0.5000000000000000E+01    0.1250000000000000E+01    0.5000000000000000E+01
    0.5000000000000000E+01    0.0000000000000000E+00    0.5000000000000000E+01
    0.5000000000000000E+01   -0.1250000000000000E+01    0.5000000000000000E+01
    0.5000000000000000E+01   -0.2500000000000000E+01    0.5000000000000000E+01
    0.5000000000000000E+01   -0.2500000000000000E+01    0.3750000000000000E+01
    0.5000000000000000E+01   -0.2500000000000000E+01    0.2500000000000000E+01
    0.5000000000000000E+01   -0.2500000000000000E+01    0.1250000000000000E+01
    0.5000000000000000E+01    0.1578994732800803E+01    0.9058375365086910E+00
    0.5000000000000000E+01   -0.1583989954232354E+01    0.3982050490726493E+01
    0.5000000000000000E+01    0.1453322699199022E+01    0.4033849428301197E+01
    0.5000000000000000E+01   -0.1479596339503735E+01    0.1040505887381675E+01
    0.5000000000000000E+01   -0.3227322616384110E+00    0.1099454400140349E+01
    0.5000000000000000E+01    0.6593508822075582E+00    0.7354504170366591E+00
    0.5000000000000000E+01    0.8256214013940779E+00    0.1622302608453282E+01
    0.5000000000000000E+01   -0.1650070333782557E+01    0.2145871574390382E+01
    0.5000000000000000E+01   -0.4612828702537229E+00    0.4086422318222992E+01
    0.5000000000000000E+01   -0.8579242121530853E+00    0.2979540174134984E+01
    0.5000000000000000E+01   -0.1836846154397680E+01    0.3045064261640043E+01
    0.5000000000000000E+01    0.3508002863614053E+00    0.3428197553792836E+01
    0.5000000000000000E+01    0.5185680230613409E+00    0.4309693860063405E+01
    0.5000000000000000E+01    0.1738996113203182E+01    0.1827272193562204E+01
    0.5000000000000000E+01    0.1325493893339706E+01    0.2808563282768077E+01
    0.5000000000000000E+01   -0.8731419609589618E+00    0.1895995683864404E+01
    0.5000000000000000E+01    0.4906150219227333E-01    0.2273179336307740E+01
    0.0000000000000000E+00    0.1250000000000000E+01    0.5000000000000000E+01
    0.0000000000000000E+00    0.0000000000000000E+00    0.5000000000000000E+01
    0.0000000000000000E+00   -0.1250000000000000E+01    0.5000000000000000E+01
    0.0000000000000000E+00   -0.2500000000000000E+01    0.5000000000000000E+01
    0.1250000000000000E+01   -0.2500000000000000E+01    0.5000000000000000E+01
    0.2500000000000000E+01   -0.2500000000000000E+01    0.5000000000000000E+01
    0.3750000000000000E+01   -0.2500000000000000E+01    0.5000000000000000E+01
    0.4042003247744892E+01    0.1558308132739014E+01    0.5000000000000000E+01
    0.9304122287900499E+00   -0.1548001304379777E+01    0.5000000000000000E+01
    0.1037243024609388E+01    0.1462892710085612E+01    0.5000000000000000E+01
    0.3946240828834967E+01   -0.1445243809615570E+01    0.5000000000000000E+01
    0.4092527262848217E+01   -0.3455338993778935E+00    0.5000000000000000E+01
    0.4293103109154542E+01    0.6277660831404320E+00    0.5000000000000000E+01
    0.3241512314643519E+01    0.7429886854239611E+00    0.5000000000000000E+01
    0.2844289952419609E+01   -0.1588117879734118E+01    0.5000000000000000E+01
    0.7159905765450471E+00   -0.6002320124191652E+00    0.5000000000000000E+01
    0.1754341919796891E+01   -0.7398147869923652E+00    0.5000000000000000E+01
    0.1870296826774691E+01   -0.1788622905643739E+01    0.5000000000000000E+01
    0.9220614901912976E+00    0.3083720183248586E+00    0.5000000000000000E+01
    0.3101523624086016E+01    0.1777901774806180E+01    0.5000000000000000E+01
    0.2192512063922564E+01    0.1576861561598471E+01    0.5000000000000000E+01
    0.2024793420196460E+01    0.4773861992750707E+00    0.5000000000000000E+01
    0.2990627757741975E+01   -0.4878110785814084E+00    0.5000000000000000E+01
    0.0000000000000000E+00   -0.2500000000000000E+01    0.1250000000000000E+01
    0.0000000000000000E+00   -0.2500000000000000E+01    0.2500000000000000E+01
    0.0000000000000000E+00   -0.2500000000000000E+01    0.3750000000000000E+01
    0.0000000000000000E+00    0.1558308132739014E+01    0.4042003247744892E+01
    0.0000000000000000E+00   -0.1548001304379777E+01    0.9304122287900499E+00
    0.0000000000000000E+00    0.1462892710085612E+01    0.1037243024609388E+01
    0.0000000000000000E+00   -0.1445243809615570E+01    0.3946240828834967E+01
    0.0000000000000000E+00   -0.3455338993778935E+00    0.4092527262848217E+01
    0.0000000000000000E+00    0.6277660831404320E+00    0.4293103109154542E+01
    0.0000000000000000E+00    0.7429886854239611E+00    0.3241512314643519E+01
    0.0000000000000000E+00   -0.1588117879734118E+01    0.2844289952419609E+01
    0.0000000000000000E+00   -0.6002320124191652E+00    0.7159905765450471E+00
    0.0000000000000000E+00   -0.7398147869923652E+00    0.1754341919796891E+01
    0.0000000000000000E+00   -0.1788622905643739E+01    0.1870296826774691E+01
    0.0000000000000000E+00    0.3083720183248586E+00    0.9220614901912976E+00
    0.0000000000000000E+00    0.1777901774806180E+01    0.3101523624086016E+01
    0.0000000000000000E+00    0.1576861561598471E+01    0.2192512063922564E+01
[...]
POINT_DATA 213
SCALARS rho double 1
LOOKUP_TABLE default
   0.4488911618610008E+02
   0.5046282698688524E+02
   0.8844366376104114E+02
   0.1492813643613028E+03
   0.6947494906755838E+00
   0.6472523463780928E+00
   0.6643341691008064E+00
   0.4557423473312065E-01
   0.1688126375008280E+00
   0.1562442948921031E+03
   0.9371466851519877E+01
   0.1244226526709534E+02
   0.2740534575929994E+02
   0.3733553607740817E+02
   0.3959562978365102E+02
   0.4214364098236005E+02
   0.4904825569433036E+02
   0.1236325836264262E+01
   0.2353894707782824E+01
   0.1888344461073246E+02
   0.3534000185263783E+02
   0.4515544863761947E+02
   0.6021006004744739E+02
   0.1086310906456332E+02
   0.1959573564565909E-01
   0.1114977557221831E+02
   0.7557297404941548E+01
   0.4985386369665469E+02
   0.3425618319426131E+01
   0.6334168994235895E+02
   0.1082943241249961E+03
   0.1756985195564654E+02
   0.3962421131501346E+02
   0.3203522910949302E+02
   0.5123530078400209E+02
   0.4897356209437044E+02
   0.4882154100422039E+02
   0.4944800472188865E+02
   0.4982830465065142E+02
   0.4819049042259895E+02
   0.4500322739258306E+02
   0.4517503940943704E+02
   0.4678010831257870E+02
   0.5086376605764631E+02
   0.4940898564302042E+02
   0.4814701807561224E+02
   0.1464838631677994E+01
   0.4657054267030331E+02
   0.4953218544496569E+02
   0.4773147476372380E+02
   0.4913899272391028E+02
   0.4783188945673352E+02
   0.4914992924791331E+02
   0.4904922592835982E+02
   0.4828670443583761E+02
   0.5193301378090484E+02
   0.5496844821668122E+02
   0.5322356385607765E+02
   0.9446650269888407E+02
   0.4847555680858904E+02
   0.4901858897988641E+02
   0.4549944430026206E+02
   0.4203636289127031E+02
   0.3933841826782366E+02
   0.3896128333975876E+02
   0.3861170208959783E+02
   0.2504210493835753E+02
   0.9442789548643782E+01
   0.1094172686268972E+01
   0.3979867349477740E+02
   0.4656245202642734E+02
   0.2200791473124011E+02
   0.2686334428766014E+02
   0.2013624984179954E+01
   0.4692760558189720E+02
   0.2660870940842904E+02
   0.4068318338707822E+02
   0.4531267595076240E+02
   0.4010873492306730E+02
   0.4268623835465464E+02
   0.4283159140239731E+02
   0.5341661950039934E+02
   0.4821666224513402E+02
   0.5475385036544481E+02
   0.6015544585637653E+02
   0.4345810873347765E+02
   0.4276822642427963E+02
   0.4229825826624577E+02
   0.4056091410816114E+02
   0.3778614456121448E+02
   0.4020689575261117E+02
   0.3795677651791445E+02
   0.4764013997969181E+02
   0.4271053647938285E+02
   0.4614176704547825E+02
   0.3832473233416689E+02
   0.4137273702540229E+02
   0.4346471450554665E+02
   0.4508373063074858E+02
   0.4021967325504235E+02
   0.4480818499998388E+02
   0.4394540069113554E+02
   0.4255624843228847E+02
   0.4509472553693034E+02
   0.4878953815388132E+02
   0.4779997877520820E+02
   0.4565717874480871E+02
   0.4225285984741308E+02
   0.3392401975579906E+02
   0.3641993981908939E+02
   0.3521533429514879E+02
   0.4522040108905162E+02
   0.4036394680966097E+02
   0.5175549615345605E+02
   0.3832994197694957E+02
   0.4237731486895738E+02
   0.4395369098612905E+02
   0.4524417055379163E+02
   0.3684773631086435E+02
   0.4790427475498682E+02
   0.4509346197778442E+02
   0.3873530248210203E+02
   0.5003300400237821E+02
   0.4551674959333207E+02
   0.4834481034590979E+02
   0.4671098543996091E+02
   0.4295383707554344E+02
   0.1495697306787478E+02
   0.3209190988760587E+02
   0.7442661084060865E+01
   0.2661454172965917E+02
   0.1485507275233401E+02
   0.2113009157850503E+02
   0.1728850024940631E+02
   0.2558228817119719E+02
   0.2225539803481182E+02
   0.2015764946057523E+02
   0.3322700056346785E+02
   0.9189107781489460E+01
   0.1339697187675689E+02
   0.9231977704926276E+01
   0.7665338624607854E+01
   0.9112561855037361E+01
   0.1369369214806014E+02
   0.2408120687472267E+02
   0.2630265327622234E+02
   0.4573597841813523E+02
   0.2290859861860579E+02
   0.4752472960484652E+02
   0.4666153061056831E+02
   0.4673794241764627E+02
   0.3417944152246207E+02
   0.4714797682354175E+02
   0.4773675434930481E+02
   0.4890166879245377E+02
   0.4828505228825279E+02
   0.3142878942152543E+02
   0.4784038422424948E+02
   0.2076305390844208E+02
   0.4829561892665350E+02
   0.4520454321156883E+02
   0.4890801008401766E+02
   0.4397794280761073E+02
   0.4634346419762107E+02
   0.4695196967341301E+02
   0.4336122485667343E+02
   0.3911859577835322E+02
   0.4553832427795570E+02
   0.2654193791560549E+02
   0.1680686005360559E+02
   0.1742501746794533E+02
   0.4086817973408616E+02
   0.2704660703381569E+02
   0.5616480895527555E+02
   0.3222022727224664E+02
   0.1545195013500836E+02
   0.4844823987902724E+02
   0.5523785547800107E+02
   0.4153087023869605E+02
   0.4689786674634191E+02
   0.2253273572694962E+02
   0.3179287986858585E+02
   0.4300442396601681E+02
   0.4777990658765513E+02
   0.2717209391035918E+02
   0.1479018353572862E+02
   0.1151945898804726E+02
   0.2319490145715197E+02
   0.3042320162973592E+02
   0.3375382565593853E+02
   0.1911679091561034E+02
   0.4261936711661730E+02
   0.1419045638459068E+01
   0.4352380561392010E+02
   0.1561789281598800E+02
   0.1245028768447336E+02
   0.7054327396389610E+01
   0.5198701875941683E+02
   0.1244856508269368E+02
   0.5418962008927704E+01
   0.2181879547334498E+02
   0.4285965310362535E+02
   0.4066244073123217E+02
   0.4523009074094819E+02
   0.9939631857080738E+02
   0.2704333038895867E+02
   0.5103330969101187E+01
   0.3915050760839063E+02
   0.2647932811594751E+02
   0.4814357925402094E+02
   0.1082650287219241E+02
   0.1252089899365373E+02
   0.1855535765367908E+02
SCALARS u double 1
LOOKUP_TABLE default
   0.0000000000000000E+00
   0.0000000000000000E+00
   0.0000000000000000E+00
   0.0000000000000000E+00
   0.0000000000000000E+00
   0.0000000000000000E+00
   0.0000000000000000E+00
   0.0000000000000000E+00
   0.0000000000000000E+00
   0.0000000000000000E+00
   0.0000000000000000E+00
   0.0000000000000000E+00
   0.0000000000000000E+00
   0.0000000000000000E+00
   0.0000000000000000E+00
   0.0000000000000000E+00
   0.0000000000000000E+00
   0.0000000000000000E+00
   0.0000000000000000E+00
   0.0000000000000000E+00
   0.0000000000000000E+00
   0.0000000000000000E+00
   0.0000000000000000E+00
   0.0000000000000000E+00
   0.0000000000000000E+00
   0.0000000000000000E+00
   0.0000000000000000E+00
   0.0000000000000000E+00
   0.0000000000000000E+00
   0.0000000000000000E+00
   0.0000000000000000E+00
   0.0000000000000000E+00
   0.0000000000000000E+00
  -0.6086398609816351E-01
   0.3106803514610003E+00
   0.3740599298249747E+00
   0.1098971217336459E+00
  -0.1040423347534320E+00
  -0.1356480349569882E+00
  -0.2291423279807040E+00
  -0.4993142587466349E+00
  -0.6014929657601090E+00
  -0.7524098445399845E+00
  -0.5844619306956989E+00
  -0.2346424287990391E+00
  -0.6612306837145161E-01
   0.6241200596043394E+00
  -0.3610070387260181E+00
  -0.2773292008510620E+00
  -0.5617294433356173E+00
  -0.2895897254516819E+00
  -0.2147125343229494E+00
  -0.9325915146142817E-01
  -0.1637984975560028E+00
  -0.1325669997837827E+00
  -0.1417556273798483E+00
  -0.1182605772187620E+00
  -0.9282400185986400E-01
  -0.1049754579488508E+00
  -0.1981476008295218E+00
  -0.1838669028888674E+00
   0.8369533311665212E-01
   0.1834349944693761E+00
   0.2041148986051023E+00
   0.1086220403282586E+00
   0.2056966344289318E+00
   0.3290389661692000E+00
   0.5480582103405673E+00
   0.4906080007660093E+00
   0.3333220308700768E+00
   0.2534340579639308E+00
   0.1020115231976330E+01
   0.4859644363333065E+00
   0.2075712030439813E+00
   0.6824035991895190E-01
   0.6406231119499324E+00
   0.2774999244382006E+00
   0.2788944470922550E+00
   0.4620761687436086E+00
   0.1555758858003851E+00
   0.3341461415567001E+00
   0.2407787417967810E+00
   0.2320100591341414E+00
   0.4110004439763494E+00
   0.2223658840870541E+00
  -0.3821868219127416E+00
  -0.3932598744260992E+00
  -0.3865490612062694E+00
  -0.3680244078774879E+00
  -0.4510219962313506E+00
  -0.2277701765304368E+00
  -0.1531816933975311E+00
  -0.8684058511257491E-01
  -0.3920837707510423E+00
  -0.2471594139422238E+00
  -0.7838765096981934E-01
  -0.9076940797747539E-01
  -0.8084101887281692E-01
  -0.1860141571841771E+00
  -0.1655261264346701E+00
  -0.2556624107883876E+00
  -0.2207836772308228E+00
  -0.3470424802692576E+00
  -0.1943766952517875E+00
  -0.7784046895038632E-01
  -0.1303492010137241E+00
  -0.2289122108050132E+00
  -0.1267302024719621E+00
  -0.8287757221850859E+00
  -0.5090090128968352E+00
  -0.5055917716988618E+00
  -0.4354255151082074E+00
  -0.7214576735618939E+00
  -0.3000982722673734E+00
  -0.6667009922907411E+00
  -0.5515433834632615E+00
  -0.5239469541075878E+00
  -0.6909946336668231E+00
  -0.7997830177027584E+00
  -0.6177092695574375E+00
  -0.5989941612447677E+00
  -0.8258350743803275E+00
  -0.4131551374004085E+00
  -0.6442748150365128E+00
  -0.4291015697092992E+00
  -0.5344799727272320E+00
  -0.7739962979669485E+00
  -0.8291517582002331E+00
   0.1164912537177937E-01
   0.1646078255157954E+00
  -0.4916850436618260E+00
  -0.7222606324327057E+00
  -0.6991221036654351E+00
  -0.8505371045468030E+00
  -0.3203364782294155E+00
  -0.4813832383265864E-01
  -0.3916655313897650E+00
  -0.2536958598973060E+00
  -0.4041256342143602E+00
  -0.1624966494136892E-01
  -0.7551572930142170E+00
  -0.6510825678048795E+00
  -0.9230956758825558E+00
  -0.5866318236117282E+00
  -0.3038823915323042E+00
  -0.5190520107990699E+00
  -0.2883808231121657E+00
  -0.6259055789948730E+00
  -0.3157172186235048E+00
  -0.3433562976859112E+00
  -0.2628697591565857E+00
  -0.5349206990837060E+00
  -0.3073377069197348E+00
  -0.3498498369332475E+00
  -0.1836360652915930E+00
  -0.1284818933459213E+00
  -0.4373761199360409E+00
  -0.2074169388613270E+00
  -0.1583796489141659E+00
  -0.1444853252247911E+00
  -0.1733637728019435E+00
  -0.1091167661774017E+00
  -0.1885649206749637E+00
  -0.2368846547872906E+00
  -0.1225584441516036E+00
  -0.1046450688662142E+00
  -0.2662293730377694E+00
  -0.3414680385669048E+00
  -0.7007940613001701E+00
  -0.7884294206073433E+00
  -0.6773695162086771E+00
  -0.3831818887485191E+00
  -0.6359898821319446E+00
  -0.1525325395197890E+00
  -0.2959884855506538E+00
  -0.6469001832343770E+00
  -0.1976642131406314E+00
  -0.2590927516362113E-01
  -0.1923655259780261E+00
  -0.1614967877872205E+00
  -0.7538992012121987E+00
  -0.4805117957860887E+00
  -0.6674416815966465E-01
  -0.1935888480295853E+00
  -0.2757758332174068E-02
  -0.2817415964964802E+00
  -0.1246917953894264E+00
   0.1096836290719908E+00
  -0.1826008475068803E-01
  -0.9162543980242374E-01
  -0.4735008361533429E+00
  -0.2010710334088477E+00
   0.4791241554999079E+00
  -0.2468245547712170E+00
  -0.2768998732028484E+00
  -0.4635838320845565E+00
  -0.7300973886203406E+00
  -0.2242818654360870E-01
  -0.8981045441013959E-01
  -0.2434401238830755E+00
  -0.6986243753609879E+00
  -0.3157919727309130E+00
  -0.1140321882705055E+00
  -0.6800627648681626E-01
  -0.1646861352729265E+00
   0.6808870147152525E-01
  -0.3214275675478361E-01
  -0.2757452953470800E+00
  -0.2047666181904313E+00
  -0.8265937486445302E-01
  -0.7696311057533280E+00
  -0.7783659969771395E+00
  -0.2431959291740281E+00
SCALARS v double 1
LOOKUP_TABLE default
   0.0000000000000000E+00
   0.0000000000000000E+00
   0.0000000000000000E+00
   0.0000000000000000E+00
   0.0000000000000000E+00
   0.0000000000000000E+00
   0.0000000000000000E+00
   0.0000000000000000E+00
   0.0000000000000000E+00
   0.0000000000000000E+00
   0.0000000000000000E+00
   0.0000000000000000E+00
   0.0000000000000000E+00
   0.0000000000000000E+00
   0.0000000000000000E+00
   0.0000000000000000E+00
   0.0000000000000000E+00
   0.0000000000000000E+00
   0.0000000000000000E+00
   0.0000000000000000E+00
   0.0000000000000000E+00
   0.0000000000000000E+00
   0.0000000000000000E+00
   0.0000000000000000E+00
   0.0000000000000000E+00
   0.0000000000000000E+00
   0.0000000000000000E+00
   0.0000000000000000E+00
   0.0000000000000000E+00
   0.0000000000000000E+00
   0.0000000000000000E+00
   0.0000000000000000E+00
   0.0000000000000000E+00
   0.0000000000000000E+00
   0.0000000000000000E+00
   0.0000000000000000E+00
   0.0000000000000000E+00
   0.0000000000000000E+00
   0.0000000000000000E+00
   0.0000000000000000E+00
   0.0000000000000000E+00
   0.0000000000000000E+00
   0.0000000000000000E+00
   0.0000000000000000E+00
   0.0000000000000000E+00
   0.0000000000000000E+00
   0.0000000000000000E+00
   0.0000000000000000E+00
   0.0000000000000000E+00
   0.0000000000000000E+00
   0.0000000000000000E+00
   0.0000000000000000E+00
   0.0000000000000000E+00
   0.0000000000000000E+00
   0.0000000000000000E+00
   0.0000000000000000E+00
   0.0000000000000000E+00
   0.0000000000000000E+00
   0.0000000000000000E+00
   0.0000000000000000E+00
   0.0000000000000000E+00
   0.1019887891832917E-01
  -0.1499896281906307E+00
  -0.2597670003325294E+00
   0.0000000000000000E+00
   0.0000000000000000E+00
   0.0000000000000000E+00
   0.0000000000000000E+00
   0.2735969986445943E+00
  -0.2032680978003416E+00
  -0.8084559510862288E-01
  -0.1919909509833158E+01
  -0.7606403294961712E+00
   0.4768195608336440E-02
  -0.3902484100183589E-01
  -0.1194987193928784E+01
  -0.1698828491278537E+00
  -0.2443756303537194E+00
  -0.2329821578419169E+00
  -0.1431438844283522E+00
  -0.1056630918713656E+00
   0.1797347829128383E+00
  -0.2385669669402975E-01
  -0.1048800207635249E+01
  -0.3728500492417631E-01
  -0.9441129972435811E-01
  -0.2578953134045037E+00
  -0.2443213172682711E+00
   0.0000000000000000E+00
   0.0000000000000000E+00
   0.0000000000000000E+00
   0.0000000000000000E+00
  -0.3595980942771606E-01
  -0.2137175874323127E+00
  -0.7578311967849222E-01
  -0.1249703500722145E+00
  -0.2032271930807862E+00
  -0.3135435161563732E-01
  -0.5054479940280512E-01
  -0.6551285833670091E-01
  -0.2093882120402857E+00
  -0.9174012200499640E-01
  -0.1331620535724869E+00
  -0.1293567391666650E+00
  -0.1221082483460099E-01
  -0.8967781152973338E-01
  -0.8671843533883379E-01
  -0.1421677514619967E+00
   0.0000000000000000E+00
   0.0000000000000000E+00
   0.0000000000000000E+00
  -0.3281154937473516E-01
  -0.2009169232835200E+00
  -0.4219097667584105E-01
  -0.1821290424955377E+00
  -0.1915483591231379E+00
  -0.1065683139531326E+00
  -0.1237441877038302E+00
  -0.8818745862479373E-01
  -0.8412854328326887E-01
  -0.1904178782859408E+00
  -0.4154689032755864E-01
  -0.4481656237828105E-01
  -0.1013402953950701E+00
  -0.6696570908802189E-01
  -0.4962521293474254E-01
  -0.1674492582672204E+00
   0.0000000000000000E+00
   0.0000000000000000E+00
   0.0000000000000000E+00
   0.0000000000000000E+00
   0.0000000000000000E+00
   0.0000000000000000E+00
   0.0000000000000000E+00
   0.0000000000000000E+00
   0.0000000000000000E+00
   0.0000000000000000E+00
   0.0000000000000000E+00
   0.0000000000000000E+00
   0.0000000000000000E+00
   0.0000000000000000E+00
   0.0000000000000000E+00
   0.0000000000000000E+00
   0.0000000000000000E+00
   0.9517648029887404E-01
  -0.2493304459983234E+00
  -0.5219545333460262E-01
  -0.1240711935611430E+00
  -0.1883810226676068E-01
  -0.9869296372426874E-01
  -0.5096417374623040E-03
  -0.1213039665390235E+00
  -0.6028111467855526E-01
  -0.5200458531154857E-02
  -0.1847967900993297E-01
  -0.2349003535673650E-01
  -0.1857531515863438E+00
  -0.4142035422917638E-01
   0.1026474772691346E+00
  -0.3692174859674652E-01
  -0.8560327730401888E-01
  -0.5781471529290114E-01
  -0.1206101907155838E+00
  -0.4651102038762954E-01
  -0.3286143237229525E-01
  -0.1755305928961168E+00
  -0.2199986694706034E+00
  -0.1056065422723768E+00
  -0.2910926865325888E+00
  -0.2920287018649532E+00
  -0.3599244939709347E+00
  -0.2364492780229626E+00
  -0.2864365016742119E+00
   0.5426937299146022E-02
  -0.1307131611097248E+00
  -0.1941700200568498E+00
  -0.9331733137113391E-03
  -0.5783704295152391E-01
  -0.2980741732850515E-02
  -0.4990004427148842E-01
  -0.4053583913560506E+00
  -0.2629016576506608E+00
  -0.8420300517554978E-01
  -0.1292618205805004E-01
  -0.3678812717829471E+00
  -0.6334037023902015E+00
  -0.1222046648718160E+01
  -0.6958109985371819E+00
  -0.3493497404201677E+00
  -0.2662177020000393E+00
  -0.4447445634123362E+00
  -0.2348308950407771E-01
   0.2464683428677368E+00
   0.2880773555686720E+00
  -0.3329263682823358E+00
  -0.3008268398886697E+00
  -0.1220239213088028E+01
  -0.2337714789991878E+00
  -0.8243151003572842E+00
  -0.6319443449782874E+00
  -0.4099621537943063E+00
  -0.1497104884582137E+00
  -0.2022423474098697E+00
  -0.7847936832369831E-01
  -0.5204194232335262E-01
  -0.8698865759391544E-01
  -0.2447271825039768E+01
  -0.2408251671652880E+00
  -0.2375834912947031E+00
  -0.1944500479053055E-01
  -0.7673152951070480E+00
  -0.4268986099554087E+00
  -0.1363741094649805E+00
SCALARS w double 1
LOOKUP_TABLE default
   0.0000000000000000E+00
   0.0000000000000000E+00
   0.0000000000000000E+00
   0.0000000000000000E+00
   0.0000000000000000E+00
   0.0000000000000000E+00
   0.0000000000000000E+00
   0.0000000000000000E+00
   0.0000000000000000E+00
   0.0000000000000000E+00
   0.0000000000000000E+00
   0.0000000000000000E+00
   0.0000000000000000E+00
   0.0000000000000000E+00
   0.0000000000000000E+00
   0.0000000000000000E+00
   0.0000000000000000E+00
   0.0000000000000000E+00
   0.0000000000000000E+00
   0.0000000000000000E+00
   0.0000000000000000E+00
   0.0000000000000000E+00
   0.0000000000000000E+00
   0.0000000000000000E+00
   0.0000000000000000E+00
   0.0000000000000000E+00
   0.0000000000000000E+00
   0.0000000000000000E+00
   0.0000000000000000E+00
   0.0000000000000000E+00
   0.0000000000000000E+00
   0.0000000000000000E+00
   0.0000000000000000E+00
   0.9381734762448941E-01
   0.2260910847012944E+00
   0.4074495715952319E+00
   0.4729145868234785E+00
   0.4778900633492313E+00
   0.5176714081416924E+00
   0.4940894413671310E+00
   0.3310136286850753E+00
   0.2497237278268241E+00
   0.3957455052225263E-01
  -0.7795967930178814E-01
   0.3496711243928502E-02
   0.5715932063166987E+00
  -0.5361807464498983E+00
   0.2974043841651230E+00
   0.2606420090474664E+00
   0.3009514056793824E+00
   0.1073458606201164E+00
   0.3812372947739218E+00
   0.3548360973699493E+00
   0.3767085012540828E+00
   0.4113534468232926E+00
   0.2200073784199442E+00
   0.2518401727906089E+00
  -0.1893863927550451E-01
  -0.1192175852778858E+00
   0.6744903801360279E-01
   0.2744900178265157E+00
   0.4783315577464104E+00
   0.5614345885686739E+00
   0.5473766432905294E+00
   0.4689804731829368E+00
   0.4007850173904463E+00
   0.5717350188495109E+00
   0.3284385065531966E+00
  -0.4939676503145864E+00
   0.3933665745608351E+00
   0.4315997021934118E+00
   0.1265176616734014E+00
   0.2214653796157651E-01
  -0.3534493404576043E+00
   0.4017485755640258E+00
   0.8327794536801141E+00
   0.3962643960817945E+00
   0.3855700356119143E+00
   0.3489994132404698E+00
   0.3697082641078489E+00
   0.3352189794653725E+00
   0.4128506673848980E+00
   0.4172096261269851E+00
   0.7512501267012600E+00
   0.2421084773295116E+00
   0.2876062819919404E-01
  -0.1376353914719419E+00
   0.3993505210216887E-01
   0.8406077496497282E-02
   0.4284000658888860E+00
   0.1036709005943860E+00
   0.3438860625471457E+00
   0.4286775053845129E+00
   0.4650859600848512E+00
   0.3297291115424290E+00
   0.4590151312683328E+00
   0.5309569875318779E+00
   0.3830962767292128E+00
   0.4087457637428545E+00
   0.4771717962217180E+00
   0.4091804037614122E+00
   0.5316429737646976E+00
   0.1944352127258642E+00
   0.3776123285960415E+00
   0.4316851226728334E+00
   0.5081301334633037E+00
   0.3991572091997725E+00
   0.4591674477206185E+00
   0.4328511369784667E-01
   0.3269218518868151E+00
   0.2662868289890739E+00
   0.1665527742996745E+00
   0.5475127314057353E-01
   0.2504369388728917E-01
   0.1516289258854576E+00
   0.1371552586601624E+00
   0.2692983812008619E-01
   0.2275297570130385E+00
   0.3302450448605169E+00
   0.1182849713417942E+00
   0.1713800549040026E+00
   0.1352129200422945E+00
   0.5637707870045107E-01