title="tecplot geometry and solution file"
variables = x y z rho u v w p mach temperature
zone t="boundary 1 bc-1", solutiontime= 0.4000000E+02, strandid=1001, i=32, j=46, f=feblock
  0.000000000000E+00  0.000000000000E+00  0.000000000000E+00  0.000000000000E+00  0.000000000000E+00  0.000000000000E+00  0.000000000000E+00
  0.000000000000E+00  0.000000000000E+00  0.000000000000E+00  0.000000000000E+00  0.000000000000E+00  0.000000000000E+00  0.000000000000E+00
  0.000000000000E+00  0.000000000000E+00  0.000000000000E+00  0.000000000000E+00  0.000000000000E+00  0.000000000000E+00  0.000000000000E+00
  0.000000000000E+00  0.000000000000E+00  0.000000000000E+00  0.000000000000E+00  0.000000000000E+00  0.000000000000E+00  0.000000000000E+00
  0.000000000000E+00  0.000000000000E+00  0.000000000000E+00  0.000000000000E+00
  0.250000000000E+01  0.250000000000E+01  0.125000000000E+01  0.146289271009E+01  0.157686156160E+01  0.308372018325E+00  0.000000000000E+00
 -0.125000000000E+01 -0.600232012419E+00  0.250000000000E+01  0.477386199275E+00  0.742988685424E+00 -0.739814786992E+00  0.177790177481E+01
  0.155830813274E+01  0.250000000000E+01 -0.250000000000E+01 -0.154800130438E+01 -0.487811078581E+00  0.250000000000E+01  0.627766083140E+00
 -0.345533899378E+00 -0.178862290564E+01 -0.158811787973E+01  0.125000000000E+01 -0.250000000000E+01 -0.144524380962E+01  0.000000000000E+00
 -0.125000000000E+01 -0.250000000000E+01 -0.250000000000E+01 -0.250000000000E+01
  0.000000000000E+00  0.125000000000E+01  0.000000000000E+00  0.103724302461E+01  0.219251206392E+01  0.922061490191E+00  0.000000000000E+00
  0.000000000000E+00  0.715990576545E+00  0.250000000000E+01  0.202479342020E+01  0.324151231464E+01  0.175434191980E+01  0.310152362409E+01
  0.404200324774E+01  0.375000000000E+01  0.000000000000E+00  0.930412228790E+00  0.299062775774E+01  0.500000000000E+01  0.429310310915E+01
  0.409252726285E+01  0.187029682677E+01  0.284428995242E+01  0.500000000000E+01  0.125000000000E+01  0.394624082883E+01  0.500000000000E+01
  0.500000000000E+01  0.250000000000E+01  0.375000000000E+01  0.500000000000E+01
  0.197368854907E+02  0.122882744120E+02  0.101815627361E+02  0.125037091894E+02  0.778647672626E+01  0.945231787315E+01  0.752555286754E+01
  0.632541668556E+01  0.969458168607E+01  0.200220611610E+02  0.865883812326E+01  0.828516738848E+02  0.786289970874E+01  0.172266466091E+03
  0.279992804459E+03  0.279711936895E+03  0.294262659429E+01  0.739633276590E+01  0.139928244687E+02  0.278648122172E+03  0.258625556245E+03
  0.184293797130E+03  0.519906785758E+01  0.133512958469E+02  0.266143706159E+03  0.543690681973E+01  0.677738051389E+02  0.262563815491E+03
  0.250480240861E+03  0.206640833171E+02  0.659288683061E+02  0.981122218939E+02
  0.000000000000E+00 -0.555956923834E+00  0.000000000000E+00 -0.526660645057E+00 -0.124454764078E+01 -0.158953436912E+01  0.000000000000E+00
  0.000000000000E+00 -0.248739984119E+01 -0.758196061501E+00 -0.248806673620E+01 -0.133427964503E+01 -0.300334301139E+01 -0.362069219351E+00
 -0.290847264058E+00 -0.358667548778E+00  0.000000000000E+00 -0.363050457040E+01 -0.604958324586E+01 -0.356485596784E+00 -0.392554141905E+00
 -0.521905482141E+00 -0.755443647522E+01 -0.481098946313E+01 -0.453783322864E+00 -0.595539072358E+01 -0.112935947978E+01 -0.278551671811E+00
 -0.481412885942E+00 -0.504199382419E+01 -0.154861256443E+01 -0.647734643859E+00
  0.000000000000E+00  0.000000000000E+00  0.000000000000E+00  0.290921058122E+00  0.133439549871E+00  0.377049469937E+00  0.000000000000E+00
  0.000000000000E+00  0.504835048340E-01  0.000000000000E+00  0.273965860434E+00  0.169875792190E+00 -0.141865263390E+00 -0.170502414281E-01
  0.431721171481E-02  0.000000000000E+00  0.000000000000E+00 -0.130171479818E+00 -0.522879041529E+00  0.000000000000E+00 -0.602067736864E-01
 -0.220545590522E+00  0.306781976785E+00  0.117946088338E-01 -0.298654850040E-01  0.000000000000E+00 -0.505035509074E+00 -0.251723898097E+00
 -0.401685132309E+00  0.000000000000E+00  0.000000000000E+00  0.000000000000E+00
  0.000000000000E+00 -0.187407391196E+00  0.000000000000E+00 -0.108518336733E+00 -0.252527166273E+00  0.159812528468E+00  0.000000000000E+00
  0.000000000000E+00  0.341430595725E+00 -0.603255604441E+00 -0.105158572881E+00 -0.168228458981E+01  0.322814345992E+00 -0.153570947354E+00
  0.710898917535E-01  0.110676277524E+00  0.000000000000E+00  0.334512614896E+00  0.763090353979E+00  0.269618938076E+00 -0.521946755053E-01
 -0.118199252597E+00  0.158164064743E+01  0.972166683044E+00  0.170499715219E+00  0.111056912578E+01  0.349572722346E+00 -0.509222857172E-01
  0.574943838902E-01  0.115735447340E+01  0.859204032698E+00  0.627727859981E+00
  0.558572519525E+01  0.800254320609E+01  0.701526219607E+01  0.732782434537E+01  0.510041066663E+01  0.572419775809E+01  0.798307840729E+01
  0.127955363625E+02  0.840487846755E+01  0.943030019799E+01  0.591228433393E+01  0.338763390116E+01  0.846783805746E+01  0.237372184450E+02
  0.275644876769E+02  0.217765818971E+02  0.381087090178E+02  0.145131419728E+02  0.954978995932E+01  0.428636335342E+02  0.551093715321E+02
  0.110079338842E+03  0.293743214564E+01  0.372930958467E+02  0.137757186255E+03  0.142683815608E+02  0.897387855337E+02  0.197019746273E+03
  0.181079160037E+03  0.666251055554E+02  0.168160079643E+03  0.156330434884E+03
  0.000000000000E+00  0.614439218436E+00  0.000000000000E+00  0.674959171421E+00  0.133340157865E+01  0.178267792309E+01  0.000000000000E+00
  0.000000000000E+00  0.227940487894E+01  0.119318889754E+01  0.256241858527E+01  0.900247400612E+01  0.246274124156E+01  0.896279924794E+00
  0.806575121606E+00  0.113694446572E+01  0.000000000000E+00  0.220111548999E+01  0.626088948672E+01  0.963144814185E+00  0.733374799465E+00
  0.632934449074E+00  0.868511154007E+01  0.248204520101E+01  0.570536985002E+00  0.316051498023E+01  0.944225618979E+00  0.369656782313E+00
  0.625840229631E+00  0.243488052804E+01  0.937195747489E+00  0.603923444717E+00
  0.396213236229E+00  0.911727726195E+00  0.964622752816E+00  0.820472863541E+00  0.917048259991E+00  0.847821345924E+00  0.148511477720E+01
  0.283202701071E+01  0.121375323202E+01  0.659393664370E+00  0.955924796107E+00  0.572431097556E-01  0.150771009673E+01  0.192911055629E+00
  0.137825980286E+00  0.108995043237E+00  0.181308062424E+02  0.274709094427E+01  0.955468709908E+00  0.215357944924E+00  0.298319784267E+00
  0.836224966759E+00  0.790988907348E+00  0.391050687394E+01  0.724646333142E+00  0.367409905070E+01  0.185372946804E+01  0.105051659257E+01
  0.101209909085E+01  0.451387784041E+01  0.357088051940E+01  0.223073746179E+01
        12        19        11        11
        11         5        12        12
        10        14         5         5
        19        13        11        11
        19        24        13        13
        30        23        24        24
        19        12        22        22
        28        22        21        21
        11        13         6         6
         7         6         9         9
        15        12        14        14
        18        13        23        23
        15        25        21        21
        27        19        22        22
        18         8         9         9
        27        31        24        24
         4        11         6         6
         5        14        12        12
         4         2         5         5
        21        12        15        15
        14        16        15        15
        24        19        27        27
        22        29        27        27
        23        26        18        18
        17         8        18        18
         5        11         4         4
         6         3         4         4
        26        23        30        30
         5         2        10        10
        16        14        10        10
         3         6         7         7
        21        25        28        28
        29        22        28        28
         6        13         9         9
         2         4         1         1
        31        27        32        32
        25        15        20        20
        24        23        13        13
         8         7         9         9
        13        18         9         9
        31        30        24        24
        12        21        22        22
        29        32        27        27
         3         1         4         4
        26        17        18        18
        16        20        15        15
zone t="boundary 2 bc-2", solutiontime= 0.4000000E+02, strandid=1002, i=33, j=48, f=feblock
  0.500000000000E+01  0.375000000000E+01  0.250000000000E+01  0.288078410721E+01  0.125000000000E+01  0.190974100652E+01  0.326683758169E+01
  0.201431602454E+01  0.000000000000E+00  0.963108083381E+00  0.500000000000E+01  0.403552511878E+01  0.423153924130E+01  0.500000000000E+01
  0.385533350601E+01  0.500000000000E+01  0.398173246726E+01  0.315249557942E+01  0.267000324704E+01  0.154774304040E+01  0.218329375016E+01
  0.893127759452E+00  0.000000000000E+00  0.698517061619E+00  0.964171764089E+00  0.310324758057E+01  0.000000000000E+00  0.000000000000E+00
  0.125000000000E+01  0.500000000000E+01  0.375000000000E+01  0.250000000000E+01  0.000000000000E+00
 -0.250000000000E+01 -0.250000000000E+01 -0.250000000000E+01 -0.250000000000E+01 -0.250000000000E+01 -0.250000000000E+01 -0.250000000000E+01
 -0.250000000000E+01 -0.250000000000E+01 -0.250000000000E+01 -0.250000000000E+01 -0.250000000000E+01 -0.250000000000E+01 -0.250000000000E+01
 -0.250000000000E+01 -0.250000000000E+01 -0.250000000000E+01 -0.250000000000E+01 -0.250000000000E+01 -0.250000000000E+01 -0.250000000000E+01
 -0.250000000000E+01 -0.250000000000E+01 -0.250000000000E+01 -0.250000000000E+01 -0.250000000000E+01 -0.250000000000E+01 -0.250000000000E+01
 -0.250000000000E+01 -0.250000000000E+01 -0.250000000000E+01 -0.250000000000E+01 -0.250000000000E+01
  0.000000000000E+00  0.000000000000E+00  0.000000000000E+00  0.904659890645E+00  0.000000000000E+00  0.717002441913E+00  0.188609243358E+01
  0.176246431481E+01  0.000000000000E+00  0.961328577125E+00  0.125000000000E+01  0.101201586758E+01  0.191586535653E+01  0.250000000000E+01
  0.293121848150E+01  0.375000000000E+01  0.406975391361E+01  0.363585050272E+01  0.285047954584E+01  0.292817774674E+01  0.395907379566E+01
  0.205246550326E+01  0.125000000000E+01  0.306828197606E+01  0.397245519226E+01  0.433168271247E+01  0.250000000000E+01  0.375000000000E+01
  0.500000000000E+01  0.500000000000E+01  0.500000000000E+01  0.500000000000E+01  0.500000000000E+01
  0.181261189304E-01  0.967423491476E+03  0.171571707390E+02  0.175146942590E+02  0.482556558764E+01  0.112434005450E+02  0.235958070565E+02
  0.202657934000E+02  0.294262659429E+01  0.338801063203E+01  0.139840580962E+02  0.121758415163E+02  0.363633196488E+02  0.676951669392E+02
  0.597588466618E+02  0.450590713757E+02  0.598626515502E+02  0.466080287652E+02  0.327723260546E+02  0.307739182599E+02  0.347326541964E+02
  0.158203826843E+02  0.543690681973E+01  0.306959515325E+02  0.425753363701E+02  0.241514769098E+02  0.206640833171E+02  0.659288683061E+02
  0.473388393815E+02  0.577098949003E+02  0.297395541426E+02  0.365642745526E+02  0.981122218939E+02
  0.000000000000E+00  0.000000000000E+00  0.000000000000E+00 -0.149529590072E+01  0.000000000000E+00 -0.300247726088E+01 -0.959112332472E+00
 -0.195972026408E+01  0.000000000000E+00 -0.117031706333E+02  0.833132272944E+00 -0.608624885508E+00 -0.216733290551E+00  0.224244433557E+00
 -0.134483498694E+00  0.732725610473E+00  0.398884703080E-01 -0.872555530012E+00 -0.123521020724E+01 -0.169199533647E+01 -0.110111138113E+01
 -0.414920903535E+01 -0.595539072358E+01 -0.242587873358E+01 -0.150805630924E+01 -0.960931056403E+00 -0.504199382419E+01 -0.154861256443E+01
 -0.138381439754E+01  0.689772000956E+00 -0.291453988694E+00 -0.555977015851E+00 -0.647734643859E+00
  0.000000000000E+00  0.000000000000E+00  0.000000000000E+00  0.000000000000E+00  0.000000000000E+00  0.000000000000E+00  0.000000000000E+00
  0.000000000000E+00  0.000000000000E+00  0.000000000000E+00  0.000000000000E+00  0.000000000000E+00  0.000000000000E+00  0.000000000000E+00
  0.000000000000E+00  0.000000000000E+00  0.000000000000E+00  0.000000000000E+00  0.000000000000E+00  0.000000000000E+00  0.000000000000E+00
  0.000000000000E+00  0.000000000000E+00  0.000000000000E+00  0.000000000000E+00  0.000000000000E+00  0.000000000000E+00  0.000000000000E+00
  0.000000000000E+00  0.000000000000E+00  0.000000000000E+00  0.000000000000E+00  0.000000000000E+00
  0.000000000000E+00  0.000000000000E+00  0.000000000000E+00 -0.270620025036E-01  0.000000000000E+00  0.163031713991E+00  0.929386184223E+00
  0.987449286020E+00  0.000000000000E+00  0.160558504623E+01  0.133210366079E+01  0.344650384804E+00  0.105478588937E+01  0.110936302737E+01
  0.115148997477E+01  0.160220346526E+01  0.161900103030E+01  0.164023759334E+01  0.153690834909E+01  0.165259738228E+01  0.242271655796E+01
  0.121225550160E+01  0.111056912578E+01  0.153633781814E+01  0.148372286519E+01  0.259630673704E+01  0.115735447340E+01  0.859204032698E+00
  0.262348212480E+01  0.215129385542E+01  0.199267126278E+01  0.189066804515E+01  0.627727859981E+00
  0.572802256592E+00  0.364070800318E+00  0.170031348036E+03  0.158443942008E+03  0.136495580695E+03  0.104670728537E+03  0.129243647570E+03
  0.117233523426E+03  0.381087090178E+02  0.564680120523E+01  0.125733977754E+03  0.135741805650E+03  0.139835586461E+03  0.144689650939E+03
  0.110618667975E+03  0.533306532279E+02  0.677599062609E+02  0.868733558368E+02  0.102737949974E+03  0.999435863663E+02  0.745837569690E+02
  0.739410849038E+02  0.142683815608E+02  0.910191773276E+02  0.959130375358E+02  0.283271873488E+02  0.666251055554E+02  0.168160079643E+03
  0.769529758182E+02  0.178230095217E+02  0.246061945189E+02  0.382447822658E+02  0.156330434884E+03
  0.000000000000E+00  0.000000000000E+00  0.000000000000E+00  0.420240300817E+00  0.000000000000E+00  0.832896849728E+00  0.482285541842E+00
  0.771108091116E+00  0.000000000000E+00  0.773320907595E+01  0.442845735079E+00  0.177041671569E+00  0.464090834775E+00  0.654283366640E+00
  0.720153253323E+00  0.136865976805E+01  0.128649012151E+01  0.115011592662E+01  0.941191262188E+00  0.110919597888E+01  0.153483203979E+01
  0.168987241056E+01  0.316051498023E+01  0.140932528433E+01  0.119125601034E+01  0.216042620308E+01  0.243488052804E+01  0.937195747489E+00
  0.196613891974E+01  0.343573440356E+01  0.187116914372E+01  0.162855797022E+01  0.603923444717E+00
  0.442413051744E+02  0.526862459860E-03  0.138743089331E+02  0.126648810154E+02  0.396002933755E+02  0.130333362549E+02  0.766835845730E+01
  0.809871735869E+01  0.181308062424E+02  0.233338160529E+01  0.125877315186E+02  0.156078352084E+02  0.538371696909E+01  0.299231866134E+01
  0.259151814027E+01  0.165700073791E+01  0.158469206272E+01  0.260947955521E+01  0.438885936031E+01  0.454674051355E+01  0.300631386148E+01
  0.654330055922E+01  0.367409905070E+01  0.415125910411E+01  0.315389763178E+01  0.164205536731E+01  0.451387784041E+01  0.357088051940E+01
  0.227580919923E+01  0.432373224271E+00  0.115834528525E+01  0.146434452282E+01  0.223073746179E+01
        15         7        19        19
         8        20        19        19
        18        19        21        21
         7         4         8         8
         3         6         4         4
        19         7         8         8
        19        18        15        15
        14        13        15        15
         8        22        20        20
        27        24        22        22
        19        20        21        21
        32        26        21        21
        17        18        26        26
        17        16        15        15
        25        29        21        21
        12         7        13        13
        10         8         6         6
        25        20        24        24
         4         6         8         8
        12         2         4         4
        10        23        22        22
        26        31        17        17
        30        16        17        17
         4         7        12        12
        13        11        12        12
        21        20        25        25
        24        28        25        25
        22         8        10        10
         6         5        10        10
        31        26        32        32
         4         2         3         3
         5         6         3         3
        11        13        14        14
        22        23        27        27
        28        24        27        27
        15        13         7         7
         2        12         1         1
        29        25        33        33
        23        10         9         9
        21        26        18        18
        16        14        15        15
        18        17        15        15
        29        32        21        21
        22        24        20        20
        28        33        25        25
        11         1        12        12
        31        30        17        17
         5         9        10        10
zone t="boundary 3 bc-3", solutiontime= 0.4000000E+02, strandid=1003, i=33, j=48, f=feblock
  0.375000000000E+01  0.250000000000E+01  0.500000000000E+01  0.403552511878E+01  0.288078410721E+01  0.125000000000E+01  0.190974100652E+01
  0.500000000000E+01  0.326683758169E+01  0.423153924130E+01  0.201431602454E+01  0.000000000000E+00  0.963108083381E+00  0.500000000000E+01
  0.267000324704E+01  0.385533350601E+01  0.893127759452E+00  0.154774304040E+01  0.000000000000E+00  0.500000000000E+01  0.315249557942E+01
  0.218329375016E+01  0.398173246726E+01  0.000000000000E+00  0.698517061619E+00  0.964171764089E+00  0.125000000000E+01  0.000000000000E+00
  0.500000000000E+01  0.310324758057E+01  0.250000000000E+01  0.375000000000E+01  0.000000000000E+00
  0.250000000000E+01  0.250000000000E+01  0.250000000000E+01  0.250000000000E+01  0.250000000000E+01  0.250000000000E+01  0.250000000000E+01
  0.250000000000E+01  0.250000000000E+01  0.250000000000E+01  0.250000000000E+01  0.250000000000E+01  0.250000000000E+01  0.250000000000E+01
  0.250000000000E+01  0.250000000000E+01  0.250000000000E+01  0.250000000000E+01  0.250000000000E+01  0.250000000000E+01  0.250000000000E+01
  0.250000000000E+01  0.250000000000E+01  0.250000000000E+01  0.250000000000E+01  0.250000000000E+01  0.250000000000E+01  0.250000000000E+01
  0.250000000000E+01  0.250000000000E+01  0.250000000000E+01  0.250000000000E+01  0.250000000000E+01
  0.000000000000E+00  0.000000000000E+00  0.000000000000E+00  0.101201586758E+01  0.904659890645E+00  0.000000000000E+00  0.717002441913E+00
  0.125000000000E+01  0.188609243358E+01  0.191586535653E+01  0.176246431481E+01  0.000000000000E+00  0.961328577125E+00  0.250000000000E+01
  0.285047954584E+01  0.293121848150E+01  0.205246550326E+01  0.292817774674E+01  0.125000000000E+01  0.375000000000E+01  0.363585050272E+01
  0.395907379566E+01  0.406975391361E+01  0.250000000000E+01  0.306828197606E+01  0.397245519226E+01  0.500000000000E+01  0.375000000000E+01
  0.500000000000E+01  0.433168271247E+01  0.500000000000E+01  0.500000000000E+01  0.500000000000E+01
  0.924310860901E+03  0.547619854240E+03  0.694749490676E+00  0.146483863168E+01  0.938334421032E+02  0.312452523832E+03  0.152121656113E+03
  0.336747817718E+02  0.133529287571E+03  0.324491298510E+03  0.177993699235E+02  0.197368854907E+02  0.644349996574E+02  0.124791811661E+03
  0.303510182761E+03  0.304323407083E+03  0.791438875153E+01  0.293883218476E+03  0.122882744120E+02  0.212774363768E+03  0.303699878671E+03
  0.296162452101E+03  0.298113645449E+03  0.200220611610E+02  0.207911596939E+03  0.288352525263E+03  0.298382814763E+03  0.279711936895E+03
  0.223833838220E+03  0.298978546573E+03  0.308523728772E+03  0.306169011852E+03  0.278648122172E+03
  0.000000000000E+00  0.000000000000E+00  0.000000000000E+00  0.624120059604E+00 -0.171307460331E+00  0.000000000000E+00 -0.698010909605E-01
 -0.138180395348E+00 -0.161341392789E+00 -0.149772263215E+00  0.782063877889E+00  0.000000000000E+00  0.830747904095E-01 -0.119129002007E+00
 -0.135281083297E+00 -0.114465887177E+00  0.135947381767E+00 -0.106958028600E+00 -0.555956923834E+00  0.251881167645E-02 -0.131511267786E+00
 -0.143287939722E+00 -0.973491193840E-01 -0.758196061501E+00 -0.337896468473E+00 -0.234017308794E+00 -0.161654864704E+00 -0.358667548778E+00
 -0.146835965693E-01 -0.104297120525E+00 -0.852819414546E-01 -0.538804097712E-01 -0.356485596784E+00
  0.000000000000E+00  0.000000000000E+00  0.000000000000E+00  0.000000000000E+00  0.000000000000E+00  0.000000000000E+00  0.000000000000E+00
  0.000000000000E+00  0.000000000000E+00  0.000000000000E+00  0.000000000000E+00  0.000000000000E+00  0.000000000000E+00  0.000000000000E+00
  0.000000000000E+00  0.000000000000E+00  0.000000000000E+00  0.000000000000E+00  0.000000000000E+00  0.000000000000E+00  0.000000000000E+00
  0.000000000000E+00  0.000000000000E+00  0.000000000000E+00  0.000000000000E+00  0.000000000000E+00  0.000000000000E+00  0.000000000000E+00
  0.000000000000E+00  0.000000000000E+00  0.000000000000E+00  0.000000000000E+00  0.000000000000E+00
  0.000000000000E+00  0.000000000000E+00  0.000000000000E+00 -0.536180746450E+00 -0.186466126922E+00  0.000000000000E+00 -0.199663985091E+00
  0.143570947843E+00  0.322067031673E+00  0.177765833345E+00  0.261773338766E+00  0.000000000000E+00 -0.156873859106E+00  0.111716254911E-01
  0.282298134789E+00  0.169724370546E+00 -0.146935775341E+00  0.227773462845E+00 -0.187407391196E+00  0.137647372116E+00  0.214662376773E+00
  0.254183654051E+00  0.297086010201E+00 -0.603255604441E+00  0.208345090313E+00  0.205008390752E+00  0.375612798031E+00  0.110676277524E+00
  0.166303362300E+00  0.267142290543E+00  0.404929597881E+00  0.305645894197E+00  0.269618938076E+00
  0.327350099688E+00  0.112237607877E+01  0.560634334868E+00  0.714876941412E+00  0.366912723378E-01  0.440667117248E+01  0.427225254227E+00
  0.104033479632E+00  0.292291510726E+00  0.112794039408E+01  0.172203406914E+00  0.558572519525E+01  0.665911088556E+00  0.466035794563E+01
  0.321249265404E+01  0.726510859716E+01  0.182314980370E+01  0.530038067385E+01  0.800254320609E+01  0.924371819643E+01  0.939359592455E+01
  0.103512703597E+02  0.521279868062E+01  0.943030019799E+01  0.403310451458E+00  0.987219250557E+01  0.296260617166E+02  0.217765818971E+02
  0.187064470182E+02  0.990513592642E+01  0.379527682945E+02  0.337415822800E+02  0.428636335342E+02
  0.000000000000E+00  0.000000000000E+00  0.000000000000E+00  0.995438838741E+00  0.108222151690E+02  0.000000000000E+00  0.337319027571E+01
  0.302992782371E+01  0.650704160134E+01  0.333212782951E+01  0.708629975947E+01  0.000000000000E+00  0.147577002484E+01  0.523284881610E+00
  0.257157699662E+01  0.111978649419E+01  0.352495022134E+00  0.158359068885E+01  0.614439218436E+00  0.558229661341E+00  0.120976733152E+01
  0.131908543631E+01  0.199811656950E+01  0.119318889754E+01  0.761743034669E+01  0.142105864104E+01  0.109679758961E+01  0.113694446572E+01
  0.488079434866E+00  0.133160361107E+01  0.997154381398E+00  0.790128585949E+00  0.963144814185E+00
  0.495818191638E-03  0.286937461837E-02  0.112974256095E+01  0.683234109433E+00  0.547435755542E-03  0.197448865697E-01  0.393182253731E-02
  0.432510216314E-02  0.306455701562E-02  0.486643727877E-02  0.135445676288E-01  0.396213236229E+00  0.144684647930E-01  0.522830868231E-01
  0.148182498351E-01  0.334221811379E-01  0.322502445268E+00  0.252499376517E-01  0.911727726195E+00  0.608212627020E-01  0.433027314726E-01
  0.489318561510E-01  0.244803224015E-01  0.659393664370E+00  0.271574380821E-02  0.479311547392E-01  0.139004273541E+00  0.108995043237E+00
  0.117002085268E+00  0.463818907943E-01  0.172219737599E+00  0.154288034920E+00  0.215357944924E+00
        15         9        16        16
        15        18        11        11
        22        15        21        21
        11         5         9         9
         5         7         2         2
        11         9        15        15
        16        21        15        15
        16        10        14        14
        18        17        11        11
        17        25        24        24
        22        18        15        15
        22        30        31        31
        30        21        23        23
        16        20        23        23
        22        27        26        26
        10         9         4         4
         7        11        13        13
        25        18        26        26
        11         7         5         5
         5         1         4         4
        17        19        13        13
        23        32        30        30
        23        20        29        29
         4         9         5         5
         4         8        10        10
        26        18        22        22
        26        28        25        25
        13        11        17        17
        13         6         7         7
        31        30        32        32
         2         1         5         5
         2         7         6         6
        14        10         8         8
        24        19        17        17
        24        25        28        28
         9        10        16        16
         3         4         1         1
        33        26        27        27
        12        13        19        19
        21        30        22        22
        16        14        20        20
        16        23        21        21
        22        31        27        27
        18        25        17        17
        26        33        28        28
         4         3         8         8
        23        29        32        32
        13        12         6         6
zone t="boundary 4 bc-4", solutiontime= 0.4000000E+02, strandid=1004, i=32, j=46, f=feblock
  0.125000000000E+01  0.219251206392E+01  0.103724302461E+01  0.500000000000E+01  0.250000000000E+01  0.375000000000E+01  0.404200324774E+01
  0.500000000000E+01  0.000000000000E+00  0.310152362409E+01  0.202479342020E+01  0.324151231464E+01  0.922061490191E+00  0.000000000000E+00
  0.299062775774E+01  0.394624082883E+01  0.500000000000E+01  0.409252726285E+01  0.500000000000E+01  0.429310310915E+01  0.175434191980E+01
  0.284428995242E+01  0.000000000000E+00  0.000000000000E+00  0.715990576545E+00  0.930412228790E+00  0.125000000000E+01  0.187029682677E+01
  0.500000000000E+01  0.375000000000E+01  0.250000000000E+01  0.000000000000E+00
  0.250000000000E+01  0.157686156160E+01  0.146289271009E+01  0.250000000000E+01  0.250000000000E+01  0.250000000000E+01  0.155830813274E+01
  0.125000000000E+01  0.250000000000E+01  0.177790177481E+01  0.477386199275E+00  0.742988685424E+00  0.308372018325E+00  0.125000000000E+01
 -0.487811078581E+00 -0.144524380962E+01 -0.125000000000E+01 -0.345533899378E+00  0.000000000000E+00  0.627766083140E+00 -0.739814786992E+00
 -0.158811787973E+01  0.000000000000E+00 -0.125000000000E+01 -0.600232012419E+00 -0.154800130438E+01 -0.250000000000E+01 -0.178862290564E+01
 -0.250000000000E+01 -0.250000000000E+01 -0.250000000000E+01 -0.250000000000E+01
  0.500000000000E+01  0.500000000000E+01  0.500000000000E+01  0.500000000000E+01  0.500000000000E+01  0.500000000000E+01  0.500000000000E+01
  0.500000000000E+01  0.500000000000E+01  0.500000000000E+01  0.500000000000E+01  0.500000000000E+01  0.500000000000E+01  0.500000000000E+01
  0.500000000000E+01  0.500000000000E+01  0.500000000000E+01  0.500000000000E+01  0.500000000000E+01  0.500000000000E+01  0.500000000000E+01
  0.500000000000E+01  0.500000000000E+01  0.500000000000E+01  0.500000000000E+01  0.500000000000E+01  0.500000000000E+01  0.500000000000E+01
  0.500000000000E+01  0.500000000000E+01  0.500000000000E+01  0.500000000000E+01
  0.298382814763E+03  0.295964869572E+03  0.285697659609E+03  0.223833838220E+03  0.308523728772E+03  0.306169011852E+03  0.294975189880E+03
  0.247879553671E+03  0.278648122172E+03  0.302091960419E+03  0.282697216578E+03  0.279146577004E+03  0.279214654565E+03  0.266143706159E+03
  0.238363928683E+03  0.405735708269E+02  0.610023203914E+02  0.201365580889E+03  0.156428079803E+03  0.269122055893E+03  0.228181189549E+03
  0.504175362406E+02  0.262563815491E+03  0.250480240861E+03  0.273880187002E+03  0.934008902597E+02  0.473388393815E+02  0.588696528730E+02
  0.577098949003E+02  0.297395541426E+02  0.365642745526E+02  0.981122218939E+02
 -0.161654864704E+00 -0.860465548444E-01 -0.182492113934E+00 -0.146835965693E-01 -0.852819414546E-01 -0.538804097712E-01 -0.686595842009E-01
  0.548032257106E-01 -0.356485596784E+00 -0.359320964446E-01 -0.153378477549E+00 -0.134724854500E+00 -0.103098837408E+00 -0.453783322864E+00
 -0.366057461305E-01 -0.101561208949E+00  0.378508403086E+00 -0.183841314334E+00  0.540540040464E-01 -0.770886599069E-01 -0.116016019730E+00
 -0.283034781486E+00 -0.278551671811E+00 -0.481412885942E+00 -0.875136983489E-01 -0.617082233738E+00 -0.138381439754E+01 -0.611822992104E+00
  0.689772000956E+00 -0.291453988694E+00 -0.555977015851E+00 -0.647734643859E+00
  0.000000000000E+00 -0.690729125516E-01 -0.556103513791E-01  0.000000000000E+00  0.000000000000E+00  0.000000000000E+00  0.111546916369E-01
  0.886234660693E-01  0.000000000000E+00  0.146667094516E-02 -0.191144289778E-01  0.207211325010E-01 -0.722449883307E-01 -0.298654850040E-01
  0.485874274837E+00  0.430970608153E-01 -0.178592649955E+00  0.212467752346E+00  0.565816895703E-01  0.451881880955E-01 -0.160071069307E-02
  0.966121511679E-01 -0.251723898097E+00 -0.401685132309E+00 -0.206487010761E+00 -0.453335723150E+00  0.000000000000E+00 -0.222915405851E+00
  0.000000000000E+00  0.000000000000E+00  0.000000000000E+00  0.000000000000E+00