title="tecplot geometry and solution file"
variables = x y z rho u v w p mach temperature
zone t="boundary 1 bc-1", solutiontime= 0.1000000E+02, strandid=1001, i=32, j=46, f=feblock
  0.000000000000E+00  0.000000000000E+00  0.000000000000E+00  0.000000000000E+00  0.000000000000E+00  0.000000000000E+00  0.000000000000E+00
  0.000000000000E+00  0.000000000000E+00  0.000000000000E+00  0.000000000000E+00  0.000000000000E+00  0.000000000000E+00  0.000000000000E+00
  0.000000000000E+00  0.000000000000E+00  0.000000000000E+00  0.000000000000E+00  0.000000000000E+00  0.000000000000E+00  0.000000000000E+00
  0.000000000000E+00  0.000000000000E+00  0.000000000000E+00  0.000000000000E+00  0.000000000000E+00  0.000000000000E+00  0.000000000000E+00
  0.000000000000E+00  0.000000000000E+00  0.000000000000E+00  0.000000000000E+00
  0.250000000000E+01  0.250000000000E+01  0.125000000000E+01  0.146289271009E+01  0.157686156160E+01  0.308372018325E+00  0.000000000000E+00
 -0.125000000000E+01 -0.600232012419E+00  0.250000000000E+01  0.477386199275E+00  0.742988685424E+00 -0.739814786992E+00  0.177790177481E+01
  0.155830813274E+01  0.250000000000E+01 -0.250000000000E+01 -0.154800130438E+01 -0.487811078581E+00  0.250000000000E+01  0.627766083140E+00
 -0.345533899378E+00 -0.178862290564E+01 -0.158811787973E+01  0.125000000000E+01 -0.250000000000E+01 -0.144524380962E+01  0.000000000000E+00
 -0.125000000000E+01 -0.250000000000E+01 -0.250000000000E+01 -0.250000000000E+01
  0.000000000000E+00  0.125000000000E+01  0.000000000000E+00  0.103724302461E+01  0.219251206392E+01  0.922061490191E+00  0.000000000000E+00
  0.000000000000E+00  0.715990576545E+00  0.250000000000E+01  0.202479342020E+01  0.324151231464E+01  0.175434191980E+01  0.310152362409E+01
  0.404200324774E+01  0.375000000000E+01  0.000000000000E+00  0.930412228790E+00  0.299062775774E+01  0.500000000000E+01  0.429310310915E+01
  0.409252726285E+01  0.187029682677E+01  0.284428995242E+01  0.500000000000E+01  0.125000000000E+01  0.394624082883E+01  0.500000000000E+01
  0.500000000000E+01  0.250000000000E+01  0.375000000000E+01  0.500000000000E+01
  0.117089009939E+01  0.132773364356E+01  0.109927697783E+01  0.134999312047E+01  0.126506993460E+01  0.130506354339E+01  0.103281451791E+01
  0.111756181628E+01  0.124953765623E+01  0.124470669590E+01  0.122615682784E+01  0.120628554743E+01  0.120215690141E+01  0.122412555937E+01
  0.120408231336E+01  0.120924441839E+01  0.122148599910E+01  0.121101320396E+01  0.121185595100E+01  0.120290419506E+01  0.119408205507E+01
  0.120305502743E+01  0.120024573173E+01  0.121050517330E+01  0.119268658101E+01  0.117392244616E+01  0.119609252048E+01  0.119459441041E+01
  0.118245315118E+01  0.120735838226E+01  0.118955985743E+01  0.117826789698E+01
  0.000000000000E+00  0.257821101200E+00  0.000000000000E+00  0.282588311645E+00  0.272703459728E+00  0.336654651485E+00  0.000000000000E+00
  0.000000000000E+00  0.346344537911E+00  0.291946788130E+00  0.304272254135E+00  0.317694372988E+00  0.352470784626E+00  0.313527406850E+00
  0.326122812874E+00  0.312265036694E+00  0.000000000000E+00  0.387191766546E+00  0.323725391927E+00  0.306493207531E+00  0.355747440484E+00
  0.344026110193E+00  0.341436583298E+00  0.339925977939E+00  0.324428016654E+00  0.374636975231E+00  0.366297872196E+00  0.336265181568E+00
  0.338826305975E+00  0.345559010976E+00  0.355103887010E+00  0.330232354999E+00
  0.000000000000E+00  0.000000000000E+00  0.000000000000E+00 -0.382100288872E-02 -0.210267965410E-01 -0.177062377760E-01  0.000000000000E+00
  0.000000000000E+00 -0.968813795898E-02  0.000000000000E+00 -0.693114834647E-01 -0.501483450343E-01 -0.829897705007E-01 -0.144307320024E-02
 -0.302619525128E-01  0.000000000000E+00  0.000000000000E+00 -0.632873251683E-01 -0.654857477265E-01  0.000000000000E+00 -0.704522225683E-01
 -0.913466044286E-01 -0.432371753672E-01 -0.587010741550E-01 -0.651210582737E-01  0.000000000000E+00 -0.505547466051E-01 -0.816354931823E-01
 -0.813909368538E-01  0.000000000000E+00  0.000000000000E+00  0.000000000000E+00
  0.000000000000E+00  0.601079980569E-01  0.000000000000E+00  0.694946864286E-01  0.699033958851E-01  0.213563348109E-01  0.000000000000E+00
  0.000000000000E+00  0.506284060042E-01  0.656080843421E-01  0.394313110174E-01  0.537763470474E-01  0.552187441997E-01  0.438124153448E-01
  0.786447992327E-01  0.551871948789E-01  0.000000000000E+00  0.734742244997E-01  0.331955683241E-01  0.103056617608E+00  0.554331925206E-01
  0.504855053435E-01  0.733631025658E-02 -0.129454010345E-01  0.128588091305E+00  0.515876137932E-01  0.329453139991E-02  0.112418299869E+00
  0.957541259335E-01 -0.231100731933E-01 -0.101908948860E-01  0.819229450689E-01
  0.928176182760E+00  0.100666571030E+01  0.892027365452E+00  0.100914776207E+01  0.947260637481E+00  0.992231451060E+00  0.848816943810E+00
  0.908079571577E+00  0.939599650180E+00  0.944213457196E+00  0.915257362977E+00  0.907040827718E+00  0.904523958877E+00  0.930828810940E+00
  0.901389417254E+00  0.914295638624E+00  0.976134736008E+00  0.943409385998E+00  0.910371984777E+00  0.908861499154E+00  0.894090914314E+00
  0.900849493921E+00  0.905015951279E+00  0.911912109439E+00  0.898195285723E+00  0.906953043773E+00  0.896454099055E+00  0.899253848672E+00
  0.887144667794E+00  0.911597515143E+00  0.892651628077E+00  0.886755889624E+00
  0.000000000000E+00  0.256956973156E+00  0.000000000000E+00  0.284489842373E+00  0.275725027139E+00  0.327415682961E+00  0.000000000000E+00
  0.000000000000E+00  0.341275470553E+00  0.290359817798E+00  0.307697848440E+00  0.317825500204E+00  0.356892626063E+00  0.306826962082E+00
  0.329020728921E+00  0.308213538110E+00  0.000000000000E+00  0.382205669355E+00  0.323683150932E+00  0.314400223140E+00  0.358321454194E+00
  0.351125819132E+00  0.335047348014E+00  0.336134939392E+00  0.345739763933E+00  0.363624202169E+00  0.360996796019E+00  0.354413712130E+00
  0.352611660918E+00  0.336855608135E+00  0.346595025742E+00  0.331469966229E+00
  0.110979387095E+01  0.106145686770E+01  0.113605427642E+01  0.104652893817E+01  0.104829373951E+01  0.106441103081E+01  0.115058773936E+01
  0.113757591007E+01  0.105274099080E+01  0.106201633238E+01  0.104502154951E+01  0.105270030095E+01  0.105338457978E+01  0.106456427230E+01
  0.104805557739E+01  0.105852371498E+01  0.111879189071E+01  0.109063479744E+01  0.105170979904E+01  0.105777841996E+01  0.104827576524E+01
  0.104832219868E+01  0.105563577382E+01  0.105466459902E+01  0.105432007036E+01  0.108161681842E+01  0.104927981506E+01  0.105387684487E+01
  0.105036088210E+01  0.105704862777E+01  0.105056695676E+01  0.105362986521E+01
        12        19        11        11
        11         5        12        12
        10        14         5         5
        19        13        11        11
        19        24        13        13
        30        23        24        24
        19        12        22        22
        28        22        21        21
        11        13         6         6
         7         6         9         9
        15        12        14        14
        18        13        23        23
        15        25        21        21
        27        19        22        22
        18         8         9         9
        27        31        24        24
         4        11         6         6
         5        14        12        12
         4         2         5         5
        21        12        15        15
        14        16        15        15
        24        19        27        27
        22        29        27        27
        23        26        18        18
        17         8        18        18
         5        11         4         4
         6         3         4         4
        26        23        30        30
         5         2        10        10
        16        14        10        10
         3         6         7         7
        21        25        28        28
        29        22        28        28
         6        13         9         9
         2         4         1         1
        31        27        32        32
        25        15        20        20
        24        23        13        13
         8         7         9         9
        13        18         9         9
        31        30        24        24
        12        21        22        22
        29        32        27        27
         3         1         4         4
        26        17        18        18
        16        20        15        15
zone t="boundary 2 bc-2", solutiontime= 0.1000000E+02, strandid=1002, i=33, j=48, f=feblock
  0.500000000000E+01  0.375000000000E+01  0.250000000000E+01  0.288078410721E+01  0.125000000000E+01  0.190974100652E+01  0.326683758169E+01
  0.201431602454E+01  0.000000000000E+00  0.963108083381E+00  0.500000000000E+01  0.403552511878E+01  0.423153924130E+01  0.500000000000E+01
  0.385533350601E+01  0.500000000000E+01  0.398173246726E+01  0.315249557942E+01  0.267000324704E+01  0.154774304040E+01  0.218329375016E+01
  0.893127759452E+00  0.000000000000E+00  0.698517061619E+00  0.964171764089E+00  0.310324758057E+01  0.000000000000E+00  0.000000000000E+00
  0.125000000000E+01  0.500000000000E+01  0.375000000000E+01  0.250000000000E+01  0.000000000000E+00
 -0.250000000000E+01 -0.250000000000E+01 -0.250000000000E+01 -0.250000000000E+01 -0.250000000000E+01 -0.250000000000E+01 -0.250000000000E+01
 -0.250000000000E+01 -0.250000000000E+01 -0.250000000000E+01 -0.250000000000E+01 -0.250000000000E+01 -0.250000000000E+01 -0.250000000000E+01
 -0.250000000000E+01 -0.250000000000E+01 -0.250000000000E+01 -0.250000000000E+01 -0.250000000000E+01 -0.250000000000E+01 -0.250000000000E+01
 -0.250000000000E+01 -0.250000000000E+01 -0.250000000000E+01 -0.250000000000E+01 -0.250000000000E+01 -0.250000000000E+01 -0.250000000000E+01
 -0.250000000000E+01 -0.250000000000E+01 -0.250000000000E+01 -0.250000000000E+01 -0.250000000000E+01
  0.000000000000E+00  0.000000000000E+00  0.000000000000E+00  0.904659890645E+00  0.000000000000E+00  0.717002441913E+00  0.188609243358E+01
  0.176246431481E+01  0.000000000000E+00  0.961328577125E+00  0.125000000000E+01  0.101201586758E+01  0.191586535653E+01  0.250000000000E+01
  0.293121848150E+01  0.375000000000E+01  0.406975391361E+01  0.363585050272E+01  0.285047954584E+01  0.292817774674E+01  0.395907379566E+01
  0.205246550326E+01  0.125000000000E+01  0.306828197606E+01  0.397245519226E+01  0.433168271247E+01  0.250000000000E+01  0.375000000000E+01
  0.500000000000E+01  0.500000000000E+01  0.500000000000E+01  0.500000000000E+01  0.500000000000E+01
  0.856971545501E+00  0.407548451650E+01  0.223337451211E+01  0.138419634854E+01  0.121387596307E+01  0.102346058833E+01  0.101493547343E+01
  0.100158633907E+01  0.122148599910E+01  0.108949177232E+01  0.907213097129E+00  0.109463177106E+01  0.103000239403E+01  0.103866014717E+01
  0.997057764368E+00  0.103342138985E+01  0.992869937023E+00  0.101362920827E+01  0.102091213421E+01  0.110140185714E+01  0.107728250894E+01
  0.112744341273E+01  0.117392244616E+01  0.117390486591E+01  0.114925040737E+01  0.102552661649E+01  0.120735838226E+01  0.118955985743E+01
  0.117236974529E+01  0.101815534563E+01  0.100673603195E+01  0.111504540564E+01  0.117826789698E+01
  0.000000000000E+00  0.000000000000E+00  0.000000000000E+00  0.482919625719E+00  0.000000000000E+00  0.372838223672E+00  0.552833679844E+00
  0.557077558484E+00  0.000000000000E+00  0.415027631192E+00  0.647629169850E+00  0.560756216852E+00  0.481039232835E+00  0.425050451127E+00
  0.484909732388E+00  0.455770963638E+00  0.475336657780E+00  0.455295443769E+00  0.505118449869E+00  0.460664703664E+00  0.451756736587E+00
  0.430006114731E+00  0.374636975231E+00  0.380689231722E+00  0.384559782905E+00  0.447897899487E+00  0.345559010976E+00  0.355103887010E+00
  0.325193371161E+00  0.495909476839E+00  0.402927646930E+00  0.328574925179E+00  0.330232354999E+00
  0.000000000000E+00  0.000000000000E+00  0.000000000000E+00  0.000000000000E+00  0.000000000000E+00  0.000000000000E+00  0.000000000000E+00
  0.000000000000E+00  0.000000000000E+00  0.000000000000E+00  0.000000000000E+00  0.000000000000E+00  0.000000000000E+00  0.000000000000E+00
  0.000000000000E+00  0.000000000000E+00  0.000000000000E+00  0.000000000000E+00  0.000000000000E+00  0.000000000000E+00  0.000000000000E+00
  0.000000000000E+00  0.000000000000E+00  0.000000000000E+00  0.000000000000E+00  0.000000000000E+00  0.000000000000E+00  0.000000000000E+00
  0.000000000000E+00  0.000000000000E+00  0.000000000000E+00  0.000000000000E+00  0.000000000000E+00
  0.000000000000E+00  0.000000000000E+00  0.000000000000E+00 -0.123304237498E+00  0.000000000000E+00 -0.144757284167E-01 -0.137747630462E+00
 -0.328561517287E-01  0.000000000000E+00  0.108625909682E-01 -0.254151814225E+00 -0.437457989058E+00 -0.144632905987E+00  0.479949459311E-01
  0.381905800948E-01  0.230441804613E+00  0.154424431417E+00  0.464609957075E-01 -0.119711154314E-01  0.208360995871E-01  0.770847807884E-01
  0.175219892270E-01  0.515876137932E-01  0.169610905609E-01  0.500536527080E-01  0.841311766116E-01 -0.231100731933E-01 -0.101908948860E-01
  0.119780931825E+00  0.187120038494E+00  0.143567087545E+00  0.121825395878E+00  0.819229450689E-01
  0.572807306268E+00  0.363021669862E+00  0.725480042080E+00  0.702217978857E+00  0.767113281439E+00  0.733824181013E+00  0.733747995745E+00
  0.767641409743E+00  0.976134736008E+00  0.824911089914E+00  0.706188518814E+00  0.674358223009E+00  0.732332651060E+00  0.734820779758E+00
  0.757926980659E+00  0.742907693555E+00  0.749426968819E+00  0.765384198753E+00  0.774406278920E+00  0.828745207417E+00  0.787625156430E+00
  0.845866589360E+00  0.906953043773E+00  0.874899174213E+00  0.849749506499E+00  0.759124319599E+00  0.911597515143E+00  0.892651628077E+00
  0.863768429699E+00  0.767123223869E+00  0.759206205578E+00  0.820970062583E+00  0.886755889624E+00
  0.000000000000E+00  0.000000000000E+00  0.000000000000E+00  0.591409136867E+00  0.000000000000E+00  0.372411475347E+00  0.566311849522E+00
  0.538729426392E+00  0.000000000000E+00  0.403246032077E+00  0.666439114399E+00  0.765810647372E+00  0.503471068106E+00  0.429807122724E+00
  0.471504811529E+00  0.509080597028E+00  0.486190680931E+00  0.445121566006E+00  0.490298873337E+00  0.449290352230E+00  0.452978664778E+00
  0.419920726304E+00  0.363624202169E+00  0.373056523298E+00  0.381162035190E+00  0.447673514260E+00  0.336855608135E+00  0.346595025742E+00
  0.341222664263E+00  0.516080345864E+00  0.416288676251E+00  0.345161958628E+00  0.331469966229E+00
  0.935772293706E+00  0.124704273994E+00  0.454770148672E+00  0.710235344457E+00  0.884735036105E+00  0.100380402053E+01  0.101213054518E+01
  0.107299583842E+01  0.111879189071E+01  0.106001307694E+01  0.108978136390E+01  0.862483199535E+00  0.995401289773E+00  0.990457845587E+00
  0.106422898536E+01  0.100643433665E+01  0.105673232437E+01  0.105713003287E+01  0.106196092118E+01  0.105342412750E+01  0.102357107802E+01
  0.105035269330E+01  0.108161681842E+01  0.104340554287E+01  0.103515239279E+01  0.103632029667E+01  0.105704862777E+01  0.105056695676E+01
  0.103147987778E+01  0.105482185800E+01  0.105577694061E+01  0.103077245268E+01  0.105362986521E+01
        15         7        19        19
         8        20        19        19
        18        19        21        21
         7         4         8         8
         3         6         4         4
        19         7         8         8
        19        18        15        15
        14        13        15        15
         8        22        20        20
        27        24        22        22
        19        20        21        21
        32        26        21        21
        17        18        26        26
        17        16        15        15
        25        29        21        21
        12         7        13        13
        10         8         6         6
        25        20        24        24
         4         6         8         8
        12         2         4         4
        10        23        22        22
        26        31        17        17
        30        16        17        17
         4         7        12        12
        13        11        12        12
        21        20        25        25
        24        28        25        25
        22         8        10        10
         6         5        10        10
        31        26        32        32
         4         2         3         3
         5         6         3         3
        11        13        14        14
        22        23        27        27
        28        24        27        27
        15        13         7         7
         2        12         1         1
        29        25        33        33
        23        10         9         9
        21        26        18        18
        16        14        15        15
        18        17        15        15
        29        32        21        21
        22        24        20        20
        28        33        25        25
        11         1        12        12
        31        30        17        17
         5         9        10        10
zone t="boundary 3 bc-3", solutiontime= 0.1000000E+02, strandid=1003, i=33, j=48, f=feblock
  0.375000000000E+01  0.250000000000E+01  0.500000000000E+01  0.403552511878E+01  0.288078410721E+01  0.125000000000E+01  0.190974100652E+01
  0.500000000000E+01  0.326683758169E+01  0.423153924130E+01  0.201431602454E+01  0.000000000000E+00  0.963108083381E+00  0.500000000000E+01
  0.267000324704E+01  0.385533350601E+01  0.893127759452E+00  0.154774304040E+01  0.000000000000E+00  0.500000000000E+01  0.315249557942E+01
  0.218329375016E+01  0.398173246726E+01  0.000000000000E+00  0.698517061619E+00  0.964171764089E+00  0.125000000000E+01  0.000000000000E+00
  0.500000000000E+01  0.310324758057E+01  0.250000000000E+01  0.375000000000E+01  0.000000000000E+00
  0.250000000000E+01  0.250000000000E+01  0.250000000000E+01  0.250000000000E+01  0.250000000000E+01  0.250000000000E+01  0.250000000000E+01
  0.250000000000E+01  0.250000000000E+01  0.250000000000E+01  0.250000000000E+01  0.250000000000E+01  0.250000000000E+01  0.250000000000E+01
  0.250000000000E+01  0.250000000000E+01  0.250000000000E+01  0.250000000000E+01  0.250000000000E+01  0.250000000000E+01  0.250000000000E+01
  0.250000000000E+01  0.250000000000E+01  0.250000000000E+01  0.250000000000E+01  0.250000000000E+01  0.250000000000E+01  0.250000000000E+01
  0.250000000000E+01  0.250000000000E+01  0.250000000000E+01  0.250000000000E+01  0.250000000000E+01
  0.000000000000E+00  0.000000000000E+00  0.000000000000E+00  0.101201586758E+01  0.904659890645E+00  0.000000000000E+00  0.717002441913E+00
  0.125000000000E+01  0.188609243358E+01  0.191586535653E+01  0.176246431481E+01  0.000000000000E+00  0.961328577125E+00  0.250000000000E+01
  0.285047954584E+01  0.293121848150E+01  0.205246550326E+01  0.292817774674E+01  0.125000000000E+01  0.375000000000E+01  0.363585050272E+01
  0.395907379566E+01  0.406975391361E+01  0.250000000000E+01  0.306828197606E+01  0.397245519226E+01  0.500000000000E+01  0.375000000000E+01
  0.500000000000E+01  0.433168271247E+01  0.500000000000E+01  0.500000000000E+01  0.500000000000E+01
  0.389386306538E+01  0.230696924000E+01  0.694749490676E+00  0.146483863168E+01  0.246406929190E+01  0.131627506903E+01  0.138828627668E+01
  0.896927368707E+00  0.135462349973E+01  0.143379993335E+01  0.126443900776E+01  0.117089009939E+01  0.128878661524E+01  0.133642431673E+01
  0.127860348787E+01  0.128202937442E+01  0.128174410554E+01  0.129200016544E+01  0.132773364356E+01  0.127742900419E+01  0.127940262366E+01
  0.124871412824E+01  0.125586938594E+01  0.124470669590E+01  0.125092171057E+01  0.122574324196E+01  0.126873688180E+01  0.120924441839E+01
  0.127346367797E+01  0.126206981639E+01  0.131302144340E+01  0.130548159769E+01  0.120290419506E+01
  0.000000000000E+00  0.000000000000E+00  0.000000000000E+00  0.624120059604E+00  0.375089011574E+00  0.000000000000E+00  0.202519329010E+00
  0.663918137415E+00  0.337462795465E+00  0.335745335413E+00  0.330237860770E+00  0.000000000000E+00  0.236099418983E+00  0.408807837481E+00
  0.331760066061E+00  0.380839472226E+00  0.322333783512E+00  0.308429161522E+00  0.257821101200E+00  0.438363176100E+00  0.336840503099E+00
  0.327769313175E+00  0.371569627865E+00  0.291946788130E+00  0.310177991781E+00  0.319710291281E+00  0.225251067486E+00  0.312265036694E+00
  0.413611149668E+00  0.362294453181E+00  0.279278232654E+00  0.317006527787E+00  0.306493207531E+00
  0.000000000000E+00  0.000000000000E+00  0.000000000000E+00  0.000000000000E+00  0.000000000000E+00  0.000000000000E+00  0.000000000000E+00
  0.000000000000E+00  0.000000000000E+00  0.000000000000E+00  0.000000000000E+00  0.000000000000E+00  0.000000000000E+00  0.000000000000E+00
  0.000000000000E+00  0.000000000000E+00  0.000000000000E+00  0.000000000000E+00  0.000000000000E+00  0.000000000000E+00  0.000000000000E+00
  0.000000000000E+00  0.000000000000E+00  0.000000000000E+00  0.000000000000E+00  0.000000000000E+00  0.000000000000E+00  0.000000000000E+00
  0.000000000000E+00  0.000000000000E+00  0.000000000000E+00  0.000000000000E+00  0.000000000000E+00
  0.000000000000E+00  0.000000000000E+00  0.000000000000E+00 -0.536180746450E+00 -0.182327562595E+00  0.000000000000E+00  0.487637556147E-02
 -0.470938010028E+00  0.142690905342E-01  0.168678232141E-01  0.408842725455E-01  0.000000000000E+00  0.120443061937E-01  0.922690177989E-01
  0.111042684413E+00  0.131313892638E+00  0.571086232507E-01  0.996567581906E-01  0.601079980569E-01  0.189128493977E+00  0.154162498240E+00
  0.121634063110E+00  0.134991516155E+00  0.656080843421E-01  0.641976381623E-01  0.695497355300E-01  0.129753252079E+00  0.551871948789E-01
  0.192268830205E+00  0.137880257343E+00  0.153723422235E+00  0.121522986259E+00  0.103056617608E+00
  0.326192261306E+00  0.867860211047E+00  0.560634334868E+00  0.714876941412E+00  0.917675209869E+00  0.864720444482E+00  0.890780130332E+00
  0.722011168220E+00  0.899054628175E+00  0.893390258128E+00  0.896569339167E+00  0.928176182760E+00  0.928722976745E+00  0.921233419944E+00
  0.915555546153E+00  0.928065501863E+00  0.937571273488E+00  0.928192422730E+00  0.100666571030E+01  0.931109659858E+00  0.917541523768E+00
  0.901847228219E+00  0.917973893706E+00  0.944213457196E+00  0.932599174914E+00  0.908076856537E+00  0.933228398391E+00  0.914295638624E+00
  0.936901848249E+00  0.909626868055E+00  0.951301729661E+00  0.953635170009E+00  0.908861499154E+00
  0.000000000000E+00  0.000000000000E+00  0.000000000000E+00  0.995438838741E+00  0.577579226010E+00  0.000000000000E+00  0.213738411461E+00
  0.766758350742E+00  0.350401561493E+00  0.359929167283E+00  0.333981819181E+00  0.000000000000E+00  0.235365434637E+00  0.426610802642E+00
  0.349416816734E+00  0.400157432094E+00  0.323483244785E+00  0.323196754549E+00  0.256956973156E+00  0.472613878719E+00  0.369698315256E+00
  0.347684710314E+00  0.390799555747E+00  0.290359817798E+00  0.310043527705E+00  0.321270975841E+00  0.256163615400E+00  0.308213538110E+00
  0.449424960921E+00  0.385904307977E+00  0.316532111613E+00  0.335715485075E+00  0.314400223140E+00
  0.117279205293E+00  0.526666881552E+00  0.112974256095E+01  0.683234109433E+00  0.521391706817E+00  0.919723126847E+00  0.898296124806E+00
  0.112697601921E+01  0.929170710310E+00  0.872329766715E+00  0.992690882776E+00  0.110979387095E+01  0.100886535604E+01  0.965057857583E+00
  0.100248261230E+01  0.101346484607E+01  0.102407319621E+01  0.100578113423E+01  0.106145686770E+01  0.102045085835E+01  0.100402962251E+01
  0.101110902083E+01  0.102332572605E+01  0.106201633238E+01  0.104374145388E+01  0.103717283982E+01  0.102977991457E+01  0.105852371498E+01
  0.102999607311E+01  0.100903896024E+01  0.101431886602E+01  0.102267947735E+01  0.105777841996E+01
        15         9        16        16
        15        18        11        11
        22        15        21        21
        11         5         9         9
         5         7         2         2
        11         9        15        15
        16        21        15        15
        16        10        14        14
        18        17        11        11
        17        25        24        24
        22        18        15        15
        22        30        31        31
        30        21        23        23
        16        20        23        23
        22        27        26        26
        10         9         4         4
         7        11        13        13
        25        18        26        26
        11         7         5         5
         5         1         4         4
        17        19        13        13
        23        32        30        30
        23        20        29        29
         4         9         5         5
         4         8        10        10
        26        18        22        22
        26        28        25        25
        13        11        17        17
        13         6         7         7
        31        30        32        32
         2         1         5         5
         2         7         6         6
        14        10         8         8
        24        19        17        17
        24        25        28        28
         9        10        16        16
         3         4         1         1
        33        26        27        27
        12        13        19        19
        21        30        22        22
        16        14        20        20
        16        23        21        21
        22        31        27        27
        18        25        17        17
        26        33        28        28
         4         3         8         8
        23        29        32        32
        13        12         6         6
zone t="boundary 4 bc-4", solutiontime= 0.1000000E+02, strandid=1004, i=32, j=46, f=feblock
  0.125000000000E+01  0.219251206392E+01  0.103724302461E+01  0.500000000000E+01  0.250000000000E+01  0.375000000000E+01  0.404200324774E+01
  0.500000000000E+01  0.000000000000E+00  0.310152362409E+01  0.202479342020E+01  0.324151231464E+01  0.922061490191E+00  0.000000000000E+00
  0.299062775774E+01  0.394624082883E+01  0.500000000000E+01  0.409252726285E+01  0.500000000000E+01  0.429310310915E+01  0.175434191980E+01
  0.284428995242E+01  0.000000000000E+00  0.000000000000E+00  0.715990576545E+00  0.930412228790E+00  0.125000000000E+01  0.187029682677E+01
  0.500000000000E+01  0.375000000000E+01  0.250000000000E+01  0.000000000000E+00
  0.250000000000E+01  0.157686156160E+01  0.146289271009E+01  0.250000000000E+01  0.250000000000E+01  0.250000000000E+01  0.155830813274E+01
  0.125000000000E+01  0.250000000000E+01  0.177790177481E+01  0.477386199275E+00  0.742988685424E+00  0.308372018325E+00  0.125000000000E+01
 -0.487811078581E+00 -0.144524380962E+01 -0.125000000000E+01 -0.345533899378E+00  0.000000000000E+00  0.627766083140E+00 -0.739814786992E+00
 -0.158811787973E+01  0.000000000000E+00 -0.125000000000E+01 -0.600232012419E+00 -0.154800130438E+01 -0.250000000000E+01 -0.178862290564E+01
 -0.250000000000E+01 -0.250000000000E+01 -0.250000000000E+01 -0.250000000000E+01
  0.500000000000E+01  0.500000000000E+01  0.500000000000E+01  0.500000000000E+01  0.500000000000E+01  0.500000000000E+01  0.500000000000E+01
  0.500000000000E+01  0.500000000000E+01  0.500000000000E+01  0.500000000000E+01  0.500000000000E+01  0.500000000000E+01  0.500000000000E+01
  0.500000000000E+01  0.500000000000E+01  0.500000000000E+01  0.500000000000E+01  0.500000000000E+01  0.500000000000E+01  0.500000000000E+01
  0.500000000000E+01  0.500000000000E+01  0.500000000000E+01  0.500000000000E+01  0.500000000000E+01  0.500000000000E+01  0.500000000000E+01
  0.500000000000E+01  0.500000000000E+01  0.500000000000E+01  0.500000000000E+01
  0.126873688180E+01  0.125412449423E+01  0.121893576388E+01  0.127346367797E+01  0.131302144340E+01  0.130548159769E+01  0.124382232390E+01
  0.118680993046E+01  0.120290419506E+01  0.127879024408E+01  0.120021347727E+01  0.117764725164E+01  0.119817840566E+01  0.119268658101E+01
  0.110812427564E+01  0.999664361089E+00  0.102610539902E+01  0.107916867793E+01  0.109647873039E+01  0.113959683646E+01  0.116927765848E+01
  0.107449422271E+01  0.119459441041E+01  0.118245315118E+01  0.120383653369E+01  0.117768727060E+01  0.117236974529E+01  0.115767720655E+01
  0.101815534563E+01  0.100673603195E+01  0.111504540564E+01  0.117826789698E+01
  0.225251067486E+00  0.285735164021E+00  0.277176666297E+00  0.413611149668E+00  0.279278232654E+00  0.317006527787E+00  0.343311592020E+00
  0.443497751007E+00  0.306493207531E+00  0.311068881917E+00  0.280332873842E+00  0.357713802945E+00  0.289006406526E+00  0.324428016654E+00
  0.349686163046E+00  0.444696149460E+00  0.474547389530E+00  0.426520423668E+00  0.477868415915E+00  0.422671483808E+00  0.314099262115E+00
  0.378801061949E+00  0.336265181568E+00  0.338826305975E+00  0.307099846576E+00  0.309784445747E+00  0.325193371161E+00  0.292366368692E+00
  0.495909476839E+00  0.402927646930E+00  0.328574925179E+00  0.330232354999E+00
  0.000000000000E+00  0.685513282568E-02 -0.247501849467E-01  0.000000000000E+00  0.000000000000E+00  0.000000000000E+00  0.102113040505E-01
  0.264998263493E-01  0.000000000000E+00  0.177606033054E-01 -0.472466267651E-01 -0.144604304335E-02 -0.758639529355E-01 -0.651210582737E-01
 -0.660128747291E-01 -0.753311080240E-01 -0.542610827582E-01 -0.530607957171E-01 -0.158528540702E-02 -0.714905044853E-02 -0.794771985490E-01
 -0.736060931346E-01 -0.816354931823E-01 -0.813909368538E-01 -0.909548256053E-01 -0.526418384981E-01  0.000000000000E+00 -0.483763688046E-01
  0.000000000000E+00  0.000000000000E+00  0.000000000000E+00  0.000000000000E+00