# vtk DataFile Version 2.0
FUN3D:global_image_vtk
ASCII
DATASET UNSTRUCTURED_GRID
POINTS 213 double
    0.0000000000000000E+00    0.2500000000000000E+01    0.0000000000000000E+00
    0.1250000000000000E+01    0.2500000000000000E+01    0.0000000000000000E+00
    0.2500000000000000E+01    0.2500000000000000E+01    0.0000000000000000E+00
    0.3750000000000000E+01    0.2500000000000000E+01    0.0000000000000000E+00
    0.5000000000000000E+01    0.2500000000000000E+01    0.0000000000000000E+00
    0.5000000000000000E+01    0.1250000000000000E+01    0.0000000000000000E+00
    0.5000000000000000E+01    0.0000000000000000E+00    0.0000000000000000E+00
    0.5000000000000000E+01   -0.1250000000000000E+01    0.0000000000000000E+00
    0.5000000000000000E+01   -0.2500000000000000E+01    0.0000000000000000E+00
    0.3750000000000000E+01   -0.2500000000000000E+01    0.0000000000000000E+00
    0.2500000000000000E+01   -0.2500000000000000E+01    0.0000000000000000E+00
    0.1250000000000000E+01   -0.2500000000000000E+01    0.0000000000000000E+00
    0.0000000000000000E+00   -0.2500000000000000E+01    0.0000000000000000E+00
    0.0000000000000000E+00   -0.1250000000000000E+01    0.0000000000000000E+00
    0.0000000000000000E+00    0.0000000000000000E+00    0.0000000000000000E+00
    0.0000000000000000E+00    0.1250000000000000E+01    0.0000000000000000E+00
    0.9058375365086910E+00    0.1578994732800803E+01    0.0000000000000000E+00
    0.3982050490726493E+01   -0.1583989954232354E+01    0.0000000000000000E+00
    0.4033849428301197E+01    0.1453322699199022E+01    0.0000000000000000E+00
    0.1040505887381675E+01   -0.1479596339503735E+01    0.0000000000000000E+00
    0.1099454400140349E+01   -0.3227322616384110E+00    0.0000000000000000E+00
    0.7354504170366591E+00    0.6593508822075582E+00    0.0000000000000000E+00
    0.1622302608453282E+01    0.8256214013940779E+00    0.0000000000000000E+00
    0.2145871574390382E+01   -0.1650070333782557E+01    0.0000000000000000E+00
    0.4086422318222992E+01   -0.4612828702537229E+00    0.0000000000000000E+00
    0.2979540174134984E+01   -0.8579242121530853E+00    0.0000000000000000E+00
    0.3045064261640043E+01   -0.1836846154397680E+01    0.0000000000000000E+00
    0.3428197553792836E+01    0.3508002863614053E+00    0.0000000000000000E+00
    0.4309693860063405E+01    0.5185680230613409E+00    0.0000000000000000E+00
    0.1827272193562204E+01    0.1738996113203182E+01    0.0000000000000000E+00
    0.2808563282768077E+01    0.1325493893339706E+01    0.0000000000000000E+00
    0.1895995683864404E+01   -0.8731419609589618E+00    0.0000000000000000E+00
    0.2273179336307740E+01    0.4906150219227333E-01    0.0000000000000000E+00
    0.5000000000000000E+01    0.2500000000000000E+01    0.1250000000000000E+01
    0.5000000000000000E+01    0.2500000000000000E+01    0.2500000000000000E+01
    0.5000000000000000E+01    0.2500000000000000E+01    0.3750000000000000E+01
    0.5000000000000000E+01    0.2500000000000000E+01    0.5000000000000000E+01
    0.3750000000000000E+01    0.2500000000000000E+01    0.5000000000000000E+01
    0.2500000000000000E+01    0.2500000000000000E+01    0.5000000000000000E+01
    0.1250000000000000E+01    0.2500000000000000E+01    0.5000000000000000E+01
    0.0000000000000000E+00    0.2500000000000000E+01    0.5000000000000000E+01
    0.0000000000000000E+00    0.2500000000000000E+01    0.3750000000000000E+01
    0.0000000000000000E+00    0.2500000000000000E+01    0.2500000000000000E+01
    0.0000000000000000E+00    0.2500000000000000E+01    0.1250000000000000E+01
    0.9631080833812172E+00    0.2500000000000000E+01    0.9613285771248219E+00
    0.3981732467264904E+01    0.2500000000000000E+01    0.4069753913607991E+01
    0.4035525118777670E+01    0.2500000000000000E+01    0.1012015867579395E+01
    0.9641717640894248E+00    0.2500000000000000E+01    0.3972455192261839E+01
    0.1547743040396780E+01    0.2500000000000000E+01    0.2928177746738678E+01
    0.6985170616192014E+00    0.2500000000000000E+01    0.3068281976055466E+01
    0.8931277594515110E+00    0.2500000000000000E+01    0.2052465503257726E+01
    0.2183293750162785E+01    0.2500000000000000E+01    0.3959073795658649E+01
    0.3855333506014705E+01    0.2500000000000000E+01    0.2931218481500625E+01
    0.3152495579421047E+01    0.2500000000000000E+01    0.3635850502723324E+01
    0.3103247580566054E+01    0.2500000000000000E+01    0.4331682712472464E+01
    0.3266837581688852E+01    0.2500000000000000E+01    0.1886092433583972E+01
    0.4231539241296245E+01    0.2500000000000000E+01    0.1915865356532799E+01
    0.1909741006522088E+01    0.2500000000000000E+01    0.7170024419130505E+00
    0.2880784107213163E+01    0.2500000000000000E+01    0.9046598906449592E+00
    0.2014316024535771E+01    0.2500000000000000E+01    0.1762464314805728E+01
    0.2670003247036656E+01    0.2500000000000000E+01    0.2850479545835163E+01
    0.5000000000000000E+01    0.1250000000000000E+01    0.5000000000000000E+01
    0.5000000000000000E+01    0.0000000000000000E+00    0.5000000000000000E+01
    0.5000000000000000E+01   -0.1250000000000000E+01    0.5000000000000000E+01
    0.5000000000000000E+01   -0.2500000000000000E+01    0.5000000000000000E+01
    0.5000000000000000E+01   -0.2500000000000000E+01    0.3750000000000000E+01
    0.5000000000000000E+01   -0.2500000000000000E+01    0.2500000000000000E+01
    0.5000000000000000E+01   -0.2500000000000000E+01    0.1250000000000000E+01
    0.5000000000000000E+01    0.1578994732800803E+01    0.9058375365086910E+00
    0.5000000000000000E+01   -0.1583989954232354E+01    0.3982050490726493E+01
    0.5000000000000000E+01    0.1453322699199022E+01    0.4033849428301197E+01
    0.5000000000000000E+01   -0.1479596339503735E+01    0.1040505887381675E+01
    0.5000000000000000E+01   -0.3227322616384110E+00    0.1099454400140349E+01
    0.5000000000000000E+01    0.6593508822075582E+00    0.7354504170366591E+00
    0.5000000000000000E+01    0.8256214013940779E+00    0.1622302608453282E+01
    0.5000000000000000E+01   -0.1650070333782557E+01    0.2145871574390382E+01
    0.5000000000000000E+01   -0.4612828702537229E+00    0.4086422318222992E+01
    0.5000000000000000E+01   -0.8579242121530853E+00    0.2979540174134984E+01
    0.5000000000000000E+01   -0.1836846154397680E+01    0.3045064261640043E+01
    0.5000000000000000E+01    0.3508002863614053E+00    0.3428197553792836E+01
    0.5000000000000000E+01    0.5185680230613409E+00    0.4309693860063405E+01
    0.5000000000000000E+01    0.1738996113203182E+01    0.1827272193562204E+01
    0.5000000000000000E+01    0.1325493893339706E+01    0.2808563282768077E+01
    0.5000000000000000E+01   -0.8731419609589618E+00    0.1895995683864404E+01
    0.5000000000000000E+01    0.4906150219227333E-01    0.2273179336307740E+01
    0.0000000000000000E+00    0.1250000000000000E+01    0.5000000000000000E+01
    0.0000000000000000E+00    0.0000000000000000E+00    0.5000000000000000E+01
    0.0000000000000000E+00   -0.1250000000000000E+01    0.5000000000000000E+01
    0.0000000000000000E+00   -0.2500000000000000E+01    0.5000000000000000E+01
    0.1250000000000000E+01   -0.2500000000000000E+01    0.5000000000000000E+01
    0.2500000000000000E+01   -0.2500000000000000E+01    0.5000000000000000E+01
    0.3750000000000000E+01   -0.2500000000000000E+01    0.5000000000000000E+01
    0.4042003247744892E+01    0.1558308132739014E+01    0.5000000000000000E+01
    0.9304122287900499E+00   -0.1548001304379777E+01    0.5000000000000000E+01
    0.1037243024609388E+01    0.1462892710085612E+01    0.5000000000000000E+01
    0.3946240828834967E+01   -0.1445243809615570E+01    0.5000000000000000E+01
    0.4092527262848217E+01   -0.3455338993778935E+00    0.5000000000000000E+01
    0.4293103109154542E+01    0.6277660831404320E+00    0.5000000000000000E+01
    0.3241512314643519E+01    0.7429886854239611E+00    0.5000000000000000E+01
    0.2844289952419609E+01   -0.1588117879734118E+01    0.5000000000000000E+01
    0.7159905765450471E+00   -0.6002320124191652E+00    0.5000000000000000E+01
    0.1754341919796891E+01   -0.7398147869923652E+00    0.5000000000000000E+01
    0.1870296826774691E+01   -0.1788622905643739E+01    0.5000000000000000E+01
    0.9220614901912976E+00    0.3083720183248586E+00    0.5000000000000000E+01
    0.3101523624086016E+01    0.1777901774806180E+01    0.5000000000000000E+01
    0.2192512063922564E+01    0.1576861561598471E+01    0.5000000000000000E+01
    0.2024793420196460E+01    0.4773861992750707E+00    0.5000000000000000E+01
    0.2990627757741975E+01   -0.4878110785814084E+00    0.5000000000000000E+01
    0.0000000000000000E+00   -0.2500000000000000E+01    0.1250000000000000E+01
    0.0000000000000000E+00   -0.2500000000000000E+01    0.2500000000000000E+01
    0.0000000000000000E+00   -0.2500000000000000E+01    0.3750000000000000E+01
    0.0000000000000000E+00    0.1558308132739014E+01    0.4042003247744892E+01
    0.0000000000000000E+00   -0.1548001304379777E+01    0.9304122287900499E+00
    0.0000000000000000E+00    0.1462892710085612E+01    0.1037243024609388E+01
    0.0000000000000000E+00   -0.1445243809615570E+01    0.3946240828834967E+01
    0.0000000000000000E+00   -0.3455338993778935E+00    0.4092527262848217E+01
    0.0000000000000000E+00    0.6277660831404320E+00    0.4293103109154542E+01
    0.0000000000000000E+00    0.7429886854239611E+00    0.3241512314643519E+01
    0.0000000000000000E+00   -0.1588117879734118E+01    0.2844289952419609E+01
    0.0000000000000000E+00   -0.6002320124191652E+00    0.7159905765450471E+00
    0.0000000000000000E+00   -0.7398147869923652E+00    0.1754341919796891E+01
    0.0000000000000000E+00   -0.1788622905643739E+01    0.1870296826774691E+01
    0.0000000000000000E+00    0.3083720183248586E+00    0.9220614901912976E+00
    0.0000000000000000E+00    0.1777901774806180E+01    0.3101523624086016E+01
    0.0000000000000000E+00    0.1576861561598471E+01    0.2192512063922564E+01
[...]
POINT_DATA 213
SCALARS rho double 1
LOOKUP_TABLE default
   0.1973688549072314E+02
   0.3124525238319670E+03
   0.5476198542397374E+03
   0.9243108609014437E+03
   0.6947494906755838E+00
   0.6472523463780928E+00
   0.6643341691008064E+00
   0.1000000000000000E-01
   0.1812611893043898E-01
   0.9674234914756407E+03
   0.1715717073899499E+02
   0.4825565587640507E+01
   0.2942626594294138E+01
   0.6325416685560100E+01
   0.7525552867542931E+01
   0.1018156273614010E+02
   0.1184966179498095E+02
   0.1327494758488714E+00
   0.2353894707782824E+01
   0.3096048148360442E+01
   0.5718937811076709E+01
   0.7272794067554375E+01
   0.9697508954774353E+01
   0.1611719150250694E+02
   0.1959573564565909E-01
   0.1766456760596145E+02
   0.1209940259538728E+02
   0.1318174135337407E+03
   0.3425618319426131E+01
   0.1756617453357762E+03
   0.1528968928226870E+03
   0.3175903317318796E+01
   0.7581451448896351E+01
   0.3367478177176010E+02
   0.1247918116609785E+03
   0.2127743637682486E+03
   0.2238338382201704E+03
   0.3061690118515251E+03
   0.3085237287718817E+03
   0.2983828147629242E+03
   0.2786481221722059E+03
   0.2797119368947668E+03
   0.2002206116100096E+02
   0.1228827441200545E+02
   0.6443499965740617E+02
   0.2981136454487194E+03
   0.1464838631677994E+01
   0.2883525252626504E+03
   0.2938832184757170E+03
   0.2079115969389763E+03
   0.7914388751534122E+01
   0.2961624521014675E+03
   0.3043234070826879E+03
   0.3036998786711520E+03
   0.2989785465730394E+03
   0.1335292875706215E+03
   0.3244912985103513E+03
   0.1521216561132824E+03
   0.9383344210322288E+02
   0.1779936992353610E+02
   0.3035101827614180E+03
   0.2478795536706673E+03
   0.1564280798026572E+03
   0.6100232039136688E+02
   0.5770989490026277E+02
   0.4505907137566179E+02
   0.6769516693919205E+02
   0.1398405809620485E+02
   0.1094172686268972E+01
   0.1108293507080425E+03
   0.2611636805151137E+03
   0.4085693434035660E+02
   0.1381121593817189E+03
   0.2013624984179954E+01
   0.4692760558189720E+02
   0.9282923345223038E+02
   0.4975793547791621E+02
   0.1983670811271388E+03
   0.4714224197367029E+02
   0.1252642841593484E+03
   0.1191944834828289E+03
   0.3307416285221047E+03
   0.2985448637897553E+03
   0.2359450170229557E+03
   0.1078021125857401E+03
   0.2661437061586272E+03
   0.2625638154912607E+03
   0.2504802408607011E+03
   0.9811222189389451E+02
   0.4733883938153608E+02
   0.3656427455257694E+02
   0.2973955414262852E+02
   0.2949751898804922E+03
   0.9340089025971146E+02
   0.2856976596093837E+03
   0.4057357082689050E+02
   0.2013655808890095E+03
   0.2691220558932109E+03
   0.2791465770040765E+03
   0.5041753624057098E+02
   0.2738801870015691E+03
   0.2281811895485322E+03
   0.5886965287303057E+02
   0.2792146545651431E+03
   0.3020919604194614E+03
   0.2959648695724036E+03
   0.2826972165782593E+03
   0.2383639286828363E+03
   0.5436906819725620E+01
   0.2066408331710620E+02
   0.6592886830609584E+02
   0.2799928044586175E+03
   0.7396332765896494E+01
   0.1250370918941330E+02
   0.6777380513893662E+02
   0.1842937971297263E+03
   0.2586255562451798E+03
   0.8285167388480119E+02
   0.1335129584692451E+02
   0.9694581686068624E+01
   0.7862899708737539E+01
   0.5199067857577275E+01
   0.9452317873152765E+01
   0.1722664660905739E+03
   0.7786476726262687E+01
   0.8658838123259333E+01
   0.1399282446865712E+02
   0.3388010632032059E+01
   0.5986265155019961E+02
   0.1217584151628973E+02
   0.4257533637013483E+02
   0.3077391825988459E+02
   0.3069595153253348E+02
   0.1582038268432791E+02
   0.3473265419636422E+02
   0.5975884666179443E+02
   0.4660802876520071E+02
   0.2415147690983930E+02
   0.2359580705652394E+02
   0.3636331964876043E+02
   0.1124340054499768E+02
   0.1751469425895164E+02
   0.2026579339995300E+02
   0.3277232605462733E+02
   0.1066796901918443E+02
   0.1889619100714020E+02
   0.2332125840856479E+03
   0.2720467254776296E+02
   0.7250843108743166E+01
   0.6884962865018184E+01
   0.6978038144418607E+01
   0.6372332934367580E+02
   0.2919278453407944E+03
   0.1313659558185565E+03
   0.1813209906046964E+02
   0.1166527802608288E+02
   0.3783386015464953E+02
   0.2962150494628959E+03
   0.1183417333807611E+02
   0.2990337427505112E+03
   0.2798946166610255E+03
   0.1279237824035158E+03
   0.2722998302641075E+03
   0.2869465152126008E+03
   0.2907142207302916E+03
   0.1506684510106378E+03
   0.2992078724173719E+02
   0.2819613010468805E+03
   0.7949453513411940E+01
   0.2374255473412908E+02
   0.2263410791875462E+02
   0.1821445612760280E+03
   0.2949278948017455E+02
   0.4694369002013810E+02
   0.5597379106138995E+01
   0.2860647464322715E+02
   0.2170492148519079E+03
   0.5940177471878384E+02
   0.5192714081363282E+02
   0.9138185759894135E+01
   0.3993629483845049E+01
   0.5347906047674203E+01
   0.2662720581947178E+03
   0.2958405878776539E+03
   0.7066508578975387E+02
   0.3899949788858421E+02
   0.3241414579428377E+02
   0.6998705222071000E+02
   0.6742991605041381E+02
   0.3592296371775438E+02
   0.4495591040563625E+02
   0.4428850174334313E+02
   0.1419045638459068E+01
   0.1593999186615701E+02
   0.5341474259533649E+02
   0.1367436917918829E+02
   0.1734039030176112E+02
   0.2590250542415010E+03
   0.3162795930422135E+02
   0.1181423855814667E+02
   0.4429552487939161E+02
   0.7219536223404809E+02
   0.9011965871532541E+02
   0.2800528002291859E+03
   0.2850174956307649E+03
   0.7153904578460732E+02
   0.1440830089345664E+02
   0.2226975018360636E+02
   0.4170068033014637E+02
   0.2980923531718225E+03
   0.2705991714477840E+02
   0.1011673071028560E+02
   0.4365625339016280E+02
SCALARS u double 1
LOOKUP_TABLE default
   0.0000000000000000E+00
   0.0000000000000000E+00
   0.0000000000000000E+00
   0.0000000000000000E+00
   0.0000000000000000E+00
   0.0000000000000000E+00
   0.0000000000000000E+00
   0.0000000000000000E+00
   0.0000000000000000E+00
   0.0000000000000000E+00
   0.0000000000000000E+00
   0.0000000000000000E+00
   0.0000000000000000E+00
   0.0000000000000000E+00
   0.0000000000000000E+00
   0.0000000000000000E+00
   0.0000000000000000E+00
   0.0000000000000000E+00
   0.0000000000000000E+00
   0.0000000000000000E+00
   0.0000000000000000E+00
   0.0000000000000000E+00
   0.0000000000000000E+00
   0.0000000000000000E+00
   0.0000000000000000E+00
   0.0000000000000000E+00
   0.0000000000000000E+00
   0.0000000000000000E+00
   0.0000000000000000E+00
   0.0000000000000000E+00
   0.0000000000000000E+00
   0.0000000000000000E+00
   0.0000000000000000E+00
  -0.1381803953476683E+00
  -0.1191290020070422E+00
   0.2518811676449079E-02
  -0.1468359656927431E-01
  -0.5388040977118973E-01
  -0.8528194145463228E-01
  -0.1616548647038252E+00
  -0.3564855967838271E+00
  -0.3586675487779364E+00
  -0.7581960615010394E+00
  -0.5559569238335675E+00
   0.8307479040947915E-01
  -0.9734911938399998E-01
   0.6241200596043394E+00
  -0.2340173087944450E+00
  -0.1069580285995263E+00
  -0.3378964684725314E+00
   0.1359473817668553E+00
  -0.1432879397223534E+00
  -0.1144658871770529E+00
  -0.1315112677858219E+00
  -0.1042971205247143E+00
  -0.1613413927889824E+00
  -0.1497722632147304E+00
  -0.6980109096049997E-01
  -0.1713074603309297E+00
   0.7820638778887131E+00
  -0.1352810832965824E+00
   0.5480322571057662E-01
   0.5405400404638000E-01
   0.3785084030860642E+00
   0.6897720009560239E+00
   0.7327256104733343E+00
   0.2242444335573110E+00
   0.8331322729444568E+00
   0.4906080007660093E+00
   0.5708319531614509E+00
  -0.4347986370406443E-01
   0.6562368755961188E+00
   0.4754156388262830E+00
   0.2075712030439813E+00
   0.6824035991895190E-01
   0.3771776284253156E+00
  -0.3915514402688602E-01
   0.3113260993058710E+00
   0.1066870477289325E+01
  -0.1326229089991392E+00
  -0.2611714806917980E-01
   0.1197107986151712E-01
  -0.6866269868970659E-01
   0.2024024333291542E+00
   0.9830312143453343E-01
  -0.4537833228640689E+00
  -0.2785516718105135E+00
  -0.4814128859419272E+00
  -0.6477346438591490E+00
  -0.1383814397542660E+01
  -0.5559770158512367E+00
  -0.2914539886939474E+00
  -0.6865958420094719E-01
  -0.6170822337383607E+00
  -0.1824921139335447E+00
  -0.1015612089494933E+00
  -0.1838413143338927E+00
  -0.7708865990687511E-01
  -0.1347248545002767E+00
  -0.2830347814859089E+00
  -0.8751369834891244E-01
  -0.1160160197300508E+00
  -0.6118229921038165E+00
  -0.1030988374082581E+00
  -0.3593209644462233E-01
  -0.8604655484441784E-01
  -0.1533784775487142E+00
  -0.3660574613045172E-01
  -0.5955390723583092E+01
  -0.5041993824188172E+01
  -0.1548612564425757E+01
  -0.2908472640577153E+00
  -0.3630504570396159E+01
  -0.5266606450566039E+00
  -0.1129359479778351E+01
  -0.5219054821414821E+00
  -0.3925541419049117E+00
  -0.1334279645031521E+01
  -0.4810989463128744E+01
  -0.2487399841192398E+01
  -0.3003343011388634E+01
  -0.7554436475218865E+01
  -0.1589534369120593E+01
  -0.3620692193506739E+00
  -0.1244547640782758E+01
  -0.2488066736198806E+01
  -0.6049583245861442E+01
  -0.1170317063334397E+02
   0.3988847030801870E-01
  -0.6086248855075436E+00
  -0.1508056309242056E+01
  -0.1691995336465316E+01
  -0.2425878733582119E+01
  -0.4149209035352588E+01
  -0.1101111381132130E+01
  -0.1344834986936431E+00
  -0.8725555300116046E+00
  -0.9609310564026812E+00
  -0.9591123324718919E+00
  -0.2167332905507468E+00
  -0.3002477260881150E+01
  -0.1495295900723442E+01
  -0.1959720264079380E+01
  -0.1235210207242771E+01
   0.2360142686183159E+00
  -0.1945653461109177E+01
  -0.1164039746539987E+00
  -0.2167071122673293E+01
  -0.1555195910079398E+01
  -0.1690391664418139E+01
  -0.1282771351305303E+01
  -0.7836126411797733E+00
  -0.1893109679191591E+00
  -0.2749165307910051E+00
  -0.4183412389390978E-01
  -0.2174950885729911E-01
  -0.1164730231608594E+01
  -0.1143800596735962E+00
  -0.1446311754417393E+00
  -0.1521753174799502E+00
  -0.1292658919630141E+00
  -0.1812920918246211E+00
  -0.1289339798484565E+00
  -0.1090082441590537E+00
  -0.1192495591702794E+00
  -0.7858274027528024E-01
  -0.5454985924170512E+00
  -0.1599952161136171E+00
  -0.5182303760584947E+01
  -0.2506435660462613E+01
  -0.2568811695558614E+01
  -0.2982245632251616E+00
  -0.1939696697243546E+01
  -0.7295968983220874E+00
  -0.1694707312778845E+01
  -0.1725380589303887E+01
  -0.8334741405029414E-02
   0.1306409898972692E+00
  -0.4313582980505805E+00
  -0.7374561654240365E+00
  -0.8195010045381286E+01
  -0.2663568659469080E+01
  -0.1256772316598501E+00
  -0.1426153259969429E+00
   0.2034514545980485E-02
  -0.5815670120049441E+00
  -0.4136378456759565E+00
   0.8180588416461489E-01
   0.8250659820391611E-02
  -0.4389012334440277E+00
  -0.1075720910794945E+01
  -0.2126323117517738E+00
   0.4791241554999079E+00
  -0.4258232978933807E+00
  -0.4578920495881127E+00
  -0.1860871025617238E+01
  -0.1466767225242706E+01
  -0.5414739324716129E-01
  -0.1358675425029933E+00
  -0.5688109546194958E+00
  -0.1544512937599138E+01
  -0.3033955984276164E+00
  -0.9482684872034755E-01
  -0.1914859303146908E+00
  -0.3516639583425255E+00
   0.5541929153301734E-01
  -0.9257803027894058E+00
  -0.8738333419298555E+00
  -0.6144792469639857E+00
  -0.1056614111104622E+00
  -0.1520867277450637E+01
  -0.4304074082179026E+01
  -0.4831182233391089E+00
SCALARS v double 1
LOOKUP_TABLE default
   0.0000000000000000E+00
   0.0000000000000000E+00
   0.0000000000000000E+00
   0.0000000000000000E+00
   0.0000000000000000E+00
   0.0000000000000000E+00
   0.0000000000000000E+00
   0.0000000000000000E+00
   0.0000000000000000E+00
   0.0000000000000000E+00
   0.0000000000000000E+00
   0.0000000000000000E+00
   0.0000000000000000E+00
   0.0000000000000000E+00
   0.0000000000000000E+00
   0.0000000000000000E+00
   0.0000000000000000E+00
   0.0000000000000000E+00
   0.0000000000000000E+00
   0.0000000000000000E+00
   0.0000000000000000E+00
   0.0000000000000000E+00
   0.0000000000000000E+00
   0.0000000000000000E+00
   0.0000000000000000E+00
   0.0000000000000000E+00
   0.0000000000000000E+00
   0.0000000000000000E+00
   0.0000000000000000E+00
   0.0000000000000000E+00
   0.0000000000000000E+00
   0.0000000000000000E+00
   0.0000000000000000E+00
   0.0000000000000000E+00
   0.0000000000000000E+00
   0.0000000000000000E+00
   0.0000000000000000E+00
   0.0000000000000000E+00
   0.0000000000000000E+00
   0.0000000000000000E+00
   0.0000000000000000E+00
   0.0000000000000000E+00
   0.0000000000000000E+00
   0.0000000000000000E+00
   0.0000000000000000E+00
   0.0000000000000000E+00
   0.0000000000000000E+00
   0.0000000000000000E+00
   0.0000000000000000E+00
   0.0000000000000000E+00
   0.0000000000000000E+00
   0.0000000000000000E+00
   0.0000000000000000E+00
   0.0000000000000000E+00
   0.0000000000000000E+00
   0.0000000000000000E+00
   0.0000000000000000E+00
   0.0000000000000000E+00
   0.0000000000000000E+00
   0.0000000000000000E+00
   0.0000000000000000E+00
   0.8862346606931053E-01
   0.5658168957034037E-01
  -0.1785926499550307E+00
   0.0000000000000000E+00
   0.0000000000000000E+00
   0.0000000000000000E+00
   0.0000000000000000E+00
   0.2735969986445943E+00
   0.1793527286493632E-01
   0.1901093753303457E-01
  -0.1718672747283472E+01
  -0.7592440417723990E+00
   0.4768195608336440E-02
  -0.3902484100183589E-01
  -0.1414661689750933E+01
   0.7552026161131711E+00
   0.1902779018122496E+00
  -0.4922631668607959E+00
   0.1352824212330441E+00
   0.8004486171615607E-01
   0.4503147729568369E+00
   0.1402110143035494E+00
  -0.1245379304720916E+01
   0.1010698473001932E+00
  -0.2986548500396453E-01
  -0.2517238980967655E+00
  -0.4016851323089703E+00
   0.0000000000000000E+00
   0.0000000000000000E+00
   0.0000000000000000E+00
   0.0000000000000000E+00
   0.1115469163685225E-01
  -0.4533357231499192E+00
  -0.5561035137912065E-01
   0.4309706081531613E-01
   0.2124677523461006E+00
   0.4518818809552413E-01
   0.2072113250101258E-01
   0.9661215116792531E-01
  -0.2064870107612576E+00
  -0.1600710693074309E-02
  -0.2229154058512713E+00
  -0.7224498833072145E-01
   0.1466670945158897E-02
  -0.6907291255160596E-01
  -0.1911442897779851E-01
   0.4858742748373644E+00
   0.0000000000000000E+00
   0.0000000000000000E+00
   0.0000000000000000E+00
   0.4317211714813570E-02
  -0.1301714798177197E+00
   0.2909210581221679E+00
  -0.5050355090737860E+00
  -0.2205455905217602E+00
  -0.6020677368644150E-01
   0.1698757921901922E+00
   0.1179460883378363E-01
   0.5048350483399962E-01
  -0.1418652633897445E+00
   0.3067819767853389E+00
   0.3770494699371502E+00
  -0.1705024142807281E-01
   0.1334395498711781E+00
   0.2739658604344630E+00
  -0.5228790415286871E+00
   0.0000000000000000E+00
   0.0000000000000000E+00
   0.0000000000000000E+00
   0.0000000000000000E+00
   0.0000000000000000E+00
   0.0000000000000000E+00
   0.0000000000000000E+00
   0.0000000000000000E+00
   0.0000000000000000E+00
   0.0000000000000000E+00
   0.0000000000000000E+00
   0.0000000000000000E+00
   0.0000000000000000E+00
   0.0000000000000000E+00
   0.0000000000000000E+00
   0.0000000000000000E+00
   0.0000000000000000E+00
   0.1691316670179233E+01
  -0.2804755339185115E+00
   0.1305980962805918E-02
  -0.2167519825137615E+00
   0.5567216013101433E+00
   0.2281116510341939E+00
   0.4538988496971153E+00
  -0.7339268920191720E-01
  -0.8698160773949953E-02
   0.6449881626712035E-01
   0.4948042258607886E+00
   0.3736765222983600E-01
  -0.4857987080938201E+00
   0.1979816876444133E-01
   0.5713382935925427E+00
   0.3435628477671139E-02
   0.1281041508645781E+00
   0.1587265353278986E-01
   0.5463030477014860E-01
   0.2053659755286719E-01
   0.7507889210007940E-02
   0.2147210943940763E+00
   0.2016790766374248E+00
  -0.7518938528306242E-01
  -0.8985044141955929E+00
  -0.2050842190334606E+00
  -0.5554143401878688E+00
  -0.1542518700831200E+00
  -0.3689774850367104E+00
   0.5987718583396765E+00
  -0.1392945347218178E+00
  -0.3115662135442011E+00
   0.1142544024329446E+00
  -0.3619149575106197E-01
   0.3067628546488276E+00
   0.5875671204572406E+00
  -0.4964538736962404E+00
  -0.3997835702962310E+00
   0.1321550682432029E+00
   0.5916901572478273E-02
  -0.4833719914972783E+00
  -0.9549110326362137E+00
  -0.1581534181872246E+01
  -0.9708118717192832E+00
  -0.4954285135199966E+00
  -0.1104223461727869E+00
  -0.5959166584819653E+00
  -0.1124607189833626E-01
   0.2464683428677368E+00
   0.9090527982741947E+00
  -0.3707579032119926E+00
  -0.6802689945997878E+00
  -0.1779313176096458E+01
  -0.2351517456794085E+00
  -0.9891026724206420E+00
  -0.1085835652141645E+01
  -0.5784033701476221E+00
   0.1885126797412471E+00
   0.4361357877000804E+00
   0.3297751232950742E-01
  -0.7085480095982494E-01
  -0.1000411472254012E+00
  -0.3171512338917533E+01
   0.4255886086427235E-01
  -0.4088653854528541E+00
   0.4717951734895297E-02
  -0.1088761385922685E+01
  -0.7123808568756718E+00
  -0.1407390540156242E+00
SCALARS w double 1
LOOKUP_TABLE default
   0.0000000000000000E+00
   0.0000000000000000E+00
   0.0000000000000000E+00
   0.0000000000000000E+00
   0.0000000000000000E+00
   0.0000000000000000E+00
   0.0000000000000000E+00
   0.0000000000000000E+00
   0.0000000000000000E+00
   0.0000000000000000E+00
   0.0000000000000000E+00
   0.0000000000000000E+00
   0.0000000000000000E+00
   0.0000000000000000E+00
   0.0000000000000000E+00
   0.0000000000000000E+00
   0.0000000000000000E+00
   0.0000000000000000E+00
   0.0000000000000000E+00
   0.0000000000000000E+00
   0.0000000000000000E+00
   0.0000000000000000E+00
   0.0000000000000000E+00
   0.0000000000000000E+00
   0.0000000000000000E+00
   0.0000000000000000E+00
   0.0000000000000000E+00
   0.0000000000000000E+00
   0.0000000000000000E+00
   0.0000000000000000E+00
   0.0000000000000000E+00
   0.0000000000000000E+00
   0.0000000000000000E+00
   0.1435709478427455E+00
   0.1117162549108909E-01
   0.1376473721158069E+00
   0.1663033622995885E+00
   0.3056458941969273E+00
   0.4049295978813897E+00
   0.3756127980307028E+00
   0.2696189380757013E+00
   0.1106762775242253E+00
  -0.6032556044414024E+00
  -0.1874073911955400E+00
  -0.1568738591055758E+00
   0.2970860102008257E+00
  -0.5361807464498983E+00
   0.2050083907519401E+00
   0.2277734628448387E+00
   0.2083450903129758E+00
  -0.1469357753409058E+00
   0.2541836540509484E+00
   0.1697243705457735E+00
   0.2146623767725222E+00
   0.2671422905434911E+00
   0.3220670316732214E+00
   0.1777658333454705E+00
  -0.1996639850905702E+00
  -0.1864661269223739E+00
   0.2617733387661527E+00
   0.2822981347893442E+00
   0.3045203637188617E+00
   0.4231437102354061E+00
   0.1202444009965153E+01
   0.2151293855418275E+01
   0.1602203465255040E+01
   0.1109363027372978E+01
   0.1332103660790638E+01
  -0.4939676503145864E+00
   0.1224506090833242E+01
   0.2687610237280978E+00
   0.4513098819693408E-01
   0.2957960041426235E-01
  -0.3534493404576043E+00
   0.4017485755640258E+00
   0.1136241647741887E+01
   0.9664432065607693E+00
   0.6200707997455908E+00
   0.1064950076289481E+01
   0.4202060514323626E+00
   0.2901194853660247E+00
   0.4104641271824720E+00
   0.2845947181922146E+00
   0.9663584786220915E+00
   0.5200037456831567E+00
   0.1704997152192858E+00
  -0.5092228571717044E-01
   0.5749438389022674E-01
   0.6277278599811094E+00
   0.2623482124801131E+01
   0.1890668045147532E+01
   0.1992671262783012E+01
   0.2903661181445333E+00
   0.1255144193139313E+01
   0.2427130559388330E+00
   0.1432381695438709E+01
   0.4009229743659232E+00
   0.4820843633705245E+00
   0.3165263556317754E+00
   0.1737017031997197E+01
   0.4807401318490699E+00
   0.6197769825172140E+00
   0.1937568443697617E+01
   0.2679756861563263E+00
   0.3248959421926986E+00
   0.3871539730619041E+00
   0.2841689234328749E+00
   0.2343017626559792E+00
   0.1110569125776127E+01
   0.1157354473402592E+01
   0.8592040326978387E+00
   0.7108989175353937E-01
   0.3345126148959858E+00
  -0.1085183367332982E+00
   0.3495727223456325E+00
  -0.1181992525970938E+00
  -0.5219467550525521E-01
  -0.1682284589812111E+01
   0.9721666830442631E+00
   0.3414305957246175E+00
   0.3228143459923266E+00
   0.1581640647428006E+01
   0.1598125284679823E+00