# vtk DataFile Version 2.0
FUN3D:global_image_vtk
ASCII
DATASET UNSTRUCTURED_GRID
POINTS 213 double
    0.0000000000000000E+00    0.2500000000000000E+01    0.0000000000000000E+00
    0.1250000000000000E+01    0.2500000000000000E+01    0.0000000000000000E+00
    0.2500000000000000E+01    0.2500000000000000E+01    0.0000000000000000E+00
    0.3750000000000000E+01    0.2500000000000000E+01    0.0000000000000000E+00
    0.5000000000000000E+01    0.2500000000000000E+01    0.0000000000000000E+00
    0.5000000000000000E+01    0.1250000000000000E+01    0.0000000000000000E+00
    0.5000000000000000E+01    0.0000000000000000E+00    0.0000000000000000E+00
    0.5000000000000000E+01   -0.1250000000000000E+01    0.0000000000000000E+00
    0.5000000000000000E+01   -0.2500000000000000E+01    0.0000000000000000E+00
    0.3750000000000000E+01   -0.2500000000000000E+01    0.0000000000000000E+00
    0.2500000000000000E+01   -0.2500000000000000E+01    0.0000000000000000E+00
    0.1250000000000000E+01   -0.2500000000000000E+01    0.0000000000000000E+00
    0.0000000000000000E+00   -0.2500000000000000E+01    0.0000000000000000E+00
    0.0000000000000000E+00   -0.1250000000000000E+01    0.0000000000000000E+00
    0.0000000000000000E+00    0.0000000000000000E+00    0.0000000000000000E+00
    0.0000000000000000E+00    0.1250000000000000E+01    0.0000000000000000E+00
    0.9058375365086910E+00    0.1578994732800803E+01    0.0000000000000000E+00
    0.3982050490726493E+01   -0.1583989954232354E+01    0.0000000000000000E+00
    0.4033849428301197E+01    0.1453322699199022E+01    0.0000000000000000E+00
    0.1040505887381675E+01   -0.1479596339503735E+01    0.0000000000000000E+00
    0.1099454400140349E+01   -0.3227322616384110E+00    0.0000000000000000E+00
    0.7354504170366591E+00    0.6593508822075582E+00    0.0000000000000000E+00
    0.1622302608453282E+01    0.8256214013940779E+00    0.0000000000000000E+00
    0.2145871574390382E+01   -0.1650070333782557E+01    0.0000000000000000E+00
    0.4086422318222992E+01   -0.4612828702537229E+00    0.0000000000000000E+00
    0.2979540174134984E+01   -0.8579242121530853E+00    0.0000000000000000E+00
    0.3045064261640043E+01   -0.1836846154397680E+01    0.0000000000000000E+00
    0.3428197553792836E+01    0.3508002863614053E+00    0.0000000000000000E+00
    0.4309693860063405E+01    0.5185680230613409E+00    0.0000000000000000E+00
    0.1827272193562204E+01    0.1738996113203182E+01    0.0000000000000000E+00
    0.2808563282768077E+01    0.1325493893339706E+01    0.0000000000000000E+00
    0.1895995683864404E+01   -0.8731419609589618E+00    0.0000000000000000E+00
    0.2273179336307740E+01    0.4906150219227333E-01    0.0000000000000000E+00
    0.5000000000000000E+01    0.2500000000000000E+01    0.1250000000000000E+01
    0.5000000000000000E+01    0.2500000000000000E+01    0.2500000000000000E+01
    0.5000000000000000E+01    0.2500000000000000E+01    0.3750000000000000E+01
    0.5000000000000000E+01    0.2500000000000000E+01    0.5000000000000000E+01
    0.3750000000000000E+01    0.2500000000000000E+01    0.5000000000000000E+01
    0.2500000000000000E+01    0.2500000000000000E+01    0.5000000000000000E+01
    0.1250000000000000E+01    0.2500000000000000E+01    0.5000000000000000E+01
    0.0000000000000000E+00    0.2500000000000000E+01    0.5000000000000000E+01
    0.0000000000000000E+00    0.2500000000000000E+01    0.3750000000000000E+01
    0.0000000000000000E+00    0.2500000000000000E+01    0.2500000000000000E+01
    0.0000000000000000E+00    0.2500000000000000E+01    0.1250000000000000E+01
    0.9631080833812172E+00    0.2500000000000000E+01    0.9613285771248219E+00
    0.3981732467264904E+01    0.2500000000000000E+01    0.4069753913607991E+01
    0.4035525118777670E+01    0.2500000000000000E+01    0.1012015867579395E+01
    0.9641717640894248E+00    0.2500000000000000E+01    0.3972455192261839E+01
    0.1547743040396780E+01    0.2500000000000000E+01    0.2928177746738678E+01
    0.6985170616192014E+00    0.2500000000000000E+01    0.3068281976055466E+01
    0.8931277594515110E+00    0.2500000000000000E+01    0.2052465503257726E+01
    0.2183293750162785E+01    0.2500000000000000E+01    0.3959073795658649E+01
    0.3855333506014705E+01    0.2500000000000000E+01    0.2931218481500625E+01
    0.3152495579421047E+01    0.2500000000000000E+01    0.3635850502723324E+01
    0.3103247580566054E+01    0.2500000000000000E+01    0.4331682712472464E+01
    0.3266837581688852E+01    0.2500000000000000E+01    0.1886092433583972E+01
    0.4231539241296245E+01    0.2500000000000000E+01    0.1915865356532799E+01
    0.1909741006522088E+01    0.2500000000000000E+01    0.7170024419130505E+00
    0.2880784107213163E+01    0.2500000000000000E+01    0.9046598906449592E+00
    0.2014316024535771E+01    0.2500000000000000E+01    0.1762464314805728E+01
    0.2670003247036656E+01    0.2500000000000000E+01    0.2850479545835163E+01
    0.5000000000000000E+01    0.1250000000000000E+01    0.5000000000000000E+01
    0.5000000000000000E+01    0.0000000000000000E+00    0.5000000000000000E+01
    0.5000000000000000E+01   -0.1250000000000000E+01    0.5000000000000000E+01
    0.5000000000000000E+01   -0.2500000000000000E+01    0.5000000000000000E+01
    0.5000000000000000E+01   -0.2500000000000000E+01    0.3750000000000000E+01
    0.5000000000000000E+01   -0.2500000000000000E+01    0.2500000000000000E+01
    0.5000000000000000E+01   -0.2500000000000000E+01    0.1250000000000000E+01
    0.5000000000000000E+01    0.1578994732800803E+01    0.9058375365086910E+00
    0.5000000000000000E+01   -0.1583989954232354E+01    0.3982050490726493E+01
    0.5000000000000000E+01    0.1453322699199022E+01    0.4033849428301197E+01
    0.5000000000000000E+01   -0.1479596339503735E+01    0.1040505887381675E+01
    0.5000000000000000E+01   -0.3227322616384110E+00    0.1099454400140349E+01
    0.5000000000000000E+01    0.6593508822075582E+00    0.7354504170366591E+00
    0.5000000000000000E+01    0.8256214013940779E+00    0.1622302608453282E+01
    0.5000000000000000E+01   -0.1650070333782557E+01    0.2145871574390382E+01
    0.5000000000000000E+01   -0.4612828702537229E+00    0.4086422318222992E+01
    0.5000000000000000E+01   -0.8579242121530853E+00    0.2979540174134984E+01
    0.5000000000000000E+01   -0.1836846154397680E+01    0.3045064261640043E+01
    0.5000000000000000E+01    0.3508002863614053E+00    0.3428197553792836E+01
    0.5000000000000000E+01    0.5185680230613409E+00    0.4309693860063405E+01
    0.5000000000000000E+01    0.1738996113203182E+01    0.1827272193562204E+01
    0.5000000000000000E+01    0.1325493893339706E+01    0.2808563282768077E+01
    0.5000000000000000E+01   -0.8731419609589618E+00    0.1895995683864404E+01
    0.5000000000000000E+01    0.4906150219227333E-01    0.2273179336307740E+01
    0.0000000000000000E+00    0.1250000000000000E+01    0.5000000000000000E+01
    0.0000000000000000E+00    0.0000000000000000E+00    0.5000000000000000E+01
    0.0000000000000000E+00   -0.1250000000000000E+01    0.5000000000000000E+01
    0.0000000000000000E+00   -0.2500000000000000E+01    0.5000000000000000E+01
    0.1250000000000000E+01   -0.2500000000000000E+01    0.5000000000000000E+01
    0.2500000000000000E+01   -0.2500000000000000E+01    0.5000000000000000E+01
    0.3750000000000000E+01   -0.2500000000000000E+01    0.5000000000000000E+01
    0.4042003247744892E+01    0.1558308132739014E+01    0.5000000000000000E+01
    0.9304122287900499E+00   -0.1548001304379777E+01    0.5000000000000000E+01
    0.1037243024609388E+01    0.1462892710085612E+01    0.5000000000000000E+01
    0.3946240828834967E+01   -0.1445243809615570E+01    0.5000000000000000E+01
    0.4092527262848217E+01   -0.3455338993778935E+00    0.5000000000000000E+01
    0.4293103109154542E+01    0.6277660831404320E+00    0.5000000000000000E+01
    0.3241512314643519E+01    0.7429886854239611E+00    0.5000000000000000E+01
    0.2844289952419609E+01   -0.1588117879734118E+01    0.5000000000000000E+01
    0.7159905765450471E+00   -0.6002320124191652E+00    0.5000000000000000E+01
    0.1754341919796891E+01   -0.7398147869923652E+00    0.5000000000000000E+01
    0.1870296826774691E+01   -0.1788622905643739E+01    0.5000000000000000E+01
    0.9220614901912976E+00    0.3083720183248586E+00    0.5000000000000000E+01
    0.3101523624086016E+01    0.1777901774806180E+01    0.5000000000000000E+01
    0.2192512063922564E+01    0.1576861561598471E+01    0.5000000000000000E+01
    0.2024793420196460E+01    0.4773861992750707E+00    0.5000000000000000E+01
    0.2990627757741975E+01   -0.4878110785814084E+00    0.5000000000000000E+01
    0.0000000000000000E+00   -0.2500000000000000E+01    0.1250000000000000E+01
    0.0000000000000000E+00   -0.2500000000000000E+01    0.2500000000000000E+01
    0.0000000000000000E+00   -0.2500000000000000E+01    0.3750000000000000E+01
    0.0000000000000000E+00    0.1558308132739014E+01    0.4042003247744892E+01
    0.0000000000000000E+00   -0.1548001304379777E+01    0.9304122287900499E+00
    0.0000000000000000E+00    0.1462892710085612E+01    0.1037243024609388E+01
    0.0000000000000000E+00   -0.1445243809615570E+01    0.3946240828834967E+01
    0.0000000000000000E+00   -0.3455338993778935E+00    0.4092527262848217E+01
    0.0000000000000000E+00    0.6277660831404320E+00    0.4293103109154542E+01
    0.0000000000000000E+00    0.7429886854239611E+00    0.3241512314643519E+01
    0.0000000000000000E+00   -0.1588117879734118E+01    0.2844289952419609E+01
    0.0000000000000000E+00   -0.6002320124191652E+00    0.7159905765450471E+00
    0.0000000000000000E+00   -0.7398147869923652E+00    0.1754341919796891E+01
    0.0000000000000000E+00   -0.1788622905643739E+01    0.1870296826774691E+01
    0.0000000000000000E+00    0.3083720183248586E+00    0.9220614901912976E+00
    0.0000000000000000E+00    0.1777901774806180E+01    0.3101523624086016E+01
    0.0000000000000000E+00    0.1576861561598471E+01    0.2192512063922564E+01
[...]
POINT_DATA 213
SCALARS rho double 1
LOOKUP_TABLE default
   0.2844384964527196E+00
   0.2881865871156465E+01
   0.1456410591468571E+04
   0.2194095049658765E+06
   0.6947494906755838E+00
   0.6472523463780928E+00
   0.6643341691008064E+00
   0.1000000000000000E-01
   0.1000000000000000E-01
   0.1175774322123728E+06
   0.1203744002324638E+04
   0.7337132082291647E+00
   0.1000000000000000E-01
   0.1000000000000000E-01
   0.1455653626951609E-01
   0.1173854262899964E+00
   0.6514420464397290E+00
   0.1000000000000000E-01
   0.2353894707782824E+01
   0.1000000000000000E-01
   0.3375865029580568E-01
   0.6707968543248430E-01
   0.1301577619169468E+01
   0.1105078959642216E+04
   0.1959573564565909E-01
   0.1448690787622349E+04
   0.7008176239060598E+03
   0.2050687329575825E+05
   0.3425618319426131E+01
   0.4183569331708505E+03
   0.1528968928226870E+03
   0.1000000000000000E-01
   0.6992654729252269E-01
   0.3367478177176010E+02
   0.8103297431373306E+02
   0.1078045348399392E+03
   0.1682385954514650E+02
   0.7036520627333057E+03
   0.7609190338979866E+04
   0.2524772714884215E+05
   0.2349569853420270E+04
   0.4894689582931296E+02
   0.1848576276670145E+01
   0.1609955190490099E+01
   0.3297714024802440E+02
   0.6768811881255966E+03
   0.1464838631677994E+01
   0.6348312135841900E+03
   0.3561868884076313E+03
   0.1450906868680633E+03
   0.2074128743092661E+01
   0.9360218505156045E+03
   0.6098020927904153E+03
   0.9237993100187249E+03
   0.1344342840473475E+04
   0.1346836652068894E+03
   0.3343132010578968E+03
   0.1333879413548228E+03
   0.9365741948479864E+02
   0.1667831338436348E+02
   0.3385689711568257E+03
   0.3072549910095221E+02
   0.1686480955912761E+02
   0.3051965959533178E+04
   0.1841606048741412E+04
   0.9459203290564899E+03
   0.1169038125147451E+04
   0.4288307370872966E+03
   0.1094172686268972E+01
   0.2796813412571576E+04
   0.2506831719825023E+03
   0.3716478786117107E+04
   0.3052756507594297E+05
   0.2013624984179954E+01
   0.4692760558189720E+02
   0.1739380000517559E+04
   0.7061353431930274E+04
   0.4647572723476571E+05
   0.9583579740586367E+03
   0.1252232777801454E+03
   0.4766094951547041E+02
   0.7851022859871003E+05
   0.1888095501509175E+04
   0.6521807910582192E+04
   0.1097113425868525E+03
   0.7348210799769761E+02
   0.9813170103644735E+01
   0.1328382679533469E+02
   0.4717397890327825E+01
   0.4182922541431740E+04
   0.5459691123217874E+04
   0.5667401655233049E+04
   0.5389501011640505E+03
   0.1752086595801601E+02
   0.2004668943732084E+04
   0.5571995466189062E+04
   0.3573064764781764E+02
   0.7883587738763364E+02
   0.2793889687431296E+03
   0.3979421267422238E+04
   0.4289661427882535E+01
   0.1055824206652656E+02
   0.2296924772567424E+04
   0.1069894785980819E+03
   0.1237734134138180E+04
   0.4276281077175602E+04
   0.8866048921340870E+01
   0.3269093581154230E+02
   0.2568696461666790E+01
   0.2562769192973558E+02
   0.1302293441022907E+04
   0.1020674991809257E+03
   0.2667908685958041E+01
   0.1662026471990668E+01
   0.1182017598128545E+02
   0.2345772766371769E+01
   0.9214441139627439E+01
   0.4681816189811018E+02
   0.9454643213368239E+01
   0.2162072729839111E+01
   0.2929267656955370E+01
   0.3433961152291551E+01
   0.2455093040481033E+01
   0.1962888943834069E+02
   0.2482207528608915E+01
   0.4376494913740629E+01
   0.8807789201318799E+01
   0.3138410384053707E+01
   0.3148714177832031E+05
   0.1071657675763061E+04
   0.4828670123907197E+04
   0.5164610761058002E+04
   0.5574319196005463E+04
   0.3963433006767762E+03
   0.7715199952188604E+04
   0.2353159826733354E+05
   0.8407190061774631E+04
   0.5349030313903409E+04
   0.3173808169764349E+04
   0.5587313145219699E+03
   0.8785026406126531E+03
   0.1594360359333253E+04
   0.2827534654073717E+04
   0.5249754053661604E+04
   0.9409810763570007E+01
   0.1120839105877378E+02
   0.2532327610066943E+02
   0.5365055616909648E+03
   0.1222498536085477E+01
   0.1645137517524982E+01
   0.9822391020511553E+02
   0.1317058680988393E+01
   0.6918901180643318E+03
   0.1960410509639475E+02
   0.1964359891984376E+02
   0.1745816724433127E+01
   0.2953658309990758E+03
   0.5452892257073926E+03
   0.1183417333807611E+02
   0.3233112086149981E+03
   0.2780369928925059E+03
   0.1278839019453661E+03
   0.2213845780216107E+03
   0.4779318376071162E+03
   0.6232722266592009E+03
   0.1311157705300173E+03
   0.2570176053476705E+01
   0.6153322365841903E+02
   0.6778487295014387E+01
   0.4525172672179466E+04
   0.4814688072742627E+04
   0.1321156255133144E+01
   0.1086187896699770E+02
   0.4469519469916079E+02
   0.8968615812803404E+00
   0.5726079849220244E+04
   0.1926296522322909E+03
   0.5926480355181365E+02
   0.1105357389729794E+05
   0.3414863764537472E+01
   0.3747336526838770E+01
   0.1386428368267159E+01
   0.2671782636659896E+03
   0.1090996736651981E+04
   0.1326160030403739E+05
   0.2689448148265609E+04
   0.1979102942237860E+04
   0.1284555352125203E+05
   0.1427536832881894E+04
   0.8410849559913866E+04
   0.9605620273038105E+04
   0.4437754409612364E+02
   0.1419045638459068E+01
   0.1530428619013524E+02
   0.1051075226967950E+05
   0.3234602318434801E+03
   0.2536439579614033E+04
   0.5696572062969740E+05
   0.5030373879577997E+04
   0.2003256327606809E+04
   0.7385609540922227E+04
   0.2014305822259960E+01
   0.5178356824838396E+02
   0.2829489381983408E+03
   0.2880952133823719E+03
   0.1395790268395301E+05
   0.1049412566573205E+04
   0.3263346008236682E+04
   0.1478489971790482E+05
   0.9648202062309182E+03
   0.3769162192135922E+04
   0.1362606010440368E+04
   0.7859325642413101E+04
SCALARS u double 1
LOOKUP_TABLE default
   0.0000000000000000E+00
   0.0000000000000000E+00
   0.0000000000000000E+00
   0.0000000000000000E+00
   0.0000000000000000E+00
   0.0000000000000000E+00
   0.0000000000000000E+00
   0.0000000000000000E+00
   0.0000000000000000E+00
   0.0000000000000000E+00
   0.0000000000000000E+00
   0.0000000000000000E+00
   0.0000000000000000E+00
   0.0000000000000000E+00
   0.0000000000000000E+00
   0.0000000000000000E+00
   0.0000000000000000E+00
   0.0000000000000000E+00
   0.0000000000000000E+00
   0.0000000000000000E+00
   0.0000000000000000E+00
   0.0000000000000000E+00
   0.0000000000000000E+00
   0.0000000000000000E+00
   0.0000000000000000E+00
   0.0000000000000000E+00
   0.0000000000000000E+00
   0.0000000000000000E+00
   0.0000000000000000E+00
   0.0000000000000000E+00
   0.0000000000000000E+00
   0.0000000000000000E+00
   0.0000000000000000E+00
  -0.1381803953476683E+00
  -0.3384016971468904E+00
  -0.3008198317284289E+00
  -0.6729200570411372E+00
  -0.3135968628908776E+00
  -0.1805304465743874E+00
  -0.9142582866935368E-01
   0.6826701761203585E-01
   0.1585234256723554E+00
   0.6671287572719259E+00
  -0.2394061841716739E+01
   0.1957893538596615E+00
  -0.2015893091057592E+00
   0.6241200596043394E+00
  -0.5761522616356696E-02
  -0.3392283138669987E-01
  -0.2470009257626258E+00
   0.1235432007801042E+01
  -0.1158349009003178E+00
  -0.1783911299185243E+00
  -0.1625691859415142E+00
  -0.1955835627218826E+00
  -0.1605357333109040E+00
  -0.1566856938782532E+00
  -0.7313872825300993E-01
  -0.1717503446718602E+00
   0.8317176026806183E+00
  -0.1283874719854886E+00
  -0.7984466096230030E+00
  -0.8783668792458417E+00
   0.8479799057102994E-01
   0.3361857597302846E+01
   0.3035387425826285E+01
  -0.2592140359667162E+00
   0.3672672067581799E+00
   0.4906080007660093E+00
   0.1584241949490007E+01
  -0.2099285969502256E+00
   0.9152396948662894E+00
   0.4644700186707991E+00
   0.2075712030439813E+00
   0.6824035991895190E-01
  -0.1220998949731842E+01
   0.3275021366158016E+00
   0.3064434682625424E+00
   0.1008775245299995E+01
  -0.1359878213970509E+00
  -0.3490929348831115E+00
  -0.5252699941475204E-01
  -0.2311083688695526E+00
  -0.8079208249577132E+00
   0.9382453890665679E-01
   0.5737107549009631E+00
   0.1495469329312877E+01
  -0.4718188102558598E+01
  -0.7929402353286473E+01
  -0.1762029975630424E+01
  -0.1146762579241677E+01
  -0.4938876326226222E+00
  -0.3537041374379875E+00
  -0.2398076282520109E+01
   0.2725711297180990E-02
  -0.2302473129011438E+00
  -0.3608594095233477E+00
  -0.4641126627686323E+00
  -0.1615309524255834E+00
  -0.1050238095303152E+01
   0.4175409603251981E+00
  -0.3650373322718030E+00
  -0.1657943288973201E+01
   0.6149366737010635E+00
  -0.2110690029793086E+00
  -0.9761875552966637E-01
   0.2163554398941481E+00
   0.1533951913044187E+00
  -0.9644406798728301E+01
   0.4515243274593770E+01
  -0.6646671211905524E+00
   0.3149609873266431E+00
  -0.7159898156856891E+01
  -0.2388394251206453E+01
  -0.5556884642911290E+01
  -0.8496348616637841E+01
   0.1607526452467805E+01
  -0.6130459223267136E+00
  -0.8604402616333015E+01
  -0.5909723173126341E+01
  -0.5723182043576732E+01
  -0.9262466952628817E+01
  -0.3448648198463769E+01
   0.2519631701046290E+00
  -0.2036823318834631E+01
  -0.3755166507929694E+01
  -0.7614691886145463E+01
  -0.1548649519325364E+02
   0.2671131546642443E+01
  -0.6505102109619687E+00
  -0.1705372597659282E+01
  -0.2076482229238539E+01
  -0.2322645088560106E+01
   0.2236294022956280E+01
  -0.1144547408885837E+01
   0.4572883043062497E+01
  -0.1056768068083721E+01
  -0.9626862637776037E+00
  -0.1347567151797241E+01
   0.9889414222733020E+01
  -0.1071534864457094E+02
  -0.2638180896840771E+01
  -0.2658526973003120E+01
  -0.1549917984377457E+01
   0.2831461997779344E+00
  -0.4308026913184407E+01
   0.9018715708404014E+00
   0.8736495716232046E+00
  -0.1674845873349165E+01
  -0.4165849594636401E+01
  -0.1715755539639553E+01
  -0.8578983877184166E+01
  -0.3007159570468894E-01
  -0.3108347455023516E-01
  -0.6474723963134263E-01
   0.2030105157973699E+00
  -0.2276933268603212E+01
  -0.9071911903758435E-01
  -0.1446311754417393E+00
  -0.1578705155153485E+00
  -0.1260993177488597E+00
  -0.1832809211813214E+00
  -0.1083841183297609E+00
  -0.3179138187711862E-01
  -0.1679030692550527E+00
  -0.5451821327618048E-01
  -0.3008418875481397E+01
   0.2025331392147260E+00
  -0.6095835603670403E+01
  -0.2463799127318120E+01
  -0.1685421385142204E+01
  -0.5836440918662268E+01
  -0.6395968596070158E+01
  -0.7678629005442145E+00
  -0.5761980748217831E+01
  -0.1913826010971112E+01
   0.1265193846232561E+00
   0.1310820171961121E+00
  -0.2404266651224753E+00
  -0.1373483130714177E+01
  -0.8670931588262917E+01
  -0.6819325757497888E+01
  -0.1350713654216445E+00
  -0.1616482159915895E+00
  -0.2364382415331589E-01
  -0.1338564044540819E+01
  -0.1749223813185212E+01
   0.3208052328659027E-01
  -0.5542851747741809E+00
  -0.2263882021970318E+00
  -0.1124042946373511E+01
  -0.2133362699657220E+00
   0.4791241554999079E+00
  -0.4251779765371788E+00
  -0.5336552605976893E+00
  -0.9713744662621943E+01
  -0.2018748546886571E+01
  -0.6716129566642637E-01
  -0.1822058997020818E+00
  -0.7587838292013098E+00
  -0.1647363388414170E+01
  -0.2797818588159469E+01
  -0.1000432146762319E+00
  -0.1945558524216423E+00
  -0.3526944738272417E+00
   0.5190335527850639E-01
  -0.1438273394259219E+01
  -0.1175914983493842E+01
   0.1344706021810955E+01
  -0.1975440691948069E+00
  -0.1936625521474439E+01
  -0.5001772561207181E+01
  -0.6521614681082870E+00
SCALARS v double 1
LOOKUP_TABLE default
   0.0000000000000000E+00
   0.0000000000000000E+00
   0.0000000000000000E+00
   0.0000000000000000E+00
   0.0000000000000000E+00
   0.0000000000000000E+00
   0.0000000000000000E+00
   0.0000000000000000E+00
   0.0000000000000000E+00
   0.0000000000000000E+00
   0.0000000000000000E+00
   0.0000000000000000E+00
   0.0000000000000000E+00
   0.0000000000000000E+00
   0.0000000000000000E+00
   0.0000000000000000E+00
   0.0000000000000000E+00
   0.0000000000000000E+00
   0.0000000000000000E+00
   0.0000000000000000E+00
   0.0000000000000000E+00
   0.0000000000000000E+00
   0.0000000000000000E+00
   0.0000000000000000E+00
   0.0000000000000000E+00
   0.0000000000000000E+00
   0.0000000000000000E+00
   0.0000000000000000E+00
   0.0000000000000000E+00
   0.0000000000000000E+00
   0.0000000000000000E+00
   0.0000000000000000E+00
   0.0000000000000000E+00
   0.0000000000000000E+00
   0.0000000000000000E+00
   0.0000000000000000E+00
   0.0000000000000000E+00
   0.0000000000000000E+00
   0.0000000000000000E+00
   0.0000000000000000E+00
   0.0000000000000000E+00
   0.0000000000000000E+00
   0.0000000000000000E+00
   0.0000000000000000E+00
   0.0000000000000000E+00
   0.0000000000000000E+00
   0.0000000000000000E+00
   0.0000000000000000E+00
   0.0000000000000000E+00
   0.0000000000000000E+00
   0.0000000000000000E+00
   0.0000000000000000E+00
   0.0000000000000000E+00
   0.0000000000000000E+00
   0.0000000000000000E+00
   0.0000000000000000E+00
   0.0000000000000000E+00
   0.0000000000000000E+00
   0.0000000000000000E+00
   0.0000000000000000E+00
   0.0000000000000000E+00
   0.4110683691122112E+00
   0.1039204306028064E+01
   0.5738369259712204E+00
   0.0000000000000000E+00
   0.0000000000000000E+00
   0.0000000000000000E+00
   0.0000000000000000E+00
   0.2735969986445943E+00
   0.1465338862212806E+01
   0.8129986450524113E-01
  -0.1988110310064551E+01
  -0.7552492373375136E+00
   0.4768195608336440E-02
  -0.3902484100183589E-01
  -0.5200553593897280E+01
   0.6582878602233783E+00
   0.2219450005430471E+00
  -0.7567949555932696E+00
   0.1398433377580836E+00
   0.4104893302751723E+00
   0.3966851386858077E+00
   0.1934765190656471E+00
  -0.4350529433728272E+01
   0.1076130747481311E+00
  -0.2633909779915121E-01
  -0.1630984946260372E+01
  -0.1748937257121832E+01
   0.0000000000000000E+00
   0.0000000000000000E+00
   0.0000000000000000E+00
   0.0000000000000000E+00
   0.3059822791086254E+00
   0.6854439101125156E+00
   0.6802146189575192E-01
   0.6451116808205403E-02
   0.1098766683920883E+01
   0.8941453525185207E+00
   0.5561476521765186E+00
   0.1621449526202141E+00
  -0.5889457186585122E+00
   0.9326251616273793E+00
   0.2741894486523411E+00
  -0.2190040508663597E+00
   0.1710649974811584E+00
   0.4620334027760820E-01
   0.7557774767142390E+00
   0.1632377302019411E+01
   0.0000000000000000E+00
   0.0000000000000000E+00
   0.0000000000000000E+00
   0.2011359013798031E+00
   0.8574711868247915E+00
   0.1517677032511823E+01
   0.1301347083797241E+01
  -0.1622974225208181E+01
   0.6132686619612429E+00
  -0.2883729690411193E+00
   0.4547209852936136E+01
   0.8739231914966374E+00
   0.2574492772039905E+00
   0.1487185863590215E+01
   0.1389857613848779E+01
   0.2556071147168676E+00
  -0.3255820437450660E+00
   0.4282472205386673E+00
  -0.9887248163756873E-01
   0.0000000000000000E+00
   0.0000000000000000E+00
   0.0000000000000000E+00
   0.0000000000000000E+00
   0.0000000000000000E+00
   0.0000000000000000E+00
   0.0000000000000000E+00
   0.0000000000000000E+00
   0.0000000000000000E+00
   0.0000000000000000E+00
   0.0000000000000000E+00
   0.0000000000000000E+00
   0.0000000000000000E+00
   0.0000000000000000E+00
   0.0000000000000000E+00
   0.0000000000000000E+00
   0.0000000000000000E+00
   0.1831641015654843E+01
  -0.1624572792288631E+00
   0.9863451016063474E+00
  -0.1132844811360204E+01
  -0.8888326953426002E+00
   0.6608693799344491E+00
   0.2394069285562479E+00
  -0.7305853690512752E+00
   0.1132245915536701E+00
   0.2536510430976746E+00
   0.2002678477840131E+01
   0.1976710947387950E+00
   0.4483336532050052E+00
   0.1055540931311646E+00
   0.5713382935925427E+00
   0.1848408064112368E-01
   0.1461487676250640E+00
   0.2321958163207818E-01
   0.2839654686473100E+00
   0.1953180169458489E+00
   0.1134566135277080E+00
   0.3074089156046996E+00
   0.8195007005291728E+00
  -0.5658962649193405E-01
  -0.8906425161097737E+00
  -0.3016395262014917E-01
  -0.3946118802680999E+00
   0.1961742641278044E+01
   0.1637792655701099E+01
   0.6358233516628072E+00
  -0.6714513266854785E-01
  -0.3395767786150871E+00
   0.1616459716010879E+00
  -0.3624313592218257E-01
   0.1998939485415119E+00
   0.1214082702148251E+01
  -0.1935082315590910E+00
   0.1910814595722787E+00
   0.1658833755912943E+00
   0.9317749804244245E-01
  -0.4994723715318644E+00
   0.2664415009395204E-02
  -0.2443602648989803E+01
  -0.1016884790270633E+01
   0.2217990308978318E+01
  -0.1558151034909508E+00
  -0.5858671114177990E+00
  -0.9757419840116435E-02
   0.2464683428677368E+00
   0.9566508140954764E+00
  -0.3590920430123579E+00
   0.3289112872487735E+01
  -0.1841777343749169E+01
  -0.2312892046110635E+00
  -0.1048484864020487E+01
  -0.1250526124920415E+01
   0.7842117956448820E-01
   0.2938592729798828E+01
   0.7443883838213096E+00
   0.3898945170982560E-01
  -0.7114793821069033E-01
  -0.1035710548223676E+00
  -0.3792190934840530E+01
   0.4444627149969961E+00
   0.2501076414093673E+01
   0.8929115927596104E-01
  -0.5800315599123635E+00
   0.9152773989063370E+00
  -0.1403505503312364E+00
SCALARS w double 1
LOOKUP_TABLE default
   0.0000000000000000E+00
   0.0000000000000000E+00
   0.0000000000000000E+00
   0.0000000000000000E+00
   0.0000000000000000E+00
   0.0000000000000000E+00
   0.0000000000000000E+00
   0.0000000000000000E+00
   0.0000000000000000E+00
   0.0000000000000000E+00
   0.0000000000000000E+00
   0.0000000000000000E+00
   0.0000000000000000E+00
   0.0000000000000000E+00
   0.0000000000000000E+00
   0.0000000000000000E+00
   0.0000000000000000E+00
   0.0000000000000000E+00
   0.0000000000000000E+00
   0.0000000000000000E+00
   0.0000000000000000E+00
   0.0000000000000000E+00
   0.0000000000000000E+00
   0.0000000000000000E+00
   0.0000000000000000E+00
   0.0000000000000000E+00
   0.0000000000000000E+00
   0.0000000000000000E+00
   0.0000000000000000E+00
   0.0000000000000000E+00
   0.0000000000000000E+00
   0.0000000000000000E+00
   0.0000000000000000E+00
   0.1435709478427455E+00
  -0.5472330472897385E-01
   0.2955220575033796E+00
  -0.3712671750539252E+00
   0.7336852578285299E-01
   0.2275713806919470E+00
   0.2265634122231565E+00
   0.2126470156892472E+00
  -0.1351056279745876E+00
  -0.2194138101565914E+01
  -0.1900358933784215E+01
  -0.2299928366582302E+00
   0.1894498937202614E+00
  -0.5361807464498983E+00
   0.3360079231746297E+00
   0.2547422969501912E+00
   0.1454227865582313E+00
  -0.7964980567606533E+00
   0.2913535256142720E+00
   0.1580916926448810E+00
   0.2197162820129883E+00
   0.2179895981582174E+00
   0.3280068430855438E+00
   0.1863992292354342E+00
  -0.2300477662524348E+00
  -0.1872186200002612E+00
   0.2609853082595847E+00
   0.3166909955486939E+00
   0.4647615984822179E-01
   0.3360726318837837E+00
   0.1478829002340871E+01
   0.3864585628353062E+01
   0.5743426721118960E+01
   0.4980797533617991E+01
   0.1857445390598888E+01
  -0.4939676503145864E+00
   0.1453732346051652E+01
   0.2870877122400642E+00
   0.3897796304840120E-01
   0.3027475850512739E-01
  -0.3534493404576043E+00
   0.4017485755640258E+00
   0.4878541484367296E+01
   0.9515969962787872E+00
   0.5947019783195422E+00
   0.3829631244053612E+01
   0.4217530678601548E+00
   0.4462761563812748E+00
   0.3071427045859430E+00
   0.2382808764827382E+00
   0.4393440182941164E+01
   0.5304045951710983E+00
  -0.4989256464694584E+00
  -0.3515606985436649E+01
   0.2622517057251780E+01
  -0.2792605326164536E+00
   0.2463371665787760E+01
   0.2096164984953337E+01
   0.1658114363931201E+01
   0.1934637220417862E+00
   0.4375055476000370E+01
   0.2087145241155014E+00
   0.1393820160392960E+01
   0.3212486981192475E+00
  -0.1380968505955512E-01
   0.1953255707870925E+00
   0.1973526096144488E+01
   0.5150929765584738E+01
   0.4006276877807755E+01
   0.1980872593940553E+01
  -0.1206788830643310E+00
   0.1793995019890918E+00
   0.2140851357793880E+00
  -0.8146042872281720E+00
  -0.9879403517439657E-01
   0.1008727619301130E+01
  -0.7155721520100196E+01
   0.2086757697854254E+01
  -0.1061302936397227E+00
   0.5477752970736997E+00
  -0.1301183106948417E+01
   0.3223076378360936E+01
   0.8186298632099241E-01
  -0.6994989284853947E+00
  -0.1871872682096187E+01
  -0.8882500893621861E+00
   0.3373864357889812E+00
   0.1491307668474194E+00
   0.9933401780880005E-01
   0.1790050897713211E+00