title="tecplot geometry and solution file"
variables = x y z rho u v w p mach temperature
zone t="boundary 1 bc-1", solutiontime= 0.9000000E+02, strandid=1001, i=32, j=46, f=feblock
  0.000000000000E+00  0.000000000000E+00  0.000000000000E+00  0.000000000000E+00  0.000000000000E+00  0.000000000000E+00  0.000000000000E+00
  0.000000000000E+00  0.000000000000E+00  0.000000000000E+00  0.000000000000E+00  0.000000000000E+00  0.000000000000E+00  0.000000000000E+00
  0.000000000000E+00  0.000000000000E+00  0.000000000000E+00  0.000000000000E+00  0.000000000000E+00  0.000000000000E+00  0.000000000000E+00
  0.000000000000E+00  0.000000000000E+00  0.000000000000E+00  0.000000000000E+00  0.000000000000E+00  0.000000000000E+00  0.000000000000E+00
  0.000000000000E+00  0.000000000000E+00  0.000000000000E+00  0.000000000000E+00
  0.250000000000E+01  0.250000000000E+01  0.125000000000E+01  0.146289271009E+01  0.157686156160E+01  0.308372018325E+00  0.000000000000E+00
 -0.125000000000E+01 -0.600232012419E+00  0.250000000000E+01  0.477386199275E+00  0.742988685424E+00 -0.739814786992E+00  0.177790177481E+01
  0.155830813274E+01  0.250000000000E+01 -0.250000000000E+01 -0.154800130438E+01 -0.487811078581E+00  0.250000000000E+01  0.627766083140E+00
 -0.345533899378E+00 -0.178862290564E+01 -0.158811787973E+01  0.125000000000E+01 -0.250000000000E+01 -0.144524380962E+01  0.000000000000E+00
 -0.125000000000E+01 -0.250000000000E+01 -0.250000000000E+01 -0.250000000000E+01
  0.000000000000E+00  0.125000000000E+01  0.000000000000E+00  0.103724302461E+01  0.219251206392E+01  0.922061490191E+00  0.000000000000E+00
  0.000000000000E+00  0.715990576545E+00  0.250000000000E+01  0.202479342020E+01  0.324151231464E+01  0.175434191980E+01  0.310152362409E+01
  0.404200324774E+01  0.375000000000E+01  0.000000000000E+00  0.930412228790E+00  0.299062775774E+01  0.500000000000E+01  0.429310310915E+01
  0.409252726285E+01  0.187029682677E+01  0.284428995242E+01  0.500000000000E+01  0.125000000000E+01  0.394624082883E+01  0.500000000000E+01
  0.500000000000E+01  0.250000000000E+01  0.375000000000E+01  0.500000000000E+01
  0.284438496453E+00  0.160995519049E+01  0.117385426290E+00  0.166202647199E+01  0.248220752861E+01  0.245509304048E+01  0.145565362695E-01
  0.100000000000E-01  0.216207272984E+01  0.184857627667E+01  0.437649491374E+01  0.468181618981E+02  0.292926765696E+01  0.196288894383E+02
  0.102067499181E+03  0.489468958293E+02  0.100000000000E-01  0.266790868596E+01  0.880778920132E+01  0.234956985342E+04  0.921444113963E+01
  0.234577276637E+01  0.343396115229E+01  0.945464321337E+01  0.734821079977E+02  0.256869646167E+01  0.118201759813E+02  0.981317010364E+01
  0.132838267953E+02  0.256276919297E+02  0.130229344102E+04  0.471739789033E+01
  0.000000000000E+00 -0.239406184172E+01  0.000000000000E+00 -0.238839425121E+01 -0.203682331883E+01 -0.344864819846E+01  0.000000000000E+00
  0.000000000000E+00 -0.590972317313E+01  0.667128757272E+00 -0.375516650793E+01 -0.613045922327E+00 -0.572318204358E+01  0.251963170105E+00
  0.314960987327E+00  0.158523425672E+00  0.000000000000E+00 -0.715989815686E+01 -0.761469188615E+01  0.682670176120E-01  0.160752645247E+01
 -0.849634861664E+01 -0.926246695263E+01 -0.860440261633E+01  0.573710754901E+00 -0.964440679873E+01 -0.555688464291E+01  0.149546932931E+01
 -0.471818810256E+01  0.451524327459E+01 -0.664667121191E+00 -0.792940235329E+01
  0.000000000000E+00  0.000000000000E+00  0.000000000000E+00  0.151767703251E+01 -0.325582043745E+00  0.138985761385E+01  0.000000000000E+00
  0.000000000000E+00  0.873923191497E+00  0.000000000000E+00  0.428247220539E+00 -0.288372969041E+00  0.257449277204E+00  0.255607114717E+00
  0.201135901380E+00  0.000000000000E+00  0.000000000000E+00  0.857471186825E+00 -0.988724816376E-01  0.000000000000E+00  0.613268661961E+00
 -0.162297422521E+01  0.148718586359E+01  0.454720985294E+01 -0.263390977992E-01  0.000000000000E+00  0.130134708380E+01 -0.163098494626E+01
 -0.174893725712E+01  0.000000000000E+00  0.000000000000E+00  0.000000000000E+00
  0.000000000000E+00 -0.190035893378E+01  0.000000000000E+00 -0.130118310695E+01 -0.197291039315E+01  0.179005089771E+00  0.000000000000E+00
  0.000000000000E+00  0.337386435789E+00 -0.219413810157E+01 -0.678355766684E+00 -0.187187268210E+01  0.149130766847E+00 -0.668342957380E+00
 -0.106130293640E+00 -0.135105627975E+00  0.000000000000E+00  0.547775297074E+00  0.142171431316E+01  0.212647015689E+00 -0.699498928485E+00
  0.818629863210E-01  0.993340178088E-01 -0.888250089362E+00 -0.498925646469E+00  0.100872761930E+01  0.322307637836E+01 -0.351560698544E+01
  0.262251705725E+01 -0.715572152010E+01  0.208675769785E+01 -0.279260532616E+00
  0.105789974607E+01  0.582534988447E-01  0.149465557666E+01  0.143245172479E-01  0.286015712851E+00  0.138806682180E-01  0.125184288779E+01
  0.339057335331E+01  0.943215726454E-02  0.133411552093E+00  0.769640613577E-01  0.303631990617E+02  0.840651734048E-01  0.339113521257E+00
  0.971060737131E+00  0.618868584703E-01  0.105702939379E+02  0.117329546222E+00  0.213542515322E+00  0.586697195066E+01  0.718694624895E+01
  0.742765782475E+00  0.419604689431E+00  0.504320240310E-01  0.700844285145E+00  0.441226078395E-01  0.841087228727E+00  0.340764725275E+01
  0.197657842939E+00  0.252577272533E+01  0.518573334752E+04  0.154607764171E+02
  0.000000000000E+00  0.135807148406E+02  0.000000000000E+00  0.283543572208E+02  0.710656435200E+01  0.418406237051E+02  0.000000000000E+00
  0.000000000000E+00  0.765634828653E+02  0.721476249143E+01  0.244723235775E+02  0.208917824743E+01  0.285911131620E+02  0.487792358954E+01
  0.336611933156E+01  0.495062656801E+01  0.000000000000E+00  0.291451539611E+02  0.420489975152E+02  0.377731002113E+01  0.177737383251E+01
  0.129923307916E+02  0.226825335899E+02  0.113086626213E+03  0.658365385664E+01  0.625316500890E+02  0.207664887331E+02  0.595777104823E+01
  0.393145059934E+02  0.227785015790E+02  0.927556348191E+00  0.370408726590E+01
  0.520695919494E+01  0.506566262616E-01  0.178260442838E+02  0.120661881655E-01  0.161316889654E+00  0.791535603126E-02  0.120398150388E+03
  0.474680269463E+03  0.610757445303E-02  0.101037850203E+00  0.246200870844E-01  0.907948474759E+00  0.401777019206E-01  0.241867443011E-01
  0.133194703788E-01  0.177011433290E-02  0.147984115131E+04  0.615693354029E-01  0.339426290319E-01  0.349585721785E-02  0.109195170885E+01
  0.443296175304E+00  0.171069659542E+00  0.746774172753E-02  0.133526653758E-01  0.240478592535E-01  0.996196775820E-01  0.486153414591E+00
  0.208314203715E-01  0.137978941887E+00  0.557480093029E+01  0.458835304699E+01
        12        19        11        11
        11         5        12        12
        10        14         5         5
        19        13        11        11
        19        24        13        13
        30        23        24        24
        19        12        22        22
        28        22        21        21
        11        13         6         6
         7         6         9         9
        15        12        14        14
        18        13        23        23
        15        25        21        21
        27        19        22        22
        18         8         9         9
        27        31        24        24
         4        11         6         6
         5        14        12        12
         4         2         5         5
        21        12        15        15
        14        16        15        15
        24        19        27        27
        22        29        27        27
        23        26        18        18
        17         8        18        18
         5        11         4         4
         6         3         4         4
        26        23        30        30
         5         2        10        10
        16        14        10        10
         3         6         7         7
        21        25        28        28
        29        22        28        28
         6        13         9         9
         2         4         1         1
        31        27        32        32
        25        15        20        20
        24        23        13        13
         8         7         9         9
        13        18         9         9
        31        30        24        24
        12        21        22        22
        29        32        27        27
         3         1         4         4
        26        17        18        18
        16        20        15        15
zone t="boundary 2 bc-2", solutiontime= 0.9000000E+02, strandid=1002, i=33, j=48, f=feblock
  0.500000000000E+01  0.375000000000E+01  0.250000000000E+01  0.288078410721E+01  0.125000000000E+01  0.190974100652E+01  0.326683758169E+01
  0.201431602454E+01  0.000000000000E+00  0.963108083381E+00  0.500000000000E+01  0.403552511878E+01  0.423153924130E+01  0.500000000000E+01
  0.385533350601E+01  0.500000000000E+01  0.398173246726E+01  0.315249557942E+01  0.267000324704E+01  0.154774304040E+01  0.218329375016E+01
  0.893127759452E+00  0.000000000000E+00  0.698517061619E+00  0.964171764089E+00  0.310324758057E+01  0.000000000000E+00  0.000000000000E+00
  0.125000000000E+01  0.500000000000E+01  0.375000000000E+01  0.250000000000E+01  0.000000000000E+00
 -0.250000000000E+01 -0.250000000000E+01 -0.250000000000E+01 -0.250000000000E+01 -0.250000000000E+01 -0.250000000000E+01 -0.250000000000E+01
 -0.250000000000E+01 -0.250000000000E+01 -0.250000000000E+01 -0.250000000000E+01 -0.250000000000E+01 -0.250000000000E+01 -0.250000000000E+01
 -0.250000000000E+01 -0.250000000000E+01 -0.250000000000E+01 -0.250000000000E+01 -0.250000000000E+01 -0.250000000000E+01 -0.250000000000E+01
 -0.250000000000E+01 -0.250000000000E+01 -0.250000000000E+01 -0.250000000000E+01 -0.250000000000E+01 -0.250000000000E+01 -0.250000000000E+01
 -0.250000000000E+01 -0.250000000000E+01 -0.250000000000E+01 -0.250000000000E+01 -0.250000000000E+01
  0.000000000000E+00  0.000000000000E+00  0.000000000000E+00  0.904659890645E+00  0.000000000000E+00  0.717002441913E+00  0.188609243358E+01
  0.176246431481E+01  0.000000000000E+00  0.961328577125E+00  0.125000000000E+01  0.101201586758E+01  0.191586535653E+01  0.250000000000E+01
  0.293121848150E+01  0.375000000000E+01  0.406975391361E+01  0.363585050272E+01  0.285047954584E+01  0.292817774674E+01  0.395907379566E+01
  0.205246550326E+01  0.125000000000E+01  0.306828197606E+01  0.397245519226E+01  0.433168271247E+01  0.250000000000E+01  0.375000000000E+01
  0.500000000000E+01  0.500000000000E+01  0.500000000000E+01  0.500000000000E+01  0.500000000000E+01
  0.100000000000E-01  0.117577432212E+06  0.120374400232E+04  0.159436035933E+04  0.733713208229E+00  0.878502640613E+03  0.317380816976E+04
  0.282753465407E+04  0.100000000000E-01  0.313841038405E+01  0.428830737087E+03  0.107165767576E+04  0.558731314522E+03  0.116903812515E+04
  0.118961868627E+06  0.243707292299E+03  0.194960082586E+06  0.840719006177E+04  0.524975405366E+04  0.516461076106E+04  0.771519995219E+04
  0.396343300677E+03  0.256869646167E+01  0.557431919601E+04  0.482867012391E+04  0.534903031390E+04  0.256276919297E+02  0.130229344102E+04
  0.418292254143E+04  0.230316793179E+04  0.566740165523E+04  0.545969112322E+04  0.471739789033E+01
  0.000000000000E+00  0.000000000000E+00  0.000000000000E+00 -0.263818089684E+01  0.000000000000E+00 -0.107153486446E+02 -0.134756715180E+01
 -0.265852697300E+01  0.000000000000E+00 -0.154864951933E+02  0.367267206758E+00 -0.650510210962E+00  0.988941422273E+01 -0.259214035967E+00
  0.604389591776E+01  0.863849172203E+01  0.200318603379E+01 -0.105676806808E+01 -0.154991798438E+01 -0.207648222924E+01 -0.114454740889E+01
  0.223629402296E+01 -0.964440679873E+01 -0.232264508856E+01 -0.170537259766E+01 -0.962686263778E+00  0.451524327459E+01 -0.664667121191E+00
 -0.176202997563E+01  0.440472578387E+01 -0.493887632623E+00 -0.114676257924E+01 -0.792940235329E+01
  0.000000000000E+00  0.000000000000E+00  0.000000000000E+00  0.000000000000E+00  0.000000000000E+00  0.000000000000E+00  0.000000000000E+00
  0.000000000000E+00  0.000000000000E+00  0.000000000000E+00  0.000000000000E+00  0.000000000000E+00  0.000000000000E+00  0.000000000000E+00
  0.000000000000E+00  0.000000000000E+00  0.000000000000E+00  0.000000000000E+00  0.000000000000E+00  0.000000000000E+00  0.000000000000E+00
  0.000000000000E+00  0.000000000000E+00  0.000000000000E+00  0.000000000000E+00  0.000000000000E+00  0.000000000000E+00  0.000000000000E+00
  0.000000000000E+00  0.000000000000E+00  0.000000000000E+00  0.000000000000E+00  0.000000000000E+00
  0.000000000000E+00  0.000000000000E+00  0.000000000000E+00 -0.190229287533E+00  0.000000000000E+00 -0.136922112156E+01  0.116355610367E+01
  0.107083712584E+01  0.000000000000E+00  0.690351684067E+00  0.185744539060E+01  0.651306900930E+00  0.447227004675E+01  0.498079753362E+01
  0.255002777293E+01  0.103308169206E+02  0.236504832920E+01  0.179898513710E+01  0.178361275097E+01  0.191620478188E+01  0.215571907675E+01
 -0.591246578861E+01  0.100872761930E+01  0.126069903966E+01  0.173993809274E+01  0.201100176041E+01 -0.715572152010E+01  0.208675769785E+01
  0.246337166579E+01  0.763065829000E+01  0.165811436393E+01  0.209616498495E+01 -0.279260532616E+00
  0.572802207722E+00  0.491674545449E+00  0.403614146271E+05  0.372397515726E+05  0.821575132406E+04  0.916942398266E+04  0.306653942590E+05
  0.278162936449E+05  0.105702939379E+02  0.209459558837E+00  0.197778450287E+05  0.323230599697E+05  0.108507405979E+05  0.163936453419E+05
  0.112581191505E+06  0.295986410501E+03  0.354374171763E+06  0.207305429917E+05  0.245720569880E+05  0.233210548189E+05  0.194225134290E+05
  0.125400923664E+03  0.441226078395E-01  0.225397645539E+05  0.103751302057E+05  0.920704093081E+04  0.252577272533E+01  0.518573334752E+04
  0.872382097442E+04  0.128661149518E+04  0.746667505099E+04  0.909579221225E+04  0.154607764171E+02
  0.000000000000E+00  0.000000000000E+00  0.000000000000E+00  0.462547673075E+00  0.000000000000E+00  0.282591929511E+01  0.484080931486E+00
  0.772288861175E+00  0.000000000000E+00  0.507136627017E+02  0.235631495107E+00  0.141658567915E+00  0.208153443913E+01  0.112563807667E+01
  0.569900820464E+01  0.103274314546E+02  0.194291495910E+01  0.112293782557E+01  0.923078742995E+00  0.112377817281E+01  0.130009413069E+01
  0.949783616865E+01  0.625316500890E+02  0.111073547105E+01  0.140471500733E+01  0.143625210724E+01  0.227785015790E+02  0.927556348191E+00
  0.177246237400E+01  0.996290117821E+01  0.127390537927E+01  0.156451132904E+01  0.370408726590E+01
  0.801923090811E+02  0.585439187331E-05  0.469418583759E+02  0.327000429335E+02  0.156764955635E+05  0.146125839380E+02  0.135268263443E+02
  0.137727086905E+02  0.147984115131E+04  0.934369143886E-01  0.645685596798E+02  0.422264357182E+02  0.271884471878E+02  0.196324679110E+02
  0.132490914884E+01  0.170032242693E+01  0.254474574429E+01  0.345213560953E+01  0.655285551124E+01  0.632176910457E+01  0.352440882531E+01
  0.442952593951E+00  0.240478592535E-01  0.566090122683E+01  0.300811236123E+01  0.240975588970E+01  0.137978941887E+00  0.557480093029E+01
  0.291981246203E+01  0.782077619433E+00  0.184446871905E+01  0.233238635845E+01  0.458835304699E+01
        15         7        19        19
         8        20        19        19
        18        19        21        21
         7         4         8         8
         3         6         4         4
        19         7         8         8
        19        18        15        15
        14        13        15        15
         8        22        20        20
        27        24        22        22
        19        20        21        21
        32        26        21        21
        17        18        26        26
        17        16        15        15
        25        29        21        21
        12         7        13        13
        10         8         6         6
        25        20        24        24
         4         6         8         8
        12         2         4         4
        10        23        22        22
        26        31        17        17
        30        16        17        17
         4         7        12        12
        13        11        12        12
        21        20        25        25
        24        28        25        25
        22         8        10        10
         6         5        10        10
        31        26        32        32
         4         2         3         3
         5         6         3         3
        11        13        14        14
        22        23        27        27
        28        24        27        27
        15        13         7         7
         2        12         1         1
        29        25        33        33
        23        10         9         9
        21        26        18        18
        16        14        15        15
        18        17        15        15
        29        32        21        21
        22        24        20        20
        28        33        25        25
        11         1        12        12
        31        30        17        17
         5         9        10        10
zone t="boundary 3 bc-3", solutiontime= 0.9000000E+02, strandid=1003, i=33, j=48, f=feblock
  0.375000000000E+01  0.250000000000E+01  0.500000000000E+01  0.403552511878E+01  0.288078410721E+01  0.125000000000E+01  0.190974100652E+01
  0.500000000000E+01  0.326683758169E+01  0.423153924130E+01  0.201431602454E+01  0.000000000000E+00  0.963108083381E+00  0.500000000000E+01
  0.267000324704E+01  0.385533350601E+01  0.893127759452E+00  0.154774304040E+01  0.000000000000E+00  0.500000000000E+01  0.315249557942E+01
  0.218329375016E+01  0.398173246726E+01  0.000000000000E+00  0.698517061619E+00  0.964171764089E+00  0.125000000000E+01  0.000000000000E+00
  0.500000000000E+01  0.310324758057E+01  0.250000000000E+01  0.375000000000E+01  0.000000000000E+00
  0.250000000000E+01  0.250000000000E+01  0.250000000000E+01  0.250000000000E+01  0.250000000000E+01  0.250000000000E+01  0.250000000000E+01
  0.250000000000E+01  0.250000000000E+01  0.250000000000E+01  0.250000000000E+01  0.250000000000E+01  0.250000000000E+01  0.250000000000E+01
  0.250000000000E+01  0.250000000000E+01  0.250000000000E+01  0.250000000000E+01  0.250000000000E+01  0.250000000000E+01  0.250000000000E+01
  0.250000000000E+01  0.250000000000E+01  0.250000000000E+01  0.250000000000E+01  0.250000000000E+01  0.250000000000E+01  0.250000000000E+01
  0.250000000000E+01  0.250000000000E+01  0.250000000000E+01  0.250000000000E+01  0.250000000000E+01
  0.000000000000E+00  0.000000000000E+00  0.000000000000E+00  0.101201586758E+01  0.904659890645E+00  0.000000000000E+00  0.717002441913E+00
  0.125000000000E+01  0.188609243358E+01  0.191586535653E+01  0.176246431481E+01  0.000000000000E+00  0.961328577125E+00  0.250000000000E+01
  0.285047954584E+01  0.293121848150E+01  0.205246550326E+01  0.292817774674E+01  0.125000000000E+01  0.375000000000E+01  0.363585050272E+01
  0.395907379566E+01  0.406975391361E+01  0.250000000000E+01  0.306828197606E+01  0.397245519226E+01  0.500000000000E+01  0.375000000000E+01
  0.500000000000E+01  0.433168271247E+01  0.500000000000E+01  0.500000000000E+01  0.500000000000E+01
  0.219409504966E+06  0.145641059147E+04  0.694749490676E+00  0.146483863168E+01  0.936574194848E+02  0.288186587116E+01  0.133387941355E+03
  0.336747817718E+02  0.134683665207E+03  0.334313201058E+03  0.166783133844E+02  0.284438496453E+00  0.329771402480E+02  0.810329743137E+02
  0.338568971157E+03  0.609802092790E+03  0.207412874309E+01  0.356186888408E+03  0.160995519049E+01  0.107804534840E+03  0.923799310019E+03
  0.936021850516E+03  0.676881188126E+03  0.184857627667E+01  0.145090686868E+03  0.634831213584E+03  0.252477271488E+05  0.489468958293E+02
  0.168238595451E+02  0.134434284047E+04  0.760919033898E+04  0.703652062733E+03  0.234956985342E+04
  0.000000000000E+00  0.000000000000E+00  0.000000000000E+00  0.624120059604E+00 -0.171750344672E+00  0.000000000000E+00 -0.731387282530E-01
 -0.138180395348E+00 -0.160535733311E+00 -0.156685693878E+00  0.831717602681E+00  0.000000000000E+00  0.195789353860E+00 -0.338401697147E+00
 -0.128387471985E+00 -0.178391129919E+00  0.123543200780E+01 -0.339228313867E-01 -0.239406184172E+01 -0.300819831728E+00 -0.162569185942E+00
 -0.115834900900E+00 -0.201589309106E+00  0.667128757272E+00 -0.247000925763E+00 -0.576152261636E-02 -0.914258286694E-01  0.158523425672E+00
 -0.672920057041E+00 -0.195583562722E+00 -0.180530446574E+00 -0.313596862891E+00  0.682670176120E-01
  0.000000000000E+00  0.000000000000E+00  0.000000000000E+00  0.000000000000E+00  0.000000000000E+00  0.000000000000E+00  0.000000000000E+00
  0.000000000000E+00  0.000000000000E+00  0.000000000000E+00  0.000000000000E+00  0.000000000000E+00  0.000000000000E+00  0.000000000000E+00
  0.000000000000E+00  0.000000000000E+00  0.000000000000E+00  0.000000000000E+00  0.000000000000E+00  0.000000000000E+00  0.000000000000E+00
  0.000000000000E+00  0.000000000000E+00  0.000000000000E+00  0.000000000000E+00  0.000000000000E+00  0.000000000000E+00  0.000000000000E+00
  0.000000000000E+00  0.000000000000E+00  0.000000000000E+00  0.000000000000E+00  0.000000000000E+00
  0.000000000000E+00  0.000000000000E+00  0.000000000000E+00 -0.536180746450E+00 -0.187218620000E+00  0.000000000000E+00 -0.230047766252E+00
  0.143570947843E+00  0.328006843086E+00  0.186399229235E+00  0.260985308260E+00  0.000000000000E+00 -0.229992836658E+00 -0.547233047290E-01
  0.316690995549E+00  0.158091692645E+00 -0.796498056761E+00  0.254742296950E+00 -0.190035893378E+01  0.295522057503E+00  0.219716282013E+00
  0.291353525614E+00  0.189449893720E+00 -0.219413810157E+01  0.145422786558E+00  0.336007923175E+00  0.226563412223E+00 -0.135105627975E+00
 -0.371267175054E+00  0.217989598158E+00  0.227571380692E+00  0.733685257829E-01  0.212647015689E+00
  0.602125209717E+00  0.294224154792E+00  0.560634334868E+00  0.714876941412E+00  0.244105537819E-01  0.157081079392E+01  0.288939660861E-01
  0.104033479632E+00  0.840946088390E-01  0.707161181852E-01  0.231551190032E-01  0.105789974607E+01  0.791137622102E-02  0.497212141035E-01
  0.166933121034E+00  0.131569371829E+00  0.121279220829E+00  0.176855778144E+00  0.582534988447E-01  0.189555584472E-01  0.411759919356E+00
  0.294572011103E+00  0.308848372110E+00  0.133411552093E+00  0.398014056603E+01  0.161748429433E+00  0.708511929266E+01  0.618868584703E-01
  0.139003099427E-01  0.672811953581E+00  0.550985502311E+00  0.228850813461E+00  0.586697195066E+01
  0.000000000000E+00  0.000000000000E+00  0.000000000000E+00  0.995438838741E+00  0.133003476913E+02  0.000000000000E+00  0.138617431940E+02
  0.302992782371E+01  0.123515796881E+02  0.141502093708E+02  0.197723128666E+02  0.000000000000E+00  0.164810818158E+02  0.116959113340E+02
  0.130066688975E+02  0.137148104906E+02  0.513757310566E+01  0.974727698101E+01  0.135807148406E+02  0.268771776146E+02  0.109414441521E+02
  0.149372331068E+02  0.109454599805E+02  0.721476249143E+01  0.146261316085E+01  0.177933792887E+02  0.123260266470E+02  0.495062656801E+01
  0.225972505933E+02  0.110641465687E+02  0.288505978771E+02  0.150932376209E+02  0.377731002113E+01
  0.384201811920E-05  0.282828083730E-03  0.112974256095E+01  0.683234109433E+00  0.364891275915E-03  0.763094193069E+00  0.303262439691E-03
  0.432510216314E-02  0.874140544020E-03  0.296137170611E-03  0.194367175249E-02  0.520695919494E+01  0.335866804281E-03  0.859029306704E-03
  0.690276987431E-03  0.302060492640E-03  0.818613163363E-01  0.695135327716E-03  0.506566262616E-01  0.246165728237E-03  0.624014199672E-03
  0.440588876549E-03  0.638794117106E-03  0.101037850203E+00  0.384049239322E-01  0.356705524809E-03  0.392873661508E-03  0.177011433290E-02
  0.115671638054E-02  0.700667052075E-03  0.101374741447E-03  0.455326084884E-03  0.349585721785E-02
        15         9        16        16
        15        18        11        11
        22        15        21        21
        11         5         9         9
         5         7         2         2
        11         9        15        15
        16        21        15        15
        16        10        14        14
        18        17        11        11
        17        25        24        24
        22        18        15        15
        22        30        31        31
        30        21        23        23
        16        20        23        23
        22        27        26        26
        10         9         4         4
         7        11        13        13
        25        18        26        26
        11         7         5         5
         5         1         4         4
        17        19        13        13
        23        32        30        30
        23        20        29        29
         4         9         5         5
         4         8        10        10
        26        18        22        22
        26        28        25        25
        13        11        17        17
        13         6         7         7
        31        30        32        32
         2         1         5         5
         2         7         6         6
        14        10         8         8
        24        19        17        17
        24        25        28        28
         9        10        16        16
         3         4         1         1
        33        26        27        27
        12        13        19        19
        21        30        22        22
        16        14        20        20
        16        23        21        21
        22        31        27        27
        18        25        17        17
        26        33        28        28
         4         3         8         8
        23        29        32        32
        13        12         6         6
zone t="boundary 4 bc-4", solutiontime= 0.9000000E+02, strandid=1004, i=32, j=46, f=feblock
  0.125000000000E+01  0.219251206392E+01  0.103724302461E+01  0.500000000000E+01  0.250000000000E+01  0.375000000000E+01  0.404200324774E+01
  0.500000000000E+01  0.000000000000E+00  0.310152362409E+01  0.202479342020E+01  0.324151231464E+01  0.922061490191E+00  0.000000000000E+00
  0.299062775774E+01  0.394624082883E+01  0.500000000000E+01  0.409252726285E+01  0.500000000000E+01  0.429310310915E+01  0.175434191980E+01
  0.284428995242E+01  0.000000000000E+00  0.000000000000E+00  0.715990576545E+00  0.930412228790E+00  0.125000000000E+01  0.187029682677E+01
  0.500000000000E+01  0.375000000000E+01  0.250000000000E+01  0.000000000000E+00
  0.250000000000E+01  0.157686156160E+01  0.146289271009E+01  0.250000000000E+01  0.250000000000E+01  0.250000000000E+01  0.155830813274E+01
  0.125000000000E+01  0.250000000000E+01  0.177790177481E+01  0.477386199275E+00  0.742988685424E+00  0.308372018325E+00  0.125000000000E+01
 -0.487811078581E+00 -0.144524380962E+01 -0.125000000000E+01 -0.345533899378E+00  0.000000000000E+00  0.627766083140E+00 -0.739814786992E+00
 -0.158811787973E+01  0.000000000000E+00 -0.125000000000E+01 -0.600232012419E+00 -0.154800130438E+01 -0.250000000000E+01 -0.178862290564E+01
 -0.250000000000E+01 -0.250000000000E+01 -0.250000000000E+01 -0.250000000000E+01
  0.500000000000E+01  0.500000000000E+01  0.500000000000E+01  0.500000000000E+01  0.500000000000E+01  0.500000000000E+01  0.500000000000E+01
  0.500000000000E+01  0.500000000000E+01  0.500000000000E+01  0.500000000000E+01  0.500000000000E+01  0.500000000000E+01  0.500000000000E+01
  0.500000000000E+01  0.500000000000E+01  0.500000000000E+01  0.500000000000E+01  0.500000000000E+01  0.500000000000E+01  0.500000000000E+01
  0.500000000000E+01  0.500000000000E+01  0.500000000000E+01  0.500000000000E+01  0.500000000000E+01  0.500000000000E+01  0.500000000000E+01
  0.500000000000E+01  0.500000000000E+01  0.500000000000E+01  0.500000000000E+01
  0.252477271488E+05  0.427628107718E+04  0.200466894373E+04  0.168238595451E+02  0.760919033898E+04  0.703652062733E+03  0.538950101164E+03
  0.307254991010E+02  0.234956985342E+04  0.123773413414E+04  0.886604892134E+01  0.279388968743E+03  0.106989478598E+03  0.734821079977E+02
  0.326909358115E+02  0.557199546619E+04  0.305196595953E+04  0.357306476478E+02  0.168648095591E+02  0.788358773876E+02  0.105582420665E+02
  0.397942126742E+04  0.981317010364E+01  0.132838267953E+02  0.428966142788E+01  0.175208659580E+02  0.418292254143E+04  0.229692477257E+04
  0.230316793179E+04  0.566740165523E+04  0.545969112322E+04  0.471739789033E+01
 -0.914258286694E-01 -0.976187555297E-01  0.272571129718E-02 -0.672920057041E+00 -0.180530446574E+00 -0.313596862891E+00 -0.353704137438E+00
 -0.798446609623E+00  0.682670176120E-01 -0.211069002979E+00  0.216355439894E+00 -0.161530952426E+00  0.614936673701E+00  0.573710754901E+00
  0.153395191304E+00 -0.230247312901E+00  0.847979905710E-01 -0.360859409523E+00 -0.878366879246E+00 -0.464112662769E+00 -0.365037332272E+00
 -0.105023809530E+01  0.149546932931E+01 -0.471818810256E+01  0.417540960325E+00 -0.239807628252E+01 -0.176202997563E+01 -0.165794328897E+01
  0.440472578387E+01 -0.493887632623E+00 -0.114676257924E+01 -0.792940235329E+01
  0.000000000000E+00  0.462033402776E-01  0.680214618958E-01  0.000000000000E+00  0.000000000000E+00  0.000000000000E+00  0.305982279109E+00
  0.411068369112E+00  0.000000000000E+00  0.171064997481E+00  0.755777476714E+00  0.556147652177E+00 -0.219004050866E+00 -0.263390977992E-01
  0.163237730202E+01  0.645111680821E-02  0.573836925971E+00  0.109876668392E+01  0.103920430603E+01  0.894145352519E+00  0.932625161627E+00
  0.162144952620E+00 -0.163098494626E+01 -0.174893725712E+01 -0.588945718659E+00  0.685443910113E+00  0.000000000000E+00  0.274189448652E+00
  0.000000000000E+00  0.000000000000E+00  0.000000000000E+00  0.000000000000E+00