# vtk DataFile Version 2.0
FUN3D:global_image_vtk
ASCII
DATASET UNSTRUCTURED_GRID
POINTS 213 double
    0.0000000000000000E+00    0.2500000000000000E+01    0.0000000000000000E+00
    0.1250000000000000E+01    0.2500000000000000E+01    0.0000000000000000E+00
    0.2500000000000000E+01    0.2500000000000000E+01    0.0000000000000000E+00
    0.3750000000000000E+01    0.2500000000000000E+01    0.0000000000000000E+00
    0.5000000000000000E+01    0.2500000000000000E+01    0.0000000000000000E+00
    0.5000000000000000E+01    0.1250000000000000E+01    0.0000000000000000E+00
    0.5000000000000000E+01    0.0000000000000000E+00    0.0000000000000000E+00
    0.5000000000000000E+01   -0.1250000000000000E+01    0.0000000000000000E+00
    0.5000000000000000E+01   -0.2500000000000000E+01    0.0000000000000000E+00
    0.3750000000000000E+01   -0.2500000000000000E+01    0.0000000000000000E+00
    0.2500000000000000E+01   -0.2500000000000000E+01    0.0000000000000000E+00
    0.1250000000000000E+01   -0.2500000000000000E+01    0.0000000000000000E+00
    0.0000000000000000E+00   -0.2500000000000000E+01    0.0000000000000000E+00
    0.0000000000000000E+00   -0.1250000000000000E+01    0.0000000000000000E+00
    0.0000000000000000E+00    0.0000000000000000E+00    0.0000000000000000E+00
    0.0000000000000000E+00    0.1250000000000000E+01    0.0000000000000000E+00
    0.9058375365086910E+00    0.1578994732800803E+01    0.0000000000000000E+00
    0.3982050490726493E+01   -0.1583989954232354E+01    0.0000000000000000E+00
    0.4033849428301197E+01    0.1453322699199022E+01    0.0000000000000000E+00
    0.1040505887381675E+01   -0.1479596339503735E+01    0.0000000000000000E+00
    0.1099454400140349E+01   -0.3227322616384110E+00    0.0000000000000000E+00
    0.7354504170366591E+00    0.6593508822075582E+00    0.0000000000000000E+00
    0.1622302608453282E+01    0.8256214013940779E+00    0.0000000000000000E+00
    0.2145871574390382E+01   -0.1650070333782557E+01    0.0000000000000000E+00
    0.4086422318222992E+01   -0.4612828702537229E+00    0.0000000000000000E+00
    0.2979540174134984E+01   -0.8579242121530853E+00    0.0000000000000000E+00
    0.3045064261640043E+01   -0.1836846154397680E+01    0.0000000000000000E+00
    0.3428197553792836E+01    0.3508002863614053E+00    0.0000000000000000E+00
    0.4309693860063405E+01    0.5185680230613409E+00    0.0000000000000000E+00
    0.1827272193562204E+01    0.1738996113203182E+01    0.0000000000000000E+00
    0.2808563282768077E+01    0.1325493893339706E+01    0.0000000000000000E+00
    0.1895995683864404E+01   -0.8731419609589618E+00    0.0000000000000000E+00
    0.2273179336307740E+01    0.4906150219227333E-01    0.0000000000000000E+00
    0.5000000000000000E+01    0.2500000000000000E+01    0.1250000000000000E+01
    0.5000000000000000E+01    0.2500000000000000E+01    0.2500000000000000E+01
    0.5000000000000000E+01    0.2500000000000000E+01    0.3750000000000000E+01
    0.5000000000000000E+01    0.2500000000000000E+01    0.5000000000000000E+01
    0.3750000000000000E+01    0.2500000000000000E+01    0.5000000000000000E+01
    0.2500000000000000E+01    0.2500000000000000E+01    0.5000000000000000E+01
    0.1250000000000000E+01    0.2500000000000000E+01    0.5000000000000000E+01
    0.0000000000000000E+00    0.2500000000000000E+01    0.5000000000000000E+01
    0.0000000000000000E+00    0.2500000000000000E+01    0.3750000000000000E+01
    0.0000000000000000E+00    0.2500000000000000E+01    0.2500000000000000E+01
    0.0000000000000000E+00    0.2500000000000000E+01    0.1250000000000000E+01
    0.9631080833812172E+00    0.2500000000000000E+01    0.9613285771248219E+00
    0.3981732467264904E+01    0.2500000000000000E+01    0.4069753913607991E+01
    0.4035525118777670E+01    0.2500000000000000E+01    0.1012015867579395E+01
    0.9641717640894248E+00    0.2500000000000000E+01    0.3972455192261839E+01
    0.1547743040396780E+01    0.2500000000000000E+01    0.2928177746738678E+01
    0.6985170616192014E+00    0.2500000000000000E+01    0.3068281976055466E+01
    0.8931277594515110E+00    0.2500000000000000E+01    0.2052465503257726E+01
    0.2183293750162785E+01    0.2500000000000000E+01    0.3959073795658649E+01
    0.3855333506014705E+01    0.2500000000000000E+01    0.2931218481500625E+01
    0.3152495579421047E+01    0.2500000000000000E+01    0.3635850502723324E+01
    0.3103247580566054E+01    0.2500000000000000E+01    0.4331682712472464E+01
    0.3266837581688852E+01    0.2500000000000000E+01    0.1886092433583972E+01
    0.4231539241296245E+01    0.2500000000000000E+01    0.1915865356532799E+01
    0.1909741006522088E+01    0.2500000000000000E+01    0.7170024419130505E+00
    0.2880784107213163E+01    0.2500000000000000E+01    0.9046598906449592E+00
    0.2014316024535771E+01    0.2500000000000000E+01    0.1762464314805728E+01
    0.2670003247036656E+01    0.2500000000000000E+01    0.2850479545835163E+01
    0.5000000000000000E+01    0.1250000000000000E+01    0.5000000000000000E+01
    0.5000000000000000E+01    0.0000000000000000E+00    0.5000000000000000E+01
    0.5000000000000000E+01   -0.1250000000000000E+01    0.5000000000000000E+01
    0.5000000000000000E+01   -0.2500000000000000E+01    0.5000000000000000E+01
    0.5000000000000000E+01   -0.2500000000000000E+01    0.3750000000000000E+01
    0.5000000000000000E+01   -0.2500000000000000E+01    0.2500000000000000E+01
    0.5000000000000000E+01   -0.2500000000000000E+01    0.1250000000000000E+01
    0.5000000000000000E+01    0.1578994732800803E+01    0.9058375365086910E+00
    0.5000000000000000E+01   -0.1583989954232354E+01    0.3982050490726493E+01
    0.5000000000000000E+01    0.1453322699199022E+01    0.4033849428301197E+01
    0.5000000000000000E+01   -0.1479596339503735E+01    0.1040505887381675E+01
    0.5000000000000000E+01   -0.3227322616384110E+00    0.1099454400140349E+01
    0.5000000000000000E+01    0.6593508822075582E+00    0.7354504170366591E+00
    0.5000000000000000E+01    0.8256214013940779E+00    0.1622302608453282E+01
    0.5000000000000000E+01   -0.1650070333782557E+01    0.2145871574390382E+01
    0.5000000000000000E+01   -0.4612828702537229E+00    0.4086422318222992E+01
    0.5000000000000000E+01   -0.8579242121530853E+00    0.2979540174134984E+01
    0.5000000000000000E+01   -0.1836846154397680E+01    0.3045064261640043E+01
    0.5000000000000000E+01    0.3508002863614053E+00    0.3428197553792836E+01
    0.5000000000000000E+01    0.5185680230613409E+00    0.4309693860063405E+01
    0.5000000000000000E+01    0.1738996113203182E+01    0.1827272193562204E+01
    0.5000000000000000E+01    0.1325493893339706E+01    0.2808563282768077E+01
    0.5000000000000000E+01   -0.8731419609589618E+00    0.1895995683864404E+01
    0.5000000000000000E+01    0.4906150219227333E-01    0.2273179336307740E+01
    0.0000000000000000E+00    0.1250000000000000E+01    0.5000000000000000E+01
    0.0000000000000000E+00    0.0000000000000000E+00    0.5000000000000000E+01
    0.0000000000000000E+00   -0.1250000000000000E+01    0.5000000000000000E+01
    0.0000000000000000E+00   -0.2500000000000000E+01    0.5000000000000000E+01
    0.1250000000000000E+01   -0.2500000000000000E+01    0.5000000000000000E+01
    0.2500000000000000E+01   -0.2500000000000000E+01    0.5000000000000000E+01
    0.3750000000000000E+01   -0.2500000000000000E+01    0.5000000000000000E+01
    0.4042003247744892E+01    0.1558308132739014E+01    0.5000000000000000E+01
    0.9304122287900499E+00   -0.1548001304379777E+01    0.5000000000000000E+01
    0.1037243024609388E+01    0.1462892710085612E+01    0.5000000000000000E+01
    0.3946240828834967E+01   -0.1445243809615570E+01    0.5000000000000000E+01
    0.4092527262848217E+01   -0.3455338993778935E+00    0.5000000000000000E+01
    0.4293103109154542E+01    0.6277660831404320E+00    0.5000000000000000E+01
    0.3241512314643519E+01    0.7429886854239611E+00    0.5000000000000000E+01
    0.2844289952419609E+01   -0.1588117879734118E+01    0.5000000000000000E+01
    0.7159905765450471E+00   -0.6002320124191652E+00    0.5000000000000000E+01
    0.1754341919796891E+01   -0.7398147869923652E+00    0.5000000000000000E+01
    0.1870296826774691E+01   -0.1788622905643739E+01    0.5000000000000000E+01
    0.9220614901912976E+00    0.3083720183248586E+00    0.5000000000000000E+01
    0.3101523624086016E+01    0.1777901774806180E+01    0.5000000000000000E+01
    0.2192512063922564E+01    0.1576861561598471E+01    0.5000000000000000E+01
    0.2024793420196460E+01    0.4773861992750707E+00    0.5000000000000000E+01
    0.2990627757741975E+01   -0.4878110785814084E+00    0.5000000000000000E+01
    0.0000000000000000E+00   -0.2500000000000000E+01    0.1250000000000000E+01
    0.0000000000000000E+00   -0.2500000000000000E+01    0.2500000000000000E+01
    0.0000000000000000E+00   -0.2500000000000000E+01    0.3750000000000000E+01
    0.0000000000000000E+00    0.1558308132739014E+01    0.4042003247744892E+01
    0.0000000000000000E+00   -0.1548001304379777E+01    0.9304122287900499E+00
    0.0000000000000000E+00    0.1462892710085612E+01    0.1037243024609388E+01
    0.0000000000000000E+00   -0.1445243809615570E+01    0.3946240828834967E+01
    0.0000000000000000E+00   -0.3455338993778935E+00    0.4092527262848217E+01
    0.0000000000000000E+00    0.6277660831404320E+00    0.4293103109154542E+01
    0.0000000000000000E+00    0.7429886854239611E+00    0.3241512314643519E+01
    0.0000000000000000E+00   -0.1588117879734118E+01    0.2844289952419609E+01
    0.0000000000000000E+00   -0.6002320124191652E+00    0.7159905765450471E+00
    0.0000000000000000E+00   -0.7398147869923652E+00    0.1754341919796891E+01
    0.0000000000000000E+00   -0.1788622905643739E+01    0.1870296826774691E+01
    0.0000000000000000E+00    0.3083720183248586E+00    0.9220614901912976E+00
    0.0000000000000000E+00    0.1777901774806180E+01    0.3101523624086016E+01
    0.0000000000000000E+00    0.1576861561598471E+01    0.2192512063922564E+01
[...]
POINT_DATA 213
SCALARS rho double 1
LOOKUP_TABLE default
   0.2119231942688820E+01
   0.3354933428527397E+02
   0.1456410591468571E+04
   0.5723089223063369E+04
   0.6947494906755838E+00
   0.6472523463780928E+00
   0.6643341691008064E+00
   0.1000000000000000E-01
   0.1000000000000000E-01
   0.5990031268055101E+04
   0.5844570277730000E+02
   0.7497542974120303E+01
   0.3159621246708296E+00
   0.6791864449513336E+00
   0.8080500862603976E+00
   0.1093236974347350E+01
   0.1272347746952596E+01
   0.1425386643330111E-01
   0.2353894707782824E+01
   0.3324356386012363E+00
   0.6140662716608072E+00
   0.7809103167672212E+00
   0.1301577619169468E+01
   0.5739360566944044E+02
   0.1959573564565909E-01
   0.6805321761901718E+02
   0.4027969423762706E+02
   0.6577300373441631E+03
   0.3425618319426131E+01
   0.4183569331708505E+03
   0.1528968928226870E+03
   0.3410100220785535E+00
   0.8140521507305409E+00
   0.3367478177176010E+02
   0.8078708187307342E+02
   0.5150613605113056E+02
   0.3267132772006890E+02
   0.1037346976172716E+04
   0.1910297608611519E+04
   0.1847507741985831E+04
   0.1725315727087013E+04
   0.9000828377262671E+02
   0.2149852447125273E+01
   0.1938968989160180E+01
   0.3303464834908991E+02
   0.6680191938382807E+03
   0.1464838631677994E+01
   0.7222675780765901E+03
   0.2722729843924849E+03
   0.1960666549674633E+03
   0.2270287617749594E+01
   0.9194670687564568E+03
   0.5970361103269886E+03
   0.9237993100187249E+03
   0.1314684789292335E+04
   0.1346836652068894E+03
   0.3338170869544251E+03
   0.1354518033460304E+03
   0.9365741948479864E+02
   0.1685613843335376E+02
   0.3358993606331184E+03
   0.3408334444412274E+02
   0.1690378703829911E+02
   0.1554836772895586E+03
   0.3573244581868331E+03
   0.2504779577231433E+03
   0.3236401618493173E+03
   0.5290056555924381E+02
   0.1094172686268972E+01
   0.6862261274499295E+03
   0.2489570303980297E+03
   0.1236168509169710E+03
   0.8089264202251132E+03
   0.2013624984179954E+01
   0.4692760558189720E+02
   0.4676217489768493E+03
   0.1843981494114460E+03
   0.1215925615581432E+04
   0.2510475157587047E+03
   0.1252232777801454E+03
   0.4753306712848364E+02
   0.2047864987724206E+04
   0.1848511106847475E+04
   0.1348829499451106E+04
   0.1097113425868525E+03
   0.1451004831369153E+04
   0.2003025494582124E+03
   0.5248695373027360E+02
   0.1772000977431775E+02
   0.1121609609378994E+03
   0.1466110555795057E+03
   0.1585840843918855E+03
   0.6056064648976095E+03
   0.1843032532647682E+02
   0.1768964604797859E+04
   0.1548808703532858E+03
   0.3886397452379309E+02
   0.9029709716645385E+02
   0.2948456163316999E+03
   0.1047586215845836E+03
   0.1118620239875407E+03
   0.2450076866683306E+02
   0.5991310820427923E+02
   0.1702891016818304E+03
   0.1685907846394820E+04
   0.1832536462682317E+04
   0.8632624000456251E+02
   0.4543681791397390E+02
   0.2574633161543626E+01
   0.6658507998167883E+02
   0.4249816007822656E+02
   0.1254648076614490E+03
   0.2756998152349087E+01
   0.1674349728414485E+01
   0.1012176948305124E+02
   0.2703794922676931E+02
   0.1092523637298166E+03
   0.7652122963976439E+02
   0.1181830401671030E+02
   0.2811623183226543E+01
   0.2992246622576399E+01
   0.4647543032851124E+01
   0.2466454440015975E+01
   0.2706912018013649E+02
   0.2005649111655391E+01
   0.3866144691116352E+01
   0.1207611881730578E+02
   0.3332008245711379E+01
   0.3525819675779479E+03
   0.3927023293242189E+02
   0.1945395470962468E+03
   0.1565878122538712E+03
   0.1536971430285174E+03
   0.8296305135352176E+02
   0.2105713772638046E+03
   0.2993311206163814E+03
   0.2434708734751978E+03
   0.1450919635997962E+03
   0.1040799405612286E+03
   0.1622566082334111E+03
   0.4022506305026906E+02
   0.6458923917651056E+02
   0.9303805600267457E+02
   0.1593512146790626E+03
   0.9514963889940546E+01
   0.1011155887200057E+02
   0.3025096707019839E+02
   0.1456216378131529E+03
   0.1258935078229349E+01
   0.1711205408646188E+01
   0.4207154130643758E+01
   0.6842240388083117E+01
   0.6039976475785331E+03
   0.2719793927470524E+02
   0.1256879313446110E+02
   0.1873954261773275E+01
   0.3690062833139427E+02
   0.5421057224573026E+03
   0.1183417333807611E+02
   0.3222511417388924E+03
   0.2780369928925059E+03
   0.1278839019453661E+03
   0.2235535299699808E+03
   0.4833694069324920E+03
   0.6184773165895307E+03
   0.1318939998700266E+03
   0.3212720066845882E+01
   0.9819334264489804E+02
   0.6933237550182742E+01
   0.1216691555195033E+03
   0.1255865803343867E+03
   0.2072272666802681E+02
   0.1259969760589286E+02
   0.4479849299104751E+02
   0.9226364939339644E+00
   0.1597786080807337E+03
   0.2156368764095237E+03
   0.5926480355181365E+02
   0.3215191690868638E+03
   0.3492823789529481E+01
   0.3764678023381383E+01
   0.1389632642982355E+01
   0.2671782636659896E+03
   0.1078354002076350E+04
   0.3732844625814832E+03
   0.1933293875654715E+03
   0.1471293442130303E+03
   0.3666423589654838E+03
   0.3686645376753156E+03
   0.2193890482576707E+03
   0.2582081384921801E+03
   0.4437754409612364E+02
   0.1419045638459068E+01
   0.1530428619013524E+02
   0.2913366083161029E+03
   0.4799413906692232E+02
   0.8193349064812762E+02
   0.1514789060424282E+04
   0.1470186649757558E+03
   0.5878848683234618E+02
   0.2384081937052410E+03
   0.7751917992952751E+01
   0.5259912672732293E+02
   0.2822980033208684E+03
   0.2880952133823719E+03
   0.3794806473409712E+03
   0.4807066263500487E+02
   0.8512129123016277E+02
   0.2497659278454984E+03
   0.9406793921187017E+03
   0.1374562191205124E+03
   0.4335810891476651E+02
   0.2264071333260395E+03
SCALARS u double 1
LOOKUP_TABLE default
   0.0000000000000000E+00
   0.0000000000000000E+00
   0.0000000000000000E+00
   0.0000000000000000E+00
   0.0000000000000000E+00
   0.0000000000000000E+00
   0.0000000000000000E+00
   0.0000000000000000E+00
   0.0000000000000000E+00
   0.0000000000000000E+00
   0.0000000000000000E+00
   0.0000000000000000E+00
   0.0000000000000000E+00
   0.0000000000000000E+00
   0.0000000000000000E+00
   0.0000000000000000E+00
   0.0000000000000000E+00
   0.0000000000000000E+00
   0.0000000000000000E+00
   0.0000000000000000E+00
   0.0000000000000000E+00
   0.0000000000000000E+00
   0.0000000000000000E+00
   0.0000000000000000E+00
   0.0000000000000000E+00
   0.0000000000000000E+00
   0.0000000000000000E+00
   0.0000000000000000E+00
   0.0000000000000000E+00
   0.0000000000000000E+00
   0.0000000000000000E+00
   0.0000000000000000E+00
   0.0000000000000000E+00
  -0.1381803953476683E+00
  -0.3364733571332525E+00
  -0.4550305105659492E+00
  -0.4864720194400228E+00
  -0.2201347619691465E+00
  -0.8364205217253012E-01
  -0.1057006158059857E+00
  -0.1621209850435678E+00
  -0.1817500950431601E-01
  -0.1788719103429176E+00
  -0.2240326371974801E+01
   0.1954549300517480E+00
  -0.1935655365823777E+00
   0.6241200596043394E+00
  -0.7550184366499078E-01
  -0.5615237731639630E-01
  -0.2975932370806335E+00
   0.6126064202518317E+00
  -0.1154252032883709E+00
  -0.1725258376147722E+00
  -0.1625691859415142E+00
  -0.1876843004864431E+00
  -0.1605357333109040E+00
  -0.1561560155990809E+00
  -0.7253942040348904E-01
  -0.1717503446718602E+00
   0.8220105770234466E+00
  -0.1287493232128377E+00
  -0.7434326692192545E+00
  -0.8769908008708999E+00
   0.3370596968964611E+00
   0.3564252348065757E+00
   0.3365241340951747E+00
   0.1838171968968236E+00
   0.7698492332120145E+00
   0.4906080007660093E+00
   0.3352862799184302E+00
  -0.2008207026887557E+00
   0.8176983400791609E+00
   0.4660775682531660E+00
   0.2075712030439813E+00
   0.6824035991895190E-01
   0.2983224240289678E+00
   0.2202060809042884E+00
   0.3068934805879828E+00
   0.5159082060294492E+00
  -0.1359878213970512E+00
  -0.3430490991645547E+00
  -0.3991361319934264E-01
  -0.2307606565645966E+00
   0.1316291492934049E+00
   0.9382453890665679E-01
  -0.1336517677798021E+00
  -0.1752631436265654E-03
  -0.2260303747709242E+01
  -0.3396857765326172E+01
  -0.2990607522842204E+01
  -0.1201325833296443E+01
  -0.4498699481207417E+00
  -0.3221341303917796E+00
  -0.2192190280104612E+01
  -0.5595186694835987E-01
  -0.1886115234533074E+00
  -0.3547918460415593E+00
  -0.4379951005422807E+00
  -0.1603099844656588E+00
  -0.1363992357875805E+01
   0.2422442227058558E+00
  -0.1324962395574433E+00
  -0.2706354211008618E+01
   0.4748011133082563E+00
  -0.1181639905362785E+00
  -0.5658524193014691E-01
   0.1788924665970464E-01
   0.1000079327805795E+00
  -0.9637097211152879E+01
   0.5341522189853617E+00
  -0.5614396351422390E+01
   0.1284789803426675E+00
  -0.7002458906300342E+01
  -0.2374836150046559E+01
  -0.5579685818734287E+01
  -0.2463434872066196E+01
   0.4847090679615585E-01
  -0.1394261485905587E+01
  -0.7403728467502909E+01
  -0.5158997074215044E+01
  -0.5639419653034058E+01
  -0.8184912651636566E+01
  -0.3441331755549677E+01
   0.7144717447572457E-01
  -0.2852247750127586E+01
  -0.4008171600978815E+01
  -0.6760424394967878E+01
  -0.1507700572257380E+02
  -0.9886036314361697E-02
  -0.7086425838100127E+00
  -0.2014160908548840E+01
  -0.1918667314335328E+01
  -0.2845919962200918E+01
  -0.2509535603662237E+01
  -0.1134622623713151E+01
  -0.2012059094348040E+00
  -0.1007814805721182E+01
  -0.9891290803522264E+00
  -0.1215503342192426E+01
  -0.3401501109919247E+00
  -0.4719521660159335E+01
  -0.2083318708596315E+01
  -0.2365544112854176E+01
  -0.1445415634885116E+01
   0.2790624783003270E+00
  -0.4168513570385389E+01
   0.8006401786501575E+00
  -0.1701804483727204E+01
  -0.2213411734311324E+01
  -0.4070612223072672E+01
  -0.2145231213417286E+01
  -0.4000059045607833E+01
  -0.7143148822755423E-01
  -0.2742293345088374E+00
  -0.1106615622162479E+00
   0.1906209607111054E+00
  -0.2756939443363700E+01
  -0.9245564339846352E-01
  -0.1446311754417393E+00
  -0.1576430382558608E+00
  -0.1260993177488597E+00
  -0.1832809211813223E+00
  -0.1088873851259196E+00
  -0.3294747475486891E-01
  -0.1668944530086524E+00
  -0.5602221178942230E-01
  -0.2615748395851477E+01
   0.1229442737190101E+00
  -0.6009699639930924E+01
  -0.2680787854664675E+01
  -0.2296147079774733E+01
  -0.8244567265505445E+00
  -0.5475663050265435E+01
  -0.7667223451619148E+00
  -0.5666150595922815E+01
  -0.1783642250564111E+01
  -0.6024911760815830E-02
   0.1310820171961121E+00
  -0.2829272856712916E+00
  -0.1358265356688884E+01
  -0.8646562821202920E+01
  -0.6807561006198839E+01
  -0.1350713654216445E+00
  -0.1613110240182601E+00
  -0.1843583558813898E-01
  -0.6946946397531915E+00
  -0.5351705229033481E+00
   0.3790231150555810E-01
  -0.9090303346183840E-02
  -0.2971159645598835E+00
  -0.1124649087018065E+01
  -0.2133362699657220E+00
   0.4791241554999079E+00
  -0.4251779765371788E+00
  -0.5093272635097145E+00
  -0.3195914000849070E+01
  -0.1790937667050011E+01
  -0.6324766488676055E-01
  -0.1705097209480579E+00
  -0.6863313203985492E+00
  -0.1677825338503014E+01
  -0.1189065184703672E+01
  -0.9953716609165814E-01
  -0.1941944422683486E+00
  -0.3526944738272417E+00
   0.5267962053743722E-01
  -0.1294521996036246E+01
  -0.1472140348997679E+01
  -0.6089607620967675E+00
  -0.1947069289613590E+00
  -0.1703818393813872E+01
  -0.4918880838088000E+01
  -0.5593586559841962E+00
SCALARS v double 1
LOOKUP_TABLE default
   0.0000000000000000E+00
   0.0000000000000000E+00
   0.0000000000000000E+00
   0.0000000000000000E+00
   0.0000000000000000E+00
   0.0000000000000000E+00
   0.0000000000000000E+00
   0.0000000000000000E+00
   0.0000000000000000E+00
   0.0000000000000000E+00
   0.0000000000000000E+00
   0.0000000000000000E+00
   0.0000000000000000E+00
   0.0000000000000000E+00
   0.0000000000000000E+00
   0.0000000000000000E+00
   0.0000000000000000E+00
   0.0000000000000000E+00
   0.0000000000000000E+00
   0.0000000000000000E+00
   0.0000000000000000E+00
   0.0000000000000000E+00
   0.0000000000000000E+00
   0.0000000000000000E+00
   0.0000000000000000E+00
   0.0000000000000000E+00
   0.0000000000000000E+00
   0.0000000000000000E+00
   0.0000000000000000E+00
   0.0000000000000000E+00
   0.0000000000000000E+00
   0.0000000000000000E+00
   0.0000000000000000E+00
   0.0000000000000000E+00
   0.0000000000000000E+00
   0.0000000000000000E+00
   0.0000000000000000E+00
   0.0000000000000000E+00
   0.0000000000000000E+00
   0.0000000000000000E+00
   0.0000000000000000E+00
   0.0000000000000000E+00
   0.0000000000000000E+00
   0.0000000000000000E+00
   0.0000000000000000E+00
   0.0000000000000000E+00
   0.0000000000000000E+00
   0.0000000000000000E+00
   0.0000000000000000E+00
   0.0000000000000000E+00
   0.0000000000000000E+00
   0.0000000000000000E+00
   0.0000000000000000E+00
   0.0000000000000000E+00
   0.0000000000000000E+00
   0.0000000000000000E+00
   0.0000000000000000E+00
   0.0000000000000000E+00
   0.0000000000000000E+00
   0.0000000000000000E+00
   0.0000000000000000E+00
   0.3791582280700787E+00
   0.1037691529774109E+01
   0.1831186425262739E+00
   0.0000000000000000E+00
   0.0000000000000000E+00
   0.0000000000000000E+00
   0.0000000000000000E+00
   0.2735969986445943E+00
  -0.5252373085437205E-01
   0.7724070764445952E-01
  -0.1900312560711472E+01
  -0.7556002037708015E+00
   0.4768195608336440E-02
  -0.3902484100183589E-01
  -0.1409958314621992E+01
   0.9142808438047952E+00
   0.2193906140352900E+00
  -0.5380927267105201E+00
   0.1398433377580836E+00
   0.3995433820063815E+00
   0.4151533059737231E+00
   0.1935460937111558E+00
  -0.1245307405079761E+01
   0.1076130747481311E+00
  -0.2187280415042898E-01
  -0.4445202136326339E+00
  -0.1534061362913896E+01
   0.0000000000000000E+00
   0.0000000000000000E+00
   0.0000000000000000E+00
   0.0000000000000000E+00
   0.2783427080379050E+00
   0.2919779073907274E+00
   0.1217959075282689E-01
   0.1097513506234394E-01
   0.1046395738206926E+01
   0.8285678366077164E+00
   0.5422504737226668E+00
   0.5443854786938638E+00
  -0.3490816670354058E+00
   0.4304651920978015E+00
   0.1185593990618270E+01
  -0.2063326103646123E+00
   0.1049736295711771E+00
  -0.2681567081836930E-01
   0.2083120859348639E+00
   0.1348678915991895E+01
   0.0000000000000000E+00
   0.0000000000000000E+00
   0.0000000000000000E+00
   0.2027067814499905E+00
   0.8009550160885944E+00
   0.1514801944276436E+01
   0.8702195935007838E+00
  -0.3463180288010591E+00
   0.1098472861535726E+00
   0.1881734361896186E+00
   0.2942673348130848E+01
   0.5600287645659630E+00
   0.2398642594685136E+00
   0.6004183900838472E+00
   0.1385308608975933E+01
   0.1485393635499779E+00
   0.3551527062034129E+00
   0.6330807667028915E+00
  -0.5242425261324639E+00
   0.0000000000000000E+00
   0.0000000000000000E+00
   0.0000000000000000E+00
   0.0000000000000000E+00
   0.0000000000000000E+00
   0.0000000000000000E+00
   0.0000000000000000E+00
   0.0000000000000000E+00
   0.0000000000000000E+00
   0.0000000000000000E+00
   0.0000000000000000E+00
   0.0000000000000000E+00
   0.0000000000000000E+00
   0.0000000000000000E+00
   0.0000000000000000E+00
   0.0000000000000000E+00
   0.0000000000000000E+00
   0.1819130099391297E+01
  -0.1056886750810125E+00
   0.8977648067668316E+00
  -0.3600709680684497E+00
  -0.5265529425387890E+00
   0.6461996444654834E+00
   0.3021118428180365E+00
  -0.6554260098145227E-01
   0.1022567887162833E+00
   0.4580880516627084E+00
   0.7867753556637623E+00
   0.1912308149502462E+00
   0.2475638298722477E+00
   0.1000249297393423E+00
   0.5713382935925427E+00
   0.1672727313823606E-01
   0.1461487676250640E+00
   0.2321958163207830E-01
   0.2794307353228639E+00
   0.1916037664115900E+00
   0.1091762202854425E+00
   0.3022604559274647E+00
   0.7203046648364845E+00
  -0.3542765081051751E-01
  -0.8963579709187444E+00
  -0.1118238208611385E+00
  -0.3860677047933108E+00
   0.3857689573307051E-01
   0.2207422294948904E+00
   0.6349450206759653E+00
  -0.7582090734299064E-01
  -0.3134695941015554E+00
   0.1152491404130407E+00
  -0.3624313592218257E-01
   0.1739875055486336E+00
   0.1196394479826383E+01
  -0.2095227168130361E+00
   0.1889112814874796E+00
   0.1658833755912943E+00
   0.9154136978149394E-01
  -0.4962045072911753E+00
  -0.9992652648013034E+00
  -0.1651927087878009E+01
  -0.9997943293082961E+00
  -0.5282577186251597E+00
  -0.1692025914158917E+00
  -0.5771061323179717E+00
  -0.9757419840116435E-02
   0.2464683428677368E+00
   0.9566508140954764E+00
  -0.3659431673953830E+00
  -0.6903166851536726E+00
  -0.1868418360049098E+01
  -0.2322895428706002E+00
  -0.1033195836895273E+01
  -0.1207312426812601E+01
  -0.5050250004392661E+00
   0.1078667451646479E+01
   0.7350966700872912E+00
   0.3809322298986228E-01
  -0.7114793821069033E-01
  -0.1028997200890315E+00
  -0.3599039150534143E+01
   0.6568342927727240E+00
  -0.4258585461662672E+00
   0.8612860491138524E-01
  -0.1136859658377670E+01
  -0.2957946100051994E+00
  -0.1407682198104492E+00
SCALARS w double 1
LOOKUP_TABLE default
   0.0000000000000000E+00
   0.0000000000000000E+00
   0.0000000000000000E+00
   0.0000000000000000E+00
   0.0000000000000000E+00
   0.0000000000000000E+00
   0.0000000000000000E+00
   0.0000000000000000E+00
   0.0000000000000000E+00
   0.0000000000000000E+00
   0.0000000000000000E+00
   0.0000000000000000E+00
   0.0000000000000000E+00
   0.0000000000000000E+00
   0.0000000000000000E+00
   0.0000000000000000E+00
   0.0000000000000000E+00
   0.0000000000000000E+00
   0.0000000000000000E+00
   0.0000000000000000E+00
   0.0000000000000000E+00
   0.0000000000000000E+00
   0.0000000000000000E+00
   0.0000000000000000E+00
   0.0000000000000000E+00
   0.0000000000000000E+00
   0.0000000000000000E+00
   0.0000000000000000E+00
   0.0000000000000000E+00
   0.0000000000000000E+00
   0.0000000000000000E+00
   0.0000000000000000E+00
   0.0000000000000000E+00
   0.1435709478427455E+00
  -0.5387837196013618E-01
   0.1047731719084789E+00
  -0.1857460699895638E+00
   0.1092338051104348E+00
   0.2957630214938640E+00
   0.2990677280103120E+00
   0.1886474939841652E+00
  -0.2831737123692397E-01
  -0.2341662443792882E+01
  -0.1378975884228857E+01
  -0.2297894730271092E+00
   0.1905907269182131E+00
  -0.5361807464498983E+00
   0.2734163538291677E+00
   0.2968085327414882E+00
   0.2121904058957387E+00
  -0.8839038941550241E+00
   0.2898055861812027E+00
   0.1573587876681050E+00
   0.2197162820129883E+00
   0.2175814728818650E+00
   0.3280068430855438E+00
   0.1857580014034063E+00
  -0.2268867795923747E+00
  -0.1872186200002612E+00
   0.2638796085103012E+00
   0.3140049531700814E+00
   0.6706673423583547E-01
   0.3361680182753728E+00
   0.1743092110722887E+01
   0.1379087830688556E+01
   0.1500628538234247E+01
   0.1234602207068648E+01
   0.1507420051270228E+01
  -0.4939676503145864E+00
   0.8914072196167974E+00
   0.2889497764772069E+00
   0.3956949448590127E-01
   0.3019842003212830E-01
  -0.3534493404576043E+00
   0.4017485755640258E+00
   0.1149953011499675E+01
   0.1146053302530178E+01
   0.6075038364658688E+00
   0.1086710887366323E+01
   0.4217530678601548E+00
   0.4439110233512610E+00
   0.3293731465101589E+00
   0.2385123525271392E+00
   0.9757340759095575E+00
   0.5304045951710983E+00
   0.1404030134042724E+00
  -0.5209120916111387E+00
   0.8408395822258097E+00
   0.3462921513699980E+01
   0.3952839024755838E+01
   0.2203318198199798E+01
   0.1779118082589249E+01
   0.2134677896673472E+00
   0.4301113107993770E+01
   0.1883076896282201E+00
   0.1539177502035916E+01
   0.3264898171035231E+00
   0.3077541120873146E-01
   0.2011231601909615E+00
   0.2584867324179743E+01
   0.4125502128085927E+00
   0.2459187317727929E+01
   0.4230705992835889E+01
  -0.3609056318483698E-01
   0.1910833688417164E+00
   0.2562541259089300E+00
   0.3821317971121958E-01
  -0.1047892064477964E+00
   0.1011929689228963E+01
  -0.3977667953791205E+01
   0.4458853726691038E+01
   0.1486643721079469E-01
   0.5516729014281113E+00
  -0.1280918595003002E+01
   0.3453396545077939E+01
  -0.5138472239869768E+00
  -0.2936091547013807E+00
  -0.1759422599554944E+01
  -0.3826231652782097E+00
   0.5409505693475372E+00
   0.1645499739834369E+00
   0.1446352616056119E+01
   0.1807244242767955E+00