title="tecplot geometry and solution file"
variables = x y z rho u v w p mach temperature
zone t="boundary 1 bc-1", solutiontime= 0.5000000E+02, strandid=1001, i=32, j=46, f=feblock
  0.000000000000E+00  0.000000000000E+00  0.000000000000E+00  0.000000000000E+00  0.000000000000E+00  0.000000000000E+00  0.000000000000E+00
  0.000000000000E+00  0.000000000000E+00  0.000000000000E+00  0.000000000000E+00  0.000000000000E+00  0.000000000000E+00  0.000000000000E+00
  0.000000000000E+00  0.000000000000E+00  0.000000000000E+00  0.000000000000E+00  0.000000000000E+00  0.000000000000E+00  0.000000000000E+00
  0.000000000000E+00  0.000000000000E+00  0.000000000000E+00  0.000000000000E+00  0.000000000000E+00  0.000000000000E+00  0.000000000000E+00
  0.000000000000E+00  0.000000000000E+00  0.000000000000E+00  0.000000000000E+00
  0.250000000000E+01  0.250000000000E+01  0.125000000000E+01  0.146289271009E+01  0.157686156160E+01  0.308372018325E+00  0.000000000000E+00
 -0.125000000000E+01 -0.600232012419E+00  0.250000000000E+01  0.477386199275E+00  0.742988685424E+00 -0.739814786992E+00  0.177790177481E+01
  0.155830813274E+01  0.250000000000E+01 -0.250000000000E+01 -0.154800130438E+01 -0.487811078581E+00  0.250000000000E+01  0.627766083140E+00
 -0.345533899378E+00 -0.178862290564E+01 -0.158811787973E+01  0.125000000000E+01 -0.250000000000E+01 -0.144524380962E+01  0.000000000000E+00
 -0.125000000000E+01 -0.250000000000E+01 -0.250000000000E+01 -0.250000000000E+01
  0.000000000000E+00  0.125000000000E+01  0.000000000000E+00  0.103724302461E+01  0.219251206392E+01  0.922061490191E+00  0.000000000000E+00
  0.000000000000E+00  0.715990576545E+00  0.250000000000E+01  0.202479342020E+01  0.324151231464E+01  0.175434191980E+01  0.310152362409E+01
  0.404200324774E+01  0.375000000000E+01  0.000000000000E+00  0.930412228790E+00  0.299062775774E+01  0.500000000000E+01  0.429310310915E+01
  0.409252726285E+01  0.187029682677E+01  0.284428995242E+01  0.500000000000E+01  0.125000000000E+01  0.394624082883E+01  0.500000000000E+01
  0.500000000000E+01  0.250000000000E+01  0.375000000000E+01  0.500000000000E+01
  0.211923194269E+01  0.193896898916E+01  0.109323697435E+01  0.167434972841E+01  0.200564911166E+01  0.246645444002E+01  0.808050086260E+00
  0.679186444951E+00  0.281162318323E+01  0.214985244713E+01  0.386614469112E+01  0.765212296398E+02  0.299224662258E+01  0.270691201801E+02
  0.125464807661E+03  0.900082837726E+02  0.315962124671E+00  0.275699815235E+01  0.120761188173E+02  0.172531572709E+04  0.109252363730E+03
  0.270379492268E+02  0.464754303285E+01  0.118183040167E+02  0.145100483137E+04  0.257463316154E+01  0.101217694831E+02  0.200302549458E+03
  0.524869537303E+02  0.665850799817E+02  0.424981600782E+02  0.177200097743E+02
  0.000000000000E+00 -0.224032637197E+01  0.000000000000E+00 -0.237483615005E+01 -0.285224775013E+01 -0.344133175555E+01  0.000000000000E+00
  0.000000000000E+00 -0.515899707422E+01 -0.178871910343E+00 -0.400817160098E+01 -0.139426148591E+01 -0.563941965303E+01  0.714471744757E-01
  0.128478980343E+00 -0.181750095043E-01  0.000000000000E+00 -0.700245890630E+01 -0.676042439497E+01 -0.162120985044E+00  0.484709067962E-01
 -0.246343487207E+01 -0.818491265164E+01 -0.740372846750E+01 -0.133651767780E+00 -0.963709721115E+01 -0.557968581873E+01 -0.175263143627E-03
 -0.226030374771E+01  0.534152218985E+00 -0.561439635142E+01 -0.339685776533E+01
  0.000000000000E+00  0.000000000000E+00  0.000000000000E+00  0.151480194428E+01  0.355152706203E+00  0.138530860898E+01  0.000000000000E+00
  0.000000000000E+00  0.560028764566E+00  0.000000000000E+00  0.633080766703E+00  0.188173436190E+00  0.239864259469E+00  0.148539363550E+00
  0.202706781450E+00  0.000000000000E+00  0.000000000000E+00  0.800955016089E+00 -0.524242526132E+00  0.000000000000E+00  0.109847286154E+00
 -0.346318028801E+00  0.600418390084E+00  0.294267334813E+01 -0.218728041504E-01  0.000000000000E+00  0.870219593501E+00 -0.444520213633E+00
 -0.153406136291E+01  0.000000000000E+00  0.000000000000E+00  0.000000000000E+00
  0.000000000000E+00 -0.137897588423E+01  0.000000000000E+00 -0.128091859500E+01 -0.119198545498E+01  0.180724424277E+00  0.000000000000E+00
  0.000000000000E+00  0.540950569348E+00 -0.234166244379E+01 -0.438623542228E+00 -0.175942259955E+01  0.164549973983E+00 -0.708541967608E+00
  0.148664372108E-01 -0.283173712369E-01  0.000000000000E+00  0.551672901428E+00  0.795737010591E+00  0.188647493984E+00 -0.293609154701E+00
 -0.513847223987E+00  0.144635261606E+01 -0.382623165278E+00  0.140403013404E+00  0.101192968923E+01  0.345339654508E+01 -0.520912091611E+00
  0.840839582226E+00 -0.397766795379E+01  0.445885372669E+01  0.346292151370E+01
  0.216252196388E+01  0.256446388244E+00  0.274726441026E+01  0.264363915997E-01  0.302949542021E-01  0.215482779928E-01  0.364767711724E+01
  0.983511365844E+01  0.414422149069E+00  0.332838924486E+00  0.268557968444E+00  0.690968781498E+00  0.279899413137E+00  0.302839057065E+00
  0.388489686731E+01  0.322254358234E+01  0.272475509778E+02  0.599679123427E+00  0.127140173713E+01  0.599425692104E+02  0.172749231125E+02
  0.480300578260E+02  0.438595779976E+00  0.324983611657E+02  0.165029965142E+03  0.543886887017E-01  0.229580924241E+01  0.791941278856E+02
  0.574273500937E+02  0.595510928329E+03  0.129287149278E+02  0.321130223738E+02
  0.000000000000E+00  0.611358771156E+01  0.000000000000E+00  0.208128932099E+02  0.213977016882E+02  0.335829864823E+02  0.000000000000E+00
  0.000000000000E+00  0.114854805631E+02  0.504441608129E+01  0.130880679832E+02  0.200361045919E+02  0.156043270584E+02  0.581269018243E+01
  0.115488395924E+01  0.150293520706E+00  0.000000000000E+00  0.128113293345E+02  0.177829654271E+02  0.112783737482E+01  0.674202294141E+00
  0.161075635811E+01  0.229264434349E+02  0.406520836341E+01  0.488866664607E+00  0.563464703182E+02  0.117466297521E+02  0.920438797020E+00
  0.230938030426E+01  0.113419852010E+01  0.109859306092E+02  0.304538814700E+01
  0.142859811069E+01  0.185162808456E+00  0.351814863988E+01  0.221046700170E-01  0.211467378000E-01  0.122311560678E-01  0.631984087493E+01
  0.202730181442E+02  0.206354468891E+00  0.216747198117E+00  0.972496339015E-01  0.126416721039E-01  0.130958182202E+00  0.156626693838E-01
  0.433496509149E-01  0.501238422308E-01  0.120731468712E+03  0.304516262400E+00  0.147395240053E+00  0.486401390638E-01  0.221367222931E+00
  0.248695196490E+01  0.132120152009E+00  0.384976605506E+01  0.159228933084E+00  0.295747624632E-01  0.317546546062E+00  0.553521556963E+00
  0.153177664957E+01  0.125210527627E+02  0.425905518395E+00  0.253714483773E+01
        12        19        11        11
        11         5        12        12
        10        14         5         5
        19        13        11        11
        19        24        13        13
        30        23        24        24
        19        12        22        22
        28        22        21        21
        11        13         6         6
         7         6         9         9
        15        12        14        14
        18        13        23        23
        15        25        21        21
        27        19        22        22
        18         8         9         9
        27        31        24        24
         4        11         6         6
         5        14        12        12
         4         2         5         5
        21        12        15        15
        14        16        15        15
        24        19        27        27
        22        29        27        27
        23        26        18        18
        17         8        18        18
         5        11         4         4
         6         3         4         4
        26        23        30        30
         5         2        10        10
        16        14        10        10
         3         6         7         7
        21        25        28        28
        29        22        28        28
         6        13         9         9
         2         4         1         1
        31        27        32        32
        25        15        20        20
        24        23        13        13
         8         7         9         9
        13        18         9         9
        31        30        24        24
        12        21        22        22
        29        32        27        27
         3         1         4         4
        26        17        18        18
        16        20        15        15
zone t="boundary 2 bc-2", solutiontime= 0.5000000E+02, strandid=1002, i=33, j=48, f=feblock
  0.500000000000E+01  0.375000000000E+01  0.250000000000E+01  0.288078410721E+01  0.125000000000E+01  0.190974100652E+01  0.326683758169E+01
  0.201431602454E+01  0.000000000000E+00  0.963108083381E+00  0.500000000000E+01  0.403552511878E+01  0.423153924130E+01  0.500000000000E+01
  0.385533350601E+01  0.500000000000E+01  0.398173246726E+01  0.315249557942E+01  0.267000324704E+01  0.154774304040E+01  0.218329375016E+01
  0.893127759452E+00  0.000000000000E+00  0.698517061619E+00  0.964171764089E+00  0.310324758057E+01  0.000000000000E+00  0.000000000000E+00
  0.125000000000E+01  0.500000000000E+01  0.375000000000E+01  0.250000000000E+01  0.000000000000E+00
 -0.250000000000E+01 -0.250000000000E+01 -0.250000000000E+01 -0.250000000000E+01 -0.250000000000E+01 -0.250000000000E+01 -0.250000000000E+01
 -0.250000000000E+01 -0.250000000000E+01 -0.250000000000E+01 -0.250000000000E+01 -0.250000000000E+01 -0.250000000000E+01 -0.250000000000E+01
 -0.250000000000E+01 -0.250000000000E+01 -0.250000000000E+01 -0.250000000000E+01 -0.250000000000E+01 -0.250000000000E+01 -0.250000000000E+01
 -0.250000000000E+01 -0.250000000000E+01 -0.250000000000E+01 -0.250000000000E+01 -0.250000000000E+01 -0.250000000000E+01 -0.250000000000E+01
 -0.250000000000E+01 -0.250000000000E+01 -0.250000000000E+01 -0.250000000000E+01 -0.250000000000E+01
  0.000000000000E+00  0.000000000000E+00  0.000000000000E+00  0.904659890645E+00  0.000000000000E+00  0.717002441913E+00  0.188609243358E+01
  0.176246431481E+01  0.000000000000E+00  0.961328577125E+00  0.125000000000E+01  0.101201586758E+01  0.191586535653E+01  0.250000000000E+01
  0.293121848150E+01  0.375000000000E+01  0.406975391361E+01  0.363585050272E+01  0.285047954584E+01  0.292817774674E+01  0.395907379566E+01
  0.205246550326E+01  0.125000000000E+01  0.306828197606E+01  0.397245519226E+01  0.433168271247E+01  0.250000000000E+01  0.375000000000E+01
  0.500000000000E+01  0.500000000000E+01  0.500000000000E+01  0.500000000000E+01  0.500000000000E+01
  0.100000000000E-01  0.599003126806E+04  0.584457027773E+02  0.645892391765E+02  0.749754297412E+01  0.402250630503E+02  0.104079940561E+03
  0.930380560027E+02  0.315962124671E+00  0.333200824571E+01  0.529005655592E+02  0.392702329324E+02  0.162256608233E+03  0.323640161849E+03
  0.299331120616E+03  0.250477957723E+03  0.352581967578E+03  0.243470873475E+03  0.159351214679E+03  0.156587812254E+03  0.210571377264E+03
  0.829630513535E+02  0.257463316154E+01  0.153697143029E+03  0.194539547096E+03  0.145091963600E+03  0.665850799817E+02  0.424981600782E+02
  0.112160960938E+03  0.357324458187E+03  0.158584084392E+03  0.146611055580E+03  0.177200097743E+02
  0.000000000000E+00  0.000000000000E+00  0.000000000000E+00 -0.208331870860E+01  0.000000000000E+00 -0.471952166016E+01 -0.121550334219E+01
 -0.236554411285E+01  0.000000000000E+00 -0.150770057226E+02  0.769849233212E+00 -0.708642583810E+00 -0.340150110992E+00  0.183817196897E+00
 -0.201205909435E+00  0.336524134095E+00 -0.988603631436E-02 -0.100781480572E+01 -0.144541563489E+01 -0.191866731434E+01 -0.113462262371E+01
 -0.250953560366E+01 -0.963709721115E+01 -0.284591996220E+01 -0.201416090855E+01 -0.989129080352E+00  0.534152218985E+00 -0.561439635142E+01
 -0.299060752284E+01  0.356425234807E+00 -0.449869948121E+00 -0.120132583330E+01 -0.339685776533E+01
  0.000000000000E+00  0.000000000000E+00  0.000000000000E+00  0.000000000000E+00  0.000000000000E+00  0.000000000000E+00  0.000000000000E+00
  0.000000000000E+00  0.000000000000E+00  0.000000000000E+00  0.000000000000E+00  0.000000000000E+00  0.000000000000E+00  0.000000000000E+00
  0.000000000000E+00  0.000000000000E+00  0.000000000000E+00  0.000000000000E+00  0.000000000000E+00  0.000000000000E+00  0.000000000000E+00
  0.000000000000E+00  0.000000000000E+00  0.000000000000E+00  0.000000000000E+00  0.000000000000E+00  0.000000000000E+00  0.000000000000E+00
  0.000000000000E+00  0.000000000000E+00  0.000000000000E+00  0.000000000000E+00  0.000000000000E+00
  0.000000000000E+00  0.000000000000E+00  0.000000000000E+00 -0.126775729903E+00  0.000000000000E+00 -0.657689466550E-01  0.104692191506E+01
  0.104928512514E+01  0.000000000000E+00  0.768071218598E+00  0.150742005127E+01  0.491647165662E+00  0.121857395666E+01  0.123460220707E+01
  0.125260550635E+01  0.150062853823E+01  0.146123552393E+01  0.174165374347E+01  0.168826233971E+01  0.178741407128E+01  0.221287150027E+01
  0.660395219257E-01  0.101192968923E+01  0.182034669893E+01  0.195730531655E+01  0.210849330426E+01 -0.397766795379E+01  0.445885372669E+01
  0.395283902476E+01  0.137908783069E+01  0.177911808259E+01  0.220331819820E+01  0.346292151370E+01
  0.572802207722E+00  0.369545599253E+00  0.105278929058E+04  0.973280394457E+03  0.845144658487E+03  0.594751295338E+03  0.798790835234E+03
  0.722119377638E+03  0.272475509778E+02  0.149872222885E+01  0.790949013504E+03  0.842011166896E+03  0.866097578444E+03  0.902415911955E+03
  0.688026758247E+03  0.384922751371E+03  0.459540923254E+03  0.539955238829E+03  0.636486533841E+03  0.616658418075E+03  0.495132362880E+03
  0.631575739848E+03  0.543886887017E-01  0.514846441964E+03  0.473272446967E+03  0.230096470880E+03  0.595510928329E+03  0.129287149278E+02
  0.998428960853E+02  0.213477008683E+03  0.188535512387E+03  0.225588520215E+03  0.321130223738E+02
  0.000000000000E+00  0.000000000000E+00  0.000000000000E+00  0.454417886176E+00  0.000000000000E+00  0.103742521580E+01  0.489400639329E+00
  0.785046538716E+00  0.000000000000E+00  0.190241978645E+02  0.369958426818E+00  0.157421309067E+00  0.462805496708E+00  0.631759692813E+00
  0.707221302822E+00  0.104848415114E+01  0.108176791278E+01  0.114197631328E+01  0.939850173169E+00  0.111677265810E+01  0.137061556983E+01
  0.768969837789E+00  0.563464703182E+02  0.156001385844E+01  0.152182493877E+01  0.156303009831E+01  0.113419852010E+01  0.109859306092E+02
  0.444006245371E+01  0.155748723543E+01  0.142243455614E+01  0.170983852908E+01  0.304538814700E+01
  0.801923090811E+02  0.863708077306E-04  0.252183639990E+02  0.210962781047E+02  0.157812036018E+03  0.206998261863E+02  0.107446945425E+02
  0.108661678041E+02  0.120731468712E+03  0.629713663853E+00  0.209322642811E+02  0.300180453649E+02  0.747295671358E+01  0.390366346846E+01
  0.321796630956E+01  0.215145419109E+01  0.182470276905E+01  0.310483682738E+01  0.559193194210E+01  0.551333959443E+01  0.329192560280E+01
  0.106578292549E+02  0.295747624632E-01  0.468964487268E+01  0.340589579673E+01  0.222021296866E+01  0.125210527627E+02  0.425905518395E+00
  0.124624515830E+01  0.836404576593E+00  0.166441492761E+01  0.215416175167E+01  0.253714483773E+01
        15         7        19        19
         8        20        19        19
        18        19        21        21
         7         4         8         8
         3         6         4         4
        19         7         8         8
        19        18        15        15
        14        13        15        15
         8        22        20        20
        27        24        22        22
        19        20        21        21
        32        26        21        21
        17        18        26        26
        17        16        15        15
        25        29        21        21
        12         7        13        13
        10         8         6         6
        25        20        24        24
         4         6         8         8
        12         2         4         4
        10        23        22        22
        26        31        17        17
        30        16        17        17
         4         7        12        12
        13        11        12        12
        21        20        25        25
        24        28        25        25
        22         8        10        10
         6         5        10        10
        31        26        32        32
         4         2         3         3
         5         6         3         3
        11        13        14        14
        22        23        27        27
        28        24        27        27
        15        13         7         7
         2        12         1         1
        29        25        33        33
        23        10         9         9
        21        26        18        18
        16        14        15        15
        18        17        15        15
        29        32        21        21
        22        24        20        20
        28        33        25        25
        11         1        12        12
        31        30        17        17
         5         9        10        10
zone t="boundary 3 bc-3", solutiontime= 0.5000000E+02, strandid=1003, i=33, j=48, f=feblock
  0.375000000000E+01  0.250000000000E+01  0.500000000000E+01  0.403552511878E+01  0.288078410721E+01  0.125000000000E+01  0.190974100652E+01
  0.500000000000E+01  0.326683758169E+01  0.423153924130E+01  0.201431602454E+01  0.000000000000E+00  0.963108083381E+00  0.500000000000E+01
  0.267000324704E+01  0.385533350601E+01  0.893127759452E+00  0.154774304040E+01  0.000000000000E+00  0.500000000000E+01  0.315249557942E+01
  0.218329375016E+01  0.398173246726E+01  0.000000000000E+00  0.698517061619E+00  0.964171764089E+00  0.125000000000E+01  0.000000000000E+00
  0.500000000000E+01  0.310324758057E+01  0.250000000000E+01  0.375000000000E+01  0.000000000000E+00
  0.250000000000E+01  0.250000000000E+01  0.250000000000E+01  0.250000000000E+01  0.250000000000E+01  0.250000000000E+01  0.250000000000E+01
  0.250000000000E+01  0.250000000000E+01  0.250000000000E+01  0.250000000000E+01  0.250000000000E+01  0.250000000000E+01  0.250000000000E+01
  0.250000000000E+01  0.250000000000E+01  0.250000000000E+01  0.250000000000E+01  0.250000000000E+01  0.250000000000E+01  0.250000000000E+01
  0.250000000000E+01  0.250000000000E+01  0.250000000000E+01  0.250000000000E+01  0.250000000000E+01  0.250000000000E+01  0.250000000000E+01
  0.250000000000E+01  0.250000000000E+01  0.250000000000E+01  0.250000000000E+01  0.250000000000E+01
  0.000000000000E+00  0.000000000000E+00  0.000000000000E+00  0.101201586758E+01  0.904659890645E+00  0.000000000000E+00  0.717002441913E+00
  0.125000000000E+01  0.188609243358E+01  0.191586535653E+01  0.176246431481E+01  0.000000000000E+00  0.961328577125E+00  0.250000000000E+01
  0.285047954584E+01  0.293121848150E+01  0.205246550326E+01  0.292817774674E+01  0.125000000000E+01  0.375000000000E+01  0.363585050272E+01
  0.395907379566E+01  0.406975391361E+01  0.250000000000E+01  0.306828197606E+01  0.397245519226E+01  0.500000000000E+01  0.375000000000E+01
  0.500000000000E+01  0.433168271247E+01  0.500000000000E+01  0.500000000000E+01  0.500000000000E+01
  0.572308922306E+04  0.145641059147E+04  0.694749490676E+00  0.146483863168E+01  0.936574194848E+02  0.335493342853E+02  0.135451803346E+03
  0.336747817718E+02  0.134683665207E+03  0.333817086954E+03  0.168561384334E+02  0.211923194269E+01  0.330346483491E+02  0.807870818731E+02
  0.335899360633E+03  0.597036110327E+03  0.227028761775E+01  0.272272984392E+03  0.193896898916E+01  0.515061360511E+02  0.923799310019E+03
  0.919467068756E+03  0.668019193838E+03  0.214985244713E+01  0.196066654967E+03  0.722267578077E+03  0.184750774199E+04  0.900082837726E+02
  0.326713277201E+02  0.131468478929E+04  0.191029760861E+04  0.103734697617E+04  0.172531572709E+04
  0.000000000000E+00  0.000000000000E+00  0.000000000000E+00  0.624120059604E+00 -0.171750344672E+00  0.000000000000E+00 -0.725394204035E-01
 -0.138180395348E+00 -0.160535733311E+00 -0.156156015599E+00  0.822010577023E+00  0.000000000000E+00  0.195454930052E+00 -0.336473357133E+00
 -0.128749323213E+00 -0.172525837615E+00  0.612606420252E+00 -0.561523773164E-01 -0.224032637197E+01 -0.455030510566E+00 -0.162569185942E+00
 -0.115425203288E+00 -0.193565536582E+00 -0.178871910343E+00 -0.297593237081E+00 -0.755018436650E-01 -0.105700615806E+00 -0.181750095043E-01
 -0.486472019440E+00 -0.187684300486E+00 -0.836420521725E-01 -0.220134761969E+00 -0.162120985044E+00
  0.000000000000E+00  0.000000000000E+00  0.000000000000E+00  0.000000000000E+00  0.000000000000E+00  0.000000000000E+00  0.000000000000E+00
  0.000000000000E+00  0.000000000000E+00  0.000000000000E+00  0.000000000000E+00  0.000000000000E+00  0.000000000000E+00  0.000000000000E+00
  0.000000000000E+00  0.000000000000E+00  0.000000000000E+00  0.000000000000E+00  0.000000000000E+00  0.000000000000E+00  0.000000000000E+00
  0.000000000000E+00  0.000000000000E+00  0.000000000000E+00  0.000000000000E+00  0.000000000000E+00  0.000000000000E+00  0.000000000000E+00
  0.000000000000E+00  0.000000000000E+00  0.000000000000E+00  0.000000000000E+00  0.000000000000E+00
  0.000000000000E+00  0.000000000000E+00  0.000000000000E+00 -0.536180746450E+00 -0.187218620000E+00  0.000000000000E+00 -0.226886779592E+00
  0.143570947843E+00  0.328006843086E+00  0.185758001403E+00  0.263879608510E+00  0.000000000000E+00 -0.229789473027E+00 -0.538783719601E-01
  0.314004953170E+00  0.157358787668E+00 -0.883903894155E+00  0.296808532741E+00 -0.137897588423E+01  0.104773171908E+00  0.219716282013E+00
  0.289805586181E+00  0.190590726918E+00 -0.234166244379E+01  0.212190405896E+00  0.273416353829E+00  0.299067728010E+00 -0.283173712369E-01
 -0.185746069990E+00  0.217581472882E+00  0.295763021494E+00  0.109233805110E+00  0.188647493984E+00
  0.333386666479E+00  0.294224154792E+00  0.560634334868E+00  0.714876941412E+00  0.244105537819E-01  0.311333362210E+01  0.643714887232E-01
  0.104033479632E+00  0.840946088390E-01  0.154000774245E+00  0.235952434265E-01  0.216252196388E+01  0.975323071533E-02  0.952910135973E-01
  0.445938577902E+00  0.906998777007E+00  0.614940230722E-01  0.213058012031E+00  0.256446388244E+00  0.540958085407E-01  0.411759919356E+00
  0.804270166166E+00  0.104585807704E+01  0.332838924486E+00  0.728664261582E-02  0.164436138143E+01  0.535617733592E+02  0.322254358234E+01
  0.110388322594E+01  0.211045667960E+01  0.713397388968E+02  0.114159681565E+02  0.599425692104E+02
  0.000000000000E+00  0.000000000000E+00  0.000000000000E+00  0.995438838741E+00  0.133003476913E+02  0.000000000000E+00  0.923473958350E+01
  0.302992782371E+01  0.123515796881E+02  0.954887709718E+01  0.195019578998E+02  0.000000000000E+00  0.148381989111E+02  0.838550544197E+01
  0.787196400226E+01  0.506335694890E+01  0.552263627788E+01  0.912645126275E+01  0.611358771156E+01  0.121770466295E+02  0.109414441521E+02
  0.891420050445E+01  0.580229782694E+01  0.504441608129E+01  0.506705254545E+02  0.502421723476E+01  0.157445815118E+01  0.150293520706E+00
  0.239424130870E+01  0.606124836606E+01  0.134422428896E+01  0.197983480569E+01  0.112783737482E+01
  0.815540899117E-04  0.282828083730E-03  0.112974256095E+01  0.683234109433E+00  0.364891275915E-03  0.129918138878E+00  0.665329526712E-03
  0.432510216314E-02  0.874140544020E-03  0.645865931878E-03  0.195972173150E-02  0.142859811069E+01  0.413339438555E-03  0.165134593233E-02
  0.185863410959E-02  0.212683666171E-02  0.379210244675E-01  0.109552263332E-02  0.185162808456E+00  0.147039047701E-02  0.624014199672E-03
  0.122459876041E-02  0.219185514633E-02  0.216747198117E+00  0.520297531665E-04  0.318733112753E-02  0.405879125693E-01  0.501238422308E-01
  0.473025317355E-01  0.224741274525E-02  0.522827615997E-01  0.154069523373E-01  0.486401390638E-01
        15         9        16        16
        15        18        11        11
        22        15        21        21
        11         5         9         9
         5         7         2         2
        11         9        15        15
        16        21        15        15
        16        10        14        14
        18        17        11        11
        17        25        24        24
        22        18        15        15
        22        30        31        31
        30        21        23        23
        16        20        23        23
        22        27        26        26
        10         9         4         4
         7        11        13        13
        25        18        26        26
        11         7         5         5
         5         1         4         4
        17        19        13        13
        23        32        30        30
        23        20        29        29
         4         9         5         5
         4         8        10        10
        26        18        22        22
        26        28        25        25
        13        11        17        17
        13         6         7         7
        31        30        32        32
         2         1         5         5
         2         7         6         6
        14        10         8         8
        24        19        17        17
        24        25        28        28
         9        10        16        16
         3         4         1         1
        33        26        27        27
        12        13        19        19
        21        30        22        22
        16        14        20        20
        16        23        21        21
        22        31        27        27
        18        25        17        17
        26        33        28        28
         4         3         8         8
        23        29        32        32
        13        12         6         6
zone t="boundary 4 bc-4", solutiontime= 0.5000000E+02, strandid=1004, i=32, j=46, f=feblock
  0.125000000000E+01  0.219251206392E+01  0.103724302461E+01  0.500000000000E+01  0.250000000000E+01  0.375000000000E+01  0.404200324774E+01
  0.500000000000E+01  0.000000000000E+00  0.310152362409E+01  0.202479342020E+01  0.324151231464E+01  0.922061490191E+00  0.000000000000E+00
  0.299062775774E+01  0.394624082883E+01  0.500000000000E+01  0.409252726285E+01  0.500000000000E+01  0.429310310915E+01  0.175434191980E+01
  0.284428995242E+01  0.000000000000E+00  0.000000000000E+00  0.715990576545E+00  0.930412228790E+00  0.125000000000E+01  0.187029682677E+01
  0.500000000000E+01  0.375000000000E+01  0.250000000000E+01  0.000000000000E+00
  0.250000000000E+01  0.157686156160E+01  0.146289271009E+01  0.250000000000E+01  0.250000000000E+01  0.250000000000E+01  0.155830813274E+01
  0.125000000000E+01  0.250000000000E+01  0.177790177481E+01  0.477386199275E+00  0.742988685424E+00  0.308372018325E+00  0.125000000000E+01
 -0.487811078581E+00 -0.144524380962E+01 -0.125000000000E+01 -0.345533899378E+00  0.000000000000E+00  0.627766083140E+00 -0.739814786992E+00
 -0.158811787973E+01  0.000000000000E+00 -0.125000000000E+01 -0.600232012419E+00 -0.154800130438E+01 -0.250000000000E+01 -0.178862290564E+01
 -0.250000000000E+01 -0.250000000000E+01 -0.250000000000E+01 -0.250000000000E+01
  0.500000000000E+01  0.500000000000E+01  0.500000000000E+01  0.500000000000E+01  0.500000000000E+01  0.500000000000E+01  0.500000000000E+01
  0.500000000000E+01  0.500000000000E+01  0.500000000000E+01  0.500000000000E+01  0.500000000000E+01  0.500000000000E+01  0.500000000000E+01
  0.500000000000E+01  0.500000000000E+01  0.500000000000E+01  0.500000000000E+01  0.500000000000E+01  0.500000000000E+01  0.500000000000E+01
  0.500000000000E+01  0.500000000000E+01  0.500000000000E+01  0.500000000000E+01  0.500000000000E+01  0.500000000000E+01  0.500000000000E+01
  0.500000000000E+01  0.500000000000E+01  0.500000000000E+01  0.500000000000E+01
  0.184750774199E+04  0.183253646268E+04  0.176896460480E+04  0.326713277201E+02  0.191029760861E+04  0.103734697617E+04  0.605606464898E+03
  0.340833444441E+02  0.172531572709E+04  0.168590784639E+04  0.863262400046E+02  0.294845616332E+03  0.170289101682E+03  0.145100483137E+04
  0.454368179140E+02  0.154880870353E+03  0.155483677290E+03  0.388639745238E+02  0.169037870383E+02  0.902970971665E+02  0.245007686668E+02
  0.104758621585E+03  0.200302549458E+03  0.524869537303E+02  0.111862023988E+03  0.184303253265E+02  0.112160960938E+03  0.599131082043E+02
  0.357324458187E+03  0.158584084392E+03  0.146611055580E+03  0.177200097743E+02
 -0.105700615806E+00 -0.565852419301E-01 -0.559518669484E-01 -0.486472019440E+00 -0.836420521725E-01 -0.220134761969E+00 -0.322134130392E+00
 -0.743432669219E+00 -0.162120985044E+00 -0.118163990536E+00  0.178892466597E-01 -0.160309984466E+00  0.474801113308E+00 -0.133651767780E+00
  0.100007932781E+00 -0.188611523453E+00  0.337059696896E+00 -0.354791846042E+00 -0.876990800871E+00 -0.437995100542E+00 -0.132496239557E+00
 -0.136399235788E+01 -0.175263143627E-03 -0.226030374771E+01  0.242244222706E+00 -0.219219028010E+01 -0.299060752284E+01 -0.270635421101E+01
  0.356425234807E+00 -0.449869948121E+00 -0.120132583330E+01 -0.339685776533E+01
  0.000000000000E+00 -0.268156708184E-01  0.121795907528E-01  0.000000000000E+00  0.000000000000E+00  0.000000000000E+00  0.278342708038E+00
  0.379158228070E+00  0.000000000000E+00  0.104973629571E+00  0.208312085935E+00  0.542250473723E+00 -0.206332610365E+00 -0.218728041504E-01
  0.134867891599E+01  0.109751350623E-01  0.183118642526E+00  0.104639573821E+01  0.103769152977E+01  0.828567836608E+00  0.430465192098E+00
  0.544385478694E+00 -0.444520213633E+00 -0.153406136291E+01 -0.349081667035E+00  0.291977907391E+00  0.000000000000E+00  0.118559399062E+01
  0.000000000000E+00  0.000000000000E+00  0.000000000000E+00  0.000000000000E+00