title="tecplot geometry and solution file"
variables = x y z mach temperature lambda1 lambda2 lambda3 lambda4 lambda5
zone t="boundary 1 bc-1", solutiontime= 0.1000000E+03, strandid=1001, i=32, j=46, f=feblock
 -0.547474059460E-02  0.000000000000E+00 -0.567611628244E-02  0.000000000000E+00  0.000000000000E+00  0.000000000000E+00 -0.525163924646E-02
 -0.425780134844E-02  0.000000000000E+00  0.000000000000E+00  0.000000000000E+00  0.000000000000E+00  0.000000000000E+00  0.000000000000E+00
  0.000000000000E+00  0.000000000000E+00 -0.338397968290E-02  0.000000000000E+00  0.000000000000E+00  0.000000000000E+00  0.000000000000E+00
  0.000000000000E+00  0.000000000000E+00  0.000000000000E+00  0.000000000000E+00  0.000000000000E+00  0.000000000000E+00  0.000000000000E+00
  0.000000000000E+00  0.000000000000E+00  0.000000000000E+00  0.000000000000E+00
  0.250494200247E+01  0.250494200247E+01  0.127822172847E+01  0.146289271009E+01  0.157686156160E+01  0.308372018325E+00  0.261950000797E-01
 -0.122573468786E+01 -0.600232012419E+00  0.250494200247E+01  0.477386199275E+00  0.742988685424E+00 -0.739814786992E+00  0.177790177481E+01
  0.155830813274E+01  0.250494200247E+01 -0.249658901876E+01 -0.154800130438E+01 -0.487811078581E+00  0.250494200247E+01  0.627766083140E+00
 -0.345533899378E+00 -0.178862290564E+01 -0.158811787973E+01  0.125000000000E+01 -0.249658901876E+01 -0.144524380962E+01  0.000000000000E+00
 -0.125000000000E+01 -0.249658901876E+01 -0.249658901876E+01 -0.249658901876E+01
  0.803806651374E-04  0.125000000000E+01  0.822455052730E-04  0.103724302461E+01  0.219251206392E+01  0.922061490191E+00  0.103872499450E-03
  0.341545354745E-04  0.715990576545E+00  0.250000000000E+01  0.202479342020E+01  0.324151231464E+01  0.175434191980E+01  0.310152362409E+01
  0.404200324774E+01  0.375000000000E+01  0.810729323492E-04  0.930412228790E+00  0.299062775774E+01  0.500000000000E+01  0.429310310915E+01
  0.409252726285E+01  0.187029682677E+01  0.284428995242E+01  0.500000000000E+01  0.125000000000E+01  0.394624082883E+01  0.500000000000E+01
  0.500000000000E+01  0.250000000000E+01  0.375000000000E+01  0.500000000000E+01
  0.000000000000E+00  0.440673586208E+00  0.000000000000E+00  0.474618312942E+00  0.460126827849E+00  0.468640528253E+00  0.000000000000E+00
  0.000000000000E+00  0.402536918085E+00  0.469888417966E+00  0.464194764523E+00  0.478751111286E+00  0.489556170192E+00  0.483131208311E+00
  0.488003760331E+00  0.489035900682E+00  0.000000000000E+00  0.465239150297E+00  0.473760589661E+00  0.495365426690E+00  0.490293994454E+00
  0.486277511197E+00  0.445852126547E+00  0.464357935362E+00  0.496128464259E+00  0.443892833990E+00  0.486929021189E+00  0.497248848021E+00
  0.496055597969E+00  0.467741935742E+00  0.488188091920E+00  0.495090528096E+00
  0.100000000000E+01  0.102982865541E+01  0.100000000000E+01  0.104241277716E+01  0.101187608801E+01  0.102516476050E+01  0.100000000000E+01
  0.100000000000E+01  0.103882396963E+01  0.100825749378E+01  0.101253466570E+01  0.100301619360E+01  0.102705426408E+01  0.100604070185E+01
  0.100244504891E+01  0.100354784507E+01  0.100000000000E+01  0.103209988123E+01  0.100459396594E+01  0.100178605814E+01  0.100260299680E+01
  0.100234721389E+01  0.101657109411E+01  0.100620576703E+01  0.100168350951E+01  0.104024868236E+01  0.100303449040E+01  0.100118704030E+01
  0.100134433813E+01  0.100976411358E+01  0.100405601417E+01  0.100176413668E+01
  0.610102242409E-02  0.306720303466E-01  0.698457473138E-02  0.492842528412E-01  0.346881306746E-02  0.587066931866E-01  0.512118597974E-02
  0.170568625984E-02  0.582737645744E-01 -0.164992801564E-02  0.389975445349E-02 -0.701965885878E-02  0.329309709730E-02 -0.389675819688E-02
 -0.933389278092E-02 -0.931148289688E-02  0.308583470793E-02  0.385677403735E-01 -0.515854224792E-02 -0.339857230996E-01 -0.121362779197E-01
 -0.812698578788E-02  0.186584932220E-02 -0.443746750908E-02 -0.351895983304E-01  0.248761139049E-01 -0.633156882236E-02 -0.387862060958E-01
 -0.342308359003E-01 -0.361018529218E-02 -0.697149759968E-02 -0.321711776291E-01
  0.239180677143E-03  0.444701318473E-02  0.331444695965E-03  0.629816551602E-02  0.165132229229E-03  0.888148588117E-02  0.361463758165E-03
  0.321542602712E-03  0.868038326428E-02 -0.782597246270E-03  0.347127995158E-03 -0.148144840491E-02 -0.971414232483E-04 -0.114288770653E-02
 -0.182982843603E-02 -0.204924117278E-02  0.284318536025E-03  0.601330042076E-02 -0.103418886615E-02 -0.697914599711E-02 -0.240642409980E-02
 -0.155613375062E-02 -0.207702644360E-03 -0.851563215738E-03 -0.736750421739E-02  0.306415760968E-02 -0.124806693913E-02 -0.814815853121E-02
 -0.716157602396E-02 -0.904780678992E-03 -0.148499194906E-02 -0.669192057757E-02
  0.405828509747E-03  0.128355540910E-03  0.546917118045E-03  0.125031358629E-02  0.147353611696E-03  0.606734744861E-03  0.467391515745E-03
 -0.174892063952E-03 -0.333719848677E-04 -0.133088559502E-04  0.128363452224E-03  0.133157137942E-03 -0.140599083245E-03  0.250903390349E-04
 -0.495599740565E-04 -0.287193510747E-05 -0.245075465458E-03 -0.794180620285E-03  0.152839300430E-04  0.332401743360E-05 -0.320384451147E-04
 -0.381210600400E-04 -0.165135536952E-04 -0.137067636717E-03  0.897595266726E-04 -0.102523342137E-03 -0.785856215976E-04 -0.171164128886E-04
 -0.755929330218E-04 -0.219840326179E-04 -0.801640327880E-05  0.654833620042E-05
 -0.147367795369E-02 -0.134225930227E-02 -0.160705249441E-02 -0.714454045503E-05  0.142115572756E-02  0.153393412954E-02 -0.899982463561E-03
 -0.786598812729E-03  0.108728854633E-02  0.155234512388E-02  0.289643614926E-02  0.159503378441E-02  0.319726429967E-02  0.148275835571E-02
  0.109558732005E-02  0.128762713576E-02 -0.609657911271E-03  0.916847317413E-03  0.183377126472E-02  0.461666111486E-03  0.101739962981E-02
  0.121216320611E-02  0.217919214494E-02  0.148771258237E-02  0.443210766533E-03  0.112535089853E-02  0.111192362177E-02  0.419544266120E-03
  0.501278658250E-03  0.168639347391E-02  0.113901670537E-02  0.491835008338E-03
 -0.487349745803E-02 -0.126327301244E-01 -0.665633335663E-02 -0.197249868048E-01 -0.144251518443E-02 -0.243690491648E-01  0.325705524215E-03
  0.104280478804E-02 -0.242169727258E-01  0.663701313166E-03 -0.170505766237E-02  0.274443055122E-02 -0.142042375315E-02  0.153550240196E-02
  0.372768133539E-02  0.375545825583E-02 -0.101635287332E-02 -0.161238811696E-01  0.191165773476E-02  0.141086939503E-01  0.490141749391E-02
  0.321414571911E-02 -0.897709000169E-03  0.158960349369E-02  0.146348032645E-01 -0.101413075473E-01  0.246916091177E-02  0.161778193441E-01
  0.142447809756E-01  0.131291160073E-02  0.276991230267E-02  0.133527846769E-01
        12        19        11        11
        11         5        12        12
        10        14         5         5
        19        13        11        11
        19        24        13        13
        30        23        24        24
        19        12        22        22
        28        22        21        21
        11        13         6         6
         7         6         9         9
        15        12        14        14
        18        13        23        23
        15        25        21        21
        27        19        22        22
        18         8         9         9
        27        31        24        24
         4        11         6         6
         5        14        12        12
         4         2         5         5
        21        12        15        15
        14        16        15        15
        24        19        27        27
        22        29        27        27
        23        26        18        18
        17         8        18        18
         5        11         4         4
         6         3         4         4
        26        23        30        30
         5         2        10        10
        16        14        10        10
         3         6         7         7
        21        25        28        28
        29        22        28        28
         6        13         9         9
         2         4         1         1
        31        27        32        32
        25        15        20        20
        24        23        13        13
         8         7         9         9
        13        18         9         9
        31        30        24        24
        12        21        22        22
        29        32        27        27
         3         1         4         4
        26        17        18        18
        16        20        15        15
zone t="boundary 2 bc-2", solutiontime= 0.1000000E+03, strandid=1002, i=33, j=48, f=feblock
  0.500195254422E+01  0.375034811298E+01  0.249861145436E+01  0.288036673892E+01  0.124717525199E+01  0.190856697748E+01  0.326577189562E+01
  0.201394855830E+01 -0.338397968290E-02  0.962374244476E+00  0.500000000000E+01  0.403430189262E+01  0.423029563056E+01  0.500000000000E+01
  0.385439188349E+01  0.500000000000E+01  0.398133432926E+01  0.315200081100E+01  0.266958028570E+01  0.154798029932E+01  0.218327860448E+01
  0.893688443034E+00  0.000000000000E+00  0.699009764482E+00  0.964460900712E+00  0.310303671524E+01  0.000000000000E+00  0.000000000000E+00
  0.125000000000E+01  0.500000000000E+01  0.375000000000E+01  0.250000000000E+01  0.000000000000E+00
 -0.249658901876E+01 -0.249658901876E+01 -0.249658901876E+01 -0.249658901876E+01 -0.249658901876E+01 -0.249658901876E+01 -0.249658901876E+01
 -0.249658901876E+01 -0.249658901876E+01 -0.249658901876E+01 -0.249658901876E+01 -0.249658901876E+01 -0.249658901876E+01 -0.249658901876E+01
 -0.249658901876E+01 -0.249658901876E+01 -0.249658901876E+01 -0.249658901876E+01 -0.249658901876E+01 -0.249658901876E+01 -0.249658901876E+01
 -0.249658901876E+01 -0.249658901876E+01 -0.249658901876E+01 -0.249658901876E+01 -0.249658901876E+01 -0.249658901876E+01 -0.249658901876E+01
 -0.249658901876E+01 -0.249658901876E+01 -0.249658901876E+01 -0.249658901876E+01 -0.249658901876E+01
  0.108226447141E-03  0.145876065134E-03  0.100893846408E-03  0.901663358034E+00  0.110859295738E-03  0.714928307672E+00  0.188140645381E+01
  0.175892163508E+01  0.810729323492E-04  0.957504280272E+00  0.125000000000E+01  0.100596695734E+01  0.191313517561E+01  0.250000000000E+01
  0.292898095401E+01  0.375000000000E+01  0.406883368972E+01  0.363389288779E+01  0.284756859276E+01  0.292582306774E+01  0.395754054024E+01
  0.205027255782E+01  0.125000000000E+01  0.306703271994E+01  0.397155766145E+01  0.433068621574E+01  0.250000000000E+01  0.375000000000E+01
  0.500000000000E+01  0.500000000000E+01  0.500000000000E+01  0.500000000000E+01  0.500000000000E+01
  0.000000000000E+00  0.000000000000E+00  0.000000000000E+00  0.380535862472E+00  0.000000000000E+00  0.343212834639E+00  0.585244990074E+00
  0.579498833438E+00  0.000000000000E+00  0.500957423107E+00  0.508771778229E+00  0.434314571228E+00  0.572818734534E+00  0.537159705297E+00
  0.569105413070E+00  0.515014322279E+00  0.508256786360E+00  0.527354096717E+00  0.567655991946E+00  0.531857160672E+00  0.506013908922E+00
  0.521044924071E+00  0.443892833990E+00  0.490703886068E+00  0.492148704113E+00  0.501388511919E+00  0.467741935742E+00  0.488188091920E+00
  0.489960762589E+00  0.491323960968E+00  0.486020165251E+00  0.489981969829E+00  0.495090528096E+00
  0.100000000000E+01  0.100000000000E+01  0.100000000000E+01  0.989599128023E+00  0.100000000000E+01  0.985607741824E+00  0.989839398554E+00
  0.991730726837E+00  0.100000000000E+01  0.984222782614E+00  0.985140550700E+00  0.984819565150E+00  0.990066408426E+00  0.100292339881E+01
  0.999857222347E+00  0.100487240082E+01  0.100122707404E+01  0.100056950113E+01  0.997887793721E+00  0.100350888053E+01  0.100059339364E+01
  0.101090629484E+01  0.104024868236E+01  0.100327934770E+01  0.100254926022E+01  0.100046782861E+01  0.100976411358E+01  0.100405601417E+01
  0.100192601697E+01  0.100045821179E+01  0.100058930479E+01  0.100110067301E+01  0.100176413668E+01
 -0.252334079725E-02 -0.197846970428E-02 -0.121475863587E-02  0.238871703440E-01  0.241567864686E-02  0.783256770486E-01 -0.513277932367E-02
  0.945414707568E-03  0.308583470793E-02  0.364113084515E-01 -0.659551919791E-02 -0.762583829905E-02 -0.517690448142E-02 -0.442561968647E-02
 -0.325429607043E-02 -0.297010339178E-02 -0.218683194360E-02 -0.253095679137E-02 -0.418847158288E-02 -0.501223023766E-02 -0.329357291111E-02
  0.131167826981E-02  0.248761139049E-01 -0.338766842335E-02 -0.608990500100E-02 -0.396512512918E-02 -0.361018529218E-02 -0.697149759968E-02
 -0.289378482165E-01 -0.345690869943E-02 -0.132317709645E-01 -0.254252444681E-01 -0.321711776291E-01
  0.688038082301E-03 -0.192403535684E-03  0.186101408501E-04  0.410465688844E-02 -0.447442133031E-03  0.973206846715E-02 -0.195083025939E-04
 -0.387683659300E-03  0.284318536025E-03  0.429795330743E-02  0.149333697623E-02  0.510882333798E-04  0.758620933763E-03  0.113148902101E-02
  0.753206522807E-03  0.696421682576E-03  0.834192268004E-03  0.695143046019E-03  0.255874136049E-03 -0.423867403264E-03  0.298485426694E-03
 -0.360622694869E-03  0.306415760968E-02 -0.230087348971E-03 -0.701335227714E-03  0.411794775480E-03 -0.904780678992E-03 -0.148499194906E-02
 -0.520566293878E-02  0.174287737345E-03 -0.132938679146E-02 -0.395258139156E-02 -0.669192057757E-02
 -0.155445386469E-03  0.410978054097E-04  0.241703124490E-03  0.557909651303E-03  0.128348311482E-03  0.973157112222E-03 -0.761027565802E-04
  0.867280366400E-05 -0.245075465458E-03  0.373144223446E-03 -0.884472435930E-04 -0.284867903847E-03  0.530198768200E-05  0.835695779586E-05
  0.687479291672E-05 -0.133552225787E-04  0.161907062052E-05 -0.712009213261E-05  0.115816084994E-04  0.276329934065E-04 -0.169165108510E-04
  0.289601549428E-04 -0.102523342137E-03  0.546502494542E-05 -0.265955957052E-05 -0.591922443263E-05 -0.219840326179E-04 -0.801640327880E-05
 -0.261318925983E-05 -0.238101593283E-05  0.519589163713E-06  0.173546094500E-05  0.654833620042E-05
 -0.198502312117E-03 -0.204937287933E-03 -0.309704230726E-03  0.103428940384E-02 -0.716689636832E-03  0.224309298448E-03  0.156046793538E-02
  0.208719959354E-02 -0.609657911271E-03  0.980881358645E-03  0.298760116027E-03  0.109220660405E-02  0.626960855506E-03  0.283390142723E-03
  0.647041529263E-03  0.236871377210E-03  0.629155207373E-03  0.888605241981E-03  0.105428814574E-02  0.109572331092E-02  0.102598437303E-02
  0.165899040847E-02  0.112535089853E-02  0.116590010478E-02  0.102755990923E-02  0.886987122729E-03  0.168639347391E-02  0.113901670537E-02
  0.691338073024E-03  0.368558941141E-03  0.801744546286E-03  0.869555079042E-03  0.491835008338E-03
  0.718496999824E-03  0.197895310374E-02  0.342985830938E-02 -0.108863967145E-01  0.409111126977E-02 -0.335475998682E-01  0.152394006762E-02
 -0.485550717601E-03 -0.101635287332E-02 -0.150874751802E-01  0.142554845955E-02  0.231557970225E-02  0.127169319654E-02  0.848578037906E-03
  0.635894834839E-03  0.600582615955E-03  0.300591644519E-03  0.460766264670E-03  0.114881765861E-02  0.170379970492E-02  0.880405275777E-03
 -0.598247122679E-03 -0.101413075473E-01  0.109208966140E-02  0.222185731619E-02  0.108184121609E-02  0.131291160073E-02  0.276991230267E-02
  0.117575875665E-01  0.104476016292E-02  0.496527073142E-02  0.101092977540E-01  0.133527846769E-01
        15         7        19        19
         8        20        19        19
        18        19        21        21
         7         4         8         8
         3         6         4         4
        19         7         8         8
        19        18        15        15
        14        13        15        15
         8        22        20        20
        27        24        22        22
        19        20        21        21
        32        26        21        21
        17        18        26        26
        17        16        15        15
        25        29        21        21
        12         7        13        13
        10         8         6         6
        25        20        24        24
         4         6         8         8
        12         2         4         4
        10        23        22        22
        26        31        17        17
        30        16        17        17
         4         7        12        12
        13        11        12        12
        21        20        25        25
        24        28        25        25
        22         8        10        10
         6         5        10        10
        31        26        32        32
         4         2         3         3
         5         6         3         3
        11        13        14        14
        22        23        27        27
        28        24        27        27
        15        13         7         7
         2        12         1         1
        29        25        33        33
        23        10         9         9
        21        26        18        18
        16        14        15        15
        18        17        15        15
        29        32        21        21
        22        24        20        20
        28        33        25        25
        11         1        12        12
        31        30        17        17
         5         9        10        10
zone t="boundary 3 bc-3", solutiontime= 0.1000000E+03, strandid=1003, i=33, j=48, f=feblock
  0.375059098390E+01  0.249769607367E+01  0.500322137759E+01  0.403612219697E+01  0.287976771604E+01  0.124541906059E+01  0.190552233801E+01
  0.500000000000E+01  0.326671104356E+01  0.423253756077E+01  0.201271135077E+01 -0.547474059460E-02  0.958895606422E+00  0.500000000000E+01
  0.266968146972E+01  0.385584487519E+01  0.890374194728E+00  0.154654012793E+01  0.000000000000E+00  0.500000000000E+01  0.315261136749E+01
  0.218304199327E+01  0.398195307995E+01  0.000000000000E+00  0.697379944222E+00  0.963757274675E+00  0.125000000000E+01  0.000000000000E+00
  0.500000000000E+01  0.310330738530E+01  0.250000000000E+01  0.375000000000E+01  0.000000000000E+00
  0.250494200247E+01  0.250494200247E+01  0.250494200247E+01  0.250494200247E+01  0.250494200247E+01  0.250494200247E+01  0.250494200247E+01
  0.250494200247E+01  0.250494200247E+01  0.250494200247E+01  0.250494200247E+01  0.250494200247E+01  0.250494200247E+01  0.250494200247E+01
  0.250494200247E+01  0.250494200247E+01  0.250494200247E+01  0.250494200247E+01  0.250494200247E+01  0.250494200247E+01  0.250494200247E+01
  0.250494200247E+01  0.250494200247E+01  0.250494200247E+01  0.250494200247E+01  0.250494200247E+01  0.250494200247E+01  0.250494200247E+01
  0.250494200247E+01  0.250494200247E+01  0.250494200247E+01  0.250494200247E+01  0.250494200247E+01
  0.135649803876E-03  0.110129310889E-03  0.966880623677E-04  0.101756755321E+01  0.908094609206E+00  0.103942035531E-03  0.722629117445E+00
  0.125000000000E+01  0.188965663752E+01  0.191862698617E+01  0.176708241773E+01  0.803806651374E-04  0.969652600869E+00  0.250000000000E+01
  0.285339435101E+01  0.293325059952E+01  0.205656226267E+01  0.293157018903E+01  0.125000000000E+01  0.375000000000E+01  0.363766839843E+01
  0.396069445891E+01  0.407056385916E+01  0.250000000000E+01  0.307031996474E+01  0.397359820986E+01  0.500000000000E+01  0.375000000000E+01
  0.500000000000E+01  0.433260781817E+01  0.500000000000E+01  0.500000000000E+01  0.500000000000E+01
  0.000000000000E+00  0.000000000000E+00  0.000000000000E+00  0.444964218501E+00  0.402838535671E+00  0.000000000000E+00  0.379027137704E+00
  0.508831221839E+00  0.575719994476E+00  0.573485099217E+00  0.562570372405E+00  0.000000000000E+00  0.491640726445E+00  0.534339883219E+00
  0.556353524884E+00  0.564141469005E+00  0.522490172140E+00  0.521815692485E+00  0.440673586208E+00  0.517131699716E+00  0.524065006035E+00
  0.503613227420E+00  0.509416713766E+00  0.469888417966E+00  0.495647328021E+00  0.494503863371E+00  0.488631009022E+00  0.489035900682E+00
  0.492985484132E+00  0.498954248826E+00  0.486506343185E+00  0.484611155376E+00  0.495365426690E+00
  0.100000000000E+01  0.100000000000E+01  0.100000000000E+01  0.981378637640E+00  0.988676386002E+00  0.100000000000E+01  0.982276878930E+00
  0.984076692470E+00  0.990406105598E+00  0.990320048530E+00  0.994390401808E+00  0.100000000000E+01  0.988746056559E+00  0.100365347654E+01
  0.999773965859E+00  0.100117457037E+01  0.100829989476E+01  0.100251241873E+01  0.102982865541E+01  0.100442012645E+01  0.100199236467E+01
  0.100081968835E+01  0.100137931905E+01  0.100825749378E+01  0.100297346799E+01  0.100191685324E+01  0.100214764399E+01  0.100354784507E+01
  0.100047560994E+01  0.100056553044E+01  0.100126695642E+01  0.100066754363E+01  0.100178605814E+01
 -0.170721232989E-02  0.132173189172E-02 -0.282324505003E-02  0.156157555397E-01  0.610984138858E-01  0.384237012502E-02  0.607957226199E-01
 -0.967055379478E-02 -0.492444044048E-02 -0.609295736416E-02  0.101026448530E-01  0.610102242409E-02  0.411704927362E-01 -0.462853239524E-02
 -0.535320297745E-02 -0.380346611481E-02  0.118127026434E-02 -0.517345089034E-02  0.306720303466E-01 -0.315210840785E-02 -0.230359965018E-02
 -0.315306276815E-02 -0.240360980578E-02 -0.164992801564E-02 -0.450973088732E-02 -0.833694871606E-02 -0.256249015149E-01 -0.931148289688E-02
 -0.298757659029E-02 -0.367462369216E-02 -0.239584165696E-01 -0.129992214035E-01 -0.339857230996E-01
 -0.395676428334E-03 -0.383832596612E-03  0.702900323891E-03  0.442207169185E-02  0.844050740368E-02 -0.799471517501E-03  0.752263537963E-02
  0.158576430163E-02 -0.850432904697E-04  0.835489215946E-03  0.183878071546E-03  0.239180677143E-03  0.310176607070E-02  0.121103601945E-02
 -0.766997286803E-04  0.632352348259E-03 -0.114681955719E-02 -0.543471555847E-03  0.444701318473E-02  0.772767942252E-03  0.668039262905E-03
  0.362273299433E-03  0.780353469999E-03 -0.782597246270E-03 -0.105764364564E-02 -0.104818411011E-02 -0.454535571744E-02 -0.204924117278E-02
  0.271637243782E-03  0.430048296356E-03 -0.371588187344E-02 -0.129187870866E-02 -0.697914599711E-02
 -0.747407911775E-04  0.397264665003E-04  0.956435451651E-04 -0.296480555955E-03 -0.858473155312E-03  0.335346080158E-03 -0.127810843800E-04
  0.190221630183E-05 -0.958223682506E-04  0.160431543160E-04 -0.808170497165E-04  0.405828509747E-03  0.465374855749E-03  0.352486021470E-04
 -0.404365378087E-05  0.485507191192E-05 -0.158971854649E-03 -0.597013487271E-04  0.128355540910E-03  0.197186200553E-04  0.966561165066E-05
  0.428267184041E-04  0.767634906528E-06 -0.133088559502E-04 -0.361606964812E-04  0.121953544050E-04  0.171306579114E-04 -0.287193510747E-05
  0.691932262841E-05 -0.249910305721E-06  0.391651608033E-05 -0.101231256958E-05  0.332401743360E-05
 -0.462505568377E-03 -0.866072456470E-03 -0.242269568362E-03  0.654608929127E-03  0.104378682288E-02 -0.834671312129E-03  0.330727683798E-03
  0.374370346188E-03  0.191566349429E-02  0.929921528323E-03  0.277650861193E-02 -0.147367795369E-02  0.912504437270E-03  0.371759286305E-03
  0.986721986128E-03  0.826389875654E-03  0.233920516810E-02  0.105020386597E-02 -0.134225930227E-02  0.329618595652E-03  0.949379750212E-03
  0.981459056151E-03  0.710073857904E-03  0.155234512388E-02  0.151209152045E-02  0.101234546714E-02  0.727860694822E-03  0.128762713576E-02
  0.350548214741E-03  0.922630311336E-03  0.882376527037E-03  0.804657655867E-03  0.461666111486E-03
  0.706485321158E-02  0.301242070872E-02  0.132766965899E-02 -0.812545376902E-02 -0.264543987730E-01  0.190784094727E-03 -0.255327515310E-01
  0.246328978981E-02  0.152871663274E-02  0.157353603834E-02 -0.394626687326E-02 -0.487349745803E-02 -0.162216001577E-01  0.871157420555E-03
  0.169079275502E-02  0.862152552295E-03 -0.353979565499E-03  0.179127232745E-02 -0.126327301244E-01  0.618609403219E-03  0.381152986809E-03
  0.812867651808E-03  0.391885520297E-03  0.663701313166E-03  0.165151389826E-02  0.313660482220E-02  0.103598954228E-01  0.375545825583E-02
  0.846643597392E-03  0.970843253405E-03  0.950692858475E-02  0.486641423377E-02  0.141086939503E-01
        15         9        16        16
        15        18        11        11
        22        15        21        21
        11         5         9         9
         5         7         2         2
        11         9        15        15
        16        21        15        15
        16        10        14        14
        18        17        11        11
        17        25        24        24
        22        18        15        15
        22        30        31        31
        30        21        23        23
        16        20        23        23
        22        27        26        26
        10         9         4         4
         7        11        13        13
        25        18        26        26
        11         7         5         5
         5         1         4         4
        17        19        13        13
        23        32        30        30
        23        20        29        29
         4         9         5         5
         4         8        10        10
        26        18        22        22
        26        28        25        25
        13        11        17        17
        13         6         7         7
        31        30        32        32
         2         1         5         5
         2         7         6         6
        14        10         8         8
        24        19        17        17
        24        25        28        28
         9        10        16        16
         3         4         1         1
        33        26        27        27
        12        13        19        19
        21        30        22        22
        16        14        20        20
        16        23        21        21
        22        31        27        27
        18        25        17        17
        26        33        28        28
         4         3         8         8
        23        29        32        32
        13        12         6         6
zone t="boundary 4 bc-4", solutiontime= 0.1000000E+03, strandid=1004, i=32, j=46, f=feblock
  0.125000000000E+01  0.219251206392E+01  0.103724302461E+01  0.500000000000E+01  0.250000000000E+01  0.375000000000E+01  0.404200324774E+01
  0.500000000000E+01  0.000000000000E+00  0.310152362409E+01  0.202479342020E+01  0.324151231464E+01  0.922061490191E+00  0.000000000000E+00
  0.299062775774E+01  0.394624082883E+01  0.500000000000E+01  0.409252726285E+01  0.500000000000E+01  0.429310310915E+01  0.175434191980E+01
  0.284428995242E+01  0.000000000000E+00  0.000000000000E+00  0.715990576545E+00  0.930412228790E+00  0.125000000000E+01  0.187029682677E+01
  0.500000000000E+01  0.375000000000E+01  0.250000000000E+01  0.000000000000E+00
  0.250494200247E+01  0.157686156160E+01  0.146289271009E+01  0.250494200247E+01  0.250494200247E+01  0.250494200247E+01  0.155830813274E+01
  0.125000000000E+01  0.250494200247E+01  0.177790177481E+01  0.477386199275E+00  0.742988685424E+00  0.308372018325E+00  0.125000000000E+01
 -0.487811078581E+00 -0.144524380962E+01 -0.125000000000E+01 -0.345533899378E+00  0.000000000000E+00  0.627766083140E+00 -0.739814786992E+00
 -0.158811787973E+01  0.000000000000E+00 -0.125000000000E+01 -0.600232012419E+00 -0.154800130438E+01 -0.249658901876E+01 -0.178862290564E+01
 -0.249658901876E+01 -0.249658901876E+01 -0.249658901876E+01 -0.249658901876E+01
  0.500000000000E+01  0.500000000000E+01  0.500000000000E+01  0.500000000000E+01  0.500000000000E+01  0.500000000000E+01  0.500000000000E+01
  0.500000000000E+01  0.500000000000E+01  0.500000000000E+01  0.500000000000E+01  0.500000000000E+01  0.500000000000E+01  0.500000000000E+01
  0.500000000000E+01  0.500000000000E+01  0.500000000000E+01  0.500000000000E+01  0.500000000000E+01  0.500000000000E+01  0.500000000000E+01
  0.500000000000E+01  0.500000000000E+01  0.500000000000E+01  0.500000000000E+01  0.500000000000E+01  0.500000000000E+01  0.500000000000E+01
  0.500000000000E+01  0.500000000000E+01  0.500000000000E+01  0.500000000000E+01
  0.488631009022E+00  0.488908213432E+00  0.490614382053E+00  0.492985484132E+00  0.486506343185E+00  0.484611155376E+00  0.485346978111E+00
  0.494164050852E+00  0.495365426690E+00  0.486545226105E+00  0.487827599821E+00  0.487054846429E+00  0.494058653000E+00  0.496128464259E+00
  0.487591693567E+00  0.483170111427E+00  0.492384612378E+00  0.487198851309E+00  0.494738256890E+00  0.487947708090E+00  0.489651879229E+00
  0.487976024544E+00  0.497248848021E+00  0.496055597969E+00  0.494948503219E+00  0.492778628389E+00  0.489960762589E+00  0.489964141879E+00
  0.491323960968E+00  0.486020165251E+00  0.489981969829E+00  0.495090528096E+00
  0.100214764399E+01  0.100152351571E+01  0.100177897248E+01  0.100047560994E+01  0.100126695642E+01  0.100066754363E+01  0.100025500110E+01
  0.100050303408E+01  0.100178605814E+01  0.100112360554E+01  0.100132834958E+01  0.100072282922E+01  0.100164061466E+01  0.100168350951E+01
  0.100096361053E+01  0.100001099323E+01  0.100083211642E+01  0.100022370399E+01  0.100062124631E+01  0.100023372443E+01  0.100174711680E+01
  0.100099001844E+01  0.100118704030E+01  0.100134433813E+01  0.100132706144E+01  0.100179957654E+01  0.100192601697E+01  0.100163785484E+01
  0.100045821179E+01  0.100058930479E+01  0.100110067301E+01  0.100176413668E+01
 -0.256249015149E-01 -0.248594933838E-01 -0.255308450532E-01 -0.298757659029E-02 -0.239584165696E-01 -0.129992214035E-01 -0.903623399185E-02
 -0.297351135251E-02 -0.339857230996E-01 -0.199243013633E-01 -0.267206844424E-01 -0.187258417660E-01 -0.311250968132E-01 -0.351895983304E-01
 -0.211049222936E-01 -0.870197678320E-02 -0.336859034982E-02 -0.110809066221E-01 -0.276174955258E-02 -0.110693204471E-01 -0.328857713932E-01
 -0.198619389641E-01 -0.387862060958E-01 -0.342308359003E-01 -0.360587984826E-01 -0.289175923645E-01 -0.289378482165E-01 -0.306015831550E-01
 -0.345690869943E-02 -0.132317709645E-01 -0.254252444681E-01 -0.321711776291E-01