title="tecplot geometry and solution file"
variables = x y z mach temperature lambda1 lambda2 lambda3 lambda4 lambda5
zone t="boundary 1 bc-1", solutiontime= 0.4000000E+02, strandid=1001, i=32, j=46, f=feblock
 -0.547474059460E-02  0.000000000000E+00 -0.567611628244E-02  0.000000000000E+00  0.000000000000E+00  0.000000000000E+00 -0.525163924646E-02
 -0.425780134844E-02  0.000000000000E+00  0.000000000000E+00  0.000000000000E+00  0.000000000000E+00  0.000000000000E+00  0.000000000000E+00
  0.000000000000E+00  0.000000000000E+00 -0.338397968290E-02  0.000000000000E+00  0.000000000000E+00  0.000000000000E+00  0.000000000000E+00
  0.000000000000E+00  0.000000000000E+00  0.000000000000E+00  0.000000000000E+00  0.000000000000E+00  0.000000000000E+00  0.000000000000E+00
  0.000000000000E+00  0.000000000000E+00  0.000000000000E+00  0.000000000000E+00
  0.250494200247E+01  0.250494200247E+01  0.127822172847E+01  0.146289271009E+01  0.157686156160E+01  0.308372018325E+00  0.261950000797E-01
 -0.122573468786E+01 -0.600232012419E+00  0.250494200247E+01  0.477386199275E+00  0.742988685424E+00 -0.739814786992E+00  0.177790177481E+01
  0.155830813274E+01  0.250494200247E+01 -0.249658901876E+01 -0.154800130438E+01 -0.487811078581E+00  0.250494200247E+01  0.627766083140E+00
 -0.345533899378E+00 -0.178862290564E+01 -0.158811787973E+01  0.125000000000E+01 -0.249658901876E+01 -0.144524380962E+01  0.000000000000E+00
 -0.125000000000E+01 -0.249658901876E+01 -0.249658901876E+01 -0.249658901876E+01
  0.803806651374E-04  0.125000000000E+01  0.822455052730E-04  0.103724302461E+01  0.219251206392E+01  0.922061490191E+00  0.103872499450E-03
  0.341545354745E-04  0.715990576545E+00  0.250000000000E+01  0.202479342020E+01  0.324151231464E+01  0.175434191980E+01  0.310152362409E+01
  0.404200324774E+01  0.375000000000E+01  0.810729323492E-04  0.930412228790E+00  0.299062775774E+01  0.500000000000E+01  0.429310310915E+01
  0.409252726285E+01  0.187029682677E+01  0.284428995242E+01  0.500000000000E+01  0.125000000000E+01  0.394624082883E+01  0.500000000000E+01
  0.500000000000E+01  0.250000000000E+01  0.375000000000E+01  0.500000000000E+01
  0.000000000000E+00  0.440673586208E+00  0.000000000000E+00  0.474618312942E+00  0.460126827849E+00  0.468640528253E+00  0.000000000000E+00
  0.000000000000E+00  0.402536918085E+00  0.469888417966E+00  0.464194764523E+00  0.478751111286E+00  0.489556170192E+00  0.483131208311E+00
  0.488003760331E+00  0.489035900682E+00  0.000000000000E+00  0.465239150297E+00  0.473760589661E+00  0.495365426690E+00  0.490293994454E+00
  0.486277511197E+00  0.445852126547E+00  0.464357935362E+00  0.496128464259E+00  0.443892833990E+00  0.486929021189E+00  0.497248848021E+00
  0.496055597969E+00  0.467741935742E+00  0.488188091920E+00  0.495090528096E+00
  0.100000000000E+01  0.102982865541E+01  0.100000000000E+01  0.104241277716E+01  0.101187608801E+01  0.102516476050E+01  0.100000000000E+01
  0.100000000000E+01  0.103882396963E+01  0.100825749378E+01  0.101253466570E+01  0.100301619360E+01  0.102705426408E+01  0.100604070185E+01
  0.100244504891E+01  0.100354784507E+01  0.100000000000E+01  0.103209988123E+01  0.100459396594E+01  0.100178605814E+01  0.100260299680E+01
  0.100234721389E+01  0.101657109411E+01  0.100620576703E+01  0.100168350951E+01  0.104024868236E+01  0.100303449040E+01  0.100118704030E+01
  0.100134433813E+01  0.100976411358E+01  0.100405601417E+01  0.100176413668E+01
  0.610071678733E-02  0.306702349759E-01  0.698491765473E-02  0.492844946850E-01  0.346861775190E-02  0.587114130388E-01  0.512174670740E-02
  0.170562921971E-02  0.582748428673E-01 -0.164938345984E-02  0.389764582540E-02 -0.701854978062E-02  0.328961195557E-02 -0.389643592953E-02
 -0.933361302605E-02 -0.930982732941E-02  0.308578506726E-02  0.385652677726E-01 -0.515808776626E-02 -0.339880047231E-01 -0.121347404447E-01
 -0.811871485338E-02  0.186729825203E-02 -0.443805624025E-02 -0.351931929231E-01  0.248802055962E-01 -0.633070115218E-02 -0.387965606624E-01
 -0.342363369160E-01 -0.360983457724E-02 -0.697173833571E-02 -0.321714275702E-01
  0.239172965474E-03  0.444657288548E-02  0.331405200911E-03  0.629803432518E-02  0.165054831873E-03  0.888237601553E-02  0.361475296770E-03
  0.321514491055E-03  0.868043305577E-02 -0.782529538912E-03  0.346784496511E-03 -0.148114186241E-02 -0.978800877017E-04 -0.114286975367E-02
 -0.183015019120E-02 -0.204893058383E-02  0.284325264027E-03  0.601279644458E-02 -0.103401240156E-02 -0.697907309452E-02 -0.240643254183E-02
 -0.155446246630E-02 -0.207425088643E-03 -0.851770928684E-03 -0.736776422391E-02  0.306491105956E-02 -0.124814341122E-02 -0.814967678145E-02
 -0.716251632907E-02 -0.904693606653E-03 -0.148515631431E-02 -0.669156752473E-02
  0.405780288748E-03  0.128344524514E-03  0.546825458402E-03  0.124989566631E-02  0.147294041975E-03  0.606474692720E-03  0.467430300617E-03
 -0.174843974105E-03 -0.334992654444E-04 -0.133165233904E-04  0.128294285259E-03  0.133366996815E-03 -0.140533099131E-03  0.251043006925E-04
 -0.495817484508E-04 -0.287004072773E-05 -0.245077258558E-03 -0.793957583266E-03  0.153464834508E-04  0.332297873269E-05 -0.317865036575E-04
 -0.379454274880E-04 -0.165117323003E-04 -0.137052069610E-03  0.896203495324E-04 -0.102518968442E-03 -0.785587461841E-04 -0.176044571550E-04
 -0.758755087930E-04 -0.219865858027E-04 -0.802305694452E-05  0.654852682023E-05
 -0.147364292118E-02 -0.134211316226E-02 -0.160713678578E-02 -0.723876267046E-05  0.142102514752E-02  0.153395369788E-02 -0.900069671586E-03
 -0.786568409037E-03  0.108736714274E-02  0.155237651898E-02  0.289659746885E-02  0.159489332575E-02  0.319745906845E-02  0.148270855492E-02
  0.109570153452E-02  0.128789333583E-02 -0.609648524094E-03  0.916995440216E-03  0.183375208051E-02  0.461527210953E-03  0.101776460143E-02
  0.121250218976E-02  0.217918972546E-02  0.148766772027E-02  0.443188838657E-03  0.112534173191E-02  0.111186121773E-02  0.419596216409E-03
  0.501341181366E-03  0.168636453839E-02  0.113906475428E-02  0.491816988468E-03
 -0.487322610768E-02 -0.126319480103E-01 -0.665671863372E-02 -0.197250568814E-01 -0.144242526997E-02 -0.243709666378E-01  0.325418775190E-03
  0.104290083400E-02 -0.242173801369E-01  0.663484578210E-03 -0.170418652743E-02  0.274396245367E-02 -0.141895887835E-02  0.153538681703E-02
  0.372762610670E-02  0.375474262262E-02 -0.101629179967E-02 -0.161228541921E-01  0.191145449902E-02  0.141096075595E-01  0.490079667887E-02
  0.321061061783E-02 -0.898314259758E-03  0.158985811258E-02  0.146362529937E-01 -0.101429912923E-01  0.246882713733E-02  0.161821212726E-01
  0.142471080443E-01  0.131276939480E-02  0.277001241400E-02  0.133528440095E-01
        12        19        11        11
        11         5        12        12
        10        14         5         5
        19        13        11        11
        19        24        13        13
        30        23        24        24
        19        12        22        22
        28        22        21        21
        11        13         6         6
         7         6         9         9
        15        12        14        14
        18        13        23        23
        15        25        21        21
        27        19        22        22
        18         8         9         9
        27        31        24        24
         4        11         6         6
         5        14        12        12
         4         2         5         5
        21        12        15        15
        14        16        15        15
        24        19        27        27
        22        29        27        27
        23        26        18        18
        17         8        18        18
         5        11         4         4
         6         3         4         4
        26        23        30        30
         5         2        10        10
        16        14        10        10
         3         6         7         7
        21        25        28        28
        29        22        28        28
         6        13         9         9
         2         4         1         1
        31        27        32        32
        25        15        20        20
        24        23        13        13
         8         7         9         9
        13        18         9         9
        31        30        24        24
        12        21        22        22
        29        32        27        27
         3         1         4         4
        26        17        18        18
        16        20        15        15
zone t="boundary 2 bc-2", solutiontime= 0.4000000E+02, strandid=1002, i=33, j=48, f=feblock
  0.500195254422E+01  0.375034811298E+01  0.249861145436E+01  0.288036673892E+01  0.124717525199E+01  0.190856697748E+01  0.326577189562E+01
  0.201394855830E+01 -0.338397968290E-02  0.962374244476E+00  0.500000000000E+01  0.403430189262E+01  0.423029563056E+01  0.500000000000E+01
  0.385439188349E+01  0.500000000000E+01  0.398133432926E+01  0.315200081100E+01  0.266958028570E+01  0.154798029932E+01  0.218327860448E+01
  0.893688443034E+00  0.000000000000E+00  0.699009764482E+00  0.964460900712E+00  0.310303671524E+01  0.000000000000E+00  0.000000000000E+00
  0.125000000000E+01  0.500000000000E+01  0.375000000000E+01  0.250000000000E+01  0.000000000000E+00
 -0.249658901876E+01 -0.249658901876E+01 -0.249658901876E+01 -0.249658901876E+01 -0.249658901876E+01 -0.249658901876E+01 -0.249658901876E+01
 -0.249658901876E+01 -0.249658901876E+01 -0.249658901876E+01 -0.249658901876E+01 -0.249658901876E+01 -0.249658901876E+01 -0.249658901876E+01
 -0.249658901876E+01 -0.249658901876E+01 -0.249658901876E+01 -0.249658901876E+01 -0.249658901876E+01 -0.249658901876E+01 -0.249658901876E+01
 -0.249658901876E+01 -0.249658901876E+01 -0.249658901876E+01 -0.249658901876E+01 -0.249658901876E+01 -0.249658901876E+01 -0.249658901876E+01
 -0.249658901876E+01 -0.249658901876E+01 -0.249658901876E+01 -0.249658901876E+01 -0.249658901876E+01
  0.108226447141E-03  0.145876065134E-03  0.100893846408E-03  0.901663358034E+00  0.110859295738E-03  0.714928307672E+00  0.188140645381E+01
  0.175892163508E+01  0.810729323492E-04  0.957504280272E+00  0.125000000000E+01  0.100596695734E+01  0.191313517561E+01  0.250000000000E+01
  0.292898095401E+01  0.375000000000E+01  0.406883368972E+01  0.363389288779E+01  0.284756859276E+01  0.292582306774E+01  0.395754054024E+01
  0.205027255782E+01  0.125000000000E+01  0.306703271994E+01  0.397155766145E+01  0.433068621574E+01  0.250000000000E+01  0.375000000000E+01
  0.500000000000E+01  0.500000000000E+01  0.500000000000E+01  0.500000000000E+01  0.500000000000E+01
  0.000000000000E+00  0.000000000000E+00  0.000000000000E+00  0.380535862472E+00  0.000000000000E+00  0.343212834639E+00  0.585244990074E+00
  0.579498833438E+00  0.000000000000E+00  0.500957423107E+00  0.508771778229E+00  0.434314571228E+00  0.572818734534E+00  0.537159705297E+00
  0.569105413070E+00  0.515014322279E+00  0.508256786360E+00  0.527354096717E+00  0.567655991946E+00  0.531857160672E+00  0.506013908922E+00
  0.521044924071E+00  0.443892833990E+00  0.490703886068E+00  0.492148704113E+00  0.501388511919E+00  0.467741935742E+00  0.488188091920E+00
  0.489960762589E+00  0.491323960968E+00  0.486020165251E+00  0.489981969829E+00  0.495090528096E+00
  0.100000000000E+01  0.100000000000E+01  0.100000000000E+01  0.989599128023E+00  0.100000000000E+01  0.985607741824E+00  0.989839398554E+00
  0.991730726837E+00  0.100000000000E+01  0.984222782614E+00  0.985140550700E+00  0.984819565150E+00  0.990066408426E+00  0.100292339881E+01
  0.999857222347E+00  0.100487240082E+01  0.100122707404E+01  0.100056950113E+01  0.997887793721E+00  0.100350888053E+01  0.100059339364E+01
  0.101090629484E+01  0.104024868236E+01  0.100327934770E+01  0.100254926022E+01  0.100046782861E+01  0.100976411358E+01  0.100405601417E+01
  0.100192601697E+01  0.100045821179E+01  0.100058930479E+01  0.100110067301E+01  0.100176413668E+01
 -0.252323967009E-02 -0.197847042775E-02 -0.121481238252E-02  0.238879637522E-01  0.241560989295E-02  0.783251071635E-01 -0.513234063855E-02
  0.946102827238E-03  0.308578506726E-02  0.364105964583E-01 -0.659584674071E-02 -0.762276564505E-02 -0.517751167511E-02 -0.442552371802E-02
 -0.325437772848E-02 -0.297009607822E-02 -0.218677673679E-02 -0.253092351350E-02 -0.418840976765E-02 -0.501120908066E-02 -0.329331484872E-02
  0.131200608035E-02  0.248802055962E-01 -0.338767407417E-02 -0.609114522312E-02 -0.396487881463E-02 -0.360983457724E-02 -0.697173833571E-02
 -0.289409097855E-01 -0.345695844768E-02 -0.132320221537E-01 -0.254256412784E-01 -0.321714275702E-01
  0.688021214390E-03 -0.192372644601E-03  0.186065607869E-04  0.410482276635E-02 -0.447434069472E-03  0.973190743156E-02 -0.193948341186E-04
 -0.387443076033E-03  0.284325264027E-03  0.429775999743E-02  0.149324332521E-02  0.517664930896E-04  0.758445242680E-03  0.113150517086E-02
  0.753208571170E-03  0.696417023317E-03  0.834190917188E-03  0.695136367319E-03  0.256009521146E-03 -0.423502055529E-03  0.298411696403E-03
 -0.360389592601E-03  0.306491105956E-02 -0.230095857760E-03 -0.701765939016E-03  0.411752516975E-03 -0.904693606653E-03 -0.148515631431E-02
 -0.520596565552E-02  0.174285905047E-03 -0.132938342674E-02 -0.395239462937E-02 -0.669156752473E-02
 -0.155456970239E-03  0.410850401651E-04  0.241694500705E-03  0.557926791578E-03  0.128344962543E-03  0.973154409801E-03 -0.760915163103E-04
  0.868153445619E-05 -0.245077258558E-03  0.373123596580E-03 -0.884483112965E-04 -0.284839282014E-03  0.529467357114E-05  0.835707551604E-05
  0.687239291824E-05 -0.133540738386E-04  0.161901165972E-05 -0.711617187657E-05  0.115849274029E-04  0.276391681722E-04 -0.169066870421E-04
  0.289332406995E-04 -0.102518968442E-03  0.545782320183E-05 -0.267271008680E-05 -0.591867922643E-05 -0.219865858027E-04 -0.802305694452E-05
 -0.261841047735E-05 -0.238060234554E-05  0.518924995822E-06  0.173561431833E-05  0.654852682023E-05
 -0.198507054553E-03 -0.204933838506E-03 -0.309700344688E-03  0.103424011188E-02 -0.716681799368E-03  0.224317914714E-03  0.156040643933E-02
  0.208716056707E-02 -0.609648524094E-03  0.980824816984E-03  0.298752145069E-03  0.109197577221E-02  0.626952813366E-03  0.283387115264E-03
  0.647042528492E-03  0.236872599930E-03  0.629149225607E-03  0.888621554435E-03  0.105428763346E-02  0.109582062671E-02  0.102593354157E-02
  0.165907603780E-02  0.112534173191E-02  0.116593772596E-02  0.102753666098E-02  0.886922991412E-03  0.168636453839E-02  0.113906475428E-02
  0.691333445268E-03  0.368566618481E-03  0.801754628731E-03  0.869591003869E-03  0.491816988468E-03
  0.718422760990E-03  0.197893044336E-02  0.342984451998E-02 -0.108867462167E-01  0.409111379074E-02 -0.335473498171E-01  0.152374566884E-02
 -0.485878220397E-03 -0.101629179967E-02 -0.150871708015E-01  0.142569879873E-02  0.231422872142E-02  0.127196874192E-02  0.848539297309E-03
  0.635920874386E-03  0.600582262883E-03  0.300570676190E-03  0.460748924019E-03  0.114875847289E-02  0.170331715694E-02  0.880319306825E-03
 -0.598421438368E-03 -0.101429912923E-01  0.109208456875E-02  0.222241260417E-02  0.108176008430E-02  0.131276939480E-02  0.277001241400E-02
  0.117588170248E-01  0.104477665331E-02  0.496535948485E-02  0.101093935142E-01  0.133528440095E-01
        15         7        19        19
         8        20        19        19
        18        19        21        21
         7         4         8         8
         3         6         4         4
        19         7         8         8
        19        18        15        15
        14        13        15        15
         8        22        20        20
        27        24        22        22
        19        20        21        21
        32        26        21        21
        17        18        26        26
        17        16        15        15
        25        29        21        21
        12         7        13        13
        10         8         6         6
        25        20        24        24
         4         6         8         8
        12         2         4         4
        10        23        22        22
        26        31        17        17
        30        16        17        17
         4         7        12        12
        13        11        12        12
        21        20        25        25
        24        28        25        25
        22         8        10        10
         6         5        10        10
        31        26        32        32
         4         2         3         3
         5         6         3         3
        11        13        14        14
        22        23        27        27
        28        24        27        27
        15        13         7         7
         2        12         1         1
        29        25        33        33
        23        10         9         9
        21        26        18        18
        16        14        15        15
        18        17        15        15
        29        32        21        21
        22        24        20        20
        28        33        25        25
        11         1        12        12
        31        30        17        17
         5         9        10        10
zone t="boundary 3 bc-3", solutiontime= 0.4000000E+02, strandid=1003, i=33, j=48, f=feblock
  0.375059098390E+01  0.249769607367E+01  0.500322137759E+01  0.403612219697E+01  0.287976771604E+01  0.124541906059E+01  0.190552233801E+01
  0.500000000000E+01  0.326671104356E+01  0.423253756077E+01  0.201271135077E+01 -0.547474059460E-02  0.958895606422E+00  0.500000000000E+01
  0.266968146972E+01  0.385584487519E+01  0.890374194728E+00  0.154654012793E+01  0.000000000000E+00  0.500000000000E+01  0.315261136749E+01
  0.218304199327E+01  0.398195307995E+01  0.000000000000E+00  0.697379944222E+00  0.963757274675E+00  0.125000000000E+01  0.000000000000E+00
  0.500000000000E+01  0.310330738530E+01  0.250000000000E+01  0.375000000000E+01  0.000000000000E+00
  0.250494200247E+01  0.250494200247E+01  0.250494200247E+01  0.250494200247E+01  0.250494200247E+01  0.250494200247E+01  0.250494200247E+01
  0.250494200247E+01  0.250494200247E+01  0.250494200247E+01  0.250494200247E+01  0.250494200247E+01  0.250494200247E+01  0.250494200247E+01
  0.250494200247E+01  0.250494200247E+01  0.250494200247E+01  0.250494200247E+01  0.250494200247E+01  0.250494200247E+01  0.250494200247E+01
  0.250494200247E+01  0.250494200247E+01  0.250494200247E+01  0.250494200247E+01  0.250494200247E+01  0.250494200247E+01  0.250494200247E+01
  0.250494200247E+01  0.250494200247E+01  0.250494200247E+01  0.250494200247E+01  0.250494200247E+01
  0.135649803876E-03  0.110129310889E-03  0.966880623677E-04  0.101756755321E+01  0.908094609206E+00  0.103942035531E-03  0.722629117445E+00
  0.125000000000E+01  0.188965663752E+01  0.191862698617E+01  0.176708241773E+01  0.803806651374E-04  0.969652600869E+00  0.250000000000E+01
  0.285339435101E+01  0.293325059952E+01  0.205656226267E+01  0.293157018903E+01  0.125000000000E+01  0.375000000000E+01  0.363766839843E+01
  0.396069445891E+01  0.407056385916E+01  0.250000000000E+01  0.307031996474E+01  0.397359820986E+01  0.500000000000E+01  0.375000000000E+01
  0.500000000000E+01  0.433260781817E+01  0.500000000000E+01  0.500000000000E+01  0.500000000000E+01
  0.000000000000E+00  0.000000000000E+00  0.000000000000E+00  0.444964218501E+00  0.402838535671E+00  0.000000000000E+00  0.379027137704E+00
  0.508831221839E+00  0.575719994476E+00  0.573485099217E+00  0.562570372405E+00  0.000000000000E+00  0.491640726445E+00  0.534339883219E+00
  0.556353524884E+00  0.564141469005E+00  0.522490172140E+00  0.521815692485E+00  0.440673586208E+00  0.517131699716E+00  0.524065006035E+00
  0.503613227420E+00  0.509416713766E+00  0.469888417966E+00  0.495647328021E+00  0.494503863371E+00  0.488631009022E+00  0.489035900682E+00
  0.492985484132E+00  0.498954248826E+00  0.486506343185E+00  0.484611155376E+00  0.495365426690E+00
  0.100000000000E+01  0.100000000000E+01  0.100000000000E+01  0.981378637640E+00  0.988676386002E+00  0.100000000000E+01  0.982276878930E+00
  0.984076692470E+00  0.990406105598E+00  0.990320048530E+00  0.994390401808E+00  0.100000000000E+01  0.988746056559E+00  0.100365347654E+01
  0.999773965859E+00  0.100117457037E+01  0.100829989476E+01  0.100251241873E+01  0.102982865541E+01  0.100442012645E+01  0.100199236467E+01
  0.100081968835E+01  0.100137931905E+01  0.100825749378E+01  0.100297346799E+01  0.100191685324E+01  0.100214764399E+01  0.100354784507E+01
  0.100047560994E+01  0.100056553044E+01  0.100126695642E+01  0.100066754363E+01  0.100178605814E+01
 -0.170698835734E-02  0.132167177913E-02 -0.282324794640E-02  0.156188269111E-01  0.610942940345E-01  0.384223794701E-02  0.607911402653E-01
 -0.967110940023E-02 -0.492344425164E-02 -0.609358672826E-02  0.101030936532E-01  0.610071678733E-02  0.411660093653E-01 -0.462845788807E-02
 -0.535342875333E-02 -0.380350537370E-02  0.118154059425E-02 -0.517340198885E-02  0.306702349759E-01 -0.315209903412E-02 -0.230367855866E-02
 -0.315325809622E-02 -0.240377729116E-02 -0.164938345984E-02 -0.451030272234E-02 -0.833674745193E-02 -0.256259454330E-01 -0.930982732941E-02
 -0.298760321329E-02 -0.367432708799E-02 -0.239591102777E-01 -0.129994069209E-01 -0.339880047231E-01
 -0.395649758747E-03 -0.383775350030E-03  0.702861080796E-03  0.442228434182E-02  0.843933118987E-02 -0.799387126527E-03  0.752127297472E-02
  0.158559762861E-02 -0.847817985807E-04  0.835298180902E-03  0.183891101623E-03  0.239172965474E-03  0.310043312714E-02  0.121106260180E-02
 -0.766891945563E-04  0.632351918234E-03 -0.114697934858E-02 -0.543416317915E-03  0.444657288548E-02  0.772773452126E-03  0.668043428532E-03
  0.362200429772E-03  0.780312689080E-03 -0.782529538912E-03 -0.105794769094E-02 -0.104808546869E-02 -0.454579601968E-02 -0.204893058383E-02
  0.271647861616E-03  0.430081050346E-03 -0.371573743008E-02 -0.129189187669E-02 -0.697907309452E-02
 -0.747379105486E-04  0.397224933293E-04  0.956297412148E-04 -0.296471024705E-03 -0.858413134682E-03  0.335336299012E-03 -0.127663171607E-04
  0.190312101349E-05 -0.958396044700E-04  0.160512786707E-04 -0.808244091349E-04  0.405780288748E-03  0.465449791961E-03  0.352488659429E-04
 -0.404977250340E-05  0.485385798311E-05 -0.158891086810E-03 -0.596911908796E-04  0.128344524514E-03  0.197171923550E-04  0.966603768772E-05
  0.428253409601E-04  0.768641145894E-06 -0.133165233904E-04 -0.361577680373E-04  0.122070277703E-04  0.171436543163E-04 -0.287004072773E-05
  0.691875051964E-05 -0.247412221158E-06  0.391400816290E-05 -0.100993791896E-05  0.332297873269E-05
 -0.462534714725E-03 -0.866019587057E-03 -0.242248994537E-03  0.654450722276E-03  0.104383481210E-02 -0.834643018399E-03  0.330882147875E-03
  0.374429881025E-03  0.191563959236E-02  0.929917079626E-03  0.277643945431E-02 -0.147364292118E-02  0.912673570784E-03  0.371748681140E-03
  0.986726680235E-03  0.826373482739E-03  0.233933703185E-02  0.105024533854E-02 -0.134211316226E-02  0.329621815563E-03  0.949373664303E-03
  0.981449265745E-03  0.710077458243E-03  0.155237651898E-02  0.151220333107E-02  0.101227758738E-02  0.727921312751E-03  0.128789333583E-02
  0.350552563783E-03  0.922592795589E-03  0.882377968325E-03  0.804672107404E-03  0.461527210953E-03
  0.706475209985E-02  0.301246963135E-02  0.132774792187E-02 -0.812668828923E-02 -0.264525670299E-01  0.190822559393E-03 -0.255306944802E-01
  0.246355739242E-02  0.152826071266E-02  0.157382483718E-02 -0.394646990747E-02 -0.487322610768E-02 -0.162196075692E-01  0.871121389734E-03
  0.169087425568E-02  0.862165054874E-03 -0.354063204789E-03  0.179123564984E-02 -0.126319480103E-01  0.618603867280E-03  0.381176129750E-03
  0.812952875294E-03  0.391956627434E-03  0.663484578210E-03  0.165180967690E-02  0.313650638337E-02  0.103603806716E-01  0.375474262262E-02
  0.846647869347E-03  0.970719297156E-03  0.950716581007E-02  0.486647953245E-02  0.141096075595E-01
        15         9        16        16
        15        18        11        11
        22        15        21        21
        11         5         9         9
         5         7         2         2
        11         9        15        15
        16        21        15        15
        16        10        14        14
        18        17        11        11
        17        25        24        24
        22        18        15        15
        22        30        31        31
        30        21        23        23
        16        20        23        23
        22        27        26        26
        10         9         4         4
         7        11        13        13
        25        18        26        26
        11         7         5         5
         5         1         4         4
        17        19        13        13
        23        32        30        30
        23        20        29        29
         4         9         5         5
         4         8        10        10
        26        18        22        22
        26        28        25        25
        13        11        17        17
        13         6         7         7
        31        30        32        32
         2         1         5         5
         2         7         6         6
        14        10         8         8
        24        19        17        17
        24        25        28        28
         9        10        16        16
         3         4         1         1
        33        26        27        27
        12        13        19        19
        21        30        22        22
        16        14        20        20
        16        23        21        21
        22        31        27        27
        18        25        17        17
        26        33        28        28
         4         3         8         8
        23        29        32        32
        13        12         6         6
zone t="boundary 4 bc-4", solutiontime= 0.4000000E+02, strandid=1004, i=32, j=46, f=feblock
  0.125000000000E+01  0.219251206392E+01  0.103724302461E+01  0.500000000000E+01  0.250000000000E+01  0.375000000000E+01  0.404200324774E+01
  0.500000000000E+01  0.000000000000E+00  0.310152362409E+01  0.202479342020E+01  0.324151231464E+01  0.922061490191E+00  0.000000000000E+00
  0.299062775774E+01  0.394624082883E+01  0.500000000000E+01  0.409252726285E+01  0.500000000000E+01  0.429310310915E+01  0.175434191980E+01
  0.284428995242E+01  0.000000000000E+00  0.000000000000E+00  0.715990576545E+00  0.930412228790E+00  0.125000000000E+01  0.187029682677E+01
  0.500000000000E+01  0.375000000000E+01  0.250000000000E+01  0.000000000000E+00
  0.250494200247E+01  0.157686156160E+01  0.146289271009E+01  0.250494200247E+01  0.250494200247E+01  0.250494200247E+01  0.155830813274E+01
  0.125000000000E+01  0.250494200247E+01  0.177790177481E+01  0.477386199275E+00  0.742988685424E+00  0.308372018325E+00  0.125000000000E+01
 -0.487811078581E+00 -0.144524380962E+01 -0.125000000000E+01 -0.345533899378E+00  0.000000000000E+00  0.627766083140E+00 -0.739814786992E+00
 -0.158811787973E+01  0.000000000000E+00 -0.125000000000E+01 -0.600232012419E+00 -0.154800130438E+01 -0.249658901876E+01 -0.178862290564E+01
 -0.249658901876E+01 -0.249658901876E+01 -0.249658901876E+01 -0.249658901876E+01
  0.500000000000E+01  0.500000000000E+01  0.500000000000E+01  0.500000000000E+01  0.500000000000E+01  0.500000000000E+01  0.500000000000E+01
  0.500000000000E+01  0.500000000000E+01  0.500000000000E+01  0.500000000000E+01  0.500000000000E+01  0.500000000000E+01  0.500000000000E+01
  0.500000000000E+01  0.500000000000E+01  0.500000000000E+01  0.500000000000E+01  0.500000000000E+01  0.500000000000E+01  0.500000000000E+01
  0.500000000000E+01  0.500000000000E+01  0.500000000000E+01  0.500000000000E+01  0.500000000000E+01  0.500000000000E+01  0.500000000000E+01
  0.500000000000E+01  0.500000000000E+01  0.500000000000E+01  0.500000000000E+01
  0.488631009022E+00  0.488908213432E+00  0.490614382053E+00  0.492985484132E+00  0.486506343185E+00  0.484611155376E+00  0.485346978111E+00
  0.494164050852E+00  0.495365426690E+00  0.486545226105E+00  0.487827599821E+00  0.487054846429E+00  0.494058653000E+00  0.496128464259E+00
  0.487591693567E+00  0.483170111427E+00  0.492384612378E+00  0.487198851309E+00  0.494738256890E+00  0.487947708090E+00  0.489651879229E+00
  0.487976024544E+00  0.497248848021E+00  0.496055597969E+00  0.494948503219E+00  0.492778628389E+00  0.489960762589E+00  0.489964141879E+00
  0.491323960968E+00  0.486020165251E+00  0.489981969829E+00  0.495090528096E+00
  0.100214764399E+01  0.100152351571E+01  0.100177897248E+01  0.100047560994E+01  0.100126695642E+01  0.100066754363E+01  0.100025500110E+01
  0.100050303408E+01  0.100178605814E+01  0.100112360554E+01  0.100132834958E+01  0.100072282922E+01  0.100164061466E+01  0.100168350951E+01
  0.100096361053E+01  0.100001099323E+01  0.100083211642E+01  0.100022370399E+01  0.100062124631E+01  0.100023372443E+01  0.100174711680E+01
  0.100099001844E+01  0.100118704030E+01  0.100134433813E+01  0.100132706144E+01  0.100179957654E+01  0.100192601697E+01  0.100163785484E+01
  0.100045821179E+01  0.100058930479E+01  0.100110067301E+01  0.100176413668E+01
 -0.256259454330E-01 -0.248597357715E-01 -0.255318304526E-01 -0.298760321329E-02 -0.239591102777E-01 -0.129994069209E-01 -0.903617348207E-02
 -0.297355322456E-02 -0.339880047231E-01 -0.199254313099E-01 -0.267217945637E-01 -0.187259414422E-01 -0.311312702252E-01 -0.351931929231E-01
 -0.211052982804E-01 -0.870201712948E-02 -0.336852223063E-02 -0.110812349357E-01 -0.276168598535E-02 -0.110695497842E-01 -0.328844503736E-01
 -0.198627742361E-01 -0.387965606624E-01 -0.342363369160E-01 -0.360645301637E-01 -0.289172247090E-01 -0.289409097855E-01 -0.306028531241E-01
 -0.345695844768E-02 -0.132320221537E-01 -0.254256412784E-01 -0.321714275702E-01