title="tecplot geometry and solution file"
variables = x y z rho u v w p mach temperature
zone t="boundary 1 bc-1", solutiontime= 0.3000000E+02, strandid=1001, i=32, j=46, f=feblock
 -0.547422451393E-02  0.000000000000E+00 -0.567510115175E-02  0.000000000000E+00  0.000000000000E+00  0.000000000000E+00 -0.525112567618E-02
 -0.425678987282E-02  0.000000000000E+00  0.000000000000E+00  0.000000000000E+00  0.000000000000E+00  0.000000000000E+00  0.000000000000E+00
  0.000000000000E+00  0.000000000000E+00 -0.338346964726E-02  0.000000000000E+00  0.000000000000E+00  0.000000000000E+00  0.000000000000E+00
  0.000000000000E+00  0.000000000000E+00  0.000000000000E+00  0.000000000000E+00  0.000000000000E+00  0.000000000000E+00  0.000000000000E+00
  0.000000000000E+00  0.000000000000E+00  0.000000000000E+00  0.000000000000E+00
  0.250494212639E+01  0.250494212639E+01  0.127822224353E+01  0.146289271009E+01  0.157686156160E+01  0.308372018325E+00  0.261960149578E-01
 -0.122573417301E+01 -0.600232012419E+00  0.250494212639E+01  0.477386199275E+00  0.742988685424E+00 -0.739814786992E+00  0.177790177481E+01
  0.155830813274E+01  0.250494212639E+01 -0.249658889499E+01 -0.154800130438E+01 -0.487811078581E+00  0.250494212639E+01  0.627766083140E+00
 -0.345533899378E+00 -0.178862290564E+01 -0.158811787973E+01  0.125000000000E+01 -0.249658889499E+01 -0.144524380962E+01  0.000000000000E+00
 -0.125000000000E+01 -0.249658889499E+01 -0.249658889499E+01 -0.249658889499E+01
  0.808217454595E-04  0.125000000000E+01  0.832205720440E-04  0.103724302461E+01  0.219251206392E+01  0.922061490191E+00  0.104377916079E-03
  0.351876758094E-04  0.715990576545E+00  0.250000000000E+01  0.202479342020E+01  0.324151231464E+01  0.175434191980E+01  0.310152362409E+01
  0.404200324774E+01  0.375000000000E+01  0.816362740114E-04  0.930412228790E+00  0.299062775774E+01  0.500000000000E+01  0.429310310915E+01
  0.409252726285E+01  0.187029682677E+01  0.284428995242E+01  0.500000000000E+01  0.125000000000E+01  0.394624082883E+01  0.500000000000E+01
  0.500000000000E+01  0.250000000000E+01  0.375000000000E+01  0.500000000000E+01
  0.121959991419E+01  0.105831335412E+01  0.128671929676E+01  0.108337041281E+01  0.102354605729E+01  0.116941714418E+01  0.145633776093E+01
  0.134804016613E+01  0.119311477815E+01  0.101662519569E+01  0.101712184536E+01  0.100667537023E+01  0.102800090577E+01  0.100987436036E+01
  0.100346383554E+01  0.100488596256E+01  0.130024659593E+01  0.114206688289E+01  0.100787485823E+01  0.100194483539E+01  0.100378967621E+01
  0.100390905062E+01  0.103478518219E+01  0.101224047247E+01  0.100190253418E+01  0.106018110243E+01  0.100437845109E+01  0.100077785264E+01
  0.100130063708E+01  0.102043470355E+01  0.100593731796E+01  0.100184311365E+01
  0.000000000000E+00  0.451834270534E+00  0.000000000000E+00  0.472911885968E+00  0.470158588394E+00  0.459504927562E+00  0.000000000000E+00
  0.000000000000E+00  0.401768550214E+00  0.478881823330E+00  0.474223755157E+00  0.485493044750E+00  0.492580832894E+00  0.489510525702E+00
  0.492201262669E+00  0.493575702491E+00  0.000000000000E+00  0.464517374755E+00  0.481634519942E+00  0.498236671719E+00  0.494015424236E+00
  0.490674415239E+00  0.458609134538E+00  0.473144875848E+00  0.498753692235E+00  0.451330041957E+00  0.491521073125E+00  0.499569591125E+00
  0.498567757476E+00  0.477381149980E+00  0.492957796498E+00  0.497856595310E+00
  0.000000000000E+00  0.000000000000E+00  0.000000000000E+00  0.156899598134E-01 -0.426051177411E-02  0.288060137034E-01  0.000000000000E+00
  0.000000000000E+00 -0.370140636171E-02  0.000000000000E+00  0.249843351524E-02 -0.528112731264E-02 -0.303278142601E-02 -0.172440758221E-03
 -0.109128675055E-02  0.000000000000E+00  0.000000000000E+00 -0.850282262890E-02  0.955098474147E-03  0.000000000000E+00 -0.167363238672E-02
 -0.105347507849E-02  0.212716052758E-02 -0.123601044868E-02  0.695697131409E-04  0.000000000000E+00  0.214876164828E-03 -0.176753537548E-03
  0.608337012012E-03  0.000000000000E+00  0.000000000000E+00  0.000000000000E+00
  0.000000000000E+00  0.388447768224E-01  0.000000000000E+00  0.103916909611E+00  0.224193179400E-01  0.135341930197E+00  0.000000000000E+00
  0.000000000000E+00  0.126992473271E+00  0.342250503593E-02  0.213554560111E-01 -0.708605218584E-02  0.636034579199E-01  0.292761223159E-02
 -0.792188527863E-03  0.243872929313E-03  0.000000000000E+00  0.115618406105E+00 -0.829814650693E-02  0.114450470426E-02 -0.749466590208E-03
 -0.442126056610E-02  0.223714815318E-01 -0.264547629200E-02  0.180769787694E-02  0.687950731999E-01 -0.177092983891E-02  0.155939070753E-02
  0.142678912378E-02  0.233071939798E-02 -0.110529217540E-02  0.211826502059E-02
  0.908102254549E+00  0.774899591559E+00  0.958078695124E+00  0.800622116687E+00  0.737948982923E+00  0.857914847300E+00  0.108437495666E+01
  0.100373761907E+01  0.887195951592E+00  0.730580287866E+00  0.733315269823E+00  0.720299267042E+00  0.748106643424E+00  0.724222031781E+00
  0.717576271607E+00  0.719224693228E+00  0.968150990744E+00  0.840784193619E+00  0.722225645808E+00  0.716319848920E+00  0.717948030307E+00
  0.717912490671E+00  0.749167865215E+00  0.726422602718E+00  0.716249764075E+00  0.782033764421E+00  0.718602023097E+00  0.715132438103E+00
  0.715579016861E+00  0.734165456230E+00  0.720297795055E+00  0.716213231155E+00
  0.000000000000E+00  0.447918107175E+00  0.000000000000E+00  0.476275759360E+00  0.468524024499E+00  0.473519694729E+00  0.000000000000E+00
  0.000000000000E+00  0.412988887978E+00  0.477443390682E+00  0.472504926290E+00  0.485153503043E+00  0.492070313939E+00  0.488543925276E+00
  0.491923039651E+00  0.493078314113E+00  0.000000000000E+00  0.471587446660E+00  0.480934291481E+00  0.498013631736E+00  0.493690012186E+00
  0.490410156829E+00  0.456073652448E+00  0.472047354303E+00  0.498546250420E+00  0.449257160827E+00  0.491117557077E+00  0.499470363399E+00
  0.498443251765E+00  0.475665947014E+00  0.492352594412E+00  0.497648691738E+00
  0.104242640687E+01  0.102508337815E+01  0.104242640687E+01  0.103461470806E+01  0.100936207875E+01  0.102707643051E+01  0.104242640687E+01
  0.104242640687E+01  0.104103507472E+01  0.100608602595E+01  0.100935928417E+01  0.100173204161E+01  0.101882137936E+01  0.100399701616E+01
  0.100113899940E+01  0.100201874445E+01  0.104242640687E+01  0.103067332457E+01  0.100321572254E+01  0.100090120041E+01  0.100133251641E+01
  0.100116388663E+01  0.101357753218E+01  0.100469371801E+01  0.100084552688E+01  0.103269834530E+01  0.100165712560E+01  0.100040724392E+01
  0.100050932408E+01  0.100724880793E+01  0.100246495986E+01  0.100085383625E+01
        12        19        11        11
        11         5        12        12
        10        14         5         5
        19        13        11        11
        19        24        13        13
        30        23        24        24
        19        12        22        22
        28        22        21        21
        11        13         6         6
         7         6         9         9
        15        12        14        14
        18        13        23        23
        15        25        21        21
        27        19        22        22
        18         8         9         9
        27        31        24        24
         4        11         6         6
         5        14        12        12
         4         2         5         5
        21        12        15        15
        14        16        15        15
        24        19        27        27
        22        29        27        27
        23        26        18        18
        17         8        18        18
         5        11         4         4
         6         3         4         4
        26        23        30        30
         5         2        10        10
        16        14        10        10
         3         6         7         7
        21        25        28        28
        29        22        28        28
         6        13         9         9
         2         4         1         1
        31        27        32        32
        25        15        20        20
        24        23        13        13
         8         7         9         9
        13        18         9         9
        31        30        24        24
        12        21        22        22
        29        32        27        27
         3         1         4         4
        26        17        18        18
        16        20        15        15
zone t="boundary 2 bc-2", solutiontime= 0.3000000E+02, strandid=1002, i=33, j=48, f=feblock
  0.500195305314E+01  0.375034912201E+01  0.249861196354E+01  0.288036736123E+01  0.124717626151E+01  0.190856778360E+01  0.326577225490E+01
  0.201394899014E+01 -0.338346964726E-02  0.962374705951E+00  0.500000000000E+01  0.403430242703E+01  0.423029585421E+01  0.500000000000E+01
  0.385439203165E+01  0.500000000000E+01  0.398133438873E+01  0.315200091181E+01  0.266958048115E+01  0.154798041552E+01  0.218327865436E+01
  0.893688581177E+00  0.000000000000E+00  0.699009801024E+00  0.964460914345E+00  0.310303675842E+01  0.000000000000E+00  0.000000000000E+00
  0.125000000000E+01  0.500000000000E+01  0.375000000000E+01  0.250000000000E+01  0.000000000000E+00
 -0.249658889499E+01 -0.249658889499E+01 -0.249658889499E+01 -0.249658889499E+01 -0.249658889499E+01 -0.249658889499E+01 -0.249658889499E+01
 -0.249658889499E+01 -0.249658889499E+01 -0.249658889499E+01 -0.249658889499E+01 -0.249658889499E+01 -0.249658889499E+01 -0.249658889499E+01
 -0.249658889499E+01 -0.249658889499E+01 -0.249658889499E+01 -0.249658889499E+01 -0.249658889499E+01 -0.249658889499E+01 -0.249658889499E+01
 -0.249658889499E+01 -0.249658889499E+01 -0.249658889499E+01 -0.249658889499E+01 -0.249658889499E+01 -0.249658889499E+01 -0.249658889499E+01
 -0.249658889499E+01 -0.249658889499E+01 -0.249658889499E+01 -0.249658889499E+01 -0.249658889499E+01
  0.108709230302E-03  0.146875485829E-03  0.101409960121E-03  0.901663848144E+00  0.111895836306E-03  0.714929135906E+00  0.188140686189E+01
  0.175892218343E+01  0.816362740114E-04  0.957504934725E+00  0.125000000000E+01  0.100596744181E+01  0.191313547189E+01  0.250000000000E+01
  0.292898120965E+01  0.375000000000E+01  0.406883379958E+01  0.363389309169E+01  0.284756893464E+01  0.292582332357E+01  0.395754068714E+01
  0.205027285784E+01  0.125000000000E+01  0.306703284160E+01  0.397155773792E+01  0.433068631589E+01  0.250000000000E+01  0.375000000000E+01
  0.500000000000E+01  0.500000000000E+01  0.500000000000E+01  0.500000000000E+01  0.500000000000E+01
  0.768735553691E+00  0.889523464438E+00  0.898746291684E+00  0.950542342199E+00  0.924960114291E+00  0.947969567665E+00  0.981017327447E+00
  0.987799113926E+00  0.130024659593E+01  0.101390428295E+01  0.944836057568E+00  0.944237353758E+00  0.978087576766E+00  0.100717415485E+01
  0.997784730668E+00  0.100978314201E+01  0.100012092844E+01  0.996167597668E+00  0.989919945806E+00  0.998867505562E+00  0.997941965511E+00
  0.100913679860E+01  0.106018110243E+01  0.100643323739E+01  0.100351212778E+01  0.998477964673E+00  0.102043470355E+01  0.100593731796E+01
  0.100234900673E+01  0.999825669216E+00  0.100019152516E+01  0.100028719015E+01  0.100184311365E+01
  0.000000000000E+00  0.000000000000E+00  0.000000000000E+00  0.385195745206E+00  0.000000000000E+00  0.340886243863E+00  0.583452996606E+00
  0.571759388436E+00  0.000000000000E+00  0.480963234796E+00  0.505184921280E+00  0.443662109814E+00  0.572023284964E+00  0.532003860984E+00
  0.566400708280E+00  0.512622144146E+00  0.508199263240E+00  0.526915742795E+00  0.564509470072E+00  0.531478427347E+00  0.508130665551E+00
  0.521930112102E+00  0.451330041957E+00  0.494980850114E+00  0.496091833751E+00  0.503539873774E+00  0.477381149980E+00  0.492957796498E+00
  0.494536205370E+00  0.491694447605E+00  0.489488895738E+00  0.494634516060E+00  0.497856595310E+00
  0.000000000000E+00  0.000000000000E+00  0.000000000000E+00  0.000000000000E+00  0.000000000000E+00  0.000000000000E+00  0.000000000000E+00
  0.000000000000E+00  0.000000000000E+00  0.000000000000E+00  0.000000000000E+00  0.000000000000E+00  0.000000000000E+00  0.000000000000E+00
  0.000000000000E+00  0.000000000000E+00  0.000000000000E+00  0.000000000000E+00  0.000000000000E+00  0.000000000000E+00  0.000000000000E+00
  0.000000000000E+00  0.000000000000E+00  0.000000000000E+00  0.000000000000E+00  0.000000000000E+00  0.000000000000E+00  0.000000000000E+00
  0.000000000000E+00  0.000000000000E+00  0.000000000000E+00  0.000000000000E+00  0.000000000000E+00
  0.000000000000E+00  0.000000000000E+00  0.000000000000E+00 -0.142935158268E-02  0.000000000000E+00  0.168979206162E-01  0.875996170627E-02
  0.403963458229E-01  0.000000000000E+00  0.730722810318E-01 -0.112216536779E+00 -0.262901776566E-01 -0.368282042656E-01 -0.483404272553E-01
 -0.588570246389E-02 -0.169557542653E-03 -0.196006622188E-02 -0.317069736324E-02  0.106424688414E-01  0.235148066887E-01  0.228808391961E-02
  0.486674765742E-01  0.687950731999E-01  0.868235232582E-02  0.441101366135E-02 -0.351540963564E-02  0.233071939798E-02 -0.110529217540E-02
  0.135803546010E-02  0.546682141329E-02 -0.147678842668E-02 -0.124189491489E-02  0.211826502059E-02
  0.572393029334E+00  0.662330534901E+00  0.669197762521E+00  0.681370812802E+00  0.688716320314E+00  0.681180937797E+00  0.693024418453E+00
  0.700085033473E+00  0.968150990744E+00  0.722087325651E+00  0.666760391489E+00  0.671480398291E+00  0.691232240763E+00  0.720038331776E+00
  0.710709977943E+00  0.723771201575E+00  0.714752760020E+00  0.710894047478E+00  0.704007901798E+00  0.714159182201E+00  0.712429494562E+00
  0.725804055086E+00  0.782033764421E+00  0.720438257505E+00  0.717728257920E+00  0.712837375538E+00  0.734165456230E+00  0.720297795055E+00
  0.716518366691E+00  0.714350800636E+00  0.714323186391E+00  0.714486513792E+00  0.716213231155E+00
  0.000000000000E+00  0.000000000000E+00  0.000000000000E+00  0.384516007309E+00  0.000000000000E+00  0.340286203349E+00  0.586752395456E+00
  0.575425980285E+00  0.000000000000E+00  0.487199454502E+00  0.520640721807E+00  0.445423780829E+00  0.576268395233E+00  0.533962479013E+00
  0.567225095541E+00  0.511736951156E+00  0.508067693822E+00  0.527167691687E+00  0.565842611615E+00  0.531744141273E+00  0.508273524020E+00
  0.522388400052E+00  0.449257160827E+00  0.494521619275E+00  0.495788577879E+00  0.503679695142E+00  0.475665947014E+00  0.492352594412E+00
  0.494346575868E+00  0.491659574655E+00  0.489525155849E+00  0.494637576095E+00  0.497648691738E+00
  0.104242640687E+01  0.104242640687E+01  0.104242640687E+01  0.100355249374E+01  0.104242640687E+01  0.100599570434E+01  0.989008204737E+00
  0.992225071924E+00  0.104242640687E+01  0.997058867307E+00  0.987964568676E+00  0.995589248684E+00  0.989405407098E+00  0.100087324485E+01
  0.997203042437E+00  0.100346266445E+01  0.100053287114E+01  0.999080545080E+00  0.995647240661E+00  0.100095643267E+01  0.999458211857E+00
  0.100692560070E+01  0.103269834530E+01  0.100216638624E+01  0.100130285750E+01  0.999493590307E+00  0.100724880793E+01  0.100246495986E+01
  0.100077488642E+01  0.100026549796E+01  0.999860962417E+00  0.999993930901E+00  0.100085383625E+01
        15         7        19        19
         8        20        19        19
        18        19        21        21
         7         4         8         8
         3         6         4         4
        19         7         8         8
        19        18        15        15
        14        13        15        15
         8        22        20        20
        27        24        22        22
        19        20        21        21
        32        26        21        21
        17        18        26        26
        17        16        15        15
        25        29        21        21
        12         7        13        13
        10         8         6         6
        25        20        24        24
         4         6         8         8
        12         2         4         4
        10        23        22        22
        26        31        17        17
        30        16        17        17
         4         7        12        12
        13        11        12        12
        21        20        25        25
        24        28        25        25
        22         8        10        10
         6         5        10        10
        31        26        32        32
         4         2         3         3
         5         6         3         3
        11        13        14        14
        22        23        27        27
        28        24        27        27
        15        13         7         7
         2        12         1         1
        29        25        33        33
        23        10         9         9
        21        26        18        18
        16        14        15        15
        18        17        15        15
        29        32        21        21
        22        24        20        20
        28        33        25        25
        11         1        12        12
        31        30        17        17
         5         9        10        10
zone t="boundary 3 bc-3", solutiontime= 0.3000000E+02, strandid=1003, i=33, j=48, f=feblock
  0.375059200023E+01  0.249769659018E+01  0.500322189357E+01  0.403612276076E+01  0.287976836254E+01  0.124542007694E+01  0.190552302486E+01
  0.500000000000E+01  0.326671142353E+01  0.423253781877E+01  0.201271174246E+01 -0.547422451393E-02  0.958896037004E+00  0.500000000000E+01
  0.266968167030E+01  0.385584505517E+01  0.890374290244E+00  0.154654022522E+01  0.000000000000E+00  0.500000000000E+01  0.315261148394E+01
  0.218304203878E+01  0.398195315244E+01  0.000000000000E+00  0.697379959013E+00  0.963757272110E+00  0.125000000000E+01  0.000000000000E+00
  0.500000000000E+01  0.310330743906E+01  0.250000000000E+01  0.375000000000E+01  0.000000000000E+00
  0.250494212639E+01  0.250494212639E+01  0.250494212639E+01  0.250494212639E+01  0.250494212639E+01  0.250494212639E+01  0.250494212639E+01
  0.250494212639E+01  0.250494212639E+01  0.250494212639E+01  0.250494212639E+01  0.250494212639E+01  0.250494212639E+01  0.250494212639E+01
  0.250494212639E+01  0.250494212639E+01  0.250494212639E+01  0.250494212639E+01  0.250494212639E+01  0.250494212639E+01  0.250494212639E+01
  0.250494212639E+01  0.250494212639E+01  0.250494212639E+01  0.250494212639E+01  0.250494212639E+01  0.250494212639E+01  0.250494212639E+01
  0.250494212639E+01  0.250494212639E+01  0.250494212639E+01  0.250494212639E+01  0.250494212639E+01
  0.136457018303E-03  0.110483667052E-03  0.969506812793E-04  0.101756821127E+01  0.908095280158E+00  0.104842439781E-03  0.722629906090E+00
  0.125000000000E+01  0.188965717334E+01  0.191862733218E+01  0.176708303771E+01  0.808217454595E-04  0.969653363549E+00  0.250000000000E+01
  0.285339477240E+01  0.293325090921E+01  0.205656265142E+01  0.293157054664E+01  0.125000000000E+01  0.375000000000E+01  0.363766866045E+01
  0.396069465965E+01  0.407056399432E+01  0.250000000000E+01  0.307032015183E+01  0.397359832591E+01  0.500000000000E+01  0.375000000000E+01
  0.500000000000E+01  0.433260795381E+01  0.500000000000E+01  0.500000000000E+01  0.500000000000E+01
  0.896677145717E+00  0.910447482299E+00  0.781949690039E+00  0.945776179915E+00  0.960132585812E+00  0.922179349167E+00  0.963950217551E+00
  0.950686503169E+00  0.978092531976E+00  0.979671021029E+00  0.986798768694E+00  0.121959991419E+01  0.100543682293E+01  0.100849024664E+01
  0.992239986522E+00  0.997799900860E+00  0.100537153028E+01  0.998282829265E+00  0.105831335412E+01  0.100697752674E+01  0.998803915099E+00
  0.999311176845E+00  0.100000777570E+01  0.101662519569E+01  0.100449241532E+01  0.100204216786E+01  0.100246737748E+01  0.100488596256E+01
  0.100014287321E+01  0.998721597610E+00  0.100101030853E+01  0.100049116434E+01  0.100194483539E+01
  0.000000000000E+00  0.000000000000E+00  0.000000000000E+00  0.451192367858E+00  0.403035490371E+00  0.000000000000E+00  0.369780837430E+00
  0.504460320168E+00  0.572441330922E+00  0.570699102588E+00  0.555904100849E+00  0.000000000000E+00  0.475076272857E+00  0.529012876222E+00
  0.555007391863E+00  0.562172295322E+00  0.523997784280E+00  0.523269612617E+00  0.451834270534E+00  0.514484457251E+00  0.524698128005E+00
  0.506246653112E+00  0.509782295750E+00  0.478881823330E+00  0.499519963124E+00  0.498081382924E+00  0.493202517809E+00  0.493575702491E+00
  0.493226196534E+00  0.501443030389E+00  0.491213490046E+00  0.488100866799E+00  0.498236671719E+00
  0.000000000000E+00  0.000000000000E+00  0.000000000000E+00  0.000000000000E+00  0.000000000000E+00  0.000000000000E+00  0.000000000000E+00
  0.000000000000E+00  0.000000000000E+00  0.000000000000E+00  0.000000000000E+00  0.000000000000E+00  0.000000000000E+00  0.000000000000E+00
  0.000000000000E+00  0.000000000000E+00  0.000000000000E+00  0.000000000000E+00  0.000000000000E+00  0.000000000000E+00  0.000000000000E+00
  0.000000000000E+00  0.000000000000E+00  0.000000000000E+00  0.000000000000E+00  0.000000000000E+00  0.000000000000E+00  0.000000000000E+00
  0.000000000000E+00  0.000000000000E+00  0.000000000000E+00  0.000000000000E+00  0.000000000000E+00
  0.000000000000E+00  0.000000000000E+00  0.000000000000E+00 -0.279078362869E-01  0.124066496302E-01  0.000000000000E+00  0.162361710173E-01
 -0.114472997722E+00  0.481969008247E-03 -0.460947664417E-01  0.299463027917E-01  0.000000000000E+00  0.536074554373E-01 -0.502839386125E-01
  0.507352837138E-02 -0.105799152145E-01  0.439389115742E-01  0.105966157243E-01  0.388447768224E-01 -0.221746030852E-02 -0.367103473637E-02
 -0.404356066378E-03 -0.149341672343E-02  0.342250503593E-02  0.804267244845E-02  0.207971489713E-02  0.580176149232E-03  0.243872929313E-03
  0.506848069377E-02 -0.210229649895E-02 -0.608077320859E-03 -0.698984438632E-03  0.114450470426E-02
  0.667657096524E+00  0.677910355441E+00  0.582232146958E+00  0.670520801348E+00  0.688130420626E+00  0.686645789602E+00  0.690430204903E+00
  0.670647454184E+00  0.691903474362E+00  0.692624536331E+00  0.700947282258E+00  0.908102254549E+00  0.717683152162E+00  0.721491557993E+00
  0.706702581589E+00  0.711393823202E+00  0.721305246652E+00  0.713317535826E+00  0.774899591559E+00  0.721208146269E+00  0.713531960125E+00
  0.713574986016E+00  0.714553968944E+00  0.730580287866E+00  0.718615551816E+00  0.716240957299E+00  0.716741997257E+00  0.719224693228E+00
  0.714562986618E+00  0.713128508691E+00  0.715137046899E+00  0.714652353896E+00  0.716319848920E+00
  0.000000000000E+00  0.000000000000E+00  0.000000000000E+00  0.453748261863E+00  0.402545678822E+00  0.000000000000E+00  0.369628989184E+00
  0.520520460858E+00  0.575220472706E+00  0.575501357671E+00  0.558260261225E+00  0.000000000000E+00  0.478253081756E+00  0.530976811740E+00
  0.555831196207E+00  0.562793405993E+00  0.524675369929E+00  0.523282101222E+00  0.447918107175E+00  0.513797341095E+00  0.524673982376E+00
  0.506324391333E+00  0.509690765340E+00  0.477443390682E+00  0.499194902143E+00  0.497913039746E+00  0.492964068964E+00  0.493078314113E+00
  0.493191758547E+00  0.501533237622E+00  0.491169325792E+00  0.488095968916E+00  0.498013631736E+00
  0.104242640687E+01  0.104242640687E+01  0.104242640687E+01  0.992548915719E+00  0.100338495236E+01  0.104242640687E+01  0.100275125133E+01
  0.987608883399E+00  0.990361169765E+00  0.989795890711E+00  0.994454215280E+00  0.104242640687E+01  0.999323269362E+00  0.100158448191E+01
  0.997121288866E+00  0.998147375666E+00  0.100443200836E+01  0.100036234310E+01  0.102508337815E+01  0.100269507309E+01  0.100014099772E+01
  0.999693592517E+00  0.100036777797E+01  0.100608602595E+01  0.100156233855E+01  0.100069375560E+01  0.100096902772E+01  0.100201874445E+01
  0.100024527302E+01  0.999657877187E+00  0.100018137389E+01  0.100002212025E+01  0.100090120041E+01
        15         9        16        16
        15        18        11        11
        22        15        21        21
        11         5         9         9
         5         7         2         2
        11         9        15        15
        16        21        15        15
        16        10        14        14
        18        17        11        11
        17        25        24        24
        22        18        15        15
        22        30        31        31
        30        21        23        23
        16        20        23        23
        22        27        26        26
        10         9         4         4
         7        11        13        13
        25        18        26        26
        11         7         5         5
         5         1         4         4
        17        19        13        13
        23        32        30        30
        23        20        29        29
         4         9         5         5
         4         8        10        10
        26        18        22        22
        26        28        25        25
        13        11        17        17
        13         6         7         7
        31        30        32        32
         2         1         5         5
         2         7         6         6
        14        10         8         8
        24        19        17        17
        24        25        28        28
         9        10        16        16
         3         4         1         1
        33        26        27        27
        12        13        19        19
        21        30        22        22
        16        14        20        20
        16        23        21        21
        22        31        27        27
        18        25        17        17
        26        33        28        28
         4         3         8         8
        23        29        32        32
        13        12         6         6
zone t="boundary 4 bc-4", solutiontime= 0.3000000E+02, strandid=1004, i=32, j=46, f=feblock
  0.125000000000E+01  0.219251206392E+01  0.103724302461E+01  0.500000000000E+01  0.250000000000E+01  0.375000000000E+01  0.404200324774E+01
  0.500000000000E+01  0.000000000000E+00  0.310152362409E+01  0.202479342020E+01  0.324151231464E+01  0.922061490191E+00  0.000000000000E+00
  0.299062775774E+01  0.394624082883E+01  0.500000000000E+01  0.409252726285E+01  0.500000000000E+01  0.429310310915E+01  0.175434191980E+01
  0.284428995242E+01  0.000000000000E+00  0.000000000000E+00  0.715990576545E+00  0.930412228790E+00  0.125000000000E+01  0.187029682677E+01
  0.500000000000E+01  0.375000000000E+01  0.250000000000E+01  0.000000000000E+00
  0.250494212639E+01  0.157686156160E+01  0.146289271009E+01  0.250494212639E+01  0.250494212639E+01  0.250494212639E+01  0.155830813274E+01
  0.125000000000E+01  0.250494212639E+01  0.177790177481E+01  0.477386199275E+00  0.742988685424E+00  0.308372018325E+00  0.125000000000E+01
 -0.487811078581E+00 -0.144524380962E+01 -0.125000000000E+01 -0.345533899378E+00  0.000000000000E+00  0.627766083140E+00 -0.739814786992E+00
 -0.158811787973E+01  0.000000000000E+00 -0.125000000000E+01 -0.600232012419E+00 -0.154800130438E+01 -0.249658889499E+01 -0.178862290564E+01
 -0.249658889499E+01 -0.249658889499E+01 -0.249658889499E+01 -0.249658889499E+01
  0.500000000000E+01  0.500000000000E+01  0.500000000000E+01  0.500000000000E+01  0.500000000000E+01  0.500000000000E+01  0.500000000000E+01
  0.500000000000E+01  0.500000000000E+01  0.500000000000E+01  0.500000000000E+01  0.500000000000E+01  0.500000000000E+01  0.500000000000E+01
  0.500000000000E+01  0.500000000000E+01  0.500000000000E+01  0.500000000000E+01  0.500000000000E+01  0.500000000000E+01  0.500000000000E+01
  0.500000000000E+01  0.500000000000E+01  0.500000000000E+01  0.500000000000E+01  0.500000000000E+01  0.500000000000E+01  0.500000000000E+01
  0.500000000000E+01  0.500000000000E+01  0.500000000000E+01  0.500000000000E+01
  0.100246737748E+01  0.100134411569E+01  0.100190780663E+01  0.100014287321E+01  0.100101030853E+01  0.100049116434E+01  0.999772520003E+00
  0.100034006060E+01  0.100194483539E+01  0.100086071418E+01  0.100110851785E+01  0.100019852835E+01  0.100152589875E+01  0.100190253418E+01
  0.100054362038E+01  0.998651137039E+00  0.100066865511E+01  0.999534638557E+00  0.100053916932E+01  0.999920782640E+00  0.100145796973E+01
  0.100044297506E+01  0.100077785264E+01  0.100130063708E+01  0.100105890362E+01  0.100174645186E+01  0.100234900673E+01  0.100133180005E+01
  0.999825669216E+00  0.100019152516E+01  0.100028719015E+01  0.100184311365E+01
  0.493202517809E+00  0.493600857194E+00  0.494658110021E+00  0.493226196534E+00  0.491213490046E+00  0.488100866799E+00  0.488181954374E+00
  0.494185395847E+00  0.498236671719E+00  0.490792292304E+00  0.492761144482E+00  0.491174152600E+00  0.497637561681E+00  0.498753692235E+00
  0.492047953635E+00  0.486057205868E+00  0.492253144442E+00  0.489677541473E+00  0.494621099704E+00  0.490036985926E+00  0.494627860538E+00
  0.492613431559E+00  0.499569591125E+00  0.498567757476E+00  0.498183369599E+00  0.496570953784E+00  0.494536205370E+00  0.494838864116E+00
  0.491694447605E+00  0.489488895738E+00  0.494634516060E+00  0.497856595310E+00
  0.000000000000E+00 -0.121635449746E-03 -0.110855020720E-02  0.000000000000E+00  0.000000000000E+00  0.000000000000E+00  0.120524812232E-03
  0.633773033138E-03  0.000000000000E+00  0.101735217818E-03 -0.874015922003E-03 -0.898671151054E-03 -0.157074867004E-02  0.695697131409E-04
 -0.887476968798E-03 -0.918225245541E-03 -0.139152475999E-02 -0.210077552448E-02 -0.141191941119E-02 -0.122049084963E-02 -0.533764757203E-03
 -0.644234822102E-03 -0.176753537548E-03  0.608337012012E-03 -0.248289837587E-04  0.142379839432E-02  0.000000000000E+00  0.724067809229E-03
  0.000000000000E+00  0.000000000000E+00  0.000000000000E+00  0.000000000000E+00