# vtk DataFile Version 2.0
FUN3D:global_image_vtk
ASCII
DATASET UNSTRUCTURED_GRID
POINTS 213 double
   -0.5474224513932383E-02    0.2504942126394190E+01    0.8082174545946624E-04
    0.1245420076942085E+01    0.2504942126394190E+01    0.1048424397811766E-03
    0.2497696590175246E+01    0.2504942126394190E+01    0.1104836670516163E-03
    0.3750592000233255E+01    0.2504942126394190E+01    0.1364570183033088E-03
    0.5003221893571071E+01    0.2504942126394190E+01    0.9695068127933642E-04
    0.5004677757742074E+01    0.1281291915000810E+01    0.1646229492324448E-03
    0.5004773233274468E+01    0.2775197972855542E-01    0.1907234197311281E-03
    0.5003582221833335E+01   -0.1225852858123609E+01    0.1617086219794773E-03
    0.5001953053139548E+01   -0.2496588894990605E+01    0.1087092303020254E-03
    0.3750349122010979E+01   -0.2496588894990605E+01    0.1468754858291722E-03
    0.2498611963544637E+01   -0.2496588894990605E+01    0.1014099601208541E-03
    0.1247176261514498E+01   -0.2496588894990605E+01    0.1118958363064128E-03
   -0.3383469647257068E-02   -0.2496588894990605E+01    0.8163627401135082E-04
   -0.4256789872823103E-02   -0.1225734173005218E+01    0.3518767580942727E-04
   -0.5251125676180538E-02    0.2619601495781478E-01    0.1043779160786318E-03
   -0.5675101151752544E-02    0.1278222243532943E+01    0.8322057204398947E-04
    0.9003214218042753E+00    0.1608980307788276E+01    0.8747990450662329E-04
    0.3983173228641640E+01   -0.1561211262272914E+01    0.1766748278683995E-03
    0.4035602579399945E+01    0.1486761266123902E+01    0.1716707140765739E-03
    0.1036614706204464E+01   -0.1455625787809896E+01    0.1057334762692698E-03
    0.1094353949894646E+01   -0.2964610398745914E+00    0.1265432745046614E-03
    0.7298409877585051E+00    0.6874691505133093E+00    0.1054287859205961E-03
    0.1617019123574323E+01    0.8553219978658714E+00    0.1534205161194813E-03
    0.2143200653249461E+01   -0.1627127869726393E+01    0.1616130354530055E-03
    0.4088840979733531E+01   -0.4351036111850144E+00    0.2724113113656135E-03
    0.2977917509321158E+01   -0.8334984944120313E+00    0.2255152732820999E-03
    0.3044093744004115E+01   -0.1814360085635074E+01    0.1621866839972420E-03
    0.3427867629125337E+01    0.3813911924692986E+00    0.2945982628245460E-03
    0.4313225907786227E+01    0.5489145452797480E+00    0.2316713640985591E-03
    0.1823033713318359E+01    0.1771265914465662E+01    0.1845256848588540E-03
    0.2806311649539731E+01    0.1358630605766185E+01    0.1947352060658736E-03
    0.1891861854175948E+01   -0.8481303814158653E+00    0.1680436634033656E-03
    0.2268769674873436E+01    0.7723810290059903E-01    0.2076744806884102E-03
    0.5000000000000000E+01    0.2504942126394190E+01    0.1250000000000000E+01
    0.5000000000000000E+01    0.2504942126394190E+01    0.2500000000000000E+01
    0.5000000000000000E+01    0.2504942126394190E+01    0.3750000000000000E+01
    0.5000000000000000E+01    0.2504942126394190E+01    0.5000000000000000E+01
    0.3750000000000000E+01    0.2504942126394190E+01    0.5000000000000000E+01
    0.2500000000000000E+01    0.2504942126394190E+01    0.5000000000000000E+01
    0.1250000000000000E+01    0.2504942126394190E+01    0.5000000000000000E+01
    0.0000000000000000E+00    0.2504942126394190E+01    0.5000000000000000E+01
    0.0000000000000000E+00    0.2504942126394190E+01    0.3750000000000000E+01
    0.0000000000000000E+00    0.2504942126394190E+01    0.2500000000000000E+01
    0.0000000000000000E+00    0.2504942126394190E+01    0.1250000000000000E+01
    0.9588960370041330E+00    0.2504942126394190E+01    0.9696533635487885E+00
    0.3981953152439084E+01    0.2504942126394190E+01    0.4070563994321984E+01
    0.4036122760762200E+01    0.2504942126394190E+01    0.1017568211272029E+01
    0.9637572721099048E+00    0.2504942126394190E+01    0.3973598325914064E+01
    0.1546540225218143E+01    0.2504942126394190E+01    0.2931570546636293E+01
    0.6973799590130849E+00    0.2504942126394190E+01    0.3070320151830089E+01
    0.8903742902443585E+00    0.2504942126394190E+01    0.2056562651419467E+01
    0.2183042038779285E+01    0.2504942126394190E+01    0.3960694659650541E+01
    0.3855845055174099E+01    0.2504942126394190E+01    0.2933250909212705E+01
    0.3152611483942322E+01    0.2504942126394190E+01    0.3637668660448349E+01
    0.3103307439058717E+01    0.2504942126394190E+01    0.4332607953814857E+01
    0.3266711423534803E+01    0.2504942126394190E+01    0.1889657173339801E+01
    0.4232537818765943E+01    0.2504942126394190E+01    0.1918627332177736E+01
    0.1905523024858169E+01    0.2504942126394190E+01    0.7226299060896533E+00
    0.2879768362542398E+01    0.2504942126394190E+01    0.9080952801582604E+00
    0.2012711742463492E+01    0.2504942126394190E+01    0.1767083037712090E+01
    0.2669681670304065E+01    0.2504942126394190E+01    0.2853394772396948E+01
    0.5000000000000000E+01    0.1250000000000000E+01    0.5000000000000000E+01
    0.5000000000000000E+01    0.0000000000000000E+00    0.5000000000000000E+01
    0.5000000000000000E+01   -0.1250000000000000E+01    0.5000000000000000E+01
    0.5000000000000000E+01   -0.2496588894990605E+01    0.5000000000000000E+01
    0.5000000000000000E+01   -0.2496588894990605E+01    0.3750000000000000E+01
    0.5000000000000000E+01   -0.2496588894990605E+01    0.2500000000000000E+01
    0.5000000000000000E+01   -0.2496588894990605E+01    0.1250000000000000E+01
    0.5000000000000000E+01    0.1578994732800803E+01    0.9058375365086910E+00
    0.5000000000000000E+01   -0.1583989954232354E+01    0.3982050490726493E+01
    0.5000000000000000E+01    0.1453322699199022E+01    0.4033849428301197E+01
    0.5000000000000000E+01   -0.1479596339503735E+01    0.1040505887381675E+01
    0.5000000000000000E+01   -0.3227322616384110E+00    0.1099454400140349E+01
    0.5000000000000000E+01    0.6593508822075582E+00    0.7354504170366591E+00
    0.5000000000000000E+01    0.8256214013940779E+00    0.1622302608453282E+01
    0.5000000000000000E+01   -0.1650070333782557E+01    0.2145871574390382E+01
    0.5000000000000000E+01   -0.4612828702537229E+00    0.4086422318222992E+01
    0.5000000000000000E+01   -0.8579242121530853E+00    0.2979540174134984E+01
    0.5000000000000000E+01   -0.1836846154397680E+01    0.3045064261640043E+01
    0.5000000000000000E+01    0.3508002863614053E+00    0.3428197553792836E+01
    0.5000000000000000E+01    0.5185680230613409E+00    0.4309693860063405E+01
    0.5000000000000000E+01    0.1738996113203182E+01    0.1827272193562204E+01
    0.5000000000000000E+01    0.1325493893339706E+01    0.2808563282768077E+01
    0.5000000000000000E+01   -0.8731419609589618E+00    0.1895995683864404E+01
    0.5000000000000000E+01    0.4906150219227333E-01    0.2273179336307740E+01
    0.0000000000000000E+00    0.1250000000000000E+01    0.5000000000000000E+01
    0.0000000000000000E+00    0.0000000000000000E+00    0.5000000000000000E+01
    0.0000000000000000E+00   -0.1250000000000000E+01    0.5000000000000000E+01
    0.0000000000000000E+00   -0.2496588894990605E+01    0.5000000000000000E+01
    0.1250000000000000E+01   -0.2496588894990605E+01    0.5000000000000000E+01
    0.2500000000000000E+01   -0.2496588894990605E+01    0.5000000000000000E+01
    0.3750000000000000E+01   -0.2496588894990605E+01    0.5000000000000000E+01
    0.4042003247744892E+01    0.1558308132739014E+01    0.5000000000000000E+01
    0.9304122287900499E+00   -0.1548001304379777E+01    0.5000000000000000E+01
    0.1037243024609388E+01    0.1462892710085612E+01    0.5000000000000000E+01
    0.3946240828834967E+01   -0.1445243809615570E+01    0.5000000000000000E+01
    0.4092527262848217E+01   -0.3455338993778935E+00    0.5000000000000000E+01
    0.4293103109154542E+01    0.6277660831404320E+00    0.5000000000000000E+01
    0.3241512314643519E+01    0.7429886854239611E+00    0.5000000000000000E+01
    0.2844289952419609E+01   -0.1588117879734118E+01    0.5000000000000000E+01
    0.7159905765450471E+00   -0.6002320124191652E+00    0.5000000000000000E+01
    0.1754341919796891E+01   -0.7398147869923652E+00    0.5000000000000000E+01
    0.1870296826774691E+01   -0.1788622905643739E+01    0.5000000000000000E+01
    0.9220614901912976E+00    0.3083720183248586E+00    0.5000000000000000E+01
    0.3101523624086016E+01    0.1777901774806180E+01    0.5000000000000000E+01
    0.2192512063922564E+01    0.1576861561598471E+01    0.5000000000000000E+01
    0.2024793420196460E+01    0.4773861992750707E+00    0.5000000000000000E+01
    0.2990627757741975E+01   -0.4878110785814084E+00    0.5000000000000000E+01
    0.0000000000000000E+00   -0.2496588894990605E+01    0.1250000000000000E+01
    0.0000000000000000E+00   -0.2496588894990605E+01    0.2500000000000000E+01
    0.0000000000000000E+00   -0.2496588894990605E+01    0.3750000000000000E+01
    0.0000000000000000E+00    0.1558308132739014E+01    0.4042003247744892E+01
    0.0000000000000000E+00   -0.1548001304379777E+01    0.9304122287900499E+00
    0.0000000000000000E+00    0.1462892710085612E+01    0.1037243024609388E+01
    0.0000000000000000E+00   -0.1445243809615570E+01    0.3946240828834967E+01
    0.0000000000000000E+00   -0.3455338993778935E+00    0.4092527262848217E+01
    0.0000000000000000E+00    0.6277660831404320E+00    0.4293103109154542E+01
    0.0000000000000000E+00    0.7429886854239611E+00    0.3241512314643519E+01
    0.0000000000000000E+00   -0.1588117879734118E+01    0.2844289952419609E+01
    0.0000000000000000E+00   -0.6002320124191652E+00    0.7159905765450471E+00
    0.0000000000000000E+00   -0.7398147869923652E+00    0.1754341919796891E+01
    0.0000000000000000E+00   -0.1788622905643739E+01    0.1870296826774691E+01
    0.0000000000000000E+00    0.3083720183248586E+00    0.9220614901912976E+00
    0.0000000000000000E+00    0.1777901774806180E+01    0.3101523624086016E+01
    0.0000000000000000E+00    0.1576861561598471E+01    0.2192512063922564E+01
[...]
POINT_DATA 213
SCALARS rho double 1
LOOKUP_TABLE default
   0.1219599851858537E+01
   0.9221793973276208E+00
   0.9104475937735543E+00
   0.8966768159690117E+00
   0.7819488454332416E+00
   0.7116573434972062E+00
   0.6990710279436357E+00
   0.7029547164716458E+00
   0.7687354956277577E+00
   0.8895233167660060E+00
   0.8987463242192685E+00
   0.9249601505193479E+00
   0.1300246588281100E+01
   0.1348040323317290E+01
   0.1456337823631484E+01
   0.1286719273571037E+01
   0.9619641639671194E+00
   0.9047653786193101E+00
   0.8972301270423070E+00
   0.9249192508021802E+00
   0.9126331739322832E+00
   0.9866006414705197E+00
   0.8974308132514003E+00
   0.8999717020282014E+00
   0.9067475402278105E+00
   0.9112478000717498E+00
   0.8943866269492681E+00
   0.9125850815565402E+00
   0.8902529692052381E+00
   0.9018652268596188E+00
   0.9063596923149825E+00
   0.8623951151891854E+00
   0.9078065479723069E+00
   0.9506821769401111E+00
   0.1008490980747854E+01
   0.1006976758721745E+01
   0.1000145907175317E+01
   0.1000492866042959E+01
   0.1001010365828797E+01
   0.1002467254381141E+01
   0.1001944763782416E+01
   0.1004886095618688E+01
   0.1016625223650950E+01
   0.1058313565688387E+01
   0.1005436799489715E+01
   0.1000007366641891E+01
   0.9457700194930173E+00
   0.1002042268459543E+01
   0.9982829441943047E+00
   0.1004492518381088E+01
   0.1005371615656645E+01
   0.9993111932949058E+00
   0.9978002645319713E+00
   0.9988040128824748E+00
   0.9987211931223805E+00
   0.9780928861940542E+00
   0.9796706123911949E+00
   0.9639504469788225E+00
   0.9601301099323705E+00
   0.9867991640469201E+00
   0.9922400473996830E+00
   0.1000342975923254E+01
   0.1000541449490383E+01
   0.1000671131691828E+01
   0.9998284125431429E+00
   0.1009782298494875E+01
   0.1007174225231838E+01
   0.9448363263388943E+00
   0.9034576639828126E+00
   0.1007039898929520E+01
   0.1004193124154318E+01
   0.8965165427688062E+00
   0.8926680412954539E+00
   0.8470449742572910E+00
   0.9708429012881508E+00
   0.1000202435722346E+01
   0.1006091577242401E+01
   0.1015639764918614E+01
   0.1012987274795587E+01
   0.1012861697328918E+01
   0.1005118612065470E+01
   0.9863622654324148E+00
   0.1006593490502359E+01
   0.9849764744806841E+00
   0.1008140576342343E+01
   0.1001902605124415E+01
   0.1000777961424271E+01
   0.1001300676915222E+01
   0.1001842921969032E+01
   0.1002348923311568E+01
   0.1000286866691611E+01
   0.1000192911275848E+01
   0.9997755897413321E+00
   0.1001746391972099E+01
   0.1001907941648874E+01
   0.9986523943816211E+00
   0.9995364878252364E+00
   0.9999232323734282E+00
   0.1000198763546530E+01
   0.1000442937559135E+01
   0.1001058839200083E+01
   0.1001457788887427E+01
   0.1001331324697544E+01
   0.1001525815564290E+01
   0.1000861173430452E+01
   0.1001344301739609E+01
   0.1001108531856867E+01
   0.1000543850127441E+01
   0.1060180611356655E+01
   0.1020434856306498E+01
   0.1005937365644902E+01
   0.1003463831809292E+01
   0.1142067398565327E+01
   0.1083370535239430E+01
   0.1004378515982821E+01
   0.1003909101557936E+01
   0.1003789600010689E+01
   0.1006675429987782E+01
   0.1012240639061008E+01
   0.1193114803176115E+01
   0.1028000793618325E+01
   0.1034785384915084E+01
   0.1169417183810066E+01
   0.1009874384407496E+01
   0.1023546146818464E+01
   0.1017121964533158E+01
   0.1007875019091738E+01
   0.1013904365560457E+01
   0.1000120417178329E+01
   0.9442367426438999E+00
   0.1003512211216596E+01
   0.9988676190540708E+00
   0.1006433375780226E+01
   0.1009136812593167E+01
   0.9979418365637810E+00
   0.9977846768426546E+00
   0.9961676169547502E+00
   0.9984778120415770E+00
   0.9810175206053231E+00
   0.9780877485921449E+00
   0.9479693416665796E+00
   0.9505423756233302E+00
   0.9877989928745158E+00
   0.9899199028953209E+00
   0.9925444294549705E+00
   0.9998150116705965E+00
   0.9986044198369668E+00
   0.9946495869581282E+00
   0.1006783292791698E+01
   0.1021195779979028E+01
   0.9979991388753854E+00
   0.1004785933302050E+01
   0.1001443249689674E+01
   0.1004870012464683E+01
   0.9952898712324263E+00
   0.9853957112591416E+00
   0.1000226003190969E+01
   0.9938930070021790E+00
   0.9819631265855718E+00
   0.9943515107895868E+00
   0.9968775109136870E+00
   0.9937161300364277E+00
   0.9987031042156084E+00
   0.1000033239787486E+01
   0.9996686239745893E+00
   0.9958480408643990E+00
   0.9933618002186984E+00
   0.1001379809557187E+01
   0.1018342560337476E+01
   0.1002761155747480E+01
   0.9806466519999343E+00
   0.1001874254478831E+01
   0.1008205816683304E+01
   0.9702345818549598E+00
   0.9431323712157460E+00
   0.9846786217527428E+00
   0.9843645508573851E+00
   0.9754696333688213E+00
   0.9908380259124896E+00
   0.9779133128519601E+00
   0.1033958394600855E+01
   0.1021656799073775E+01
   0.1000033002381297E+01
   0.9991734244766565E+00
   0.9919055300282543E+00
   0.9907248457475537E+00
   0.9574014472815354E+00
   0.9930506886570394E+00
   0.1006289131665412E+01
   0.1002044036209450E+01
   0.9896477831511560E+00
   0.9652799759706230E+00
   0.9203406794745401E+00
   0.9724368557413318E+00
   0.9781836932180207E+00
   0.9559726698347266E+00
   0.9617645508915666E+00
   0.9490309777607927E+00
   0.9366912188315882E+00
   0.9303104425463641E+00
   0.9992919090607357E+00
   0.9994619438088187E+00
   0.9988025013560544E+00
   0.1002017072418537E+01
   0.9391477746605129E+00
   0.9239054573397547E+00
   0.9359217325782281E+00
   0.9984137849982384E+00
   0.9983444501159019E+00
   0.1000450517807687E+01
   0.9793848383846385E+00
   0.9713545722482178E+00
   0.9447096404881581E+00
SCALARS u double 1
LOOKUP_TABLE default
   0.0000000000000000E+00
   0.0000000000000000E+00
   0.0000000000000000E+00
   0.0000000000000000E+00
   0.0000000000000000E+00
   0.0000000000000000E+00
   0.0000000000000000E+00
   0.0000000000000000E+00
   0.0000000000000000E+00
   0.0000000000000000E+00
   0.0000000000000000E+00
   0.0000000000000000E+00
   0.0000000000000000E+00
   0.0000000000000000E+00
   0.0000000000000000E+00
   0.0000000000000000E+00
   0.0000000000000000E+00
   0.0000000000000000E+00
   0.0000000000000000E+00
   0.0000000000000000E+00
   0.0000000000000000E+00
   0.0000000000000000E+00
   0.0000000000000000E+00
   0.0000000000000000E+00
   0.0000000000000000E+00
   0.0000000000000000E+00
   0.0000000000000000E+00
   0.0000000000000000E+00
   0.0000000000000000E+00
   0.0000000000000000E+00
   0.0000000000000000E+00
   0.0000000000000000E+00
   0.0000000000000000E+00
   0.5044656914660229E+00
   0.5290124899092778E+00
   0.5144832549544600E+00
   0.4932265018022484E+00
   0.4881035035223139E+00
   0.4912132769259589E+00
   0.4932012184639815E+00
   0.4982359636589835E+00
   0.4935755445230372E+00
   0.4788817922076374E+00
   0.4518340485202061E+00
   0.4750762425397792E+00
   0.5097784015822973E+00
   0.4511935963371462E+00
   0.4980813387656423E+00
   0.5232695265159598E+00
   0.4995198865863041E+00
   0.5239976572464938E+00
   0.5062462173007959E+00
   0.5621720035575916E+00
   0.5246973173861320E+00
   0.5014415400983473E+00
   0.5724415222766944E+00
   0.5707004768634798E+00
   0.3697808948688277E+00
   0.4030359116804555E+00
   0.5559039430886693E+00
   0.5550071830761631E+00
   0.4941866650687894E+00
   0.4946225565888147E+00
   0.4922550863839272E+00
   0.4916952746764410E+00
   0.5126203616862147E+00
   0.5320037763810801E+00
   0.5051851616944673E+00
   0.4700274193690379E+00
   0.5096958287523128E+00
   0.5089633485231697E+00
   0.4955096563822480E+00
   0.5091188841102763E+00
   0.4859971045194213E+00
   0.5290197073085966E+00
   0.5276939217805646E+00
   0.5095384263695436E+00
   0.5265023573783966E+00
   0.5255836734819946E+00
   0.5249264225673378E+00
   0.5039105656377133E+00
   0.5284460039448362E+00
   0.5353830921679879E+00
   0.5371546788494583E+00
   0.5324039272410083E+00
   0.4987533169879214E+00
   0.4995693387391487E+00
   0.4985678155860151E+00
   0.4978564030752547E+00
   0.4945363881554017E+00
   0.4946354329304393E+00
   0.4894932241004836E+00
   0.4881854210211499E+00
   0.4965709419260667E+00
   0.4946579535668960E+00
   0.4860622962583069E+00
   0.4896816163529901E+00
   0.4900401280200025E+00
   0.4911767827347187E+00
   0.4926166714917639E+00
   0.4981835128733146E+00
   0.4946289735619132E+00
   0.4948395074383147E+00
   0.4976378143077382E+00
   0.4907933235323210E+00
   0.4936012207108487E+00
   0.4927629013010350E+00
   0.4920515044087920E+00
   0.4513309438337083E+00
   0.4773809580447797E+00
   0.4929577610757263E+00
   0.4922016486467087E+00
   0.4645164890816506E+00
   0.4729120355971897E+00
   0.4915211064313299E+00
   0.4906741990181017E+00
   0.4940153739118450E+00
   0.4854929963955626E+00
   0.4731445467210518E+00
   0.4017685551874973E+00
   0.4925810798730131E+00
   0.4586089282702140E+00
   0.4595049479336279E+00
   0.4895104463173420E+00
   0.4701583310924781E+00
   0.4742234828477931E+00
   0.4816343219592605E+00
   0.4809632130414514E+00
   0.5081955863570550E+00
   0.4436620663827816E+00
   0.4960916997458469E+00
   0.5314783346735170E+00
   0.4949806850210775E+00
   0.5219301855896493E+00
   0.5081293898446152E+00
   0.5664001778579197E+00
   0.5269142328617744E+00
   0.5035387271824138E+00
   0.5834535483587746E+00
   0.5720240659719092E+00
   0.3408860828713522E+00
   0.3851958144564935E+00
   0.5717595517875446E+00
   0.5645095924722787E+00
   0.5689243667052724E+00
   0.5291696389704943E+00
   0.5449155705349897E+00
   0.5701880089617480E+00
   0.5404097170330463E+00
   0.5487779261985405E+00
   0.5790108151599604E+00
   0.4955235706464323E+00
   0.5064965522838504E+00
   0.4994484979230340E+00
   0.5533092794601973E+00
   0.4597902166396443E+00
   0.4983751387020408E+00
   0.5489762905473041E+00
   0.5894376613660143E+00
   0.5821700649415636E+00
   0.5457059856298785E+00
   0.5785146354026361E+00
   0.5122043919938214E+00
   0.5055088235874033E+00
   0.5048980734225680E+00
   0.5645297504446738E+00
   0.5552265549516757E+00
   0.4977583804042611E+00
   0.5488209195605834E+00
   0.5486892429877070E+00
   0.5643387842574468E+00
   0.4955121621700423E+00
   0.4958798420285095E+00
   0.3908413868070980E+00
   0.3725909994350227E+00
   0.5584900630301242E+00
   0.5739392782271181E+00
   0.4177438956443352E+00
   0.5813083189069860E+00
   0.4186000419702064E+00
   0.5391903728874112E+00
   0.4993239677734504E+00
   0.5113858615500754E+00
   0.5070195062167487E+00
   0.5732639908307987E+00
   0.5857709339508740E+00
   0.5448206061644930E+00
   0.5657063010382319E+00
   0.5320308517409764E+00
   0.5310303346262476E+00
   0.5561915833518667E+00
   0.5552162153975193E+00
   0.4401001973714759E+00
   0.5282987798160429E+00
   0.5807280091309138E+00
   0.3397138305705279E+00
   0.4812261743862741E+00
   0.5510167992043213E+00
   0.4924432595282077E+00
   0.3108744686833381E+00
   0.5051822100764425E+00
   0.5043571437521150E+00
   0.5129608760120201E+00
   0.5385848699504113E+00
   0.3519685473608701E+00
   0.3560462905345099E+00
   0.3308150878064686E+00
   0.5084554655416712E+00
   0.5125571461050034E+00
   0.5314307718512634E+00
   0.5857979162621116E+00
   0.4640826143389186E+00
   0.3627235868030338E+00
SCALARS v double 1
LOOKUP_TABLE default
   0.0000000000000000E+00
   0.0000000000000000E+00
   0.0000000000000000E+00
   0.0000000000000000E+00
   0.0000000000000000E+00
   0.0000000000000000E+00
   0.0000000000000000E+00
   0.0000000000000000E+00
   0.0000000000000000E+00
   0.0000000000000000E+00
   0.0000000000000000E+00
   0.0000000000000000E+00
   0.0000000000000000E+00
   0.0000000000000000E+00
   0.0000000000000000E+00
   0.0000000000000000E+00
   0.0000000000000000E+00
   0.0000000000000000E+00
   0.0000000000000000E+00
   0.0000000000000000E+00
   0.0000000000000000E+00
   0.0000000000000000E+00
   0.0000000000000000E+00
   0.0000000000000000E+00
   0.0000000000000000E+00
   0.0000000000000000E+00
   0.0000000000000000E+00
   0.0000000000000000E+00
   0.0000000000000000E+00
   0.0000000000000000E+00
   0.0000000000000000E+00
   0.0000000000000000E+00
   0.0000000000000000E+00
   0.0000000000000000E+00
   0.0000000000000000E+00
   0.0000000000000000E+00
   0.0000000000000000E+00
   0.0000000000000000E+00
   0.0000000000000000E+00
   0.0000000000000000E+00
   0.0000000000000000E+00
   0.0000000000000000E+00
   0.0000000000000000E+00
   0.0000000000000000E+00
   0.0000000000000000E+00
   0.0000000000000000E+00
   0.0000000000000000E+00
   0.0000000000000000E+00
   0.0000000000000000E+00
   0.0000000000000000E+00
   0.0000000000000000E+00
   0.0000000000000000E+00
   0.0000000000000000E+00
   0.0000000000000000E+00
   0.0000000000000000E+00
   0.0000000000000000E+00
   0.0000000000000000E+00
   0.0000000000000000E+00
   0.0000000000000000E+00
   0.0000000000000000E+00
   0.0000000000000000E+00
   0.6334717530922589E-03
  -0.1412099351501149E-02
  -0.1391682526167316E-02
   0.0000000000000000E+00
   0.0000000000000000E+00
   0.0000000000000000E+00
   0.0000000000000000E+00
  -0.1867976410890863E-01
   0.2777570859357374E-03
   0.2206620964393693E-02
   0.1490278964934236E-01
  -0.5368587702886900E-02
  -0.6642081580909999E-02
  -0.1142209894985097E-01
   0.4788839393694233E-02
   0.5371999752922910E-03
   0.3195638469840875E-02
   0.1530303962547712E-02
   0.3473816546876987E-02
   0.1704917320232966E-02
  -0.6356075754325142E-02
   0.7681777704613459E-03
   0.4869148588105198E-02
   0.6121840300961082E-03
   0.6959009249002779E-04
  -0.1767233787940494E-03
   0.6082841587088163E-03
   0.0000000000000000E+00
   0.0000000000000000E+00
   0.0000000000000000E+00
   0.0000000000000000E+00
   0.1212937913002926E-03
   0.1423635082860254E-02
  -0.1108799043031102E-02
  -0.9188933318772113E-03
  -0.2101544801424222E-02
  -0.1220496670813580E-02
  -0.8986451180684199E-03
  -0.6448414976948802E-03
  -0.2472691095046438E-04
  -0.5341987849229352E-03
   0.7240121201504888E-03
  -0.1570798967738886E-02
   0.1025650603354661E-03
  -0.1214699807540716E-03
  -0.8743260601506805E-03
  -0.8885260393526036E-03
   0.0000000000000000E+00
   0.0000000000000000E+00
   0.0000000000000000E+00
  -0.1091309721380513E-02
  -0.8502816110823722E-02
   0.1568986109094917E-01
   0.2148691035601656E-03
  -0.1053392377949263E-02
  -0.1673614156408088E-02
  -0.5281082744786857E-02
  -0.1235970306134207E-02
  -0.3701280194721762E-02
  -0.3032656409544811E-02
   0.2127153517001138E-02
   0.2880603632239833E-01
  -0.1724500933865253E-03
  -0.4260464320057119E-02
   0.2498518884523672E-02
   0.9550996016669761E-03
   0.0000000000000000E+00
   0.0000000000000000E+00
   0.0000000000000000E+00
   0.0000000000000000E+00
   0.0000000000000000E+00
   0.0000000000000000E+00
   0.0000000000000000E+00
   0.0000000000000000E+00
   0.0000000000000000E+00
   0.0000000000000000E+00
   0.0000000000000000E+00
   0.0000000000000000E+00
   0.0000000000000000E+00
   0.0000000000000000E+00
   0.0000000000000000E+00
   0.0000000000000000E+00
   0.0000000000000000E+00
   0.4670203003818128E-02
   0.2763278518712361E-02
   0.6893742861647410E-02
   0.5630443885231573E-02
   0.8687057781405213E-02
   0.1244114937510149E-01
   0.4866796268268854E-03
   0.4364182923923318E-02
   0.2406603942925779E-02
   0.2332211734072046E-02
   0.3176374991014373E-02
  -0.1059585690715258E-01
  -0.4893828828459965E-03
   0.6038350481068376E-02
   0.2600382609296640E-02
   0.2269794195354035E-02
   0.3837924770882164E-02
  -0.2020265162429281E-02
   0.9170007552859247E-03
   0.2371045066845003E-02
   0.1154922488049235E-02
   0.2686129904190139E-02
   0.1739854796692207E-02
   0.1798802853525878E-02
   0.8007126297530384E-02
  -0.3375974601224760E-02
   0.5470412488916512E-02
   0.6506733795561012E-04
  -0.3120974734894804E-04
  -0.1328421019955731E-01
  -0.3290557007379244E-02
  -0.3547650874624930E-02
   0.3675146720420681E-02
  -0.3988159630170831E-02
   0.8943894686999105E-03
  -0.2587595446871954E-01
  -0.3070951423239800E-02
   0.4167735798723300E-02
   0.7177103117990617E-03
   0.1825203915970729E-02
   0.4437743691229942E-02
   0.2300337087615009E-02
   0.3389532903936890E-02
   0.5068277757711230E-02
   0.1856652193394310E-02
   0.5820200417210005E-03
  -0.3347061701813055E-03
  -0.4621576581562494E-02
  -0.5498382696172347E-02
   0.4519077838080558E-03
   0.9429304938557353E-03
  -0.7332937369051371E-03
  -0.3869862105710564E-02
  -0.1215989138385963E-02
  -0.3656432899128885E-02
  -0.6898509046977455E-02
  -0.1708648011742138E-02
   0.5357627631345602E-03
  -0.3546519341100369E-03
   0.1111767325872796E-02
  -0.1832588974318573E-02
   0.6956112254858999E-02
  -0.9774615668201791E-02
  -0.1544920297265784E-04
  -0.4080132044846628E-03
   0.2409197787478138E-02
   0.1123359784257313E-02
   0.1298600143591747E-02
  -0.3828999734569724E-02
SCALARS w double 1
LOOKUP_TABLE default
   0.0000000000000000E+00
   0.0000000000000000E+00
   0.0000000000000000E+00
   0.0000000000000000E+00
   0.0000000000000000E+00
   0.0000000000000000E+00
   0.0000000000000000E+00
   0.0000000000000000E+00
   0.0000000000000000E+00
   0.0000000000000000E+00
   0.0000000000000000E+00
   0.0000000000000000E+00
   0.0000000000000000E+00
   0.0000000000000000E+00
   0.0000000000000000E+00
   0.0000000000000000E+00
   0.0000000000000000E+00
   0.0000000000000000E+00
   0.0000000000000000E+00
   0.0000000000000000E+00
   0.0000000000000000E+00
   0.0000000000000000E+00
   0.0000000000000000E+00
   0.0000000000000000E+00
   0.0000000000000000E+00
   0.0000000000000000E+00
   0.0000000000000000E+00
   0.0000000000000000E+00
   0.0000000000000000E+00
   0.0000000000000000E+00
   0.0000000000000000E+00
   0.0000000000000000E+00
   0.0000000000000000E+00
  -0.1144740562376984E+00
  -0.5028453532830279E-01
  -0.2218640858103465E-02
   0.5066012536248354E-02
  -0.6957827900917388E-03
  -0.6076429356191285E-03
   0.5805970752930933E-03
   0.1144806551503702E-02
   0.2440772935549202E-03
   0.3422554441873445E-02
   0.3884463640099603E-01
   0.5360744682236736E-01
  -0.1493573458611656E-02
  -0.2790729688073191E-01
   0.2079825768205290E-02
   0.1059655485595811E-01
   0.8042751116534796E-02
   0.4393891667280857E-01
  -0.4043446391275635E-03
  -0.1058031675543983E-01
  -0.3671507188451063E-02
  -0.2102265075500202E-02
   0.4819683673032459E-03
  -0.4609514525871805E-01
   0.1623617058942950E-01
   0.1240673868461032E-01
   0.2994628184156272E-01
   0.5073335860712951E-02
   0.4321076844677198E-02
   0.4383196361663573E-02
   0.4018271808053354E-02
   0.5466029715673597E-02
  -0.1704996523276456E-03
  -0.4834025216617312E-01
  -0.1122168932284531E+00
  -0.1279822836243566E+00
   0.2784412944534450E-02
   0.1930918219768956E-02
  -0.1150881702639490E+00
  -0.1133080242172393E+00
  -0.1132666425874192E+00
  -0.1072902160072848E+00
  -0.7748709759662172E-01
   0.3027726105650199E-02
  -0.2451876165556043E-01
  -0.2041362676808901E-01
  -0.9927811581740491E-02
   0.5241302141872105E-02
  -0.9129645832979483E-01
  -0.3406073241057303E-01
  -0.9180585559564439E-01
  -0.6776879890000691E-01
   0.1807789433002152E-02
   0.1559385101610343E-02
   0.1426787177988669E-02
   0.2118645175527065E-02
   0.1358292926735341E-02
  -0.1241624849117126E-02
  -0.1475162868411084E-02
   0.1114704028404128E-02
   0.2218157681570514E-02
   0.1202565302640990E-02
  -0.7056317213341124E-04
   0.1919545390315332E-03
   0.8213673457546348E-03
  -0.1576107139867954E-02
  -0.1943020951494394E-02
   0.1965355341803446E-02
  -0.4391145280367785E-04
  -0.4390460263427042E-03
   0.2228744829117294E-02
  -0.1071762538353151E-02
  -0.2024468510847278E-03
  -0.4923332816827529E-03
  -0.1804019615990173E-02
   0.6879534369607930E-01
   0.2330701481444260E-02
  -0.1105205198933378E-02
  -0.7920416460400644E-03
   0.1156184562730794E+00
   0.1039170468508144E+00
  -0.1771013690639789E-02
  -0.4421113818972448E-02
  -0.7493443108963867E-03
  -0.7086036198054213E-02
  -0.2645569757507655E-02
   0.1269924662157200E+00
   0.6360352074779586E-01
   0.2237139416312767E-01
   0.1353419449090412E+00