# vtk DataFile Version 2.0
FUN3D:global_image_vtk
ASCII
DATASET UNSTRUCTURED_GRID
POINTS 213 double
   -0.5474224513932341E-02    0.2504942126394190E+01    0.8082174545946558E-04
    0.1245420076942085E+01    0.2504942126394190E+01    0.1048424397811756E-03
    0.2497696590175246E+01    0.2504942126394190E+01    0.1104836670516155E-03
    0.3750592000233255E+01    0.2504942126394190E+01    0.1364570183033077E-03
    0.5003221893571071E+01    0.2504942126394190E+01    0.9695068127933562E-04
    0.5004677757742074E+01    0.1281291915000810E+01    0.1646229492324435E-03
    0.5004773233274468E+01    0.2775197972855521E-01    0.1907234197311265E-03
    0.5003582221833335E+01   -0.1225852858123609E+01    0.1617086219794760E-03
    0.5001953053139548E+01   -0.2496588894990605E+01    0.1087092303020246E-03
    0.3750349122010979E+01   -0.2496588894990605E+01    0.1468754858291711E-03
    0.2498611963544637E+01   -0.2496588894990605E+01    0.1014099601208533E-03
    0.1247176261514498E+01   -0.2496588894990605E+01    0.1118958363064120E-03
   -0.3383469647257042E-02   -0.2496588894990605E+01    0.8163627401135015E-04
   -0.4256789872823068E-02   -0.1225734173005218E+01    0.3518767580942700E-04
   -0.5251125676180503E-02    0.2619601495781457E-01    0.1043779160786310E-03
   -0.5675101151752501E-02    0.1278222243532943E+01    0.8322057204398891E-04
    0.9003214218042753E+00    0.1608980307788276E+01    0.8747990450662249E-04
    0.3983173228641640E+01   -0.1561211262272914E+01    0.1766748278683982E-03
    0.4035602579399945E+01    0.1486761266123902E+01    0.1716707140765726E-03
    0.1036614706204464E+01   -0.1455625787809896E+01    0.1057334762692690E-03
    0.1094353949894646E+01   -0.2964610398745914E+00    0.1265432745046603E-03
    0.7298409877585051E+00    0.6874691505133093E+00    0.1054287859205953E-03
    0.1617019123574323E+01    0.8553219978658714E+00    0.1534205161194800E-03
    0.2143200653249461E+01   -0.1627127869726393E+01    0.1616130354530042E-03
    0.4088840979733531E+01   -0.4351036111850144E+00    0.2724113113656113E-03
    0.2977917509321158E+01   -0.8334984944120313E+00    0.2255152732820979E-03
    0.3044093744004115E+01   -0.1814360085635074E+01    0.1621866839972406E-03
    0.3427867629125337E+01    0.3813911924692986E+00    0.2945982628245437E-03
    0.4313225907786227E+01    0.5489145452797480E+00    0.2316713640985575E-03
    0.1823033713318359E+01    0.1771265914465662E+01    0.1845256848588524E-03
    0.2806311649539731E+01    0.1358630605766185E+01    0.1947352060658720E-03
    0.1891861854175948E+01   -0.8481303814158653E+00    0.1680436634033643E-03
    0.2268769674873436E+01    0.7723810290059877E-01    0.2076744806884086E-03
    0.5000000000000000E+01    0.2504942126394190E+01    0.1250000000000000E+01
    0.5000000000000000E+01    0.2504942126394190E+01    0.2500000000000000E+01
    0.5000000000000000E+01    0.2504942126394190E+01    0.3750000000000000E+01
    0.5000000000000000E+01    0.2504942126394190E+01    0.5000000000000000E+01
    0.3750000000000000E+01    0.2504942126394190E+01    0.5000000000000000E+01
    0.2500000000000000E+01    0.2504942126394190E+01    0.5000000000000000E+01
    0.1250000000000000E+01    0.2504942126394190E+01    0.5000000000000000E+01
    0.0000000000000000E+00    0.2504942126394190E+01    0.5000000000000000E+01
    0.0000000000000000E+00    0.2504942126394190E+01    0.3750000000000000E+01
    0.0000000000000000E+00    0.2504942126394190E+01    0.2500000000000000E+01
    0.0000000000000000E+00    0.2504942126394190E+01    0.1250000000000000E+01
    0.9588960370041330E+00    0.2504942126394190E+01    0.9696533635487888E+00
    0.3981953152439085E+01    0.2504942126394190E+01    0.4070563994321985E+01
    0.4036122760762200E+01    0.2504942126394190E+01    0.1017568211272029E+01
    0.9637572721099054E+00    0.2504942126394190E+01    0.3973598325914063E+01
    0.1546540225218144E+01    0.2504942126394190E+01    0.2931570546636294E+01
    0.6973799590130858E+00    0.2504942126394190E+01    0.3070320151830090E+01
    0.8903742902443598E+00    0.2504942126394190E+01    0.2056562651419468E+01
    0.2183042038779286E+01    0.2504942126394190E+01    0.3960694659650543E+01
    0.3855845055174099E+01    0.2504942126394190E+01    0.2933250909212706E+01
    0.3152611483942323E+01    0.2504942126394190E+01    0.3637668660448352E+01
    0.3103307439058718E+01    0.2504942126394190E+01    0.4332607953814858E+01
    0.3266711423534804E+01    0.2504942126394190E+01    0.1889657173339802E+01
    0.4232537818765943E+01    0.2504942126394190E+01    0.1918627332177737E+01
    0.1905523024858169E+01    0.2504942126394190E+01    0.7226299060896534E+00
    0.2879768362542398E+01    0.2504942126394190E+01    0.9080952801582606E+00
    0.2012711742463492E+01    0.2504942126394190E+01    0.1767083037712091E+01
    0.2669681670304065E+01    0.2504942126394190E+01    0.2853394772396950E+01
    0.5000000000000000E+01    0.1250000000000000E+01    0.5000000000000000E+01
    0.5000000000000000E+01    0.0000000000000000E+00    0.5000000000000000E+01
    0.5000000000000000E+01   -0.1250000000000000E+01    0.5000000000000000E+01
    0.5000000000000000E+01   -0.2496588894990605E+01    0.5000000000000000E+01
    0.5000000000000000E+01   -0.2496588894990605E+01    0.3750000000000000E+01
    0.5000000000000000E+01   -0.2496588894990605E+01    0.2500000000000000E+01
    0.5000000000000000E+01   -0.2496588894990605E+01    0.1250000000000000E+01
    0.5000000000000000E+01    0.1578994732800803E+01    0.9058375365086910E+00
    0.5000000000000000E+01   -0.1583989954232354E+01    0.3982050490726493E+01
    0.5000000000000000E+01    0.1453322699199022E+01    0.4033849428301197E+01
    0.5000000000000000E+01   -0.1479596339503735E+01    0.1040505887381675E+01
    0.5000000000000000E+01   -0.3227322616384110E+00    0.1099454400140349E+01
    0.5000000000000000E+01    0.6593508822075582E+00    0.7354504170366591E+00
    0.5000000000000000E+01    0.8256214013940779E+00    0.1622302608453282E+01
    0.5000000000000000E+01   -0.1650070333782557E+01    0.2145871574390382E+01
    0.5000000000000000E+01   -0.4612828702537229E+00    0.4086422318222992E+01
    0.5000000000000000E+01   -0.8579242121530853E+00    0.2979540174134984E+01
    0.5000000000000000E+01   -0.1836846154397680E+01    0.3045064261640043E+01
    0.5000000000000000E+01    0.3508002863614053E+00    0.3428197553792836E+01
    0.5000000000000000E+01    0.5185680230613409E+00    0.4309693860063405E+01
    0.5000000000000000E+01    0.1738996113203182E+01    0.1827272193562204E+01
    0.5000000000000000E+01    0.1325493893339706E+01    0.2808563282768077E+01
    0.5000000000000000E+01   -0.8731419609589618E+00    0.1895995683864404E+01
    0.5000000000000000E+01    0.4906150219227333E-01    0.2273179336307740E+01
    0.0000000000000000E+00    0.1250000000000000E+01    0.5000000000000000E+01
    0.0000000000000000E+00    0.0000000000000000E+00    0.5000000000000000E+01
    0.0000000000000000E+00   -0.1250000000000000E+01    0.5000000000000000E+01
    0.0000000000000000E+00   -0.2496588894990605E+01    0.5000000000000000E+01
    0.1250000000000000E+01   -0.2496588894990605E+01    0.5000000000000000E+01
    0.2500000000000000E+01   -0.2496588894990605E+01    0.5000000000000000E+01
    0.3750000000000000E+01   -0.2496588894990605E+01    0.5000000000000000E+01
    0.4042003247744892E+01    0.1558308132739014E+01    0.5000000000000000E+01
    0.9304122287900499E+00   -0.1548001304379777E+01    0.5000000000000000E+01
    0.1037243024609388E+01    0.1462892710085612E+01    0.5000000000000000E+01
    0.3946240828834967E+01   -0.1445243809615570E+01    0.5000000000000000E+01
    0.4092527262848217E+01   -0.3455338993778935E+00    0.5000000000000000E+01
    0.4293103109154542E+01    0.6277660831404320E+00    0.5000000000000000E+01
    0.3241512314643519E+01    0.7429886854239611E+00    0.5000000000000000E+01
    0.2844289952419609E+01   -0.1588117879734118E+01    0.5000000000000000E+01
    0.7159905765450471E+00   -0.6002320124191652E+00    0.5000000000000000E+01
    0.1754341919796891E+01   -0.7398147869923652E+00    0.5000000000000000E+01
    0.1870296826774691E+01   -0.1788622905643739E+01    0.5000000000000000E+01
    0.9220614901912976E+00    0.3083720183248586E+00    0.5000000000000000E+01
    0.3101523624086016E+01    0.1777901774806180E+01    0.5000000000000000E+01
    0.2192512063922564E+01    0.1576861561598471E+01    0.5000000000000000E+01
    0.2024793420196460E+01    0.4773861992750707E+00    0.5000000000000000E+01
    0.2990627757741975E+01   -0.4878110785814084E+00    0.5000000000000000E+01
    0.0000000000000000E+00   -0.2496588894990605E+01    0.1250000000000000E+01
    0.0000000000000000E+00   -0.2496588894990605E+01    0.2500000000000000E+01
    0.0000000000000000E+00   -0.2496588894990605E+01    0.3750000000000000E+01
    0.0000000000000000E+00    0.1558308132739014E+01    0.4042003247744892E+01
    0.0000000000000000E+00   -0.1548001304379777E+01    0.9304122287900499E+00
    0.0000000000000000E+00    0.1462892710085612E+01    0.1037243024609388E+01
    0.0000000000000000E+00   -0.1445243809615570E+01    0.3946240828834967E+01
    0.0000000000000000E+00   -0.3455338993778935E+00    0.4092527262848217E+01
    0.0000000000000000E+00    0.6277660831404320E+00    0.4293103109154542E+01
    0.0000000000000000E+00    0.7429886854239611E+00    0.3241512314643519E+01
    0.0000000000000000E+00   -0.1588117879734118E+01    0.2844289952419609E+01
    0.0000000000000000E+00   -0.6002320124191652E+00    0.7159905765450471E+00
    0.0000000000000000E+00   -0.7398147869923652E+00    0.1754341919796891E+01
    0.0000000000000000E+00   -0.1788622905643739E+01    0.1870296826774691E+01
    0.0000000000000000E+00    0.3083720183248586E+00    0.9220614901912976E+00
    0.0000000000000000E+00    0.1777901774806180E+01    0.3101523624086016E+01
    0.0000000000000000E+00    0.1576861561598471E+01    0.2192512063922564E+01
[...]
POINT_DATA 213
SCALARS rho double 1
LOOKUP_TABLE default
   0.1219599914189255E+01
   0.9221793491665122E+00
   0.9104474822987541E+00
   0.8966771457168708E+00
   0.7819496900393235E+00
   0.7116573433411224E+00
   0.6990708507059059E+00
   0.7029541861734585E+00
   0.7687355536908187E+00
   0.8895234644381312E+00
   0.8987462916838046E+00
   0.9249601142909440E+00
   0.1300246595930112E+01
   0.1348040166132192E+01
   0.1456337760932284E+01
   0.1286719296760837E+01
   0.9619641241786958E+00
   0.9047653518857006E+00
   0.8972304869258168E+00
   0.9249193406723998E+00
   0.9126331044323072E+00
   0.9866005768993422E+00
   0.8974307770570075E+00
   0.8999716766165199E+00
   0.9067475239421439E+00
   0.9112478503249873E+00
   0.8943866126819724E+00
   0.9125851704740935E+00
   0.8902529400378884E+00
   0.9018651818568181E+00
   0.9063597216412070E+00
   0.8623950734788364E+00
   0.9078066153227793E+00
   0.9506865031692177E+00
   0.1008490246636833E+01
   0.1006977526742894E+01
   0.1000142873207487E+01
   0.1000491164342072E+01
   0.1001010308528961E+01
   0.1002467377484753E+01
   0.1001944835394033E+01
   0.1004885962560429E+01
   0.1016625195693720E+01
   0.1058313354115464E+01
   0.1005436822929098E+01
   0.1000007775695408E+01
   0.9457761799150597E+00
   0.1002042167857191E+01
   0.9982828292646120E+00
   0.1004492415319983E+01
   0.1005371530280667E+01
   0.9993111768447770E+00
   0.9977999008600468E+00
   0.9988039150987069E+00
   0.9987215976095241E+00
   0.9780925319764954E+00
   0.9796710210289572E+00
   0.9639502175511959E+00
   0.9601325858116233E+00
   0.9867987686942684E+00
   0.9922399865215545E+00
   0.1000340060599879E+01
   0.1000539169317892E+01
   0.1000668655111755E+01
   0.9998256692164679E+00
   0.1009783142012691E+01
   0.1007174154845464E+01
   0.9448360575679949E+00
   0.9034591635883760E+00
   0.1007039744407829E+01
   0.1004193338858769E+01
   0.8965165191542108E+00
   0.8926684449257489E+00
   0.8470448365458270E+00
   0.9708420717832310E+00
   0.1000201864942901E+01
   0.1006091567490832E+01
   0.1015640007646360E+01
   0.1012987790112422E+01
   0.1012862135117111E+01
   0.1005118607681736E+01
   0.9863616582602217E+00
   0.1006593111988686E+01
   0.9849760708741763E+00
   0.1008140095944266E+01
   0.1001902534184756E+01
   0.1000777852643536E+01
   0.1001300637075555E+01
   0.1001843113646944E+01
   0.1002349006733295E+01
   0.1000287190150350E+01
   0.1000191525159307E+01
   0.9997725200027616E+00
   0.1001746451862097E+01
   0.1001907806634504E+01
   0.9986511370391368E+00
   0.9995346385574339E+00
   0.9999207826402863E+00
   0.1000198528354892E+01
   0.1000442975062572E+01
   0.1001058903624243E+01
   0.1001457969730809E+01
   0.1001331800052912E+01
   0.1001525898753477E+01
   0.1000860714176516E+01
   0.1001344115686783E+01
   0.1001108517854070E+01
   0.1000543620378868E+01
   0.1060181102426949E+01
   0.1020434703550049E+01
   0.1005937317964912E+01
   0.1003463835541675E+01
   0.1142066882886251E+01
   0.1083370412807125E+01
   0.1004378451090633E+01
   0.1003909050616967E+01
   0.1003789676213799E+01
   0.1006675370225154E+01
   0.1012240472471559E+01
   0.1193114778152186E+01
   0.1028000905766133E+01
   0.1034785182187633E+01
   0.1169417144180368E+01
   0.1009874360358355E+01
   0.1023546057294719E+01
   0.1017121845360483E+01
   0.1007874858233851E+01
   0.1013904282945968E+01
   0.1000120928443964E+01
   0.9442373537584656E+00
   0.1003512127784513E+01
   0.9988675055618147E+00
   0.1006433237388434E+01
   0.1009136798599713E+01
   0.9979419655112463E+00
   0.9977847306682134E+00
   0.9961675976682354E+00
   0.9984779646732865E+00
   0.9810173274471800E+00
   0.9780875767663022E+00
   0.9479695676647548E+00
   0.9505423421990320E+00
   0.9877991139264740E+00
   0.9899199458057057E+00
   0.9925443548006232E+00
   0.9998149496893011E+00
   0.9986042962775342E+00
   0.9946495222502127E+00
   0.1006783164563130E+01
   0.1021195700036564E+01
   0.9979992133946977E+00
   0.1004785875891814E+01
   0.1001443200570450E+01
   0.1004869898903963E+01
   0.9952898187006259E+00
   0.9853957300675709E+00
   0.1000226138725804E+01
   0.9938930203654611E+00
   0.9819631359969434E+00
   0.9943513140594364E+00
   0.9968774720481693E+00
   0.9937156622699658E+00
   0.9987031762138980E+00
   0.1000033419467210E+01
   0.9996686816808267E+00
   0.9958480526739583E+00
   0.9933618283332967E+00
   0.1001379815094557E+01
   0.1018342489482028E+01
   0.1002761126639981E+01
   0.9806466174245860E+00
   0.1001874230080632E+01
   0.1008205710104493E+01
   0.9702345724969753E+00
   0.9431323614243323E+00
   0.9846785580150049E+00
   0.9843645382557584E+00
   0.9754694834138705E+00
   0.9908379887532270E+00
   0.9779132530621345E+00
   0.1033958328894845E+01
   0.1021656659540639E+01
   0.1000033072518507E+01
   0.9991734613632671E+00
   0.9919053095598380E+00
   0.9907247521685560E+00
   0.9574009940263747E+00
   0.9930505243916902E+00
   0.1006289253019425E+01
   0.1002044004140652E+01
   0.9896476712615595E+00
   0.9652798881411577E+00
   0.9203409515156047E+00
   0.9724365485150015E+00
   0.9781835373897719E+00
   0.9559726773006519E+00
   0.9617642548252368E+00
   0.9490309583806789E+00
   0.9366913568666103E+00
   0.9303106762456028E+00
   0.9992917625989302E+00
   0.9994620494202427E+00
   0.9988026391478634E+00
   0.1002017145285906E+01
   0.9391472718720590E+00
   0.9239060998600425E+00
   0.9359221490800386E+00
   0.9984142220426491E+00
   0.9983447803117808E+00
   0.1000450565741277E+01
   0.9793848617314386E+00
   0.9713544165395663E+00
   0.9447099768224373E+00
SCALARS u double 1
LOOKUP_TABLE default
   0.0000000000000000E+00
   0.0000000000000000E+00
   0.0000000000000000E+00
   0.0000000000000000E+00
   0.0000000000000000E+00
   0.0000000000000000E+00
   0.0000000000000000E+00
   0.0000000000000000E+00
   0.0000000000000000E+00
   0.0000000000000000E+00
   0.0000000000000000E+00
   0.0000000000000000E+00
   0.0000000000000000E+00
   0.0000000000000000E+00
   0.0000000000000000E+00
   0.0000000000000000E+00
   0.0000000000000000E+00
   0.0000000000000000E+00
   0.0000000000000000E+00
   0.0000000000000000E+00
   0.0000000000000000E+00
   0.0000000000000000E+00
   0.0000000000000000E+00
   0.0000000000000000E+00
   0.0000000000000000E+00
   0.0000000000000000E+00
   0.0000000000000000E+00
   0.0000000000000000E+00
   0.0000000000000000E+00
   0.0000000000000000E+00
   0.0000000000000000E+00
   0.0000000000000000E+00
   0.0000000000000000E+00
   0.5044603201679930E+00
   0.5290128762223852E+00
   0.5144844572506383E+00
   0.4932261965338724E+00
   0.4881008667985772E+00
   0.4912134900457429E+00
   0.4932025178090483E+00
   0.4982366717193430E+00
   0.4935757024908218E+00
   0.4788818233297976E+00
   0.4518342705339375E+00
   0.4750762728568445E+00
   0.5097822957496280E+00
   0.4511923678581297E+00
   0.4980813829241135E+00
   0.5232696126168316E+00
   0.4995199631244540E+00
   0.5239977842802950E+00
   0.5062466531123232E+00
   0.5621722953221563E+00
   0.5246981280052375E+00
   0.5014430303894809E+00
   0.5724413309218986E+00
   0.5706991025880693E+00
   0.3697808374300018E+00
   0.4030354903711487E+00
   0.5559041008491100E+00
   0.5550073918626153E+00
   0.4941853958470492E+00
   0.4946210997037933E+00
   0.4922531444420967E+00
   0.4916944476054517E+00
   0.5126221441455363E+00
   0.5320038609841545E+00
   0.5051849212795675E+00
   0.4700258006843245E+00
   0.5096970973116342E+00
   0.5089650906034598E+00
   0.4955092941123129E+00
   0.5091185799757014E+00
   0.4859971796999858E+00
   0.5290202579984453E+00
   0.5276941396354462E+00
   0.5095392036391860E+00
   0.5265026157527506E+00
   0.5255843044043071E+00
   0.5249271117232813E+00
   0.5039111756390044E+00
   0.5284458827906446E+00
   0.5353835283626222E+00
   0.5371548096081742E+00
   0.5324041670762252E+00
   0.4987536922349258E+00
   0.4995695911253126E+00
   0.4985677574763603E+00
   0.4978565953095206E+00
   0.4945362053697336E+00
   0.4946345160602529E+00
   0.4894888957378708E+00
   0.4881819543739080E+00
   0.4965709537838815E+00
   0.4946581100210676E+00
   0.4860572058681615E+00
   0.4896775414732246E+00
   0.4900369859255040E+00
   0.4911741526000846E+00
   0.4926134315593906E+00
   0.4981833695985173E+00
   0.4946278605384725E+00
   0.4948388641161044E+00
   0.4976375616812110E+00
   0.4907922923037226E+00
   0.4936008571935840E+00
   0.4927611444816297E+00
   0.4920479536354194E+00
   0.4513300419570286E+00
   0.4773811499797087E+00
   0.4929577964984292E+00
   0.4922012626687706E+00
   0.4645173747551100E+00
   0.4729118859683683E+00
   0.4915210731245946E+00
   0.4906744152389265E+00
   0.4940154242357477E+00
   0.4854930447498744E+00
   0.4731448758483636E+00
   0.4017685502137051E+00
   0.4925808328935291E+00
   0.4586091345384014E+00
   0.4595049275622577E+00
   0.4895105257022351E+00
   0.4701585883941801E+00
   0.4742237551573250E+00
   0.4816345199415418E+00
   0.4809632347959570E+00
   0.5081992632395795E+00
   0.4436621098142688E+00
   0.4960918337505432E+00
   0.5314784273465496E+00
   0.4949808501138590E+00
   0.5219301121015955E+00
   0.5081306655508528E+00
   0.5664007082797895E+00
   0.5269157427946221E+00
   0.5035398737738342E+00
   0.5834529966061262E+00
   0.5720232849637863E+00
   0.3408862438627240E+00
   0.3851957452062110E+00
   0.5717593884356068E+00
   0.5645094700722564E+00
   0.5689242404154656E+00
   0.5291697704353238E+00
   0.5449156787872214E+00
   0.5701879366630532E+00
   0.5404098439230099E+00
   0.5487778679046923E+00
   0.5790107851625785E+00
   0.4955237282993825E+00
   0.5064967083541673E+00
   0.4994485709686114E+00
   0.5533093281161915E+00
   0.4597902544624435E+00
   0.4983754161701593E+00
   0.5489763571250925E+00
   0.5894373127603283E+00
   0.5821699667477150E+00
   0.5457064038077883E+00
   0.5785144199876928E+00
   0.5122045231031088E+00
   0.5055089388466643E+00
   0.5048992660449333E+00
   0.5645297390529393E+00
   0.5552268620955154E+00
   0.4977584703798872E+00
   0.5488209334398703E+00
   0.5486891708434892E+00
   0.5643387409315337E+00
   0.4955123332267460E+00
   0.4958799393440642E+00
   0.3908415749808661E+00
   0.3725912419992247E+00
   0.5584898457040509E+00
   0.5739392207440065E+00
   0.4177438669542905E+00
   0.5813081851738638E+00
   0.4186001418136723E+00
   0.5391904807379967E+00
   0.4993241871141145E+00
   0.5113879100961549E+00
   0.5070199287956186E+00
   0.5732637109102424E+00
   0.5857707048040194E+00
   0.5448200554388619E+00
   0.5657061641269816E+00
   0.5320323418389133E+00
   0.5310315076785317E+00
   0.5561914038015212E+00
   0.5552155415722031E+00
   0.4400995408510180E+00
   0.5282987129816540E+00
   0.5807277194883813E+00
   0.3397142618495129E+00
   0.4812259992805108E+00
   0.5510167361461440E+00
   0.4924431696136226E+00
   0.3108747347694155E+00
   0.5051824711476766E+00
   0.5043575167196743E+00
   0.5129617820647362E+00
   0.5385861698393289E+00
   0.3519685575131777E+00
   0.3560469427089474E+00
   0.3308150986445657E+00
   0.5084565991423313E+00
   0.5125589764256965E+00
   0.5314315736276461E+00
   0.5857977195200601E+00
   0.4640827338463865E+00
   0.3627241638956729E+00
SCALARS v double 1
LOOKUP_TABLE default
   0.0000000000000000E+00
   0.0000000000000000E+00
   0.0000000000000000E+00
   0.0000000000000000E+00
   0.0000000000000000E+00
   0.0000000000000000E+00
   0.0000000000000000E+00
   0.0000000000000000E+00
   0.0000000000000000E+00
   0.0000000000000000E+00
   0.0000000000000000E+00
   0.0000000000000000E+00
   0.0000000000000000E+00
   0.0000000000000000E+00
   0.0000000000000000E+00
   0.0000000000000000E+00
   0.0000000000000000E+00
   0.0000000000000000E+00
   0.0000000000000000E+00
   0.0000000000000000E+00
   0.0000000000000000E+00
   0.0000000000000000E+00
   0.0000000000000000E+00
   0.0000000000000000E+00
   0.0000000000000000E+00
   0.0000000000000000E+00
   0.0000000000000000E+00
   0.0000000000000000E+00
   0.0000000000000000E+00
   0.0000000000000000E+00
   0.0000000000000000E+00
   0.0000000000000000E+00
   0.0000000000000000E+00
   0.0000000000000000E+00
   0.0000000000000000E+00
   0.0000000000000000E+00
   0.0000000000000000E+00
   0.0000000000000000E+00
   0.0000000000000000E+00
   0.0000000000000000E+00
   0.0000000000000000E+00
   0.0000000000000000E+00
   0.0000000000000000E+00
   0.0000000000000000E+00
   0.0000000000000000E+00
   0.0000000000000000E+00
   0.0000000000000000E+00
   0.0000000000000000E+00
   0.0000000000000000E+00
   0.0000000000000000E+00
   0.0000000000000000E+00
   0.0000000000000000E+00
   0.0000000000000000E+00
   0.0000000000000000E+00
   0.0000000000000000E+00
   0.0000000000000000E+00
   0.0000000000000000E+00
   0.0000000000000000E+00
   0.0000000000000000E+00
   0.0000000000000000E+00
   0.0000000000000000E+00
   0.6337730331378015E-03
  -0.1411919411193662E-02
  -0.1391524759987691E-02
   0.0000000000000000E+00
   0.0000000000000000E+00
   0.0000000000000000E+00
   0.0000000000000000E+00
  -0.1868135988765348E-01
   0.2783539500859518E-03
   0.2206862384164199E-02
   0.1490233712277481E-01
  -0.5369023675453347E-02
  -0.6642924843804339E-02
  -0.1142251100558172E-01
   0.4788761991310444E-02
   0.5377077999379706E-03
   0.3195911703167329E-02
   0.1530570575583074E-02
   0.3474612429435319E-02
   0.1705575942636813E-02
  -0.6356751067660583E-02
   0.7685440022193984E-03
   0.4868932733149900E-02
   0.6125235051763201E-03
   0.6956971314087014E-04
  -0.1767535375475160E-03
   0.6083370120118887E-03
   0.0000000000000000E+00
   0.0000000000000000E+00
   0.0000000000000000E+00
   0.0000000000000000E+00
   0.1205248122324319E-03
   0.1423798394317777E-02
  -0.1108550207196779E-02
  -0.9182252455405342E-03
  -0.2100775524480991E-02
  -0.1220490849632048E-02
  -0.8986711510538823E-03
  -0.6442348221023589E-03
  -0.2482898375873923E-04
  -0.5337647572034722E-03
   0.7240678092286905E-03
  -0.1570748670037449E-02
   0.1017352178178282E-03
  -0.1216354497457441E-03
  -0.8740159220028636E-03
  -0.8874769687982103E-03
   0.0000000000000000E+00
   0.0000000000000000E+00
   0.0000000000000000E+00
  -0.1091286750553582E-02
  -0.8502822628902267E-02
   0.1568995981337468E-01
   0.2148761648281125E-03
  -0.1053475078493766E-02
  -0.1673632386715850E-02
  -0.5281127312640986E-02
  -0.1236010448680201E-02
  -0.3701406361713952E-02
  -0.3032781426013752E-02
   0.2127160527582456E-02
   0.2880601370338397E-01
  -0.1724407582214473E-03
  -0.4260511774107987E-02
   0.2498433515240637E-02
   0.9550984741467298E-03
   0.0000000000000000E+00
   0.0000000000000000E+00
   0.0000000000000000E+00
   0.0000000000000000E+00
   0.0000000000000000E+00
   0.0000000000000000E+00
   0.0000000000000000E+00
   0.0000000000000000E+00
   0.0000000000000000E+00
   0.0000000000000000E+00
   0.0000000000000000E+00
   0.0000000000000000E+00
   0.0000000000000000E+00
   0.0000000000000000E+00
   0.0000000000000000E+00
   0.0000000000000000E+00
   0.0000000000000000E+00
   0.4670179824518062E-02
   0.2763153522385420E-02
   0.6893727396652971E-02
   0.5630427171579346E-02
   0.8687033389401137E-02
   0.1244117833271245E-01
   0.4867091013223675E-03
   0.4364141808965202E-02
   0.2406680849452210E-02
   0.2332163070018631E-02
   0.3176374179861855E-02
  -0.1059591410786687E-01
  -0.4894332819780880E-03
   0.6038518757087594E-02
   0.2600486180769066E-02
   0.2269803636731787E-02
   0.3838217425389325E-02
  -0.2019969918129232E-02
   0.9172001192348306E-03
   0.2371361448179378E-02
   0.1154838666554023E-02
   0.2686502019736246E-02
   0.1739805552241549E-02
   0.1798854282908590E-02
   0.8007125066755454E-02
  -0.3375943154518102E-02
   0.5470477566028181E-02
   0.6502963943507569E-04
  -0.3127825708177000E-04
  -0.1328430530077581E-01
  -0.3290484435697483E-02
  -0.3547540832579210E-02
   0.3675146573393897E-02
  -0.3988246879105233E-02
   0.8944134138688737E-03
  -0.2587602593238027E-01
  -0.3070935595960517E-02
   0.4167802431339845E-02
   0.7182358143565547E-03
   0.1825455947699964E-02
   0.4437790305419765E-02
   0.2300132368112804E-02
   0.3389426659571934E-02
   0.5068161797701714E-02
   0.1856841893207933E-02
   0.5822273587285823E-03
  -0.3350000631508141E-03
  -0.4621941135609878E-02
  -0.5499075892144717E-02
   0.4519080072003191E-03
   0.9429733389882785E-03
  -0.7329139020683753E-03
  -0.3869619699581276E-02
  -0.1215937636299825E-02
  -0.3656654694096668E-02
  -0.6898510369604550E-02
  -0.1708886719094872E-02
   0.5358009891305765E-03
  -0.3542144027444751E-03
   0.1112243050607318E-02
  -0.1833014869546778E-02
   0.6955669675010386E-02
  -0.9774621665556637E-02
  -0.1547729792589644E-04
  -0.4081580610409912E-03
   0.2409301191081695E-02
   0.1123358765425397E-02
   0.1298722783388482E-02
  -0.3829083541088755E-02
SCALARS w double 1
LOOKUP_TABLE default
   0.0000000000000000E+00
   0.0000000000000000E+00
   0.0000000000000000E+00
   0.0000000000000000E+00
   0.0000000000000000E+00
   0.0000000000000000E+00
   0.0000000000000000E+00
   0.0000000000000000E+00
   0.0000000000000000E+00
   0.0000000000000000E+00
   0.0000000000000000E+00
   0.0000000000000000E+00
   0.0000000000000000E+00
   0.0000000000000000E+00
   0.0000000000000000E+00
   0.0000000000000000E+00
   0.0000000000000000E+00
   0.0000000000000000E+00
   0.0000000000000000E+00
   0.0000000000000000E+00
   0.0000000000000000E+00
   0.0000000000000000E+00
   0.0000000000000000E+00
   0.0000000000000000E+00
   0.0000000000000000E+00
   0.0000000000000000E+00
   0.0000000000000000E+00
   0.0000000000000000E+00
   0.0000000000000000E+00
   0.0000000000000000E+00
   0.0000000000000000E+00
   0.0000000000000000E+00
   0.0000000000000000E+00
  -0.1144729977221848E+00
  -0.5028393861249219E-01
  -0.2217460308518376E-02
   0.5068480693765521E-02
  -0.6989844386321084E-03
  -0.6080773208590635E-03
   0.5801761492324280E-03
   0.1144504704260518E-02
   0.2438729293133525E-03
   0.3422505035933033E-02
   0.3884477682240927E-01
   0.5360745543730108E-01
  -0.1493416723429709E-02
  -0.2790783628685840E-01
   0.2079714897128314E-02
   0.1059661572426227E-01
   0.8042672448445580E-02
   0.4393891157420822E-01
  -0.4043560663779917E-03
  -0.1057991521448628E-01
  -0.3671034736368828E-02
  -0.2102296498951734E-02
   0.4819690082470342E-03
  -0.4609476644166768E-01
   0.1623617101726776E-01
   0.1240664963019199E-01
   0.2994630279166451E-01
   0.5073528371382278E-02
   0.4323759108496067E-02
   0.4383880381815924E-02
   0.4018483913487430E-02
   0.5466821413285706E-02
  -0.1695575426526518E-03
  -0.4834042725530477E-01
  -0.1122165367785934E+00
  -0.1279820102731978E+00
   0.2785289254677356E-02
   0.1932981635619688E-02
  -0.1150876414434360E+00
  -0.1133072652047654E+00
  -0.1132661192364470E+00
  -0.1072893660823745E+00
  -0.7748701026956334E-01
   0.3028341167884617E-02
  -0.2451871561963644E-01
  -0.2041354897406027E-01
  -0.9927611584498309E-02
   0.5242902789825081E-02
  -0.9129553389328394E-01
  -0.3406046779000098E-01
  -0.9180537356470568E-01
  -0.6776851339063888E-01
   0.1807697876935372E-02
   0.1559390707530221E-02
   0.1426789123783686E-02
   0.2118265020589766E-02
   0.1358035460095416E-02
  -0.1241894914893570E-02
  -0.1476788426683737E-02
   0.1116367172335826E-02
   0.2217972888049951E-02
   0.1202551971399364E-02
  -0.7230257498700087E-04
   0.1902603070804048E-03
   0.8225078739954428E-03
  -0.1577487846869885E-02
  -0.1943929724525808E-02
   0.1965319070403941E-02
  -0.4375172346642568E-04
  -0.4392711292982740E-03
   0.2228678284676588E-02
  -0.1073287499950259E-02
  -0.2019422216233325E-03
  -0.4920072505334038E-03
  -0.1804796478094587E-02
   0.6879507319992161E-01
   0.2330719397982173E-02
  -0.1105292175401216E-02
  -0.7921885278631111E-03
   0.1156184061050135E+00
   0.1039169096106839E+00
  -0.1770929838914555E-02
  -0.4421260566098423E-02
  -0.7494665902083907E-03
  -0.7086052185844213E-02
  -0.2645476292001029E-02
   0.1269924732711253E+00
   0.6360345791989866E-01
   0.2237148153176924E-01
   0.1353419301973591E+00