title="tecplot geometry and solution file"
variables = x y z rho u v w p mach temperature
zone t="boundary 1 bc-1", solutiontime= 0.5000000E+02, strandid=1001, i=32, j=46, f=feblock
 -0.547422451393E-02  0.000000000000E+00 -0.567510115175E-02  0.000000000000E+00  0.000000000000E+00  0.000000000000E+00 -0.525112567618E-02
 -0.425678987282E-02  0.000000000000E+00  0.000000000000E+00  0.000000000000E+00  0.000000000000E+00  0.000000000000E+00  0.000000000000E+00
  0.000000000000E+00  0.000000000000E+00 -0.338346964726E-02  0.000000000000E+00  0.000000000000E+00  0.000000000000E+00  0.000000000000E+00
  0.000000000000E+00  0.000000000000E+00  0.000000000000E+00  0.000000000000E+00  0.000000000000E+00  0.000000000000E+00  0.000000000000E+00
  0.000000000000E+00  0.000000000000E+00  0.000000000000E+00  0.000000000000E+00
  0.250494212639E+01  0.250494212639E+01  0.127822224353E+01  0.146289271009E+01  0.157686156160E+01  0.308372018325E+00  0.261960149578E-01
 -0.122573417301E+01 -0.600232012419E+00  0.250494212639E+01  0.477386199275E+00  0.742988685424E+00 -0.739814786992E+00  0.177790177481E+01
  0.155830813274E+01  0.250494212639E+01 -0.249658889499E+01 -0.154800130438E+01 -0.487811078581E+00  0.250494212639E+01  0.627766083140E+00
 -0.345533899378E+00 -0.178862290564E+01 -0.158811787973E+01  0.125000000000E+01 -0.249658889499E+01 -0.144524380962E+01  0.000000000000E+00
 -0.125000000000E+01 -0.249658889499E+01 -0.249658889499E+01 -0.249658889499E+01
  0.808217454595E-04  0.125000000000E+01  0.832205720440E-04  0.103724302461E+01  0.219251206392E+01  0.922061490191E+00  0.104377916079E-03
  0.351876758094E-04  0.715990576545E+00  0.250000000000E+01  0.202479342020E+01  0.324151231464E+01  0.175434191980E+01  0.310152362409E+01
  0.404200324774E+01  0.375000000000E+01  0.816362740114E-04  0.930412228790E+00  0.299062775774E+01  0.500000000000E+01  0.429310310915E+01
  0.409252726285E+01  0.187029682677E+01  0.284428995242E+01  0.500000000000E+01  0.125000000000E+01  0.394624082883E+01  0.500000000000E+01
  0.500000000000E+01  0.250000000000E+01  0.375000000000E+01  0.500000000000E+01
  0.121959985182E+01  0.105831356562E+01  0.128671927349E+01  0.108337053495E+01  0.102354614682E+01  0.116941718405E+01  0.145633782371E+01
  0.134804032328E+01  0.119311480325E+01  0.101662522358E+01  0.101712196454E+01  0.100667542999E+01  0.102800079382E+01  0.100987438433E+01
  0.100346383175E+01  0.100488609558E+01  0.130024658854E+01  0.114206739796E+01  0.100787501901E+01  0.100194476366E+01  0.100378959999E+01
  0.100390910150E+01  0.103478538478E+01  0.101224063890E+01  0.100190260515E+01  0.106018061219E+01  0.100437851594E+01  0.100077796142E+01
  0.100130067680E+01  0.102043485612E+01  0.100593736563E+01  0.100184292213E+01
  0.000000000000E+00  0.451834048578E+00  0.000000000000E+00  0.472912036017E+00  0.470158330992E+00  0.459504947535E+00  0.000000000000E+00
  0.000000000000E+00  0.401768555126E+00  0.478881792244E+00  0.474223482942E+00  0.485492996401E+00  0.492581079508E+00  0.489510446396E+00
  0.492201648571E+00  0.493575544766E+00  0.000000000000E+00  0.464516490302E+00  0.481634322095E+00  0.498235963185E+00  0.494015373758E+00
  0.490674199043E+00  0.458608928389E+00  0.473144547130E+00  0.498753317115E+00  0.451330942099E+00  0.491521106265E+00  0.499569338793E+00
  0.498567815555E+00  0.477380958318E+00  0.492957761086E+00  0.497856403295E+00
  0.000000000000E+00  0.000000000000E+00  0.000000000000E+00  0.156898611588E-01 -0.426046433851E-02  0.288060363399E-01  0.000000000000E+00
  0.000000000000E+00 -0.370128033466E-02  0.000000000000E+00  0.249851893900E-02 -0.528108267705E-02 -0.303265651205E-02 -0.172450087152E-03
 -0.109130976482E-02  0.000000000000E+00  0.000000000000E+00 -0.850281596613E-02  0.955099635111E-03  0.000000000000E+00 -0.167361431241E-02
 -0.105339252865E-02  0.212715353730E-02 -0.123597042405E-02  0.695900323417E-04  0.000000000000E+00  0.214869093501E-03 -0.176723406189E-03
  0.608284209626E-03  0.000000000000E+00  0.000000000000E+00  0.000000000000E+00
  0.000000000000E+00  0.388446363762E-01  0.000000000000E+00  0.103917046893E+00  0.224193213791E-01  0.135341944960E+00  0.000000000000E+00
  0.000000000000E+00  0.126992466214E+00  0.342255441164E-02  0.213553812340E-01 -0.708603617361E-02  0.636035207183E-01  0.292766422531E-02
 -0.792041485712E-03  0.244077212196E-03  0.000000000000E+00  0.115618456286E+00 -0.829814616532E-02  0.114480671923E-02 -0.749344338824E-03
 -0.442111394284E-02  0.223713942151E-01 -0.264556971331E-02  0.180778934686E-02  0.687953429859E-01 -0.177101353702E-02  0.155938504336E-02
  0.142678738422E-02  0.233070143916E-02 -0.110520528504E-02  0.211864497155E-02
  0.908102208106E+00  0.774899697111E+00  0.958078677799E+00  0.800622225897E+00  0.737949074458E+00  0.857914928990E+00  0.108437500340E+01
  0.100373773608E+01  0.887196026754E+00  0.730580347494E+00  0.733315357069E+00  0.720299334919E+00  0.748106702604E+00  0.724222064948E+00
  0.717576384212E+00  0.719224735723E+00  0.968150985243E+00  0.840784360894E+00  0.722225755448E+00  0.716319886098E+00  0.717948115871E+00
  0.717912571053E+00  0.749168000662E+00  0.726422698016E+00  0.716249843746E+00  0.782033730832E+00  0.718602109290E+00  0.715132536604E+00
  0.715579063372E+00  0.734165587580E+00  0.720297841341E+00  0.716213116834E+00
  0.000000000000E+00  0.447917891127E+00  0.000000000000E+00  0.476275923538E+00  0.468523759763E+00  0.473519704576E+00  0.000000000000E+00
  0.000000000000E+00  0.412988876248E+00  0.477443347108E+00  0.472504652292E+00  0.485153445568E+00  0.492070517204E+00  0.488543841054E+00
  0.491923385619E+00  0.493078174717E+00  0.000000000000E+00  0.471586672646E+00  0.480934095832E+00  0.498012893465E+00  0.493689913334E+00
  0.490409924243E+00  0.456073447089E+00  0.472047034619E+00  0.498545865725E+00  0.449257982272E+00  0.491117576889E+00  0.499470103838E+00
  0.498443303446E+00  0.475665748966E+00  0.492352554695E+00  0.497648493573E+00
  0.104242640687E+01  0.102508331292E+01  0.104242640687E+01  0.103461473254E+01  0.100936211567E+01  0.102707649329E+01  0.104242640687E+01
  0.104242640687E+01  0.104103514102E+01  0.100608608046E+01  0.100935928599E+01  0.100173207654E+01  0.101882157090E+01  0.100399703830E+01
  0.100113916029E+01  0.100201867101E+01  0.104242640687E+01  0.103067306479E+01  0.100321571481E+01  0.100090132402E+01  0.100133271178E+01
  0.100116394799E+01  0.101357751699E+01  0.100469368462E+01  0.100084556731E+01  0.103269877847E+01  0.100165718108E+01  0.100040727298E+01
  0.100050934943E+01  0.100724883754E+01  0.100246497677E+01  0.100085386783E+01
        12        19        11        11
        11         5        12        12
        10        14         5         5
        19        13        11        11
        19        24        13        13
        30        23        24        24
        19        12        22        22
        28        22        21        21
        11        13         6         6
         7         6         9         9
        15        12        14        14
        18        13        23        23
        15        25        21        21
        27        19        22        22
        18         8         9         9
        27        31        24        24
         4        11         6         6
         5        14        12        12
         4         2         5         5
        21        12        15        15
        14        16        15        15
        24        19        27        27
        22        29        27        27
        23        26        18        18
        17         8        18        18
         5        11         4         4
         6         3         4         4
        26        23        30        30
         5         2        10        10
        16        14        10        10
         3         6         7         7
        21        25        28        28
        29        22        28        28
         6        13         9         9
         2         4         1         1
        31        27        32        32
        25        15        20        20
        24        23        13        13
         8         7         9         9
        13        18         9         9
        31        30        24        24
        12        21        22        22
        29        32        27        27
         3         1         4         4
        26        17        18        18
        16        20        15        15
zone t="boundary 2 bc-2", solutiontime= 0.5000000E+02, strandid=1002, i=33, j=48, f=feblock
  0.500195305314E+01  0.375034912201E+01  0.249861196354E+01  0.288036736123E+01  0.124717626151E+01  0.190856778360E+01  0.326577225490E+01
  0.201394899014E+01 -0.338346964726E-02  0.962374705951E+00  0.500000000000E+01  0.403430242703E+01  0.423029585421E+01  0.500000000000E+01
  0.385439203165E+01  0.500000000000E+01  0.398133438873E+01  0.315200091181E+01  0.266958048115E+01  0.154798041552E+01  0.218327865436E+01
  0.893688581177E+00  0.000000000000E+00  0.699009801024E+00  0.964460914345E+00  0.310303675842E+01  0.000000000000E+00  0.000000000000E+00
  0.125000000000E+01  0.500000000000E+01  0.375000000000E+01  0.250000000000E+01  0.000000000000E+00
 -0.249658889499E+01 -0.249658889499E+01 -0.249658889499E+01 -0.249658889499E+01 -0.249658889499E+01 -0.249658889499E+01 -0.249658889499E+01
 -0.249658889499E+01 -0.249658889499E+01 -0.249658889499E+01 -0.249658889499E+01 -0.249658889499E+01 -0.249658889499E+01 -0.249658889499E+01
 -0.249658889499E+01 -0.249658889499E+01 -0.249658889499E+01 -0.249658889499E+01 -0.249658889499E+01 -0.249658889499E+01 -0.249658889499E+01
 -0.249658889499E+01 -0.249658889499E+01 -0.249658889499E+01 -0.249658889499E+01 -0.249658889499E+01 -0.249658889499E+01 -0.249658889499E+01
 -0.249658889499E+01 -0.249658889499E+01 -0.249658889499E+01 -0.249658889499E+01 -0.249658889499E+01
  0.108709230302E-03  0.146875485829E-03  0.101409960121E-03  0.901663848144E+00  0.111895836306E-03  0.714929135906E+00  0.188140686189E+01
  0.175892218343E+01  0.816362740114E-04  0.957504934725E+00  0.125000000000E+01  0.100596744181E+01  0.191313547189E+01  0.250000000000E+01
  0.292898120965E+01  0.375000000000E+01  0.406883379958E+01  0.363389309169E+01  0.284756893464E+01  0.292582332357E+01  0.395754068714E+01
  0.205027285784E+01  0.125000000000E+01  0.306703284160E+01  0.397155773792E+01  0.433068631589E+01  0.250000000000E+01  0.375000000000E+01
  0.500000000000E+01  0.500000000000E+01  0.500000000000E+01  0.500000000000E+01  0.500000000000E+01
  0.768735495853E+00  0.889523316855E+00  0.898746324182E+00  0.950542375882E+00  0.924960150644E+00  0.947969342055E+00  0.981017520735E+00
  0.987798992979E+00  0.130024658854E+01  0.101390436557E+01  0.944836327248E+00  0.944236743813E+00  0.978087748846E+00  0.100717422489E+01
  0.997784676673E+00  0.100978229935E+01  0.100012041789E+01  0.996167616784E+00  0.989919903030E+00  0.998867619091E+00  0.997941836546E+00
  0.100913681266E+01  0.106018061219E+01  0.100643337564E+01  0.100351221116E+01  0.998477811902E+00  0.102043485612E+01  0.100593736563E+01
  0.100234892331E+01  0.999828410545E+00  0.100019291015E+01  0.100028686705E+01  0.100184292213E+01
  0.000000000000E+00  0.000000000000E+00  0.000000000000E+00  0.385195814711E+00  0.000000000000E+00  0.340886083185E+00  0.583453548184E+00
  0.571759551536E+00  0.000000000000E+00  0.480963213020E+00  0.505185160612E+00  0.443662066852E+00  0.572024065555E+00  0.532003776482E+00
  0.566400177768E+00  0.512620362516E+00  0.508195589156E+00  0.526914233903E+00  0.564509592388E+00  0.531478334836E+00  0.508129390738E+00
  0.521930185350E+00  0.451330942099E+00  0.494980685226E+00  0.496091699832E+00  0.503538727975E+00  0.477380958318E+00  0.492957761086E+00
  0.494536387765E+00  0.491695274889E+00  0.489493221621E+00  0.494635431981E+00  0.497856403295E+00
  0.000000000000E+00  0.000000000000E+00  0.000000000000E+00  0.000000000000E+00  0.000000000000E+00  0.000000000000E+00  0.000000000000E+00
  0.000000000000E+00  0.000000000000E+00  0.000000000000E+00  0.000000000000E+00  0.000000000000E+00  0.000000000000E+00  0.000000000000E+00
  0.000000000000E+00  0.000000000000E+00  0.000000000000E+00  0.000000000000E+00  0.000000000000E+00  0.000000000000E+00  0.000000000000E+00
  0.000000000000E+00  0.000000000000E+00  0.000000000000E+00  0.000000000000E+00  0.000000000000E+00  0.000000000000E+00  0.000000000000E+00
  0.000000000000E+00  0.000000000000E+00  0.000000000000E+00  0.000000000000E+00  0.000000000000E+00
  0.000000000000E+00  0.000000000000E+00  0.000000000000E+00 -0.142937183232E-02  0.000000000000E+00  0.168978223001E-01  0.875994283959E-02
  0.403964124488E-01  0.000000000000E+00  0.730722938282E-01 -0.112216892928E+00 -0.262899331566E-01 -0.368284392756E-01 -0.483402521804E-01
 -0.588594408264E-02 -0.170498633996E-03 -0.195987223569E-02 -0.317075328752E-02  0.106422499779E-01  0.235146897851E-01  0.228803992898E-02
  0.486674969650E-01  0.687953429859E-01  0.868228735420E-02  0.441101886783E-02 -0.351503151221E-02  0.233070143916E-02 -0.110520528504E-02
  0.135829271060E-02  0.546603054986E-02 -0.147516384535E-02 -0.124162464417E-02  0.211864497155E-02
  0.572392986269E+00  0.662330425012E+00  0.669197786719E+00  0.681370823795E+00  0.688716347382E+00  0.681181020129E+00  0.693024433779E+00
  0.700085116742E+00  0.968150985243E+00  0.722087344218E+00  0.666760567526E+00  0.671480387338E+00  0.691232263839E+00  0.720038377824E+00
  0.710709993718E+00  0.723770719636E+00  0.714752636086E+00  0.710894210240E+00  0.704007875926E+00  0.714159219510E+00  0.712429491087E+00
  0.725804157002E+00  0.782033730832E+00  0.720438335470E+00  0.717728352660E+00  0.712837424774E+00  0.734165587580E+00  0.720297841341E+00
  0.716518296640E+00  0.714353110723E+00  0.714323973961E+00  0.714486129308E+00  0.716213116834E+00
  0.000000000000E+00  0.000000000000E+00  0.000000000000E+00  0.384516080476E+00  0.000000000000E+00  0.340285977437E+00  0.586753001059E+00
  0.575426078881E+00  0.000000000000E+00  0.487199448454E+00  0.520641040133E+00  0.445423583121E+00  0.576269234625E+00  0.533962380552E+00
  0.567224545186E+00  0.511735129767E+00  0.508063934364E+00  0.527166127175E+00  0.565842728214E+00  0.531744060060E+00  0.508272217074E+00
  0.522388441581E+00  0.449257982272E+00  0.494521460661E+00  0.495788431975E+00  0.503678490514E+00  0.475665748966E+00  0.492352554695E+00
  0.494346762491E+00  0.491660272034E+00  0.489529546182E+00  0.494638544541E+00  0.497648493573E+00
  0.104242640687E+01  0.104242640687E+01  0.104242640687E+01  0.100355247437E+01  0.104242640687E+01  0.100599606535E+01  0.989008031747E+00
  0.992225311430E+00  0.104242640687E+01  0.997058811696E+00  0.987964547528E+00  0.995589875561E+00  0.989405266058E+00  0.100087323925E+01
  0.997203118536E+00  0.100346283367E+01  0.100053320842E+01  0.999080754652E+00  0.995647247094E+00  0.100095637120E+01  0.999458336143E+00
  0.100692572806E+01  0.103269877847E+01  0.100216635703E+01  0.100130290648E+01  0.999493812269E+00  0.100724883754E+01  0.100246497677E+01
  0.100077487187E+01  0.100026599011E+01  0.999860680275E+00  0.999993715780E+00  0.100085386783E+01
        15         7        19        19
         8        20        19        19
        18        19        21        21
         7         4         8         8
         3         6         4         4
        19         7         8         8
        19        18        15        15
        14        13        15        15
         8        22        20        20
        27        24        22        22
        19        20        21        21
        32        26        21        21
        17        18        26        26
        17        16        15        15
        25        29        21        21
        12         7        13        13
        10         8         6         6
        25        20        24        24
         4         6         8         8
        12         2         4         4
        10        23        22        22
        26        31        17        17
        30        16        17        17
         4         7        12        12
        13        11        12        12
        21        20        25        25
        24        28        25        25
        22         8        10        10
         6         5        10        10
        31        26        32        32
         4         2         3         3
         5         6         3         3
        11        13        14        14
        22        23        27        27
        28        24        27        27
        15        13         7         7
         2        12         1         1
        29        25        33        33
        23        10         9         9
        21        26        18        18
        16        14        15        15
        18        17        15        15
        29        32        21        21
        22        24        20        20
        28        33        25        25
        11         1        12        12
        31        30        17        17
         5         9        10        10
zone t="boundary 3 bc-3", solutiontime= 0.5000000E+02, strandid=1003, i=33, j=48, f=feblock
  0.375059200023E+01  0.249769659018E+01  0.500322189357E+01  0.403612276076E+01  0.287976836254E+01  0.124542007694E+01  0.190552302486E+01
  0.500000000000E+01  0.326671142353E+01  0.423253781877E+01  0.201271174246E+01 -0.547422451393E-02  0.958896037004E+00  0.500000000000E+01
  0.266968167030E+01  0.385584505517E+01  0.890374290244E+00  0.154654022522E+01  0.000000000000E+00  0.500000000000E+01  0.315261148394E+01
  0.218304203878E+01  0.398195315244E+01  0.000000000000E+00  0.697379959013E+00  0.963757272110E+00  0.125000000000E+01  0.000000000000E+00
  0.500000000000E+01  0.310330743906E+01  0.250000000000E+01  0.375000000000E+01  0.000000000000E+00
  0.250494212639E+01  0.250494212639E+01  0.250494212639E+01  0.250494212639E+01  0.250494212639E+01  0.250494212639E+01  0.250494212639E+01
  0.250494212639E+01  0.250494212639E+01  0.250494212639E+01  0.250494212639E+01  0.250494212639E+01  0.250494212639E+01  0.250494212639E+01
  0.250494212639E+01  0.250494212639E+01  0.250494212639E+01  0.250494212639E+01  0.250494212639E+01  0.250494212639E+01  0.250494212639E+01
  0.250494212639E+01  0.250494212639E+01  0.250494212639E+01  0.250494212639E+01  0.250494212639E+01  0.250494212639E+01  0.250494212639E+01
  0.250494212639E+01  0.250494212639E+01  0.250494212639E+01  0.250494212639E+01  0.250494212639E+01
  0.136457018303E-03  0.110483667052E-03  0.969506812793E-04  0.101756821127E+01  0.908095280158E+00  0.104842439781E-03  0.722629906090E+00
  0.125000000000E+01  0.188965717334E+01  0.191862733218E+01  0.176708303771E+01  0.808217454595E-04  0.969653363549E+00  0.250000000000E+01
  0.285339477240E+01  0.293325090921E+01  0.205656265142E+01  0.293157054664E+01  0.125000000000E+01  0.375000000000E+01  0.363766866045E+01
  0.396069465965E+01  0.407056399432E+01  0.250000000000E+01  0.307032015183E+01  0.397359832591E+01  0.500000000000E+01  0.375000000000E+01
  0.500000000000E+01  0.433260795381E+01  0.500000000000E+01  0.500000000000E+01  0.500000000000E+01
  0.896676817058E+00  0.910447593818E+00  0.781948847720E+00  0.945770032340E+00  0.960130112730E+00  0.922179397274E+00  0.963950446527E+00
  0.950682185933E+00  0.978092885491E+00  0.979670613550E+00  0.986799163674E+00  0.121959985182E+01  0.100543679952E+01  0.100849097983E+01
  0.992240047488E+00  0.997800264268E+00  0.100537161569E+01  0.998282944213E+00  0.105831356562E+01  0.100697675848E+01  0.998804013018E+00
  0.999311193319E+00  0.100000736661E+01  0.101662522358E+01  0.100449251834E+01  0.100204226845E+01  0.100246725443E+01  0.100488609558E+01
  0.100014590857E+01  0.998721192618E+00  0.100101036548E+01  0.100049286682E+01  0.100194476366E+01
  0.000000000000E+00  0.000000000000E+00  0.000000000000E+00  0.451193596876E+00  0.403035913375E+00  0.000000000000E+00  0.369780895164E+00
  0.504465681906E+00  0.572441522224E+00  0.570700476002E+00  0.555903943189E+00  0.000000000000E+00  0.475076242617E+00  0.529012490862E+00
  0.555007182885E+00  0.562172003130E+00  0.523997657216E+00  0.523269526440E+00  0.451834048578E+00  0.514483254126E+00  0.524697317120E+00
  0.506246217193E+00  0.509778400521E+00  0.478881792244E+00  0.499519886679E+00  0.498081338663E+00  0.493201218748E+00  0.493575544766E+00
  0.493226504347E+00  0.501441539831E+00  0.491213278139E+00  0.488103509196E+00  0.498235963185E+00
  0.000000000000E+00  0.000000000000E+00  0.000000000000E+00  0.000000000000E+00  0.000000000000E+00  0.000000000000E+00  0.000000000000E+00
  0.000000000000E+00  0.000000000000E+00  0.000000000000E+00  0.000000000000E+00  0.000000000000E+00  0.000000000000E+00  0.000000000000E+00
  0.000000000000E+00  0.000000000000E+00  0.000000000000E+00  0.000000000000E+00  0.000000000000E+00  0.000000000000E+00  0.000000000000E+00
  0.000000000000E+00  0.000000000000E+00  0.000000000000E+00  0.000000000000E+00  0.000000000000E+00  0.000000000000E+00  0.000000000000E+00
  0.000000000000E+00  0.000000000000E+00  0.000000000000E+00  0.000000000000E+00  0.000000000000E+00
  0.000000000000E+00  0.000000000000E+00  0.000000000000E+00 -0.279072977129E-01  0.124067380172E-01  0.000000000000E+00  0.162361705430E-01
 -0.114474053053E+00  0.481968222588E-03 -0.460951440000E-01  0.299462815472E-01  0.000000000000E+00  0.536074468235E-01 -0.502845335432E-01
  0.507333584060E-02 -0.105803163704E-01  0.439389166702E-01  0.105965548470E-01  0.388446363762E-01 -0.221864113534E-02 -0.367150702277E-02
 -0.404344702049E-03 -0.149357309459E-02  0.342255441164E-02  0.804275109762E-02  0.207982578467E-02  0.580596790702E-03  0.244077212196E-03
  0.506601226294E-02 -0.210226473481E-02 -0.607643177640E-03 -0.695781353550E-03  0.114480671923E-02
  0.667656851807E+00  0.677910438478E+00  0.582231519776E+00  0.670520822970E+00  0.688130583369E+00  0.686645825422E+00  0.690430206110E+00
  0.670645813241E+00  0.691903436169E+00  0.692624432659E+00  0.700947313648E+00  0.908102208106E+00  0.717683223989E+00  0.721491979522E+00
  0.706702644531E+00  0.711393846148E+00  0.721305338329E+00  0.713317606305E+00  0.774899697111E+00  0.721207795600E+00  0.713532242194E+00
  0.713575099692E+00  0.714554237230E+00  0.730580347494E+00  0.718615625709E+00  0.716241097171E+00  0.716741916626E+00  0.719224735723E+00
  0.714565182012E+00  0.713128382150E+00  0.715136915846E+00  0.714653003540E+00  0.716319886098E+00
  0.000000000000E+00  0.000000000000E+00  0.000000000000E+00  0.453747977748E+00  0.402545537593E+00  0.000000000000E+00  0.369629090340E+00
  0.520525412271E+00  0.575220784765E+00  0.575502687603E+00  0.558260201434E+00  0.000000000000E+00  0.478253021231E+00  0.530976522569E+00
  0.555830977498E+00  0.562793214547E+00  0.524675232955E+00  0.523282018123E+00  0.447917891127E+00  0.513796073596E+00  0.524673096886E+00
  0.506323919181E+00  0.509686671367E+00  0.477443347108E+00  0.499194826966E+00  0.497912972338E+00  0.492962768499E+00  0.493078174717E+00
  0.493192031722E+00  0.501531689497E+00  0.491169172345E+00  0.488098800139E+00  0.498012893465E+00
  0.104242640687E+01  0.104242640687E+01  0.104242640687E+01  0.992555399367E+00  0.100338777416E+01  0.104242640687E+01  0.100275101489E+01
  0.987610951831E+00  0.990360757148E+00  0.989796154249E+00  0.994453861770E+00  0.104242640687E+01  0.999323392640E+00  0.100158433891E+01
  0.997121316408E+00  0.998147044327E+00  0.100443205070E+01  0.100036232675E+01  0.102508331292E+01  0.100269535055E+01  0.100014129504E+01
  0.999693735293E+00  0.100036856280E+01  0.100608608046E+01  0.100156233882E+01  0.100069385056E+01  0.100096903798E+01  0.100201867101E+01
  0.100024531045E+01  0.999658105175E+00  0.100018113369E+01  0.100002132763E+01  0.100090132402E+01
        15         9        16        16
        15        18        11        11
        22        15        21        21
        11         5         9         9
         5         7         2         2
        11         9        15        15
        16        21        15        15
        16        10        14        14
        18        17        11        11
        17        25        24        24
        22        18        15        15
        22        30        31        31
        30        21        23        23
        16        20        23        23
        22        27        26        26
        10         9         4         4
         7        11        13        13
        25        18        26        26
        11         7         5         5
         5         1         4         4
        17        19        13        13
        23        32        30        30
        23        20        29        29
         4         9         5         5
         4         8        10        10
        26        18        22        22
        26        28        25        25
        13        11        17        17
        13         6         7         7
        31        30        32        32
         2         1         5         5
         2         7         6         6
        14        10         8         8
        24        19        17        17
        24        25        28        28
         9        10        16        16
         3         4         1         1
        33        26        27        27
        12        13        19        19
        21        30        22        22
        16        14        20        20
        16        23        21        21
        22        31        27        27
        18        25        17        17
        26        33        28        28
         4         3         8         8
        23        29        32        32
        13        12         6         6
zone t="boundary 4 bc-4", solutiontime= 0.5000000E+02, strandid=1004, i=32, j=46, f=feblock
  0.125000000000E+01  0.219251206392E+01  0.103724302461E+01  0.500000000000E+01  0.250000000000E+01  0.375000000000E+01  0.404200324774E+01
  0.500000000000E+01  0.000000000000E+00  0.310152362409E+01  0.202479342020E+01  0.324151231464E+01  0.922061490191E+00  0.000000000000E+00
  0.299062775774E+01  0.394624082883E+01  0.500000000000E+01  0.409252726285E+01  0.500000000000E+01  0.429310310915E+01  0.175434191980E+01
  0.284428995242E+01  0.000000000000E+00  0.000000000000E+00  0.715990576545E+00  0.930412228790E+00  0.125000000000E+01  0.187029682677E+01
  0.500000000000E+01  0.375000000000E+01  0.250000000000E+01  0.000000000000E+00
  0.250494212639E+01  0.157686156160E+01  0.146289271009E+01  0.250494212639E+01  0.250494212639E+01  0.250494212639E+01  0.155830813274E+01
  0.125000000000E+01  0.250494212639E+01  0.177790177481E+01  0.477386199275E+00  0.742988685424E+00  0.308372018325E+00  0.125000000000E+01
 -0.487811078581E+00 -0.144524380962E+01 -0.125000000000E+01 -0.345533899378E+00  0.000000000000E+00  0.627766083140E+00 -0.739814786992E+00
 -0.158811787973E+01  0.000000000000E+00 -0.125000000000E+01 -0.600232012419E+00 -0.154800130438E+01 -0.249658889499E+01 -0.178862290564E+01
 -0.249658889499E+01 -0.249658889499E+01 -0.249658889499E+01 -0.249658889499E+01
  0.500000000000E+01  0.500000000000E+01  0.500000000000E+01  0.500000000000E+01  0.500000000000E+01  0.500000000000E+01  0.500000000000E+01
  0.500000000000E+01  0.500000000000E+01  0.500000000000E+01  0.500000000000E+01  0.500000000000E+01  0.500000000000E+01  0.500000000000E+01
  0.500000000000E+01  0.500000000000E+01  0.500000000000E+01  0.500000000000E+01  0.500000000000E+01  0.500000000000E+01  0.500000000000E+01
  0.500000000000E+01  0.500000000000E+01  0.500000000000E+01  0.500000000000E+01  0.500000000000E+01  0.500000000000E+01  0.500000000000E+01
  0.500000000000E+01  0.500000000000E+01  0.500000000000E+01  0.500000000000E+01
  0.100246725443E+01  0.100134430154E+01  0.100190794155E+01  0.100014590857E+01  0.100101036548E+01  0.100049286682E+01  0.999775589729E+00
  0.100034297550E+01  0.100194476366E+01  0.100086117368E+01  0.100110853193E+01  0.100019876268E+01  0.100152581566E+01  0.100190260515E+01
  0.100054384991E+01  0.998652392920E+00  0.100067112921E+01  0.999536485616E+00  0.100054144683E+01  0.999923229238E+00  0.100145778873E+01
  0.100044293749E+01  0.100077796142E+01  0.100130067680E+01  0.100105883926E+01  0.100174639206E+01  0.100234892331E+01  0.100133132488E+01
  0.999828410545E+00  0.100019291015E+01  0.100028686705E+01  0.100184292213E+01
  0.493201218748E+00  0.493601221328E+00  0.494657953761E+00  0.493226504347E+00  0.491213278139E+00  0.488103509196E+00  0.488185425797E+00
  0.494186667314E+00  0.498235963185E+00  0.490793326039E+00  0.492762900754E+00  0.491176781265E+00  0.497637814362E+00  0.498753317115E+00
  0.492051502938E+00  0.486062293692E+00  0.492255086588E+00  0.489681615569E+00  0.494622557051E+00  0.490040127859E+00  0.494628972831E+00
  0.492616669139E+00  0.499569338793E+00  0.498567815555E+00  0.498183512817E+00  0.496570941907E+00  0.494536387765E+00  0.494839506750E+00
  0.491695274889E+00  0.489493221621E+00  0.494635431981E+00  0.497856403295E+00
  0.000000000000E+00 -0.121469474973E-03 -0.110879876713E-02  0.000000000000E+00  0.000000000000E+00  0.000000000000E+00  0.121293454385E-03
  0.633470030144E-03  0.000000000000E+00  0.102566739856E-03 -0.874325828039E-03 -0.898643192540E-03 -0.157079891602E-02  0.695900323417E-04
 -0.888525001076E-03 -0.918892071073E-03 -0.139168014126E-02 -0.210154079067E-02 -0.141209602764E-02 -0.122049482522E-02 -0.534198118180E-03
 -0.644840741011E-03 -0.176723406189E-03  0.608284209626E-03 -0.247269451028E-04  0.142363535269E-02  0.000000000000E+00  0.724012365252E-03
  0.000000000000E+00  0.000000000000E+00  0.000000000000E+00  0.000000000000E+00