title="tecplot geometry and solution file"
variables = x y z rho u v w p mach temperature
zone t="boundary 1 bc-1", solutiontime= 0.8000000E+02, strandid=1001, i=32, j=46, f=feblock
 -0.547422451393E-02  0.000000000000E+00 -0.567510115175E-02  0.000000000000E+00  0.000000000000E+00  0.000000000000E+00 -0.525112567618E-02
 -0.425678987282E-02  0.000000000000E+00  0.000000000000E+00  0.000000000000E+00  0.000000000000E+00  0.000000000000E+00  0.000000000000E+00
  0.000000000000E+00  0.000000000000E+00 -0.338346964726E-02  0.000000000000E+00  0.000000000000E+00  0.000000000000E+00  0.000000000000E+00
  0.000000000000E+00  0.000000000000E+00  0.000000000000E+00  0.000000000000E+00  0.000000000000E+00  0.000000000000E+00  0.000000000000E+00
  0.000000000000E+00  0.000000000000E+00  0.000000000000E+00  0.000000000000E+00
  0.250494212639E+01  0.250494212639E+01  0.127822224353E+01  0.146289271009E+01  0.157686156160E+01  0.308372018325E+00  0.261960149578E-01
 -0.122573417301E+01 -0.600232012419E+00  0.250494212639E+01  0.477386199275E+00  0.742988685424E+00 -0.739814786992E+00  0.177790177481E+01
  0.155830813274E+01  0.250494212639E+01 -0.249658889499E+01 -0.154800130438E+01 -0.487811078581E+00  0.250494212639E+01  0.627766083140E+00
 -0.345533899378E+00 -0.178862290564E+01 -0.158811787973E+01  0.125000000000E+01 -0.249658889499E+01 -0.144524380962E+01  0.000000000000E+00
 -0.125000000000E+01 -0.249658889499E+01 -0.249658889499E+01 -0.249658889499E+01
  0.808217454595E-04  0.125000000000E+01  0.832205720440E-04  0.103724302461E+01  0.219251206392E+01  0.922061490191E+00  0.104377916079E-03
  0.351876758094E-04  0.715990576545E+00  0.250000000000E+01  0.202479342020E+01  0.324151231464E+01  0.175434191980E+01  0.310152362409E+01
  0.404200324774E+01  0.375000000000E+01  0.816362740114E-04  0.930412228790E+00  0.299062775774E+01  0.500000000000E+01  0.429310310915E+01
  0.409252726285E+01  0.187029682677E+01  0.284428995242E+01  0.500000000000E+01  0.125000000000E+01  0.394624082883E+01  0.500000000000E+01
  0.500000000000E+01  0.250000000000E+01  0.375000000000E+01  0.500000000000E+01
  0.121959985186E+01  0.105831356569E+01  0.128671927357E+01  0.108337053524E+01  0.102354614682E+01  0.116941718381E+01  0.145633782363E+01
  0.134804032332E+01  0.119311480318E+01  0.101662522365E+01  0.101712196453E+01  0.100667542999E+01  0.102800079362E+01  0.100987438441E+01
  0.100346383181E+01  0.100488609562E+01  0.130024658828E+01  0.114206739857E+01  0.100787501909E+01  0.100194476378E+01  0.100378960001E+01
  0.100390910156E+01  0.103478538492E+01  0.101224063906E+01  0.100190260512E+01  0.106018061136E+01  0.100437851598E+01  0.100077796142E+01
  0.100130067692E+01  0.102043485631E+01  0.100593736564E+01  0.100184292197E+01
  0.000000000000E+00  0.451834048520E+00  0.000000000000E+00  0.472912035597E+00  0.470158331092E+00  0.459504947934E+00  0.000000000000E+00
  0.000000000000E+00  0.401768555187E+00  0.478881792208E+00  0.474223482848E+00  0.485492996396E+00  0.492581079873E+00  0.489510446317E+00
  0.492201648647E+00  0.493575544523E+00  0.000000000000E+00  0.464516489082E+00  0.481634321959E+00  0.498235963659E+00  0.494015373912E+00
  0.490674199018E+00  0.458608928270E+00  0.473144546721E+00  0.498753316988E+00  0.451330943834E+00  0.491521106431E+00  0.499569338739E+00
  0.498567815586E+00  0.477380958045E+00  0.492957761076E+00  0.497856403075E+00
  0.000000000000E+00  0.000000000000E+00  0.000000000000E+00  0.156898610909E-01 -0.426046432006E-02  0.288060363224E-01  0.000000000000E+00
  0.000000000000E+00 -0.370128019472E-02  0.000000000000E+00  0.249851888452E-02 -0.528108274479E-02 -0.303265640954E-02 -0.172450093387E-03
 -0.109130972138E-02  0.000000000000E+00  0.000000000000E+00 -0.850281611082E-02  0.955099601667E-03  0.000000000000E+00 -0.167361415641E-02
 -0.105339237795E-02  0.212715351700E-02 -0.123597030613E-02  0.695900924900E-04  0.000000000000E+00  0.214869103560E-03 -0.176723378794E-03
  0.608284158709E-03  0.000000000000E+00  0.000000000000E+00  0.000000000000E+00
  0.000000000000E+00  0.388446364010E-01  0.000000000000E+00  0.103917046851E+00  0.224193215138E-01  0.135341944909E+00  0.000000000000E+00
  0.000000000000E+00  0.126992466216E+00  0.342255444187E-02  0.213553812580E-01 -0.708603619805E-02  0.636035207478E-01  0.292766423820E-02
 -0.792041646040E-03  0.244077293555E-03  0.000000000000E+00  0.115618456273E+00 -0.829814611429E-02  0.114480655150E-02 -0.749344310896E-03
 -0.442111381897E-02  0.223713941631E-01 -0.264556975751E-02  0.180778943300E-02  0.687953436961E-01 -0.177101369064E-02  0.155938510161E-02
  0.142678717799E-02  0.233070148144E-02 -0.110520519893E-02  0.211864517553E-02
  0.908102208138E+00  0.774899697188E+00  0.958078677858E+00  0.800622225959E+00  0.737949074507E+00  0.857914928970E+00  0.108437500334E+01
  0.100373773611E+01  0.887196026727E+00  0.730580347548E+00  0.733315357070E+00  0.720299334952E+00  0.748106702597E+00  0.724222065014E+00
  0.717576384282E+00  0.719224735757E+00  0.968150985049E+00  0.840784361002E+00  0.722225755511E+00  0.716319886208E+00  0.717948115917E+00
  0.717912571102E+00  0.749168000750E+00  0.726422698076E+00  0.716249843733E+00  0.782033730710E+00  0.718602109366E+00  0.715132536630E+00
  0.715579063441E+00  0.734165587711E+00  0.720297841371E+00  0.716213116717E+00
  0.000000000000E+00  0.447917891065E+00  0.000000000000E+00  0.476275923170E+00  0.468523759853E+00  0.473519704895E+00  0.000000000000E+00
  0.000000000000E+00  0.412988876299E+00  0.477443347070E+00  0.472504652197E+00  0.485153445552E+00  0.492070517520E+00  0.488543840972E+00
  0.491923385687E+00  0.493078174472E+00  0.000000000000E+00  0.471586671574E+00  0.480934095695E+00  0.498012893931E+00  0.493689913476E+00
  0.490409924215E+00  0.456073446972E+00  0.472047034229E+00  0.498545865595E+00  0.449257983923E+00  0.491117577041E+00  0.499470103776E+00
  0.498443303483E+00  0.475665748696E+00  0.492352554677E+00  0.497648493356E+00
  0.104242640687E+01  0.102508331296E+01  0.104242640687E+01  0.103461473234E+01  0.100936211574E+01  0.102707649348E+01  0.104242640687E+01
  0.104242640687E+01  0.104103514105E+01  0.100608608047E+01  0.100935928600E+01  0.100173207659E+01  0.101882157109E+01  0.100399703832E+01
  0.100113916033E+01  0.100201867102E+01  0.104242640687E+01  0.103067306438E+01  0.100321571481E+01  0.100090132405E+01  0.100133271183E+01
  0.100116394799E+01  0.101357751698E+01  0.100469368455E+01  0.100084556732E+01  0.103269877912E+01  0.100165718113E+01  0.100040727301E+01
  0.100050934940E+01  0.100724883754E+01  0.100246497681E+01  0.100085386782E+01
        12        19        11        11
        11         5        12        12
        10        14         5         5
        19        13        11        11
        19        24        13        13
        30        23        24        24
        19        12        22        22
        28        22        21        21
        11        13         6         6
         7         6         9         9
        15        12        14        14
        18        13        23        23
        15        25        21        21
        27        19        22        22
        18         8         9         9
        27        31        24        24
         4        11         6         6
         5        14        12        12
         4         2         5         5
        21        12        15        15
        14        16        15        15
        24        19        27        27
        22        29        27        27
        23        26        18        18
        17         8        18        18
         5        11         4         4
         6         3         4         4
        26        23        30        30
         5         2        10        10
        16        14        10        10
         3         6         7         7
        21        25        28        28
        29        22        28        28
         6        13         9         9
         2         4         1         1
        31        27        32        32
        25        15        20        20
        24        23        13        13
         8         7         9         9
        13        18         9         9
        31        30        24        24
        12        21        22        22
        29        32        27        27
         3         1         4         4
        26        17        18        18
        16        20        15        15
zone t="boundary 2 bc-2", solutiontime= 0.8000000E+02, strandid=1002, i=33, j=48, f=feblock
  0.500195305314E+01  0.375034912201E+01  0.249861196354E+01  0.288036736123E+01  0.124717626151E+01  0.190856778360E+01  0.326577225490E+01
  0.201394899014E+01 -0.338346964726E-02  0.962374705951E+00  0.500000000000E+01  0.403430242703E+01  0.423029585421E+01  0.500000000000E+01
  0.385439203165E+01  0.500000000000E+01  0.398133438873E+01  0.315200091181E+01  0.266958048115E+01  0.154798041552E+01  0.218327865436E+01
  0.893688581177E+00  0.000000000000E+00  0.699009801024E+00  0.964460914345E+00  0.310303675842E+01  0.000000000000E+00  0.000000000000E+00
  0.125000000000E+01  0.500000000000E+01  0.375000000000E+01  0.250000000000E+01  0.000000000000E+00
 -0.249658889499E+01 -0.249658889499E+01 -0.249658889499E+01 -0.249658889499E+01 -0.249658889499E+01 -0.249658889499E+01 -0.249658889499E+01
 -0.249658889499E+01 -0.249658889499E+01 -0.249658889499E+01 -0.249658889499E+01 -0.249658889499E+01 -0.249658889499E+01 -0.249658889499E+01
 -0.249658889499E+01 -0.249658889499E+01 -0.249658889499E+01 -0.249658889499E+01 -0.249658889499E+01 -0.249658889499E+01 -0.249658889499E+01
 -0.249658889499E+01 -0.249658889499E+01 -0.249658889499E+01 -0.249658889499E+01 -0.249658889499E+01 -0.249658889499E+01 -0.249658889499E+01
 -0.249658889499E+01 -0.249658889499E+01 -0.249658889499E+01 -0.249658889499E+01 -0.249658889499E+01
  0.108709230302E-03  0.146875485829E-03  0.101409960121E-03  0.901663848144E+00  0.111895836306E-03  0.714929135906E+00  0.188140686189E+01
  0.175892218343E+01  0.816362740114E-04  0.957504934725E+00  0.125000000000E+01  0.100596744181E+01  0.191313547189E+01  0.250000000000E+01
  0.292898120965E+01  0.375000000000E+01  0.406883379958E+01  0.363389309169E+01  0.284756893464E+01  0.292582332357E+01  0.395754068714E+01
  0.205027285784E+01  0.125000000000E+01  0.306703284160E+01  0.397155773792E+01  0.433068631589E+01  0.250000000000E+01  0.375000000000E+01
  0.500000000000E+01  0.500000000000E+01  0.500000000000E+01  0.500000000000E+01  0.500000000000E+01
  0.768735495628E+00  0.889523316766E+00  0.898746324219E+00  0.950542375623E+00  0.924960150519E+00  0.947969341667E+00  0.981017520605E+00
  0.987798992875E+00  0.130024658828E+01  0.101390436556E+01  0.944836326339E+00  0.944236742644E+00  0.978087748592E+00  0.100717422523E+01
  0.997784676843E+00  0.100978229849E+01  0.100012041718E+01  0.996167616955E+00  0.989919902895E+00  0.998867619054E+00  0.997941836564E+00
  0.100913681259E+01  0.106018061136E+01  0.100643337578E+01  0.100351221122E+01  0.998477812042E+00  0.102043485631E+01  0.100593736564E+01
  0.100234892331E+01  0.999828412543E+00  0.100019291128E+01  0.100028686669E+01  0.100184292197E+01
  0.000000000000E+00  0.000000000000E+00  0.000000000000E+00  0.385195814456E+00  0.000000000000E+00  0.340886082871E+00  0.583453548359E+00
  0.571759551788E+00  0.000000000000E+00  0.480963213041E+00  0.505185161694E+00  0.443662066383E+00  0.572024065972E+00  0.532003776381E+00
  0.566400177858E+00  0.512620361686E+00  0.508195586357E+00  0.526914232862E+00  0.564509592472E+00  0.531478334674E+00  0.508129389845E+00
  0.521930185590E+00  0.451330943834E+00  0.494980685021E+00  0.496091699746E+00  0.503538727182E+00  0.477380958045E+00  0.492957761076E+00
  0.494536388155E+00  0.491695274676E+00  0.489493224100E+00  0.494635432930E+00  0.497856403075E+00
  0.000000000000E+00  0.000000000000E+00  0.000000000000E+00  0.000000000000E+00  0.000000000000E+00  0.000000000000E+00  0.000000000000E+00
  0.000000000000E+00  0.000000000000E+00  0.000000000000E+00  0.000000000000E+00  0.000000000000E+00  0.000000000000E+00  0.000000000000E+00
  0.000000000000E+00  0.000000000000E+00  0.000000000000E+00  0.000000000000E+00  0.000000000000E+00  0.000000000000E+00  0.000000000000E+00
  0.000000000000E+00  0.000000000000E+00  0.000000000000E+00  0.000000000000E+00  0.000000000000E+00  0.000000000000E+00  0.000000000000E+00
  0.000000000000E+00  0.000000000000E+00  0.000000000000E+00  0.000000000000E+00  0.000000000000E+00
  0.000000000000E+00  0.000000000000E+00  0.000000000000E+00 -0.142937184479E-02  0.000000000000E+00  0.168978222320E-01  0.875994288564E-02
  0.403964124973E-01  0.000000000000E+00  0.730722939268E-01 -0.112216893228E+00 -0.262899329201E-01 -0.368284394051E-01 -0.483402521662E-01
 -0.588594428464E-02 -0.170499652328E-03 -0.195987278038E-02 -0.317075354401E-02  0.106422497696E-01  0.235146895869E-01  0.228803983866E-02
  0.486674970405E-01  0.687953436961E-01  0.868228728578E-02  0.441101883956E-02 -0.351503153931E-02  0.233070148144E-02 -0.110520519893E-02
  0.135829292674E-02  0.546602971567E-02 -0.147516286841E-02 -0.124162484912E-02  0.211864517553E-02
  0.572392986101E+00  0.662330424946E+00  0.669197786746E+00  0.681370823816E+00  0.688716347289E+00  0.681181020202E+00  0.693024433767E+00
  0.700085116765E+00  0.968150985049E+00  0.722087344200E+00  0.666760567105E+00  0.671480387384E+00  0.691232263854E+00  0.720038378013E+00
  0.710709993748E+00  0.723770719182E+00  0.714752636056E+00  0.710894210413E+00  0.704007875903E+00  0.714159219542E+00  0.712429491111E+00
  0.725804157080E+00  0.782033730710E+00  0.720438335522E+00  0.717728352743E+00  0.712837424926E+00  0.734165587711E+00  0.720297841371E+00
  0.716518296606E+00  0.714353112527E+00  0.714323974767E+00  0.714486129093E+00  0.716213116717E+00
  0.000000000000E+00  0.000000000000E+00  0.000000000000E+00  0.384516080164E+00  0.000000000000E+00  0.340285977033E+00  0.586753001202E+00
  0.575426079096E+00  0.000000000000E+00  0.487199448494E+00  0.520641041177E+00  0.445423582346E+00  0.576269234970E+00  0.533962380470E+00
  0.567224545314E+00  0.511735128884E+00  0.508063931397E+00  0.527166126116E+00  0.565842728265E+00  0.531744059868E+00  0.508272216176E+00
  0.522388441781E+00  0.449257983923E+00  0.494521460471E+00  0.495788431872E+00  0.503678489703E+00  0.475665748696E+00  0.492352554677E+00
  0.494346762894E+00  0.491660271683E+00  0.489529548659E+00  0.494638545476E+00  0.497648493356E+00
  0.104242640687E+01  0.104242640687E+01  0.104242640687E+01  0.100355247468E+01  0.104242640687E+01  0.100599606587E+01  0.989008031859E+00
  0.992225311568E+00  0.104242640687E+01  0.997058811678E+00  0.987964547854E+00  0.995589876862E+00  0.989405266336E+00  0.100087323917E+01
  0.997203118408E+00  0.100346283388E+01  0.100053320909E+01  0.999080754724E+00  0.995647247199E+00  0.100095637128E+01  0.999458336158E+00
  0.100692572824E+01  0.103269877912E+01  0.100216635696E+01  0.100130290654E+01  0.999493812342E+00  0.100724883754E+01  0.100246497681E+01
  0.100077487182E+01  0.100026599063E+01  0.999860680274E+00  0.999993715842E+00  0.100085386782E+01
        15         7        19        19
         8        20        19        19
        18        19        21        21
         7         4         8         8
         3         6         4         4
        19         7         8         8
        19        18        15        15
        14        13        15        15
         8        22        20        20
        27        24        22        22
        19        20        21        21
        32        26        21        21
        17        18        26        26
        17        16        15        15
        25        29        21        21
        12         7        13        13
        10         8         6         6
        25        20        24        24
         4         6         8         8
        12         2         4         4
        10        23        22        22
        26        31        17        17
        30        16        17        17
         4         7        12        12
        13        11        12        12
        21        20        25        25
        24        28        25        25
        22         8        10        10
         6         5        10        10
        31        26        32        32
         4         2         3         3
         5         6         3         3
        11        13        14        14
        22        23        27        27
        28        24        27        27
        15        13         7         7
         2        12         1         1
        29        25        33        33
        23        10         9         9
        21        26        18        18
        16        14        15        15
        18        17        15        15
        29        32        21        21
        22        24        20        20
        28        33        25        25
        11         1        12        12
        31        30        17        17
         5         9        10        10
zone t="boundary 3 bc-3", solutiontime= 0.8000000E+02, strandid=1003, i=33, j=48, f=feblock
  0.375059200023E+01  0.249769659018E+01  0.500322189357E+01  0.403612276076E+01  0.287976836254E+01  0.124542007694E+01  0.190552302486E+01
  0.500000000000E+01  0.326671142353E+01  0.423253781877E+01  0.201271174246E+01 -0.547422451393E-02  0.958896037004E+00  0.500000000000E+01
  0.266968167030E+01  0.385584505517E+01  0.890374290244E+00  0.154654022522E+01  0.000000000000E+00  0.500000000000E+01  0.315261148394E+01
  0.218304203878E+01  0.398195315244E+01  0.000000000000E+00  0.697379959013E+00  0.963757272110E+00  0.125000000000E+01  0.000000000000E+00
  0.500000000000E+01  0.310330743906E+01  0.250000000000E+01  0.375000000000E+01  0.000000000000E+00
  0.250494212639E+01  0.250494212639E+01  0.250494212639E+01  0.250494212639E+01  0.250494212639E+01  0.250494212639E+01  0.250494212639E+01
  0.250494212639E+01  0.250494212639E+01  0.250494212639E+01  0.250494212639E+01  0.250494212639E+01  0.250494212639E+01  0.250494212639E+01
  0.250494212639E+01  0.250494212639E+01  0.250494212639E+01  0.250494212639E+01  0.250494212639E+01  0.250494212639E+01  0.250494212639E+01
  0.250494212639E+01  0.250494212639E+01  0.250494212639E+01  0.250494212639E+01  0.250494212639E+01  0.250494212639E+01  0.250494212639E+01
  0.250494212639E+01  0.250494212639E+01  0.250494212639E+01  0.250494212639E+01  0.250494212639E+01
  0.136457018303E-03  0.110483667052E-03  0.969506812793E-04  0.101756821127E+01  0.908095280158E+00  0.104842439781E-03  0.722629906090E+00
  0.125000000000E+01  0.188965717334E+01  0.191862733218E+01  0.176708303771E+01  0.808217454595E-04  0.969653363549E+00  0.250000000000E+01
  0.285339477240E+01  0.293325090921E+01  0.205656265142E+01  0.293157054664E+01  0.125000000000E+01  0.375000000000E+01  0.363766866045E+01
  0.396069465965E+01  0.407056399432E+01  0.250000000000E+01  0.307032015183E+01  0.397359832591E+01  0.500000000000E+01  0.375000000000E+01
  0.500000000000E+01  0.433260795381E+01  0.500000000000E+01  0.500000000000E+01  0.500000000000E+01
  0.896676815969E+00  0.910447593774E+00  0.781948845433E+00  0.945770019493E+00  0.960130109932E+00  0.922179397328E+00  0.963950446979E+00
  0.950682176940E+00  0.978092886194E+00  0.979670612391E+00  0.986799164047E+00  0.121959985186E+01  0.100543679949E+01  0.100849098075E+01
  0.992240047400E+00  0.997800264532E+00  0.100537161566E+01  0.998282944194E+00  0.105831356569E+01  0.100697675872E+01  0.998804012882E+00
  0.999311193295E+00  0.100000736664E+01  0.101662522365E+01  0.100449251838E+01  0.100204226846E+01  0.100246725438E+01  0.100488609562E+01
  0.100014590718E+01  0.998721193122E+00  0.100101036583E+01  0.100049286604E+01  0.100194476378E+01
  0.000000000000E+00  0.000000000000E+00  0.000000000000E+00  0.451193596337E+00  0.403035911680E+00  0.000000000000E+00  0.369780894869E+00
  0.504465691466E+00  0.572441522277E+00  0.570700476863E+00  0.555903943089E+00  0.000000000000E+00  0.475076242540E+00  0.529012489909E+00
  0.555007183076E+00  0.562172003558E+00  0.523997657246E+00  0.523269526516E+00  0.451834048520E+00  0.514483254954E+00  0.524697317386E+00
  0.506246217301E+00  0.509778401582E+00  0.478881792208E+00  0.499519886586E+00  0.498081338766E+00  0.493201218464E+00  0.493575544523E+00
  0.493226501802E+00  0.501441540098E+00  0.491213276926E+00  0.488103503522E+00  0.498235963659E+00
  0.000000000000E+00  0.000000000000E+00  0.000000000000E+00  0.000000000000E+00  0.000000000000E+00  0.000000000000E+00  0.000000000000E+00
  0.000000000000E+00  0.000000000000E+00  0.000000000000E+00  0.000000000000E+00  0.000000000000E+00  0.000000000000E+00  0.000000000000E+00
  0.000000000000E+00  0.000000000000E+00  0.000000000000E+00  0.000000000000E+00  0.000000000000E+00  0.000000000000E+00  0.000000000000E+00
  0.000000000000E+00  0.000000000000E+00  0.000000000000E+00  0.000000000000E+00  0.000000000000E+00  0.000000000000E+00  0.000000000000E+00
  0.000000000000E+00  0.000000000000E+00  0.000000000000E+00  0.000000000000E+00  0.000000000000E+00
  0.000000000000E+00  0.000000000000E+00  0.000000000000E+00 -0.279072968807E-01  0.124067386846E-01  0.000000000000E+00  0.162361705894E-01
 -0.114474056238E+00  0.481968367303E-03 -0.460951452587E-01  0.299462818416E-01  0.000000000000E+00  0.536074468224E-01 -0.502845353283E-01
  0.507333586071E-02 -0.105803167554E-01  0.439389166728E-01  0.105965548560E-01  0.388446364010E-01 -0.221864085810E-02 -0.367150718845E-02
 -0.404344639128E-03 -0.149357345861E-02  0.342255444187E-02  0.804275111653E-02  0.207982576821E-02  0.580597075293E-03  0.244077293555E-03
  0.506601253625E-02 -0.210226507550E-02 -0.607642935619E-03 -0.695782790092E-03  0.114480655150E-02
  0.667656850997E+00  0.677910438444E+00  0.582231518073E+00  0.670520822852E+00  0.688130583293E+00  0.686645825462E+00  0.690430206211E+00
  0.670645809500E+00  0.691903435870E+00  0.692624432077E+00  0.700947313580E+00  0.908102208138E+00  0.717683223945E+00  0.721491979965E+00
  0.706702644515E+00  0.711393846151E+00  0.721305338326E+00  0.713317606354E+00  0.774899697188E+00  0.721207795783E+00  0.713532242167E+00
  0.713575099676E+00  0.714554237244E+00  0.730580347548E+00  0.718615625733E+00  0.716241097162E+00  0.716741916640E+00  0.719224735757E+00
  0.714565180910E+00  0.713128382409E+00  0.715136916092E+00  0.714653003469E+00  0.716319886208E+00
  0.000000000000E+00  0.000000000000E+00  0.000000000000E+00  0.453747974115E+00  0.402545535358E+00  0.000000000000E+00  0.369629090107E+00
  0.520525421352E+00  0.575220785148E+00  0.575502688469E+00  0.558260201482E+00  0.000000000000E+00  0.478253021161E+00  0.530976521869E+00
  0.555830977671E+00  0.562793215056E+00  0.524675232980E+00  0.523282018176E+00  0.447917891065E+00  0.513796074418E+00  0.524673097127E+00
  0.506323919289E+00  0.509686672433E+00  0.477443347070E+00  0.499194826875E+00  0.497912972446E+00  0.492962768199E+00  0.493078174472E+00
  0.493192029216E+00  0.501531689802E+00  0.491169171133E+00  0.488098794303E+00  0.498012893931E+00
  0.104242640687E+01  0.104242640687E+01  0.104242640687E+01  0.992555412674E+00  0.100338777697E+01  0.104242640687E+01  0.100275101456E+01
  0.987610955663E+00  0.990360756009E+00  0.989796154588E+00  0.994453861298E+00  0.104242640687E+01  0.999323392612E+00  0.100158433861E+01
  0.997121316473E+00  0.998147044066E+00  0.100443205073E+01  0.100036232684E+01  0.102508331296E+01  0.100269535056E+01  0.100014129514E+01
  0.999693735294E+00  0.100036856278E+01  0.100608608047E+01  0.100156233881E+01  0.100069385054E+01  0.100096903805E+01  0.100201867102E+01
  0.100024531031E+01  0.999658105033E+00  0.100018113369E+01  0.100002132830E+01  0.100090132405E+01
        15         9        16        16
        15        18        11        11
        22        15        21        21
        11         5         9         9
         5         7         2         2
        11         9        15        15
        16        21        15        15
        16        10        14        14
        18        17        11        11
        17        25        24        24
        22        18        15        15
        22        30        31        31
        30        21        23        23
        16        20        23        23
        22        27        26        26
        10         9         4         4
         7        11        13        13
        25        18        26        26
        11         7         5         5
         5         1         4         4
        17        19        13        13
        23        32        30        30
        23        20        29        29
         4         9         5         5
         4         8        10        10
        26        18        22        22
        26        28        25        25
        13        11        17        17
        13         6         7         7
        31        30        32        32
         2         1         5         5
         2         7         6         6
        14        10         8         8
        24        19        17        17
        24        25        28        28
         9        10        16        16
         3         4         1         1
        33        26        27        27
        12        13        19        19
        21        30        22        22
        16        14        20        20
        16        23        21        21
        22        31        27        27
        18        25        17        17
        26        33        28        28
         4         3         8         8
        23        29        32        32
        13        12         6         6
zone t="boundary 4 bc-4", solutiontime= 0.8000000E+02, strandid=1004, i=32, j=46, f=feblock
  0.125000000000E+01  0.219251206392E+01  0.103724302461E+01  0.500000000000E+01  0.250000000000E+01  0.375000000000E+01  0.404200324774E+01
  0.500000000000E+01  0.000000000000E+00  0.310152362409E+01  0.202479342020E+01  0.324151231464E+01  0.922061490191E+00  0.000000000000E+00
  0.299062775774E+01  0.394624082883E+01  0.500000000000E+01  0.409252726285E+01  0.500000000000E+01  0.429310310915E+01  0.175434191980E+01
  0.284428995242E+01  0.000000000000E+00  0.000000000000E+00  0.715990576545E+00  0.930412228790E+00  0.125000000000E+01  0.187029682677E+01
  0.500000000000E+01  0.375000000000E+01  0.250000000000E+01  0.000000000000E+00
  0.250494212639E+01  0.157686156160E+01  0.146289271009E+01  0.250494212639E+01  0.250494212639E+01  0.250494212639E+01  0.155830813274E+01
  0.125000000000E+01  0.250494212639E+01  0.177790177481E+01  0.477386199275E+00  0.742988685424E+00  0.308372018325E+00  0.125000000000E+01
 -0.487811078581E+00 -0.144524380962E+01 -0.125000000000E+01 -0.345533899378E+00  0.000000000000E+00  0.627766083140E+00 -0.739814786992E+00
 -0.158811787973E+01  0.000000000000E+00 -0.125000000000E+01 -0.600232012419E+00 -0.154800130438E+01 -0.249658889499E+01 -0.178862290564E+01
 -0.249658889499E+01 -0.249658889499E+01 -0.249658889499E+01 -0.249658889499E+01
  0.500000000000E+01  0.500000000000E+01  0.500000000000E+01  0.500000000000E+01  0.500000000000E+01  0.500000000000E+01  0.500000000000E+01
  0.500000000000E+01  0.500000000000E+01  0.500000000000E+01  0.500000000000E+01  0.500000000000E+01  0.500000000000E+01  0.500000000000E+01
  0.500000000000E+01  0.500000000000E+01  0.500000000000E+01  0.500000000000E+01  0.500000000000E+01  0.500000000000E+01  0.500000000000E+01
  0.500000000000E+01  0.500000000000E+01  0.500000000000E+01  0.500000000000E+01  0.500000000000E+01  0.500000000000E+01  0.500000000000E+01
  0.500000000000E+01  0.500000000000E+01  0.500000000000E+01  0.500000000000E+01
  0.100246725438E+01  0.100134430174E+01  0.100190794165E+01  0.100014590718E+01  0.100101036583E+01  0.100049286604E+01  0.999775589741E+00
  0.100034297592E+01  0.100194476378E+01  0.100086117343E+01  0.100110853186E+01  0.100019876355E+01  0.100152581556E+01  0.100190260512E+01
  0.100054385013E+01  0.998652394382E+00  0.100067113169E+01  0.999536487825E+00  0.100054144949E+01  0.999923232373E+00  0.100145778889E+01
  0.100044293756E+01  0.100077796142E+01  0.100130067692E+01  0.100105883920E+01  0.100174639197E+01  0.100234892331E+01  0.100133132470E+01
  0.999828412543E+00  0.100019291128E+01  0.100028686669E+01  0.100184292197E+01
  0.493201218464E+00  0.493601220711E+00  0.494657953567E+00  0.493226501802E+00  0.491213276926E+00  0.488103503522E+00  0.488185421021E+00
  0.494186665069E+00  0.498235963659E+00  0.490793323532E+00  0.492762901301E+00  0.491176782735E+00  0.497637814308E+00  0.498753316988E+00
  0.492051504409E+00  0.486062296258E+00  0.492255086384E+00  0.489681616353E+00  0.494622556589E+00  0.490040128020E+00  0.494628973562E+00
  0.492616671492E+00  0.499569338739E+00  0.498567815586E+00  0.498183512873E+00  0.496570941926E+00  0.494536388155E+00  0.494839507438E+00
  0.491695274676E+00  0.489493224100E+00  0.494635432930E+00  0.497856403075E+00
  0.000000000000E+00 -0.121469980754E-03 -0.110879904303E-02  0.000000000000E+00  0.000000000000E+00  0.000000000000E+00  0.121293791300E-03
  0.633471753092E-03  0.000000000000E+00  0.102565060335E-03 -0.874326060151E-03 -0.898645118068E-03 -0.157079896774E-02  0.695900924900E-04
 -0.888526039353E-03 -0.918893331877E-03 -0.139168252617E-02 -0.210154480142E-02 -0.141209935150E-02 -0.122049667081E-02 -0.534198784923E-03
 -0.644841497695E-03 -0.176723378794E-03  0.608284158709E-03 -0.247269109505E-04  0.142363508286E-02  0.000000000000E+00  0.724012120150E-03
  0.000000000000E+00  0.000000000000E+00  0.000000000000E+00  0.000000000000E+00