title="tecplot geometry and solution file"
variables = x y z rho u v w p mach temperature
zone t="boundary 1 bc-1", solutiontime= 0.4000000E+02, strandid=1001, i=32, j=46, f=feblock
 -0.547422451393E-02  0.000000000000E+00 -0.567510115175E-02  0.000000000000E+00  0.000000000000E+00  0.000000000000E+00 -0.525112567618E-02
 -0.425678987282E-02  0.000000000000E+00  0.000000000000E+00  0.000000000000E+00  0.000000000000E+00  0.000000000000E+00  0.000000000000E+00
  0.000000000000E+00  0.000000000000E+00 -0.338346964726E-02  0.000000000000E+00  0.000000000000E+00  0.000000000000E+00  0.000000000000E+00
  0.000000000000E+00  0.000000000000E+00  0.000000000000E+00  0.000000000000E+00  0.000000000000E+00  0.000000000000E+00  0.000000000000E+00
  0.000000000000E+00  0.000000000000E+00  0.000000000000E+00  0.000000000000E+00
  0.250494212639E+01  0.250494212639E+01  0.127822224353E+01  0.146289271009E+01  0.157686156160E+01  0.308372018325E+00  0.261960149578E-01
 -0.122573417301E+01 -0.600232012419E+00  0.250494212639E+01  0.477386199275E+00  0.742988685424E+00 -0.739814786992E+00  0.177790177481E+01
  0.155830813274E+01  0.250494212639E+01 -0.249658889499E+01 -0.154800130438E+01 -0.487811078581E+00  0.250494212639E+01  0.627766083140E+00
 -0.345533899378E+00 -0.178862290564E+01 -0.158811787973E+01  0.125000000000E+01 -0.249658889499E+01 -0.144524380962E+01  0.000000000000E+00
 -0.125000000000E+01 -0.249658889499E+01 -0.249658889499E+01 -0.249658889499E+01
  0.808217454595E-04  0.125000000000E+01  0.832205720440E-04  0.103724302461E+01  0.219251206392E+01  0.922061490191E+00  0.104377916079E-03
  0.351876758094E-04  0.715990576545E+00  0.250000000000E+01  0.202479342020E+01  0.324151231464E+01  0.175434191980E+01  0.310152362409E+01
  0.404200324774E+01  0.375000000000E+01  0.816362740114E-04  0.930412228790E+00  0.299062775774E+01  0.500000000000E+01  0.429310310915E+01
  0.409252726285E+01  0.187029682677E+01  0.284428995242E+01  0.500000000000E+01  0.125000000000E+01  0.394624082883E+01  0.500000000000E+01
  0.500000000000E+01  0.250000000000E+01  0.375000000000E+01  0.500000000000E+01
  0.121959985213E+01  0.105831356033E+01  0.128671927146E+01  0.108337052691E+01  0.102354614523E+01  0.116941718703E+01  0.145633782271E+01
  0.134804032028E+01  0.119311480349E+01  0.101662522070E+01  0.101712196122E+01  0.100667542779E+01  0.102800079745E+01  0.100987438147E+01
  0.100346382836E+01  0.100488609169E+01  0.130024659264E+01  0.114206738217E+01  0.100787501436E+01  0.100194475961E+01  0.100378960081E+01
  0.100390910052E+01  0.103478537886E+01  0.101224063233E+01  0.100190260264E+01  0.106018063165E+01  0.100437851370E+01  0.100077796309E+01
  0.100130067462E+01  0.102043484989E+01  0.100593736380E+01  0.100184292941E+01
  0.000000000000E+00  0.451834053928E+00  0.000000000000E+00  0.472912043119E+00  0.470158332721E+00  0.459504942944E+00  0.000000000000E+00
  0.000000000000E+00  0.401768555011E+00  0.478881794176E+00  0.474223489230E+00  0.485492998832E+00  0.492581071176E+00  0.489510450140E+00
  0.492201641166E+00  0.493575555301E+00  0.000000000000E+00  0.464516522339E+00  0.481634327689E+00  0.498235955731E+00  0.494015368955E+00
  0.490674202909E+00  0.458608933930E+00  0.473144559345E+00  0.498753326414E+00  0.451330902226E+00  0.491521104849E+00  0.499569341983E+00
  0.498567814307E+00  0.477380966578E+00  0.492957763245E+00  0.497856410862E+00
  0.000000000000E+00  0.000000000000E+00  0.000000000000E+00  0.156898647703E-01 -0.426046316412E-02  0.288060360747E-01  0.000000000000E+00
  0.000000000000E+00 -0.370128343930E-02  0.000000000000E+00  0.249851957725E-02 -0.528108053715E-02 -0.303265989428E-02 -0.172448697571E-03
 -0.109131555280E-02  0.000000000000E+00  0.000000000000E+00 -0.850281328096E-02  0.955099980997E-03  0.000000000000E+00 -0.167362057561E-02
 -0.105339677721E-02  0.212715466880E-02 -0.123597392162E-02  0.695878390942E-04  0.000000000000E+00  0.214871135762E-03 -0.176722398862E-03
  0.608287287963E-03  0.000000000000E+00  0.000000000000E+00  0.000000000000E+00
  0.000000000000E+00  0.388446370989E-01  0.000000000000E+00  0.103917045741E+00  0.224193181549E-01  0.135341945739E+00  0.000000000000E+00
  0.000000000000E+00  0.126992466028E+00  0.342255313079E-02  0.213553812683E-01 -0.708603692933E-02  0.636035193722E-01  0.292766379369E-02
 -0.792038237968E-03  0.244075226660E-03  0.000000000000E+00  0.115618455044E+00 -0.829814826668E-02  0.114480407212E-02 -0.749345555810E-03
 -0.442111917016E-02  0.223713961071E-01 -0.264556748723E-02  0.180778868545E-02  0.687953278851E-01 -0.177100970332E-02  0.155938161305E-02
  0.142679026956E-02  0.233070069593E-02 -0.110520786556E-02  0.211863415713E-02
  0.908102208341E+00  0.774899693639E+00  0.958078676284E+00  0.800622222487E+00  0.737949071416E+00  0.857914927459E+00  0.108437500265E+01
  0.100373773385E+01  0.887196025475E+00  0.730580344543E+00  0.733315354195E+00  0.720299332214E+00  0.748106700819E+00  0.724222061793E+00
  0.717576379910E+00  0.719224733204E+00  0.968150988294E+00  0.840784356727E+00  0.722225751912E+00  0.716319880540E+00  0.717948113788E+00
  0.717912569302E+00  0.749167996478E+00  0.726422694389E+00  0.716249841663E+00  0.782033732463E+00  0.718602106253E+00  0.715132537111E+00
  0.715579061766E+00  0.734165582628E+00  0.720297839092E+00  0.716213121735E+00
  0.000000000000E+00  0.447917896338E+00  0.000000000000E+00  0.476275929473E+00  0.468523761920E+00  0.473519701467E+00  0.000000000000E+00
  0.000000000000E+00  0.412988876451E+00  0.477443349311E+00  0.472504658703E+00  0.485153448364E+00  0.492070510323E+00  0.488543845160E+00
  0.491923378871E+00  0.493078185150E+00  0.000000000000E+00  0.471586700829E+00  0.480934101522E+00  0.498012886935E+00  0.493689909473E+00
  0.490409928523E+00  0.456073452651E+00  0.472047046448E+00  0.498545875117E+00  0.449257944897E+00  0.491117575952E+00  0.499470107256E+00
  0.498443302230E+00  0.475665757346E+00  0.492352557177E+00  0.497648501197E+00
  0.104242640687E+01  0.102508331345E+01  0.104242640687E+01  0.103461473581E+01  0.100936211308E+01  0.102707648883E+01  0.104242640687E+01
  0.104242640687E+01  0.104103513931E+01  0.100608607925E+01  0.100935928533E+01  0.100173207497E+01  0.101882156487E+01  0.100399703677E+01
  0.100113915766E+01  0.100201867138E+01  0.104242640687E+01  0.103067307393E+01  0.100321571452E+01  0.100090132029E+01  0.100133270807E+01
  0.100116394651E+01  0.101357751714E+01  0.100469368613E+01  0.100084556691E+01  0.103269876167E+01  0.100165717907E+01  0.100040727202E+01
  0.100050934935E+01  0.100724883689E+01  0.100246497547E+01  0.100085386740E+01
        12        19        11        11
        11         5        12        12
        10        14         5         5
        19        13        11        11
        19        24        13        13
        30        23        24        24
        19        12        22        22
        28        22        21        21
        11        13         6         6
         7         6         9         9
        15        12        14        14
        18        13        23        23
        15        25        21        21
        27        19        22        22
        18         8         9         9
        27        31        24        24
         4        11         6         6
         5        14        12        12
         4         2         5         5
        21        12        15        15
        14        16        15        15
        24        19        27        27
        22        29        27        27
        23        26        18        18
        17         8        18        18
         5        11         4         4
         6         3         4         4
        26        23        30        30
         5         2        10        10
        16        14        10        10
         3         6         7         7
        21        25        28        28
        29        22        28        28
         6        13         9         9
         2         4         1         1
        31        27        32        32
        25        15        20        20
        24        23        13        13
         8         7         9         9
        13        18         9         9
        31        30        24        24
        12        21        22        22
        29        32        27        27
         3         1         4         4
        26        17        18        18
        16        20        15        15
zone t="boundary 2 bc-2", solutiontime= 0.4000000E+02, strandid=1002, i=33, j=48, f=feblock
  0.500195305314E+01  0.375034912201E+01  0.249861196354E+01  0.288036736123E+01  0.124717626151E+01  0.190856778360E+01  0.326577225490E+01
  0.201394899014E+01 -0.338346964726E-02  0.962374705951E+00  0.500000000000E+01  0.403430242703E+01  0.423029585421E+01  0.500000000000E+01
  0.385439203165E+01  0.500000000000E+01  0.398133438873E+01  0.315200091181E+01  0.266958048115E+01  0.154798041552E+01  0.218327865436E+01
  0.893688581177E+00  0.000000000000E+00  0.699009801024E+00  0.964460914345E+00  0.310303675842E+01  0.000000000000E+00  0.000000000000E+00
  0.125000000000E+01  0.500000000000E+01  0.375000000000E+01  0.250000000000E+01  0.000000000000E+00
 -0.249658889499E+01 -0.249658889499E+01 -0.249658889499E+01 -0.249658889499E+01 -0.249658889499E+01 -0.249658889499E+01 -0.249658889499E+01
 -0.249658889499E+01 -0.249658889499E+01 -0.249658889499E+01 -0.249658889499E+01 -0.249658889499E+01 -0.249658889499E+01 -0.249658889499E+01
 -0.249658889499E+01 -0.249658889499E+01 -0.249658889499E+01 -0.249658889499E+01 -0.249658889499E+01 -0.249658889499E+01 -0.249658889499E+01
 -0.249658889499E+01 -0.249658889499E+01 -0.249658889499E+01 -0.249658889499E+01 -0.249658889499E+01 -0.249658889499E+01 -0.249658889499E+01
 -0.249658889499E+01 -0.249658889499E+01 -0.249658889499E+01 -0.249658889499E+01 -0.249658889499E+01
  0.108709230302E-03  0.146875485829E-03  0.101409960121E-03  0.901663848144E+00  0.111895836306E-03  0.714929135906E+00  0.188140686189E+01
  0.175892218343E+01  0.816362740114E-04  0.957504934725E+00  0.125000000000E+01  0.100596744181E+01  0.191313547189E+01  0.250000000000E+01
  0.292898120965E+01  0.375000000000E+01  0.406883379958E+01  0.363389309169E+01  0.284756893464E+01  0.292582332357E+01  0.395754068714E+01
  0.205027285784E+01  0.125000000000E+01  0.306703284160E+01  0.397155773792E+01  0.433068631589E+01  0.250000000000E+01  0.375000000000E+01
  0.500000000000E+01  0.500000000000E+01  0.500000000000E+01  0.500000000000E+01  0.500000000000E+01
  0.768735503314E+00  0.889523319466E+00  0.898746320595E+00  0.950542378033E+00  0.924960149947E+00  0.947969348286E+00  0.981017521918E+00
  0.987798994830E+00  0.130024659264E+01  0.101390436331E+01  0.944836341811E+00  0.944236772578E+00  0.978087750264E+00  0.100717421033E+01
  0.997784668791E+00  0.100978232872E+01  0.100012044395E+01  0.996167610604E+00  0.989919905688E+00  0.998867617699E+00  0.997941835145E+00
  0.100913681252E+01  0.106018063165E+01  0.100643337045E+01  0.100351220855E+01  0.998477808310E+00  0.102043484989E+01  0.100593736380E+01
  0.100234892267E+01  0.999828336393E+00  0.100019287552E+01  0.100028688030E+01  0.100184292941E+01
  0.000000000000E+00  0.000000000000E+00  0.000000000000E+00  0.385195820165E+00  0.000000000000E+00  0.340886091647E+00  0.583453542720E+00
  0.571759548445E+00  0.000000000000E+00  0.480963214515E+00  0.505185138776E+00  0.443662076017E+00  0.572024048339E+00  0.532003781445E+00
  0.566400176722E+00  0.512620398894E+00  0.508195693337E+00  0.526914267902E+00  0.564509589248E+00  0.531478338365E+00  0.508129417933E+00
  0.521930181265E+00  0.451330902226E+00  0.494980691558E+00  0.496091704281E+00  0.503538754013E+00  0.477380966578E+00  0.492957763245E+00
  0.494536370260E+00  0.491695284566E+00  0.489493134890E+00  0.494635397530E+00  0.497856410862E+00
  0.000000000000E+00  0.000000000000E+00  0.000000000000E+00  0.000000000000E+00  0.000000000000E+00  0.000000000000E+00  0.000000000000E+00
  0.000000000000E+00  0.000000000000E+00  0.000000000000E+00  0.000000000000E+00  0.000000000000E+00  0.000000000000E+00  0.000000000000E+00
  0.000000000000E+00  0.000000000000E+00  0.000000000000E+00  0.000000000000E+00  0.000000000000E+00  0.000000000000E+00  0.000000000000E+00
  0.000000000000E+00  0.000000000000E+00  0.000000000000E+00  0.000000000000E+00  0.000000000000E+00  0.000000000000E+00  0.000000000000E+00
  0.000000000000E+00  0.000000000000E+00  0.000000000000E+00  0.000000000000E+00  0.000000000000E+00
  0.000000000000E+00  0.000000000000E+00  0.000000000000E+00 -0.142937150391E-02  0.000000000000E+00  0.168978250307E-01  0.875993781163E-02
  0.403964120764E-01  0.000000000000E+00  0.730722922230E-01 -0.112216885525E+00 -0.262899437443E-01 -0.368284386804E-01 -0.483402585506E-01
 -0.588594183151E-02 -0.170466723408E-03 -0.195986603306E-02 -0.317075001373E-02  0.106422526568E-01  0.235146929565E-01  0.228803908070E-02
  0.486674959475E-01  0.687953278851E-01  0.868228992733E-02  0.441101770684E-02 -0.351503545160E-02  0.233070069593E-02 -0.110520786556E-02
  0.135828675883E-02  0.546605406370E-02 -0.147519622262E-02 -0.124161857778E-02  0.211863415713E-02
  0.572392991824E+00  0.662330426956E+00  0.669197784048E+00  0.681370821809E+00  0.688716346863E+00  0.681181016224E+00  0.693024432865E+00
  0.700085113778E+00  0.968150988294E+00  0.722087343011E+00  0.666760573608E+00  0.671480386183E+00  0.691232262484E+00  0.720038369585E+00
  0.710709992409E+00  0.723770733756E+00  0.714752637523E+00  0.710894204301E+00  0.704007875841E+00  0.714159217492E+00  0.712429489412E+00
  0.725804153603E+00  0.782033732463E+00  0.720438332618E+00  0.717728349141E+00  0.712837418674E+00  0.734165582628E+00  0.720297839092E+00
  0.716518297136E+00  0.714353043787E+00  0.714323949447E+00  0.714486138286E+00  0.716213121735E+00
  0.000000000000E+00  0.000000000000E+00  0.000000000000E+00  0.384516086915E+00  0.000000000000E+00  0.340285988091E+00  0.586752996230E+00
  0.575426077517E+00  0.000000000000E+00  0.487199449558E+00  0.520641018711E+00  0.445423600086E+00  0.576269218296E+00  0.533962385264E+00
  0.567224542397E+00  0.511735168524E+00  0.508064044599E+00  0.527166161736E+00  0.565842725912E+00  0.531744064106E+00  0.508272244514E+00
  0.522388438622E+00  0.449257944897E+00  0.494521466733E+00  0.495788436979E+00  0.503678517834E+00  0.475665757346E+00  0.492352557177E+00
  0.494346744648E+00  0.491660286773E+00  0.489529459470E+00  0.494638510242E+00  0.497648501197E+00
  0.104242640687E+01  0.104242640687E+01  0.104242640687E+01  0.100355246918E+01  0.104242640687E+01  0.100599605297E+01  0.989008029249E+00
  0.992225305369E+00  0.104242640687E+01  0.997058812245E+00  0.987964541310E+00  0.995589843519E+00  0.989405262684E+00  0.100087324226E+01
  0.997203124576E+00  0.100346282405E+01  0.100053318437E+01  0.999080752503E+00  0.995647244302E+00  0.100095636977E+01  0.999458335196E+00
  0.100692572349E+01  0.103269876167E+01  0.100216635823E+01  0.100130290418E+01  0.999493807311E+00  0.100724883689E+01  0.100246497547E+01
  0.100077487320E+01  0.100026597057E+01  0.999860680576E+00  0.999993715106E+00  0.100085386740E+01
        15         7        19        19
         8        20        19        19
        18        19        21        21
         7         4         8         8
         3         6         4         4
        19         7         8         8
        19        18        15        15
        14        13        15        15
         8        22        20        20
        27        24        22        22
        19        20        21        21
        32        26        21        21
        17        18        26        26
        17        16        15        15
        25        29        21        21
        12         7        13        13
        10         8         6         6
        25        20        24        24
         4         6         8         8
        12         2         4         4
        10        23        22        22
        26        31        17        17
        30        16        17        17
         4         7        12        12
        13        11        12        12
        21        20        25        25
        24        28        25        25
        22         8        10        10
         6         5        10        10
        31        26        32        32
         4         2         3         3
         5         6         3         3
        11        13        14        14
        22        23        27        27
        28        24        27        27
        15        13         7         7
         2        12         1         1
        29        25        33        33
        23        10         9         9
        21        26        18        18
        16        14        15        15
        18        17        15        15
        29        32        21        21
        22        24        20        20
        28        33        25        25
        11         1        12        12
        31        30        17        17
         5         9        10        10
zone t="boundary 3 bc-3", solutiontime= 0.4000000E+02, strandid=1003, i=33, j=48, f=feblock
  0.375059200023E+01  0.249769659018E+01  0.500322189357E+01  0.403612276076E+01  0.287976836254E+01  0.124542007694E+01  0.190552302486E+01
  0.500000000000E+01  0.326671142353E+01  0.423253781877E+01  0.201271174246E+01 -0.547422451393E-02  0.958896037004E+00  0.500000000000E+01
  0.266968167030E+01  0.385584505517E+01  0.890374290244E+00  0.154654022522E+01  0.000000000000E+00  0.500000000000E+01  0.315261148394E+01
  0.218304203878E+01  0.398195315244E+01  0.000000000000E+00  0.697379959013E+00  0.963757272110E+00  0.125000000000E+01  0.000000000000E+00
  0.500000000000E+01  0.310330743906E+01  0.250000000000E+01  0.375000000000E+01  0.000000000000E+00
  0.250494212639E+01  0.250494212639E+01  0.250494212639E+01  0.250494212639E+01  0.250494212639E+01  0.250494212639E+01  0.250494212639E+01
  0.250494212639E+01  0.250494212639E+01  0.250494212639E+01  0.250494212639E+01  0.250494212639E+01  0.250494212639E+01  0.250494212639E+01
  0.250494212639E+01  0.250494212639E+01  0.250494212639E+01  0.250494212639E+01  0.250494212639E+01  0.250494212639E+01  0.250494212639E+01
  0.250494212639E+01  0.250494212639E+01  0.250494212639E+01  0.250494212639E+01  0.250494212639E+01  0.250494212639E+01  0.250494212639E+01
  0.250494212639E+01  0.250494212639E+01  0.250494212639E+01  0.250494212639E+01  0.250494212639E+01
  0.136457018303E-03  0.110483667052E-03  0.969506812793E-04  0.101756821127E+01  0.908095280158E+00  0.104842439781E-03  0.722629906090E+00
  0.125000000000E+01  0.188965717334E+01  0.191862733218E+01  0.176708303771E+01  0.808217454595E-04  0.969653363549E+00  0.250000000000E+01
  0.285339477240E+01  0.293325090921E+01  0.205656265142E+01  0.293157054664E+01  0.125000000000E+01  0.375000000000E+01  0.363766866045E+01
  0.396069465965E+01  0.407056399432E+01  0.250000000000E+01  0.307032015183E+01  0.397359832591E+01  0.500000000000E+01  0.375000000000E+01
  0.500000000000E+01  0.433260795381E+01  0.500000000000E+01  0.500000000000E+01  0.500000000000E+01
  0.896676831832E+00  0.910447588298E+00  0.781948893014E+00  0.945770331302E+00  0.960130200762E+00  0.922179393938E+00  0.963950433919E+00
  0.950682397651E+00  0.978092867561E+00  0.979670635330E+00  0.986799149247E+00  0.121959985213E+01  0.100543679984E+01  0.100849094223E+01
  0.992240045580E+00  0.997800246452E+00  0.100537161439E+01  0.998282940651E+00  0.105831356033E+01  0.100697677622E+01  0.998804007102E+00
  0.999311189268E+00  0.100000738472E+01  0.101662522070E+01  0.100449251476E+01  0.100204226500E+01  0.100246725777E+01  0.100488609169E+01
  0.100014587683E+01  0.998721187669E+00  0.100101036711E+01  0.100049285819E+01  0.100194475961E+01
  0.000000000000E+00  0.000000000000E+00  0.000000000000E+00  0.451193570490E+00  0.403035924185E+00  0.000000000000E+00  0.369780898986E+00
  0.504465438450E+00  0.572441519700E+00  0.570700438474E+00  0.555903949890E+00  0.000000000000E+00  0.475076246023E+00  0.529012513112E+00
  0.555007185134E+00  0.562171990249E+00  0.523997660054E+00  0.523269526972E+00  0.451834053928E+00  0.514483248123E+00  0.524697326892E+00
  0.506246222529E+00  0.509778469654E+00  0.478881794176E+00  0.499519891806E+00  0.498081334882E+00  0.493201248900E+00  0.493575555301E+00
  0.493226590907E+00  0.501441572421E+00  0.491213329135E+00  0.488103636721E+00  0.498235955731E+00
  0.000000000000E+00  0.000000000000E+00  0.000000000000E+00  0.000000000000E+00  0.000000000000E+00  0.000000000000E+00  0.000000000000E+00
  0.000000000000E+00  0.000000000000E+00  0.000000000000E+00  0.000000000000E+00  0.000000000000E+00  0.000000000000E+00  0.000000000000E+00
  0.000000000000E+00  0.000000000000E+00  0.000000000000E+00  0.000000000000E+00  0.000000000000E+00  0.000000000000E+00  0.000000000000E+00
  0.000000000000E+00  0.000000000000E+00  0.000000000000E+00  0.000000000000E+00  0.000000000000E+00  0.000000000000E+00  0.000000000000E+00
  0.000000000000E+00  0.000000000000E+00  0.000000000000E+00  0.000000000000E+00  0.000000000000E+00
  0.000000000000E+00  0.000000000000E+00  0.000000000000E+00 -0.279073178398E-01  0.124067297486E-01  0.000000000000E+00  0.162361705226E-01
 -0.114473988619E+00  0.481969348229E-03 -0.460951216634E-01  0.299462815359E-01  0.000000000000E+00  0.536074479425E-01 -0.502845021884E-01
  0.507334084538E-02 -0.105803096162E-01  0.439389171095E-01  0.105965556634E-01  0.388446370989E-01 -0.221862906776E-02 -0.367149090835E-02
 -0.404349829568E-03 -0.149357081523E-02  0.342255313079E-02  0.804275132758E-02  0.207982507530E-02  0.580574886844E-03  0.244075226660E-03
  0.506607541934E-02 -0.210225159905E-02 -0.607639041235E-03 -0.695833823361E-03  0.114480407212E-02
  0.667656862808E+00  0.677910434367E+00  0.582231553501E+00  0.670520822202E+00  0.688130579384E+00  0.686645822938E+00  0.690430204113E+00
  0.670645897628E+00  0.691903439291E+00  0.692624440205E+00  0.700947313055E+00  0.908102208341E+00  0.717683223164E+00  0.721491958263E+00
  0.706702640879E+00  0.711393844100E+00  0.721305336088E+00  0.713317602950E+00  0.774899693639E+00  0.721207801292E+00  0.713532232900E+00
  0.713575096009E+00  0.714554228205E+00  0.730580344543E+00  0.718615622852E+00  0.716241094581E+00  0.716741915232E+00  0.719224733204E+00
  0.714565167088E+00  0.713128373211E+00  0.715136912721E+00  0.714652999320E+00  0.716319880540E+00
  0.000000000000E+00  0.000000000000E+00  0.000000000000E+00  0.453748024536E+00  0.402545567745E+00  0.000000000000E+00  0.369629092269E+00
  0.520525184231E+00  0.575220775659E+00  0.575502651459E+00  0.558260204298E+00  0.000000000000E+00  0.478253025091E+00  0.530976539663E+00
  0.555830980697E+00  0.562793197316E+00  0.524675236292E+00  0.523282018968E+00  0.447917896338E+00  0.513796070046E+00  0.524673108407E+00
  0.506323924803E+00  0.509686748314E+00  0.477443349311E+00  0.499194832193E+00  0.497912968599E+00  0.492962799913E+00  0.493078185150E+00
  0.493192116238E+00  0.501531723939E+00  0.491169224805E+00  0.488098927074E+00  0.498012886935E+00
  0.104242640687E+01  0.104242640687E+01  0.104242640687E+01  0.992555084479E+00  0.100338767635E+01  0.104242640687E+01  0.100275102510E+01
  0.987610856158E+00  0.990360779773E+00  0.989796143028E+00  0.994453875469E+00  0.104242640687E+01  0.999323391180E+00  0.100158434674E+01
  0.997121313173E+00  0.998147059274E+00  0.100443204887E+01  0.100036232561E+01  0.102508331345E+01  0.100269534080E+01  0.100014128794E+01
  0.999693734186E+00  0.100036853205E+01  0.100608607925E+01  0.100156233841E+01  0.100069385039E+01  0.100096903270E+01  0.100201867138E+01
  0.100024532131E+01  0.999658097597E+00  0.100018112769E+01  0.100002133035E+01  0.100090132029E+01
        15         9        16        16
        15        18        11        11
        22        15        21        21
        11         5         9         9
         5         7         2         2
        11         9        15        15
        16        21        15        15
        16        10        14        14
        18        17        11        11
        17        25        24        24
        22        18        15        15
        22        30        31        31
        30        21        23        23
        16        20        23        23
        22        27        26        26
        10         9         4         4
         7        11        13        13
        25        18        26        26
        11         7         5         5
         5         1         4         4
        17        19        13        13
        23        32        30        30
        23        20        29        29
         4         9         5         5
         4         8        10        10
        26        18        22        22
        26        28        25        25
        13        11        17        17
        13         6         7         7
        31        30        32        32
         2         1         5         5
         2         7         6         6
        14        10         8         8
        24        19        17        17
        24        25        28        28
         9        10        16        16
         3         4         1         1
        33        26        27        27
        12        13        19        19
        21        30        22        22
        16        14        20        20
        16        23        21        21
        22        31        27        27
        18        25        17        17
        26        33        28        28
         4         3         8         8
        23        29        32        32
        13        12         6         6
zone t="boundary 4 bc-4", solutiontime= 0.4000000E+02, strandid=1004, i=32, j=46, f=feblock
  0.125000000000E+01  0.219251206392E+01  0.103724302461E+01  0.500000000000E+01  0.250000000000E+01  0.375000000000E+01  0.404200324774E+01
  0.500000000000E+01  0.000000000000E+00  0.310152362409E+01  0.202479342020E+01  0.324151231464E+01  0.922061490191E+00  0.000000000000E+00
  0.299062775774E+01  0.394624082883E+01  0.500000000000E+01  0.409252726285E+01  0.500000000000E+01  0.429310310915E+01  0.175434191980E+01
  0.284428995242E+01  0.000000000000E+00  0.000000000000E+00  0.715990576545E+00  0.930412228790E+00  0.125000000000E+01  0.187029682677E+01
  0.500000000000E+01  0.375000000000E+01  0.250000000000E+01  0.000000000000E+00
  0.250494212639E+01  0.157686156160E+01  0.146289271009E+01  0.250494212639E+01  0.250494212639E+01  0.250494212639E+01  0.155830813274E+01
  0.125000000000E+01  0.250494212639E+01  0.177790177481E+01  0.477386199275E+00  0.742988685424E+00  0.308372018325E+00  0.125000000000E+01
 -0.487811078581E+00 -0.144524380962E+01 -0.125000000000E+01 -0.345533899378E+00  0.000000000000E+00  0.627766083140E+00 -0.739814786992E+00
 -0.158811787973E+01  0.000000000000E+00 -0.125000000000E+01 -0.600232012419E+00 -0.154800130438E+01 -0.249658889499E+01 -0.178862290564E+01
 -0.249658889499E+01 -0.249658889499E+01 -0.249658889499E+01 -0.249658889499E+01
  0.500000000000E+01  0.500000000000E+01  0.500000000000E+01  0.500000000000E+01  0.500000000000E+01  0.500000000000E+01  0.500000000000E+01
  0.500000000000E+01  0.500000000000E+01  0.500000000000E+01  0.500000000000E+01  0.500000000000E+01  0.500000000000E+01  0.500000000000E+01
  0.500000000000E+01  0.500000000000E+01  0.500000000000E+01  0.500000000000E+01  0.500000000000E+01  0.500000000000E+01  0.500000000000E+01
  0.500000000000E+01  0.500000000000E+01  0.500000000000E+01  0.500000000000E+01  0.500000000000E+01  0.500000000000E+01  0.500000000000E+01
  0.500000000000E+01  0.500000000000E+01  0.500000000000E+01  0.500000000000E+01
  0.100246725777E+01  0.100134429479E+01  0.100190793822E+01  0.100014587683E+01  0.100101036711E+01  0.100049285819E+01  0.999775515586E+00
  0.100034289957E+01  0.100194475961E+01  0.100086118147E+01  0.100110852723E+01  0.100019873944E+01  0.100152581564E+01  0.100190260264E+01
  0.100054383831E+01  0.998652344412E+00  0.100067103087E+01  0.999536400081E+00  0.100054134813E+01  0.999923121978E+00  0.100145778923E+01
  0.100044293589E+01  0.100077796309E+01  0.100130067462E+01  0.100105883880E+01  0.100174639494E+01  0.100234892267E+01  0.100133133183E+01
  0.999828336393E+00  0.100019287552E+01  0.100028688030E+01  0.100184292941E+01
  0.493201248900E+00  0.493601238628E+00  0.494657963446E+00  0.493226590907E+00  0.491213329135E+00  0.488103636721E+00  0.488185503083E+00
  0.494186715409E+00  0.498235955731E+00  0.490793400060E+00  0.492762865525E+00  0.491176713275E+00  0.497637814146E+00  0.498753326414E+00
  0.492051419082E+00  0.486062174935E+00  0.492255074197E+00  0.489681524687E+00  0.494622537732E+00  0.490040078833E+00  0.494628948753E+00
  0.492616586996E+00  0.499569341983E+00  0.498567814307E+00  0.498183511349E+00  0.496570940590E+00  0.494536370260E+00  0.494839479358E+00
  0.491695284566E+00  0.489493134890E+00  0.494635397530E+00  0.497856410862E+00
  0.000000000000E+00 -0.121455968201E-03 -0.110879265663E-02  0.000000000000E+00  0.000000000000E+00  0.000000000000E+00  0.121278176044E-03
  0.633462959745E-03  0.000000000000E+00  0.102589062425E-03 -0.874311367804E-03 -0.898591036496E-03 -0.157079791429E-02  0.695878390942E-04
 -0.888486207582E-03 -0.918858325277E-03 -0.139163026883E-02 -0.210144488140E-02 -0.141202605514E-02 -0.122044446545E-02 -0.534182838529E-03
 -0.644826734534E-03 -0.176722398862E-03  0.608287287963E-03 -0.247273553347E-04  0.142364534629E-02  0.000000000000E+00  0.724014196109E-03
  0.000000000000E+00  0.000000000000E+00  0.000000000000E+00  0.000000000000E+00