# vtk DataFile Version 2.0
FUN3D:global_image_vtk
ASCII
DATASET UNSTRUCTURED_GRID
POINTS 213 double
   -0.5474224513932383E-02    0.2504942126394190E+01    0.8082174545946623E-04
    0.1245420076942085E+01    0.2504942126394190E+01    0.1048424397811766E-03
    0.2497696590175246E+01    0.2504942126394190E+01    0.1104836670516163E-03
    0.3750592000233255E+01    0.2504942126394190E+01    0.1364570183033088E-03
    0.5003221893571071E+01    0.2504942126394190E+01    0.9695068127933641E-04
    0.5004677757742074E+01    0.1281291915000810E+01    0.1646229492324448E-03
    0.5004773233274468E+01    0.2775197972855541E-01    0.1907234197311281E-03
    0.5003582221833335E+01   -0.1225852858123609E+01    0.1617086219794773E-03
    0.5001953053139548E+01   -0.2496588894990605E+01    0.1087092303020254E-03
    0.3750349122010979E+01   -0.2496588894990605E+01    0.1468754858291722E-03
    0.2498611963544637E+01   -0.2496588894990605E+01    0.1014099601208541E-03
    0.1247176261514498E+01   -0.2496588894990605E+01    0.1118958363064127E-03
   -0.3383469647257067E-02   -0.2496588894990605E+01    0.8163627401135080E-04
   -0.4256789872823102E-02   -0.1225734173005218E+01    0.3518767580942727E-04
   -0.5251125676180537E-02    0.2619601495781477E-01    0.1043779160786318E-03
   -0.5675101151752543E-02    0.1278222243532943E+01    0.8322057204398945E-04
    0.9003214218042753E+00    0.1608980307788276E+01    0.8747990450662328E-04
    0.3983173228641640E+01   -0.1561211262272914E+01    0.1766748278683995E-03
    0.4035602579399945E+01    0.1486761266123902E+01    0.1716707140765739E-03
    0.1036614706204464E+01   -0.1455625787809896E+01    0.1057334762692697E-03
    0.1094353949894646E+01   -0.2964610398745914E+00    0.1265432745046613E-03
    0.7298409877585051E+00    0.6874691505133093E+00    0.1054287859205961E-03
    0.1617019123574323E+01    0.8553219978658714E+00    0.1534205161194813E-03
    0.2143200653249461E+01   -0.1627127869726393E+01    0.1616130354530055E-03
    0.4088840979733531E+01   -0.4351036111850144E+00    0.2724113113656135E-03
    0.2977917509321158E+01   -0.8334984944120313E+00    0.2255152732820998E-03
    0.3044093744004115E+01   -0.1814360085635074E+01    0.1621866839972419E-03
    0.3427867629125337E+01    0.3813911924692986E+00    0.2945982628245459E-03
    0.4313225907786227E+01    0.5489145452797480E+00    0.2316713640985591E-03
    0.1823033713318359E+01    0.1771265914465662E+01    0.1845256848588540E-03
    0.2806311649539731E+01    0.1358630605766185E+01    0.1947352060658736E-03
    0.1891861854175948E+01   -0.8481303814158653E+00    0.1680436634033656E-03
    0.2268769674873436E+01    0.7723810290059903E-01    0.2076744806884101E-03
    0.5000000000000000E+01    0.2504942126394190E+01    0.1250000000000000E+01
    0.5000000000000000E+01    0.2504942126394190E+01    0.2500000000000000E+01
    0.5000000000000000E+01    0.2504942126394190E+01    0.3750000000000000E+01
    0.5000000000000000E+01    0.2504942126394190E+01    0.5000000000000000E+01
    0.3750000000000000E+01    0.2504942126394190E+01    0.5000000000000000E+01
    0.2500000000000000E+01    0.2504942126394190E+01    0.5000000000000000E+01
    0.1250000000000000E+01    0.2504942126394190E+01    0.5000000000000000E+01
    0.0000000000000000E+00    0.2504942126394190E+01    0.5000000000000000E+01
    0.0000000000000000E+00    0.2504942126394190E+01    0.3750000000000000E+01
    0.0000000000000000E+00    0.2504942126394190E+01    0.2500000000000000E+01
    0.0000000000000000E+00    0.2504942126394190E+01    0.1250000000000000E+01
    0.9588960370041330E+00    0.2504942126394190E+01    0.9696533635487885E+00
    0.3981953152439084E+01    0.2504942126394190E+01    0.4070563994321984E+01
    0.4036122760762200E+01    0.2504942126394190E+01    0.1017568211272029E+01
    0.9637572721099048E+00    0.2504942126394190E+01    0.3973598325914064E+01
    0.1546540225218143E+01    0.2504942126394190E+01    0.2931570546636293E+01
    0.6973799590130849E+00    0.2504942126394190E+01    0.3070320151830089E+01
    0.8903742902443585E+00    0.2504942126394190E+01    0.2056562651419467E+01
    0.2183042038779285E+01    0.2504942126394190E+01    0.3960694659650541E+01
    0.3855845055174099E+01    0.2504942126394190E+01    0.2933250909212705E+01
    0.3152611483942322E+01    0.2504942126394190E+01    0.3637668660448349E+01
    0.3103307439058717E+01    0.2504942126394190E+01    0.4332607953814857E+01
    0.3266711423534804E+01    0.2504942126394190E+01    0.1889657173339801E+01
    0.4232537818765943E+01    0.2504942126394190E+01    0.1918627332177736E+01
    0.1905523024858169E+01    0.2504942126394190E+01    0.7226299060896533E+00
    0.2879768362542398E+01    0.2504942126394190E+01    0.9080952801582604E+00
    0.2012711742463492E+01    0.2504942126394190E+01    0.1767083037712090E+01
    0.2669681670304065E+01    0.2504942126394190E+01    0.2853394772396948E+01
    0.5000000000000000E+01    0.1250000000000000E+01    0.5000000000000000E+01
    0.5000000000000000E+01    0.0000000000000000E+00    0.5000000000000000E+01
    0.5000000000000000E+01   -0.1250000000000000E+01    0.5000000000000000E+01
    0.5000000000000000E+01   -0.2496588894990605E+01    0.5000000000000000E+01
    0.5000000000000000E+01   -0.2496588894990605E+01    0.3750000000000000E+01
    0.5000000000000000E+01   -0.2496588894990605E+01    0.2500000000000000E+01
    0.5000000000000000E+01   -0.2496588894990605E+01    0.1250000000000000E+01
    0.5000000000000000E+01    0.1578994732800803E+01    0.9058375365086910E+00
    0.5000000000000000E+01   -0.1583989954232354E+01    0.3982050490726493E+01
    0.5000000000000000E+01    0.1453322699199022E+01    0.4033849428301197E+01
    0.5000000000000000E+01   -0.1479596339503735E+01    0.1040505887381675E+01
    0.5000000000000000E+01   -0.3227322616384110E+00    0.1099454400140349E+01
    0.5000000000000000E+01    0.6593508822075582E+00    0.7354504170366591E+00
    0.5000000000000000E+01    0.8256214013940779E+00    0.1622302608453282E+01
    0.5000000000000000E+01   -0.1650070333782557E+01    0.2145871574390382E+01
    0.5000000000000000E+01   -0.4612828702537229E+00    0.4086422318222992E+01
    0.5000000000000000E+01   -0.8579242121530853E+00    0.2979540174134984E+01
    0.5000000000000000E+01   -0.1836846154397680E+01    0.3045064261640043E+01
    0.5000000000000000E+01    0.3508002863614053E+00    0.3428197553792836E+01
    0.5000000000000000E+01    0.5185680230613409E+00    0.4309693860063405E+01
    0.5000000000000000E+01    0.1738996113203182E+01    0.1827272193562204E+01
    0.5000000000000000E+01    0.1325493893339706E+01    0.2808563282768077E+01
    0.5000000000000000E+01   -0.8731419609589618E+00    0.1895995683864404E+01
    0.5000000000000000E+01    0.4906150219227333E-01    0.2273179336307740E+01
    0.0000000000000000E+00    0.1250000000000000E+01    0.5000000000000000E+01
    0.0000000000000000E+00    0.0000000000000000E+00    0.5000000000000000E+01
    0.0000000000000000E+00   -0.1250000000000000E+01    0.5000000000000000E+01
    0.0000000000000000E+00   -0.2496588894990605E+01    0.5000000000000000E+01
    0.1250000000000000E+01   -0.2496588894990605E+01    0.5000000000000000E+01
    0.2500000000000000E+01   -0.2496588894990605E+01    0.5000000000000000E+01
    0.3750000000000000E+01   -0.2496588894990605E+01    0.5000000000000000E+01
    0.4042003247744892E+01    0.1558308132739014E+01    0.5000000000000000E+01
    0.9304122287900499E+00   -0.1548001304379777E+01    0.5000000000000000E+01
    0.1037243024609388E+01    0.1462892710085612E+01    0.5000000000000000E+01
    0.3946240828834967E+01   -0.1445243809615570E+01    0.5000000000000000E+01
    0.4092527262848217E+01   -0.3455338993778935E+00    0.5000000000000000E+01
    0.4293103109154542E+01    0.6277660831404320E+00    0.5000000000000000E+01
    0.3241512314643519E+01    0.7429886854239611E+00    0.5000000000000000E+01
    0.2844289952419609E+01   -0.1588117879734118E+01    0.5000000000000000E+01
    0.7159905765450471E+00   -0.6002320124191652E+00    0.5000000000000000E+01
    0.1754341919796891E+01   -0.7398147869923652E+00    0.5000000000000000E+01
    0.1870296826774691E+01   -0.1788622905643739E+01    0.5000000000000000E+01
    0.9220614901912976E+00    0.3083720183248586E+00    0.5000000000000000E+01
    0.3101523624086016E+01    0.1777901774806180E+01    0.5000000000000000E+01
    0.2192512063922564E+01    0.1576861561598471E+01    0.5000000000000000E+01
    0.2024793420196460E+01    0.4773861992750707E+00    0.5000000000000000E+01
    0.2990627757741975E+01   -0.4878110785814084E+00    0.5000000000000000E+01
    0.0000000000000000E+00   -0.2496588894990605E+01    0.1250000000000000E+01
    0.0000000000000000E+00   -0.2496588894990605E+01    0.2500000000000000E+01
    0.0000000000000000E+00   -0.2496588894990605E+01    0.3750000000000000E+01
    0.0000000000000000E+00    0.1558308132739014E+01    0.4042003247744892E+01
    0.0000000000000000E+00   -0.1548001304379777E+01    0.9304122287900499E+00
    0.0000000000000000E+00    0.1462892710085612E+01    0.1037243024609388E+01
    0.0000000000000000E+00   -0.1445243809615570E+01    0.3946240828834967E+01
    0.0000000000000000E+00   -0.3455338993778935E+00    0.4092527262848217E+01
    0.0000000000000000E+00    0.6277660831404320E+00    0.4293103109154542E+01
    0.0000000000000000E+00    0.7429886854239611E+00    0.3241512314643519E+01
    0.0000000000000000E+00   -0.1588117879734118E+01    0.2844289952419609E+01
    0.0000000000000000E+00   -0.6002320124191652E+00    0.7159905765450471E+00
    0.0000000000000000E+00   -0.7398147869923652E+00    0.1754341919796891E+01
    0.0000000000000000E+00   -0.1788622905643739E+01    0.1870296826774691E+01
    0.0000000000000000E+00    0.3083720183248586E+00    0.9220614901912976E+00
    0.0000000000000000E+00    0.1777901774806180E+01    0.3101523624086016E+01
    0.0000000000000000E+00    0.1576861561598471E+01    0.2192512063922564E+01
[...]
POINT_DATA 213
SCALARS rho double 1
LOOKUP_TABLE default
   0.1219603818734050E+01
   0.9221843712383093E+00
   0.9104573113944413E+00
   0.8967078899387535E+00
   0.7819683445207145E+00
   0.7116530375094680E+00
   0.6990696437312626E+00
   0.7029374107794095E+00
   0.7687420841504015E+00
   0.8895338876602282E+00
   0.8987468832049438E+00
   0.9249648682988283E+00
   0.1300253788632769E+01
   0.1348038871580070E+01
   0.1456336363920330E+01
   0.1286725296579598E+01
   0.9619684913528768E+00
   0.9047695538398480E+00
   0.8972531161750710E+00
   0.9249278527016903E+00
   0.9126348344974885E+00
   0.9866014788185445E+00
   0.8974359975731525E+00
   0.8999786277219800E+00
   0.9067591476779385E+00
   0.9112596238377962E+00
   0.8943886091684619E+00
   0.9125983788324941E+00
   0.8902642426507056E+00
   0.9018729297213400E+00
   0.9063719445558658E+00
   0.8624007488747782E+00
   0.9078215175046940E+00
   0.9507490471017241E+00
   0.1008490333716740E+01
   0.1006987552354158E+01
   0.1000096062507776E+01
   0.1000460164334138E+01
   0.1001007518055720E+01
   0.1002474806395741E+01
   0.1001948150684815E+01
   0.1004885728041276E+01
   0.1016626510446552E+01
   0.1058308208148180E+01
   0.1005440360113154E+01
   0.1000006879543856E+01
   0.9458693702510897E+00
   0.1002042760569198E+01
   0.9982818167733114E+00
   0.1004493516761018E+01
   0.1005369455911767E+01
   0.9993154520944645E+00
   0.9978029948021750E+00
   0.9988097943892709E+00
   0.9987291569786407E+00
   0.9780910526296642E+00
   0.9796790826640716E+00
   0.9639537786224507E+00
   0.9601880062730644E+00
   0.9867967389044803E+00
   0.9922419279980067E+00
   0.1000302984988164E+01
   0.1000503685507723E+01
   0.1000652876060147E+01
   0.9998019859843176E+00
   0.1009788806273667E+01
   0.1007164005438663E+01
   0.9448303241876775E+00
   0.9034851720571896E+00
   0.1007039420691239E+01
   0.1004191092837489E+01
   0.8965313354270573E+00
   0.8926963362705983E+00
   0.8470710346615229E+00
   0.9708211732540903E+00
   0.1000179116990114E+01
   0.1006092546556575E+01
   0.1015640445273094E+01
   0.1012991939905824E+01
   0.1012869847625975E+01
   0.1005110650912882E+01
   0.9863541408759531E+00
   0.1006594277201484E+01
   0.9849618470585416E+00
   0.1008116399178723E+01
   0.1001905527214262E+01
   0.1000777294481516E+01
   0.1001301689895036E+01
   0.1001846483198796E+01
   0.1002352458019971E+01
   0.1000288226719957E+01
   0.1000187108668185E+01
   0.9997365575495847E+00
   0.1001751881617353E+01
   0.1001912584776230E+01
   0.9986467943944871E+00
   0.9995141553535193E+00
   0.9998813110253946E+00
   0.1000193454069308E+01
   0.1000451254049217E+01
   0.1001063555277374E+01
   0.1001470372089357E+01
   0.1001336947617334E+01
   0.1001534264059400E+01
   0.1000847820736280E+01
   0.1001347159053205E+01
   0.1001119923063568E+01
   0.1000547978774856E+01
   0.1060191611252535E+01
   0.1020436798302418E+01
   0.1005934430385594E+01
   0.1003467119372613E+01
   0.1142052599720539E+01
   0.1083375898437940E+01
   0.1004376824464721E+01
   0.1003908340423265E+01
   0.1003793739963447E+01
   0.1006678298388134E+01
   0.1012237994810910E+01
   0.1193115082734557E+01
   0.1028008152321104E+01
   0.1034782733852306E+01
   0.1169414096467850E+01
   0.1009876836674281E+01
   0.1023540963060552E+01
   0.1017119870835522E+01
   0.1007875321869798E+01
   0.1013906087376015E+01
   0.1000119027088349E+01
   0.9442630519096897E+00
   0.1003514235057674E+01
   0.9988694961245628E+00
   0.1006432639414252E+01
   0.1009139127758013E+01
   0.9979444594262288E+00
   0.9977833899722847E+00
   0.9961695611589829E+00
   0.9984747125703221E+00
   0.9810070412321806E+00
   0.9780772237243501E+00
   0.9479810179804149E+00
   0.9505447962064233E+00
   0.9878062555512660E+00
   0.9899256423838005E+00
   0.9925447438491563E+00
   0.9998161686493250E+00
   0.9986044672498442E+00
   0.9946524123201078E+00
   0.1006782414856966E+01
   0.1021196200160562E+01
   0.9980076933764602E+00
   0.1004786955897894E+01
   0.1001444521039794E+01
   0.1004868527551035E+01
   0.9952915894568501E+00
   0.9853999168480568E+00
   0.1000232261916507E+01
   0.9938965691076467E+00
   0.9819611359588722E+00
   0.9943479120028228E+00
   0.9968787230845160E+00
   0.9937011321941349E+00
   0.9987068147867371E+00
   0.1000042020451802E+01
   0.9996715887244335E+00
   0.9958464623382117E+00
   0.9933650030582311E+00
   0.1001383095936532E+01
   0.1018342759187464E+01
   0.1002763648905063E+01
   0.9806508105589159E+00
   0.1001879143919051E+01
   0.1008206565867629E+01
   0.9702353136496619E+00
   0.9431386269408379E+00
   0.9846821615570835E+00
   0.9843683050557506E+00
   0.9754759650648367E+00
   0.9908396317390052E+00
   0.9779138509667902E+00
   0.1033959912533444E+01
   0.1021654479200238E+01
   0.1000029330462324E+01
   0.9991788536996606E+00
   0.9918948088142167E+00
   0.9907248820658568E+00
   0.9573904798860258E+00
   0.9930428562002230E+00
   0.1006286848990241E+01
   0.1002041847480485E+01
   0.9896495973391869E+00
   0.9652829515236052E+00
   0.9203532952466063E+00
   0.9724313014243996E+00
   0.9781828833554991E+00
   0.9559882944735144E+00
   0.9617566358280222E+00
   0.9490307964647177E+00
   0.9367077959232436E+00
   0.9303365474280538E+00
   0.9992916539295197E+00
   0.9994683588143117E+00
   0.9988045314706500E+00
   0.1002022149358713E+01
   0.9391448481036316E+00
   0.9239546404176923E+00
   0.9359511086025188E+00
   0.9984186044759105E+00
   0.9983457330529987E+00
   0.1000457293150646E+01
   0.9793894712980945E+00
   0.9713543544667578E+00
   0.9447301322118841E+00
SCALARS u double 1
LOOKUP_TABLE default
   0.0000000000000000E+00
   0.0000000000000000E+00
   0.0000000000000000E+00
   0.0000000000000000E+00
   0.0000000000000000E+00
   0.0000000000000000E+00
   0.0000000000000000E+00
   0.0000000000000000E+00
   0.0000000000000000E+00
   0.0000000000000000E+00
   0.0000000000000000E+00
   0.0000000000000000E+00
   0.0000000000000000E+00
   0.0000000000000000E+00
   0.0000000000000000E+00
   0.0000000000000000E+00
   0.0000000000000000E+00
   0.0000000000000000E+00
   0.0000000000000000E+00
   0.0000000000000000E+00
   0.0000000000000000E+00
   0.0000000000000000E+00
   0.0000000000000000E+00
   0.0000000000000000E+00
   0.0000000000000000E+00
   0.0000000000000000E+00
   0.0000000000000000E+00
   0.0000000000000000E+00
   0.0000000000000000E+00
   0.0000000000000000E+00
   0.0000000000000000E+00
   0.0000000000000000E+00
   0.0000000000000000E+00
   0.5043859646601117E+00
   0.5290143558488155E+00
   0.5145293642767709E+00
   0.4931663515654070E+00
   0.4879159305887720E+00
   0.4911223752524426E+00
   0.4931935418727973E+00
   0.4982722392154603E+00
   0.4935686617245787E+00
   0.4788819346202648E+00
   0.4518415483716377E+00
   0.4750713905520143E+00
   0.5098345075962090E+00
   0.4511704515101123E+00
   0.4980822017928997E+00
   0.5232772130509199E+00
   0.4995160230779263E+00
   0.5240009543920610E+00
   0.5062567880266532E+00
   0.5622089975593491E+00
   0.5247365311258941E+00
   0.5014472208104025E+00
   0.5724185916501905E+00
   0.5706648159020733E+00
   0.3697690096244384E+00
   0.4030091154724838E+00
   0.5558997049328742E+00
   0.5550228652738823E+00
   0.4941241473403659E+00
   0.4945891209494248E+00
   0.4922127337592361E+00
   0.4916548714454812E+00
   0.5126636383961152E+00
   0.5320112066105436E+00
   0.5051780594119638E+00
   0.4699984059723735E+00
   0.5097116643632097E+00
   0.5089975885850992E+00
   0.4954863553357234E+00
   0.5091091642977077E+00
   0.4859829272002494E+00
   0.5290375207017146E+00
   0.5277010348395650E+00
   0.5095552967117706E+00
   0.5265106495199221E+00
   0.5256040067612158E+00
   0.5249429891889511E+00
   0.5039216223526507E+00
   0.5284311748073084E+00
   0.5353892931466387E+00
   0.5371604981064508E+00
   0.5324173518294972E+00
   0.4987621231849340E+00
   0.4995724316256639E+00
   0.4985672092176015E+00
   0.4978702936366436E+00
   0.4945026895404070E+00
   0.4945454504719899E+00
   0.4893308493605833E+00
   0.4880379457356804E+00
   0.4965578849818422E+00
   0.4946398755703579E+00
   0.4859513881830972E+00
   0.4895886250936949E+00
   0.4899450466543445E+00
   0.4910921868822248E+00
   0.4924938560188271E+00
   0.4981709297877600E+00
   0.4945799919235525E+00
   0.4947858087156624E+00
   0.4976217672936981E+00
   0.4906615152681007E+00
   0.4935434179536952E+00
   0.4927137933071999E+00
   0.4919484465563352E+00
   0.4513155702456272E+00
   0.4773800060741152E+00
   0.4929600171591269E+00
   0.4921839095569421E+00
   0.4645382609595391E+00
   0.4728925733819096E+00
   0.4915203633946839E+00
   0.4906735214397949E+00
   0.4940179317523380E+00
   0.4854913797146899E+00
   0.4731541061378628E+00
   0.4017666876139965E+00
   0.4925697229486009E+00
   0.4586131320195450E+00
   0.4595065488153857E+00
   0.4895082771091083E+00
   0.4701758801313904E+00
   0.4742341367317905E+00
   0.4816375723498851E+00
   0.4809654095683527E+00
   0.5082467208024094E+00
   0.4436626328495396E+00
   0.4960920705612681E+00
   0.5314855495008988E+00
   0.4949801197894705E+00
   0.5219260131820939E+00
   0.5081636870144824E+00
   0.5664256083017842E+00
   0.5269600231110299E+00
   0.5035455556022467E+00
   0.5834270509059605E+00
   0.5720015843971191E+00
   0.3408945928655925E+00
   0.3851894801120986E+00
   0.5717499732386042E+00
   0.5645152749397748E+00
   0.5689118552204089E+00
   0.5291656475888123E+00
   0.5449115272425773E+00
   0.5701736958249167E+00
   0.5404102727577131E+00
   0.5487718667150282E+00
   0.5790020038302920E+00
   0.4955235096441013E+00
   0.5065038985326222E+00
   0.4994479427346048E+00
   0.5533044497703349E+00
   0.4597887723757810E+00
   0.4983716616556154E+00
   0.5489845490000299E+00
   0.5894137406772537E+00
   0.5821726059581490E+00
   0.5457305282200580E+00
   0.5784917129651785E+00
   0.5122194421665386E+00
   0.5055189892766889E+00
   0.5049091429531389E+00
   0.5645366759420068E+00
   0.5552329830090252E+00
   0.4977582879554918E+00
   0.5488140197093208E+00
   0.5486822177634247E+00
   0.5643293617888987E+00
   0.4955079418271833E+00
   0.4958771562914606E+00
   0.3908605474075402E+00
   0.3726106187585635E+00
   0.5584707932209629E+00
   0.5739307223504607E+00
   0.4177349126146395E+00
   0.5812879531646969E+00
   0.4186133420757702E+00
   0.5391913430142923E+00
   0.4993294945005672E+00
   0.5114136005242169E+00
   0.5070294403668052E+00
   0.5732452102249472E+00
   0.5857673019723686E+00
   0.5447951658524507E+00
   0.5656988190511683E+00
   0.5320717308512267E+00
   0.5310558047895555E+00
   0.5561836891497499E+00
   0.5551721946697750E+00
   0.4400873849615885E+00
   0.5282756707447495E+00
   0.5807100427312143E+00
   0.3397438943431906E+00
   0.4812105440570704E+00
   0.5510160329249313E+00
   0.4924426779383578E+00
   0.3108942849128684E+00
   0.5051844708844214E+00
   0.5043640854605003E+00
   0.5129785857047757E+00
   0.5386254781743298E+00
   0.3519841237569238E+00
   0.3560903130677294E+00
   0.3308100152790683E+00
   0.5084682345751194E+00
   0.5125925148005583E+00
   0.5314812253491416E+00
   0.5857902085836921E+00
   0.4640819972352879E+00
   0.3627705282962786E+00
SCALARS v double 1
LOOKUP_TABLE default
   0.0000000000000000E+00
   0.0000000000000000E+00
   0.0000000000000000E+00
   0.0000000000000000E+00
   0.0000000000000000E+00
   0.0000000000000000E+00
   0.0000000000000000E+00
   0.0000000000000000E+00
   0.0000000000000000E+00
   0.0000000000000000E+00
   0.0000000000000000E+00
   0.0000000000000000E+00
   0.0000000000000000E+00
   0.0000000000000000E+00
   0.0000000000000000E+00
   0.0000000000000000E+00
   0.0000000000000000E+00
   0.0000000000000000E+00
   0.0000000000000000E+00
   0.0000000000000000E+00
   0.0000000000000000E+00
   0.0000000000000000E+00
   0.0000000000000000E+00
   0.0000000000000000E+00
   0.0000000000000000E+00
   0.0000000000000000E+00
   0.0000000000000000E+00
   0.0000000000000000E+00
   0.0000000000000000E+00
   0.0000000000000000E+00
   0.0000000000000000E+00
   0.0000000000000000E+00
   0.0000000000000000E+00
   0.0000000000000000E+00
   0.0000000000000000E+00
   0.0000000000000000E+00
   0.0000000000000000E+00
   0.0000000000000000E+00
   0.0000000000000000E+00
   0.0000000000000000E+00
   0.0000000000000000E+00
   0.0000000000000000E+00
   0.0000000000000000E+00
   0.0000000000000000E+00
   0.0000000000000000E+00
   0.0000000000000000E+00
   0.0000000000000000E+00
   0.0000000000000000E+00
   0.0000000000000000E+00
   0.0000000000000000E+00
   0.0000000000000000E+00
   0.0000000000000000E+00
   0.0000000000000000E+00
   0.0000000000000000E+00
   0.0000000000000000E+00
   0.0000000000000000E+00
   0.0000000000000000E+00
   0.0000000000000000E+00
   0.0000000000000000E+00
   0.0000000000000000E+00
   0.0000000000000000E+00
   0.6502952862965419E-03
  -0.1407503410546336E-02
  -0.1400376759305530E-02
   0.0000000000000000E+00
   0.0000000000000000E+00
   0.0000000000000000E+00
   0.0000000000000000E+00
  -0.1869227205592890E-01
   0.2789944866131336E-03
   0.2205759537998151E-02
   0.1489020829898890E-01
  -0.5378055609321867E-02
  -0.6637889654970985E-02
  -0.1142063628656475E-01
   0.4787328830917027E-02
   0.5352309067213276E-03
   0.3202031338247461E-02
   0.1534664774748596E-02
   0.3478745146404308E-02
   0.1706682191016636E-02
  -0.6362507607919517E-02
   0.7641767232980895E-03
   0.4864075203478307E-02
   0.6186929064398247E-03
   0.7637936523407414E-04
  -0.1733654889564985E-03
   0.6184760568332303E-03
   0.0000000000000000E+00
   0.0000000000000000E+00
   0.0000000000000000E+00
   0.0000000000000000E+00
   0.1205243879928105E-03
   0.1438289729689989E-02
  -0.1119195227433413E-02
  -0.9271246230042387E-03
  -0.2117131176125616E-02
  -0.1233296275533125E-02
  -0.9266665937956220E-03
  -0.6314018317842191E-03
  -0.1695682817869368E-04
  -0.5217155773290078E-03
   0.7299299231279118E-03
  -0.1572626035132491E-02
   0.7141286712778002E-04
  -0.1457373341336445E-03
  -0.8851223167144205E-03
  -0.8973215149607666E-03
   0.0000000000000000E+00
   0.0000000000000000E+00
   0.0000000000000000E+00
  -0.1087159513615704E-02
  -0.8504388127135271E-02
   0.1569086599684136E-01
   0.2158461145289732E-03
  -0.1054245557358115E-02
  -0.1671747237406366E-02
  -0.5287523833756000E-02
  -0.1242359179250294E-02
  -0.3704912777878216E-02
  -0.3037998348454725E-02
   0.2128482537567293E-02
   0.2880736883439387E-01
  -0.1745725986404175E-03
  -0.4260329658884553E-02
   0.2496532992893278E-02
   0.9497037143052565E-03
   0.0000000000000000E+00
   0.0000000000000000E+00
   0.0000000000000000E+00
   0.0000000000000000E+00
   0.0000000000000000E+00
   0.0000000000000000E+00
   0.0000000000000000E+00
   0.0000000000000000E+00
   0.0000000000000000E+00
   0.0000000000000000E+00
   0.0000000000000000E+00
   0.0000000000000000E+00
   0.0000000000000000E+00
   0.0000000000000000E+00
   0.0000000000000000E+00
   0.0000000000000000E+00
   0.0000000000000000E+00
   0.4678145549035802E-02
   0.2762867498064414E-02
   0.6902123196530854E-02
   0.5630347889386647E-02
   0.8689147536352070E-02
   0.1244164792560371E-01
   0.4853627978875152E-03
   0.4362198979576922E-02
   0.2413458947022451E-02
   0.2334414412861207E-02
   0.3179608964331265E-02
  -0.1060452657573698E-01
  -0.4897538730294635E-03
   0.6050070939453236E-02
   0.2602097450418646E-02
   0.2280224535462153E-02
   0.3851115102625432E-02
  -0.2005117558535554E-02
   0.9226998039382327E-03
   0.2375997613395179E-02
   0.1154486052849349E-02
   0.2699027331096475E-02
   0.1747073429065916E-02
   0.1803165226620015E-02
   0.8004650114066451E-02
  -0.3379934534492849E-02
   0.5469907822568240E-02
   0.6948483295754452E-04
  -0.3805468562341331E-04
  -0.1330523800062624E-01
  -0.3297408593246240E-02
  -0.3548296515976988E-02
   0.3677220216143973E-02
  -0.3998823343003872E-02
   0.8930545104843480E-03
  -0.2588898606055414E-01
  -0.3071229006010760E-02
   0.4170542258832692E-02
   0.7145204999601910E-03
   0.1828233436871564E-02
   0.4445839650073897E-02
   0.2301146660493716E-02
   0.3387163996382404E-02
   0.5068850934134957E-02
   0.1858051521633869E-02
   0.5819787765230493E-03
  -0.3370845010307530E-03
  -0.4622087037566622E-02
  -0.5504819780289222E-02
   0.4414226620770339E-03
   0.9504729402714154E-03
  -0.7263278846476027E-03
  -0.3864360398671289E-02
  -0.1213857117025631E-02
  -0.3665284842812725E-02
  -0.6903274913046166E-02
  -0.1717566667855182E-02
   0.5423207753736531E-03
  -0.3574825967900059E-03
   0.1118627027556103E-02
  -0.1849802939898467E-02
   0.6946338199822181E-02
  -0.9776832640606040E-02
  -0.1671115725383920E-04
  -0.4125850609406695E-03
   0.2413816818871860E-02
   0.1122187369223733E-02
   0.1300752438171563E-02
  -0.3837202033139528E-02
SCALARS w double 1
LOOKUP_TABLE default
   0.0000000000000000E+00
   0.0000000000000000E+00
   0.0000000000000000E+00
   0.0000000000000000E+00
   0.0000000000000000E+00
   0.0000000000000000E+00
   0.0000000000000000E+00
   0.0000000000000000E+00
   0.0000000000000000E+00
   0.0000000000000000E+00
   0.0000000000000000E+00
   0.0000000000000000E+00
   0.0000000000000000E+00
   0.0000000000000000E+00
   0.0000000000000000E+00
   0.0000000000000000E+00
   0.0000000000000000E+00
   0.0000000000000000E+00
   0.0000000000000000E+00
   0.0000000000000000E+00
   0.0000000000000000E+00
   0.0000000000000000E+00
   0.0000000000000000E+00
   0.0000000000000000E+00
   0.0000000000000000E+00
   0.0000000000000000E+00
   0.0000000000000000E+00
   0.0000000000000000E+00
   0.0000000000000000E+00
   0.0000000000000000E+00
   0.0000000000000000E+00
   0.0000000000000000E+00
   0.0000000000000000E+00
  -0.1144569891499627E+00
  -0.5028539593744560E-01
  -0.2203978690274690E-02
   0.5094515967449680E-02
  -0.7244747724862212E-03
  -0.6217904940253034E-03
   0.5782083425896211E-03
   0.1147788255319564E-02
   0.2410799433899855E-03
   0.3421816346041472E-02
   0.3885322871374069E-01
   0.5360270531684771E-01
  -0.1488179514319199E-02
  -0.2792947015528965E-01
   0.2077730231286194E-02
   0.1060383498177844E-01
   0.8041837615691810E-02
   0.4393951465114193E-01
  -0.4024843823331473E-03
  -0.1057950246572557E-01
  -0.3669342568460084E-02
  -0.2114033848692488E-02
   0.4779782250290981E-03
  -0.4610135362742646E-01
   0.1623423708792830E-01
   0.1240368252692108E-01
   0.2994347432963072E-01
   0.5081718621744861E-02
   0.4339623628499362E-02
   0.4396692276256119E-02
   0.4023468959964610E-02
   0.5481498018166948E-02
  -0.1668321370059860E-03
  -0.4835287680080707E-01
  -0.1122048456284196E+00
  -0.1279616198849261E+00
   0.2795130786508468E-02
   0.1958559957323959E-02
  -0.1150566013981326E+00
  -0.1132649897938896E+00
  -0.1132311200491355E+00
  -0.1072554964188096E+00
  -0.7747980665573090E-01
   0.3045052514494828E-02
  -0.2451368596334556E-01
  -0.2042297142916540E-01
  -0.9920724613885070E-02
   0.5271346754721641E-02
  -0.9128644340459449E-01
  -0.3406223458301193E-01
  -0.9177240450625147E-01
  -0.6775005502877784E-01
   0.1811392957089593E-02
   0.1567504517869837E-02
   0.1436565380647717E-02
   0.2121966353467925E-02
   0.1363994082616848E-02
  -0.1245486535069738E-02
  -0.1480401648365797E-02
   0.1128902511011573E-02
   0.2221218298889233E-02
   0.1201137952287627E-02
  -0.7423317051022656E-04
   0.1758684135048063E-03
   0.8323869332946111E-03
  -0.1602344461429251E-02
  -0.1947669599516335E-02
   0.1975020661714341E-02
  -0.4610483800411670E-04
  -0.4303480663541837E-03
   0.2230398345730289E-02
  -0.1095713328452754E-02
  -0.1929582578469210E-03
  -0.4988479031980724E-03
  -0.1820931325414042E-02
   0.6878936663505011E-01
   0.2326169990152731E-02
  -0.1106858707756330E-02
  -0.7949946484939868E-03
   0.1156146221951096E+00
   0.1039066299826562E+00
  -0.1757309194779803E-02
  -0.4421471683624017E-02
  -0.7507654046974222E-03
  -0.7085409377905509E-02
  -0.2646834688799814E-02
   0.1269945829508052E+00
   0.6359911965981202E-01
   0.2236899732213984E-01
   0.1353398628654326E+00