title="tecplot geometry and solution file"
variables = x y z rho u v w p mach temperature
zone t="boundary 1 bc-1", solutiontime= 0.6000000E+02, strandid=1001, i=32, j=46, f=feblock
 -0.547422451393E-02  0.000000000000E+00 -0.567510115175E-02  0.000000000000E+00  0.000000000000E+00  0.000000000000E+00 -0.525112567618E-02
 -0.425678987282E-02  0.000000000000E+00  0.000000000000E+00  0.000000000000E+00  0.000000000000E+00  0.000000000000E+00  0.000000000000E+00
  0.000000000000E+00  0.000000000000E+00 -0.338346964726E-02  0.000000000000E+00  0.000000000000E+00  0.000000000000E+00  0.000000000000E+00
  0.000000000000E+00  0.000000000000E+00  0.000000000000E+00  0.000000000000E+00  0.000000000000E+00  0.000000000000E+00  0.000000000000E+00
  0.000000000000E+00  0.000000000000E+00  0.000000000000E+00  0.000000000000E+00
  0.250494212639E+01  0.250494212639E+01  0.127822224353E+01  0.146289271009E+01  0.157686156160E+01  0.308372018325E+00  0.261960149578E-01
 -0.122573417301E+01 -0.600232012419E+00  0.250494212639E+01  0.477386199275E+00  0.742988685424E+00 -0.739814786992E+00  0.177790177481E+01
  0.155830813274E+01  0.250494212639E+01 -0.249658889499E+01 -0.154800130438E+01 -0.487811078581E+00  0.250494212639E+01  0.627766083140E+00
 -0.345533899378E+00 -0.178862290564E+01 -0.158811787973E+01  0.125000000000E+01 -0.249658889499E+01 -0.144524380962E+01  0.000000000000E+00
 -0.125000000000E+01 -0.249658889499E+01 -0.249658889499E+01 -0.249658889499E+01
  0.808217454595E-04  0.125000000000E+01  0.832205720440E-04  0.103724302461E+01  0.219251206392E+01  0.922061490191E+00  0.104377916079E-03
  0.351876758094E-04  0.715990576545E+00  0.250000000000E+01  0.202479342020E+01  0.324151231464E+01  0.175434191980E+01  0.310152362409E+01
  0.404200324774E+01  0.375000000000E+01  0.816362740114E-04  0.930412228790E+00  0.299062775774E+01  0.500000000000E+01  0.429310310915E+01
  0.409252726285E+01  0.187029682677E+01  0.284428995242E+01  0.500000000000E+01  0.125000000000E+01  0.394624082883E+01  0.500000000000E+01
  0.500000000000E+01  0.250000000000E+01  0.375000000000E+01  0.500000000000E+01
  0.121959985185E+01  0.105831356569E+01  0.128671927357E+01  0.108337053523E+01  0.102354614682E+01  0.116941718382E+01  0.145633782364E+01
  0.134804032332E+01  0.119311480318E+01  0.101662522365E+01  0.101712196453E+01  0.100667542999E+01  0.102800079363E+01  0.100987438441E+01
  0.100346383181E+01  0.100488609562E+01  0.130024658829E+01  0.114206739854E+01  0.100787501909E+01  0.100194476378E+01  0.100378960001E+01
  0.100390910156E+01  0.103478538491E+01  0.101224063906E+01  0.100190260512E+01  0.106018061139E+01  0.100437851598E+01  0.100077796142E+01
  0.100130067691E+01  0.102043485630E+01  0.100593736565E+01  0.100184292197E+01
  0.000000000000E+00  0.451834048520E+00  0.000000000000E+00  0.472912035613E+00  0.470158331087E+00  0.459504947916E+00  0.000000000000E+00
  0.000000000000E+00  0.401768555184E+00  0.478881792208E+00  0.474223482849E+00  0.485492996393E+00  0.492581079858E+00  0.489510446319E+00
  0.492201648646E+00  0.493575544528E+00  0.000000000000E+00  0.464516489129E+00  0.481634321962E+00  0.498235963649E+00  0.494015373908E+00
  0.490674199018E+00  0.458608928273E+00  0.473144546735E+00  0.498753316990E+00  0.451330943763E+00  0.491521106424E+00  0.499569338738E+00
  0.498567815584E+00  0.477380958055E+00  0.492957761075E+00  0.497856403078E+00
  0.000000000000E+00  0.000000000000E+00  0.000000000000E+00  0.156898610926E-01 -0.426046432147E-02  0.288060363234E-01  0.000000000000E+00
  0.000000000000E+00 -0.370128020054E-02  0.000000000000E+00  0.249851888604E-02 -0.528108274373E-02 -0.303265641416E-02 -0.172450093422E-03
 -0.109130972276E-02  0.000000000000E+00  0.000000000000E+00 -0.850281610495E-02  0.955099602975E-03  0.000000000000E+00 -0.167361416127E-02
 -0.105339238018E-02  0.212715351744E-02 -0.123597031095E-02  0.695900863491E-04  0.000000000000E+00  0.214869106136E-03 -0.176723378129E-03
  0.608284163118E-03  0.000000000000E+00  0.000000000000E+00  0.000000000000E+00
  0.000000000000E+00  0.388446363991E-01  0.000000000000E+00  0.103917046854E+00  0.224193215104E-01  0.135341944911E+00  0.000000000000E+00
  0.000000000000E+00  0.126992466216E+00  0.342255444127E-02  0.213553812563E-01 -0.708603619722E-02  0.636035207472E-01  0.292766423823E-02
 -0.792041641460E-03  0.244077291301E-03  0.000000000000E+00  0.115618456274E+00 -0.829814611571E-02  0.114480655365E-02 -0.749344308425E-03
 -0.442111381864E-02  0.223713941653E-01 -0.264556975499E-02  0.180778943315E-02  0.687953436668E-01 -0.177101368769E-02  0.155938510578E-02
  0.142678718458E-02  0.233070148068E-02 -0.110520520045E-02  0.211864517080E-02
  0.908102208135E+00  0.774899697186E+00  0.958078677855E+00  0.800622225958E+00  0.737949074506E+00  0.857914928972E+00  0.108437500335E+01
  0.100373773611E+01  0.887196026729E+00  0.730580347547E+00  0.733315357071E+00  0.720299334952E+00  0.748106702599E+00  0.724222065013E+00
  0.717576384281E+00  0.719224735757E+00  0.968150985058E+00  0.840784360999E+00  0.722225755510E+00  0.716319886208E+00  0.717948115917E+00
  0.717912571101E+00  0.749168000747E+00  0.726422698075E+00  0.716249843733E+00  0.782033730716E+00  0.718602109364E+00  0.715132536628E+00
  0.715579063439E+00  0.734165587707E+00  0.720297841371E+00  0.716213116719E+00
  0.000000000000E+00  0.447917891065E+00  0.000000000000E+00  0.476275923184E+00  0.468523759848E+00  0.473519704880E+00  0.000000000000E+00
  0.000000000000E+00  0.412988876296E+00  0.477443347070E+00  0.472504652198E+00  0.485153445550E+00  0.492070517508E+00  0.488543840974E+00
  0.491923385686E+00  0.493078174477E+00  0.000000000000E+00  0.471586671615E+00  0.480934095698E+00  0.498012893921E+00  0.493689913472E+00
  0.490409924214E+00  0.456073446974E+00  0.472047034242E+00  0.498545865598E+00  0.449257983856E+00  0.491117577034E+00  0.499470103775E+00
  0.498443303481E+00  0.475665748706E+00  0.492352554676E+00  0.497648493359E+00
  0.104242640687E+01  0.102508331295E+01  0.104242640687E+01  0.103461473235E+01  0.100936211574E+01  0.102707649347E+01  0.104242640687E+01
  0.104242640687E+01  0.104103514105E+01  0.100608608047E+01  0.100935928600E+01  0.100173207659E+01  0.101882157108E+01  0.100399703832E+01
  0.100113916032E+01  0.100201867102E+01  0.104242640687E+01  0.103067306439E+01  0.100321571481E+01  0.100090132405E+01  0.100133271183E+01
  0.100116394799E+01  0.101357751698E+01  0.100469368455E+01  0.100084556732E+01  0.103269877909E+01  0.100165718113E+01  0.100040727301E+01
  0.100050934940E+01  0.100724883754E+01  0.100246497680E+01  0.100085386782E+01
        12        19        11        11
        11         5        12        12
        10        14         5         5
        19        13        11        11
        19        24        13        13
        30        23        24        24
        19        12        22        22
        28        22        21        21
        11        13         6         6
         7         6         9         9
        15        12        14        14
        18        13        23        23
        15        25        21        21
        27        19        22        22
        18         8         9         9
        27        31        24        24
         4        11         6         6
         5        14        12        12
         4         2         5         5
        21        12        15        15
        14        16        15        15
        24        19        27        27
        22        29        27        27
        23        26        18        18
        17         8        18        18
         5        11         4         4
         6         3         4         4
        26        23        30        30
         5         2        10        10
        16        14        10        10
         3         6         7         7
        21        25        28        28
        29        22        28        28
         6        13         9         9
         2         4         1         1
        31        27        32        32
        25        15        20        20
        24        23        13        13
         8         7         9         9
        13        18         9         9
        31        30        24        24
        12        21        22        22
        29        32        27        27
         3         1         4         4
        26        17        18        18
        16        20        15        15
zone t="boundary 2 bc-2", solutiontime= 0.6000000E+02, strandid=1002, i=33, j=48, f=feblock
  0.500195305314E+01  0.375034912201E+01  0.249861196354E+01  0.288036736123E+01  0.124717626151E+01  0.190856778360E+01  0.326577225490E+01
  0.201394899014E+01 -0.338346964726E-02  0.962374705951E+00  0.500000000000E+01  0.403430242703E+01  0.423029585421E+01  0.500000000000E+01
  0.385439203165E+01  0.500000000000E+01  0.398133438873E+01  0.315200091181E+01  0.266958048115E+01  0.154798041552E+01  0.218327865436E+01
  0.893688581177E+00  0.000000000000E+00  0.699009801024E+00  0.964460914345E+00  0.310303675842E+01  0.000000000000E+00  0.000000000000E+00
  0.125000000000E+01  0.500000000000E+01  0.375000000000E+01  0.250000000000E+01  0.000000000000E+00
 -0.249658889499E+01 -0.249658889499E+01 -0.249658889499E+01 -0.249658889499E+01 -0.249658889499E+01 -0.249658889499E+01 -0.249658889499E+01
 -0.249658889499E+01 -0.249658889499E+01 -0.249658889499E+01 -0.249658889499E+01 -0.249658889499E+01 -0.249658889499E+01 -0.249658889499E+01
 -0.249658889499E+01 -0.249658889499E+01 -0.249658889499E+01 -0.249658889499E+01 -0.249658889499E+01 -0.249658889499E+01 -0.249658889499E+01
 -0.249658889499E+01 -0.249658889499E+01 -0.249658889499E+01 -0.249658889499E+01 -0.249658889499E+01 -0.249658889499E+01 -0.249658889499E+01
 -0.249658889499E+01 -0.249658889499E+01 -0.249658889499E+01 -0.249658889499E+01 -0.249658889499E+01
  0.108709230302E-03  0.146875485829E-03  0.101409960121E-03  0.901663848144E+00  0.111895836306E-03  0.714929135906E+00  0.188140686189E+01
  0.175892218343E+01  0.816362740114E-04  0.957504934725E+00  0.125000000000E+01  0.100596744181E+01  0.191313547189E+01  0.250000000000E+01
  0.292898120965E+01  0.375000000000E+01  0.406883379958E+01  0.363389309169E+01  0.284756893464E+01  0.292582332357E+01  0.395754068714E+01
  0.205027285784E+01  0.125000000000E+01  0.306703284160E+01  0.397155773792E+01  0.433068631589E+01  0.250000000000E+01  0.375000000000E+01
  0.500000000000E+01  0.500000000000E+01  0.500000000000E+01  0.500000000000E+01  0.500000000000E+01
  0.768735495637E+00  0.889523316771E+00  0.898746324220E+00  0.950542375638E+00  0.924960150525E+00  0.947969341684E+00  0.981017520612E+00
  0.987798992879E+00  0.130024658829E+01  0.101390436556E+01  0.944836326380E+00  0.944236742691E+00  0.978087748606E+00  0.100717422523E+01
  0.997784676842E+00  0.100978229852E+01  0.100012041720E+01  0.996167616950E+00  0.989919902900E+00  0.998867619058E+00  0.997941836565E+00
  0.100913681260E+01  0.106018061139E+01  0.100643337578E+01  0.100351221122E+01  0.998477812039E+00  0.102043485630E+01  0.100593736565E+01
  0.100234892331E+01  0.999828412489E+00  0.100019291124E+01  0.100028686670E+01  0.100184292197E+01
  0.000000000000E+00  0.000000000000E+00  0.000000000000E+00  0.385195814465E+00  0.000000000000E+00  0.340886082882E+00  0.583453548352E+00
  0.571759551777E+00  0.000000000000E+00  0.480963213039E+00  0.505185161651E+00  0.443662066399E+00  0.572024065960E+00  0.532003776380E+00
  0.566400177856E+00  0.512620361706E+00  0.508195586432E+00  0.526914232891E+00  0.564509592470E+00  0.531478334679E+00  0.508129389869E+00
  0.521930185580E+00  0.451330943763E+00  0.494980685028E+00  0.496091699746E+00  0.503538727207E+00  0.477380958055E+00  0.492957761075E+00
  0.494536388145E+00  0.491695274686E+00  0.489493224041E+00  0.494635432916E+00  0.497856403078E+00
  0.000000000000E+00  0.000000000000E+00  0.000000000000E+00  0.000000000000E+00  0.000000000000E+00  0.000000000000E+00  0.000000000000E+00
  0.000000000000E+00  0.000000000000E+00  0.000000000000E+00  0.000000000000E+00  0.000000000000E+00  0.000000000000E+00  0.000000000000E+00
  0.000000000000E+00  0.000000000000E+00  0.000000000000E+00  0.000000000000E+00  0.000000000000E+00  0.000000000000E+00  0.000000000000E+00
  0.000000000000E+00  0.000000000000E+00  0.000000000000E+00  0.000000000000E+00  0.000000000000E+00  0.000000000000E+00  0.000000000000E+00
  0.000000000000E+00  0.000000000000E+00  0.000000000000E+00  0.000000000000E+00  0.000000000000E+00
  0.000000000000E+00  0.000000000000E+00  0.000000000000E+00 -0.142937184499E-02  0.000000000000E+00  0.168978222340E-01  0.875994288140E-02
  0.403964124940E-01  0.000000000000E+00  0.730722939230E-01 -0.112216893221E+00 -0.262899329282E-01 -0.368284394039E-01 -0.483402521654E-01
 -0.588594428005E-02 -0.170499621318E-03 -0.195987275958E-02 -0.317075353500E-02  0.106422497744E-01  0.235146895918E-01  0.228803984218E-02
  0.486674970375E-01  0.687953436668E-01  0.868228728706E-02  0.441101883922E-02 -0.351503153519E-02  0.233070148068E-02 -0.110520520045E-02
  0.135829292180E-02  0.546602974468E-02 -0.147516289701E-02 -0.124162483984E-02  0.211864517080E-02
  0.572392986108E+00  0.662330424950E+00  0.669197786747E+00  0.681370823816E+00  0.688716347294E+00  0.681181020200E+00  0.693024433768E+00
  0.700085116766E+00  0.968150985058E+00  0.722087344202E+00  0.666760567125E+00  0.671480387383E+00  0.691232263855E+00  0.720038378011E+00
  0.710709993748E+00  0.723770719197E+00  0.714752636058E+00  0.710894210408E+00  0.704007875905E+00  0.714159219542E+00  0.712429491111E+00
  0.725804157078E+00  0.782033730716E+00  0.720438335522E+00  0.717728352741E+00  0.712837424923E+00  0.734165587707E+00  0.720297841371E+00
  0.716518296607E+00  0.714353112479E+00  0.714323974744E+00  0.714486129099E+00  0.716213116719E+00
  0.000000000000E+00  0.000000000000E+00  0.000000000000E+00  0.384516080176E+00  0.000000000000E+00  0.340285977047E+00  0.586753001197E+00
  0.575426079086E+00  0.000000000000E+00  0.487199448491E+00  0.520641041135E+00  0.445423582375E+00  0.576269234962E+00  0.533962380469E+00
  0.567224545312E+00  0.511735128906E+00  0.508063931477E+00  0.527166126146E+00  0.565842728263E+00  0.531744059875E+00  0.508272216201E+00
  0.522388441773E+00  0.449257983856E+00  0.494521460477E+00  0.495788431873E+00  0.503678489727E+00  0.475665748706E+00  0.492352554676E+00
  0.494346762883E+00  0.491660271696E+00  0.489529548599E+00  0.494638545462E+00  0.497648493359E+00
  0.104242640687E+01  0.104242640687E+01  0.104242640687E+01  0.100355247466E+01  0.104242640687E+01  0.100599606585E+01  0.989008031855E+00
  0.992225311564E+00  0.104242640687E+01  0.997058811678E+00  0.987964547841E+00  0.995589876811E+00  0.989405266323E+00  0.100087323917E+01
  0.997203118409E+00  0.100346283388E+01  0.100053320907E+01  0.999080754721E+00  0.995647247196E+00  0.100095637128E+01  0.999458336158E+00
  0.100692572823E+01  0.103269877909E+01  0.100216635697E+01  0.100130290654E+01  0.999493812340E+00  0.100724883754E+01  0.100246497680E+01
  0.100077487182E+01  0.100026599062E+01  0.999860680274E+00  0.999993715838E+00  0.100085386782E+01
        15         7        19        19
         8        20        19        19
        18        19        21        21
         7         4         8         8
         3         6         4         4
        19         7         8         8
        19        18        15        15
        14        13        15        15
         8        22        20        20
        27        24        22        22
        19        20        21        21
        32        26        21        21
        17        18        26        26
        17        16        15        15
        25        29        21        21
        12         7        13        13
        10         8         6         6
        25        20        24        24
         4         6         8         8
        12         2         4         4
        10        23        22        22
        26        31        17        17
        30        16        17        17
         4         7        12        12
        13        11        12        12
        21        20        25        25
        24        28        25        25
        22         8        10        10
         6         5        10        10
        31        26        32        32
         4         2         3         3
         5         6         3         3
        11        13        14        14
        22        23        27        27
        28        24        27        27
        15        13         7         7
         2        12         1         1
        29        25        33        33
        23        10         9         9
        21        26        18        18
        16        14        15        15
        18        17        15        15
        29        32        21        21
        22        24        20        20
        28        33        25        25
        11         1        12        12
        31        30        17        17
         5         9        10        10
zone t="boundary 3 bc-3", solutiontime= 0.6000000E+02, strandid=1003, i=33, j=48, f=feblock
  0.375059200023E+01  0.249769659018E+01  0.500322189357E+01  0.403612276076E+01  0.287976836254E+01  0.124542007694E+01  0.190552302486E+01
  0.500000000000E+01  0.326671142353E+01  0.423253781877E+01  0.201271174246E+01 -0.547422451393E-02  0.958896037004E+00  0.500000000000E+01
  0.266968167030E+01  0.385584505517E+01  0.890374290244E+00  0.154654022522E+01  0.000000000000E+00  0.500000000000E+01  0.315261148394E+01
  0.218304203878E+01  0.398195315244E+01  0.000000000000E+00  0.697379959013E+00  0.963757272110E+00  0.125000000000E+01  0.000000000000E+00
  0.500000000000E+01  0.310330743906E+01  0.250000000000E+01  0.375000000000E+01  0.000000000000E+00
  0.250494212639E+01  0.250494212639E+01  0.250494212639E+01  0.250494212639E+01  0.250494212639E+01  0.250494212639E+01  0.250494212639E+01
  0.250494212639E+01  0.250494212639E+01  0.250494212639E+01  0.250494212639E+01  0.250494212639E+01  0.250494212639E+01  0.250494212639E+01
  0.250494212639E+01  0.250494212639E+01  0.250494212639E+01  0.250494212639E+01  0.250494212639E+01  0.250494212639E+01  0.250494212639E+01
  0.250494212639E+01  0.250494212639E+01  0.250494212639E+01  0.250494212639E+01  0.250494212639E+01  0.250494212639E+01  0.250494212639E+01
  0.250494212639E+01  0.250494212639E+01  0.250494212639E+01  0.250494212639E+01  0.250494212639E+01
  0.136457018303E-03  0.110483667052E-03  0.969506812793E-04  0.101756821127E+01  0.908095280158E+00  0.104842439781E-03  0.722629906090E+00
  0.125000000000E+01  0.188965717334E+01  0.191862733218E+01  0.176708303771E+01  0.808217454595E-04  0.969653363549E+00  0.250000000000E+01
  0.285339477240E+01  0.293325090921E+01  0.205656265142E+01  0.293157054664E+01  0.125000000000E+01  0.375000000000E+01  0.363766866045E+01
  0.396069465965E+01  0.407056399432E+01  0.250000000000E+01  0.307032015183E+01  0.397359832591E+01  0.500000000000E+01  0.375000000000E+01
  0.500000000000E+01  0.433260795381E+01  0.500000000000E+01  0.500000000000E+01  0.500000000000E+01
  0.896676816027E+00  0.910447593782E+00  0.781948845529E+00  0.945770019948E+00  0.960130110003E+00  0.922179397326E+00  0.963950446964E+00
  0.950682177251E+00  0.978092886171E+00  0.979670612429E+00  0.986799164038E+00  0.121959985185E+01  0.100543679949E+01  0.100849098073E+01
  0.992240047405E+00  0.997800264530E+00  0.100537161566E+01  0.998282944197E+00  0.105831356569E+01  0.100697675871E+01  0.998804012890E+00
  0.999311193300E+00  0.100000736663E+01  0.101662522365E+01  0.100449251838E+01  0.100204226846E+01  0.100246725438E+01  0.100488609562E+01
  0.100014590722E+01  0.998721193114E+00  0.100101036582E+01  0.100049286606E+01  0.100194476378E+01
  0.000000000000E+00  0.000000000000E+00  0.000000000000E+00  0.451193596414E+00  0.403035911781E+00  0.000000000000E+00  0.369780894885E+00
  0.504465691160E+00  0.572441522272E+00  0.570700476844E+00  0.555903943090E+00  0.000000000000E+00  0.475076242542E+00  0.529012489937E+00
  0.555007183062E+00  0.562172003541E+00  0.523997657245E+00  0.523269526512E+00  0.451834048520E+00  0.514483254933E+00  0.524697317370E+00
  0.506246217292E+00  0.509778401518E+00  0.478881792208E+00  0.499519886588E+00  0.498081338763E+00  0.493201218458E+00  0.493575544528E+00
  0.493226501852E+00  0.501441540074E+00  0.491213276943E+00  0.488103503644E+00  0.498235963649E+00
  0.000000000000E+00  0.000000000000E+00  0.000000000000E+00  0.000000000000E+00  0.000000000000E+00  0.000000000000E+00  0.000000000000E+00
  0.000000000000E+00  0.000000000000E+00  0.000000000000E+00  0.000000000000E+00  0.000000000000E+00  0.000000000000E+00  0.000000000000E+00
  0.000000000000E+00  0.000000000000E+00  0.000000000000E+00  0.000000000000E+00  0.000000000000E+00  0.000000000000E+00  0.000000000000E+00
  0.000000000000E+00  0.000000000000E+00  0.000000000000E+00  0.000000000000E+00  0.000000000000E+00  0.000000000000E+00  0.000000000000E+00
  0.000000000000E+00  0.000000000000E+00  0.000000000000E+00  0.000000000000E+00  0.000000000000E+00
  0.000000000000E+00  0.000000000000E+00  0.000000000000E+00 -0.279072969136E-01  0.124067386507E-01  0.000000000000E+00  0.162361705872E-01
 -0.114474056118E+00  0.481968352795E-03 -0.460951452178E-01  0.299462818225E-01  0.000000000000E+00  0.536074468217E-01 -0.502845352646E-01
  0.507333585636E-02 -0.105803167460E-01  0.439389166729E-01  0.105965548546E-01  0.388446363991E-01 -0.221864087060E-02 -0.367150719142E-02
 -0.404344639078E-03 -0.149357344989E-02  0.342255444127E-02  0.804275111569E-02  0.207982576878E-02  0.580597076821E-03  0.244077291301E-03
  0.506601250194E-02 -0.210226507517E-02 -0.607642950336E-03 -0.695782737198E-03  0.114480655365E-02
  0.667656851040E+00  0.677910438450E+00  0.582231518144E+00  0.670520822861E+00  0.688130583302E+00  0.686645825461E+00  0.690430206205E+00
  0.670645809634E+00  0.691903435884E+00  0.692624432101E+00  0.700947313583E+00  0.908102208135E+00  0.717683223947E+00  0.721491979957E+00
  0.706702644518E+00  0.711393846152E+00  0.721305338327E+00  0.713317606353E+00  0.774899697186E+00  0.721207795774E+00  0.713532242173E+00
  0.713575099679E+00  0.714554237249E+00  0.730580347547E+00  0.718615625734E+00  0.716241097164E+00  0.716741916641E+00  0.719224735757E+00
  0.714565180945E+00  0.713128382409E+00  0.715136916088E+00  0.714653003471E+00  0.716319886208E+00
  0.000000000000E+00  0.000000000000E+00  0.000000000000E+00  0.453747974300E+00  0.402545535469E+00  0.000000000000E+00  0.369629090122E+00
  0.520525421058E+00  0.575220785131E+00  0.575502688447E+00  0.558260201478E+00  0.000000000000E+00  0.478253021163E+00  0.530976521888E+00
  0.555830977658E+00  0.562793215038E+00  0.524675232978E+00  0.523282018173E+00  0.447917891065E+00  0.513796074396E+00  0.524673097111E+00
  0.506323919280E+00  0.509686672363E+00  0.477443347070E+00  0.499194826876E+00  0.497912972444E+00  0.492962768193E+00  0.493078174477E+00
  0.493192029265E+00  0.501531689776E+00  0.491169171149E+00  0.488098794429E+00  0.498012893921E+00
  0.104242640687E+01  0.104242640687E+01  0.104242640687E+01  0.992555412210E+00  0.100338777691E+01  0.104242640687E+01  0.100275101457E+01
  0.987610955537E+00  0.990360756052E+00  0.989796154584E+00  0.994453861311E+00  0.104242640687E+01  0.999323392614E+00  0.100158433862E+01
  0.997121316473E+00  0.998147044069E+00  0.100443205073E+01  0.100036232683E+01  0.102508331295E+01  0.100269535057E+01  0.100014129514E+01
  0.999693735293E+00  0.100036856280E+01  0.100608608047E+01  0.100156233881E+01  0.100069385054E+01  0.100096903805E+01  0.100201867102E+01
  0.100024531031E+01  0.999658105040E+00  0.100018113369E+01  0.100002132829E+01  0.100090132405E+01
        15         9        16        16
        15        18        11        11
        22        15        21        21
        11         5         9         9
         5         7         2         2
        11         9        15        15
        16        21        15        15
        16        10        14        14
        18        17        11        11
        17        25        24        24
        22        18        15        15
        22        30        31        31
        30        21        23        23
        16        20        23        23
        22        27        26        26
        10         9         4         4
         7        11        13        13
        25        18        26        26
        11         7         5         5
         5         1         4         4
        17        19        13        13
        23        32        30        30
        23        20        29        29
         4         9         5         5
         4         8        10        10
        26        18        22        22
        26        28        25        25
        13        11        17        17
        13         6         7         7
        31        30        32        32
         2         1         5         5
         2         7         6         6
        14        10         8         8
        24        19        17        17
        24        25        28        28
         9        10        16        16
         3         4         1         1
        33        26        27        27
        12        13        19        19
        21        30        22        22
        16        14        20        20
        16        23        21        21
        22        31        27        27
        18        25        17        17
        26        33        28        28
         4         3         8         8
        23        29        32        32
        13        12         6         6
zone t="boundary 4 bc-4", solutiontime= 0.6000000E+02, strandid=1004, i=32, j=46, f=feblock
  0.125000000000E+01  0.219251206392E+01  0.103724302461E+01  0.500000000000E+01  0.250000000000E+01  0.375000000000E+01  0.404200324774E+01
  0.500000000000E+01  0.000000000000E+00  0.310152362409E+01  0.202479342020E+01  0.324151231464E+01  0.922061490191E+00  0.000000000000E+00
  0.299062775774E+01  0.394624082883E+01  0.500000000000E+01  0.409252726285E+01  0.500000000000E+01  0.429310310915E+01  0.175434191980E+01
  0.284428995242E+01  0.000000000000E+00  0.000000000000E+00  0.715990576545E+00  0.930412228790E+00  0.125000000000E+01  0.187029682677E+01
  0.500000000000E+01  0.375000000000E+01  0.250000000000E+01  0.000000000000E+00
  0.250494212639E+01  0.157686156160E+01  0.146289271009E+01  0.250494212639E+01  0.250494212639E+01  0.250494212639E+01  0.155830813274E+01
  0.125000000000E+01  0.250494212639E+01  0.177790177481E+01  0.477386199275E+00  0.742988685424E+00  0.308372018325E+00  0.125000000000E+01
 -0.487811078581E+00 -0.144524380962E+01 -0.125000000000E+01 -0.345533899378E+00  0.000000000000E+00  0.627766083140E+00 -0.739814786992E+00
 -0.158811787973E+01  0.000000000000E+00 -0.125000000000E+01 -0.600232012419E+00 -0.154800130438E+01 -0.249658889499E+01 -0.178862290564E+01
 -0.249658889499E+01 -0.249658889499E+01 -0.249658889499E+01 -0.249658889499E+01
  0.500000000000E+01  0.500000000000E+01  0.500000000000E+01  0.500000000000E+01  0.500000000000E+01  0.500000000000E+01  0.500000000000E+01
  0.500000000000E+01  0.500000000000E+01  0.500000000000E+01  0.500000000000E+01  0.500000000000E+01  0.500000000000E+01  0.500000000000E+01
  0.500000000000E+01  0.500000000000E+01  0.500000000000E+01  0.500000000000E+01  0.500000000000E+01  0.500000000000E+01  0.500000000000E+01
  0.500000000000E+01  0.500000000000E+01  0.500000000000E+01  0.500000000000E+01  0.500000000000E+01  0.500000000000E+01  0.500000000000E+01
  0.500000000000E+01  0.500000000000E+01  0.500000000000E+01  0.500000000000E+01
  0.100246725438E+01  0.100134430174E+01  0.100190794165E+01  0.100014590722E+01  0.100101036582E+01  0.100049286606E+01  0.999775589768E+00
  0.100034297594E+01  0.100194476378E+01  0.100086117343E+01  0.100110853186E+01  0.100019876353E+01  0.100152581557E+01  0.100190260512E+01
  0.100054385012E+01  0.998652394340E+00  0.100067113163E+01  0.999536487787E+00  0.100054144945E+01  0.999923232318E+00  0.100145778888E+01
  0.100044293756E+01  0.100077796142E+01  0.100130067691E+01  0.100105883920E+01  0.100174639198E+01  0.100234892331E+01  0.100133132470E+01
  0.999828412489E+00  0.100019291124E+01  0.100028686670E+01  0.100184292197E+01
  0.493201218458E+00  0.493601220721E+00  0.494657953568E+00  0.493226501852E+00  0.491213276943E+00  0.488103503644E+00  0.488185421134E+00
  0.494186665111E+00  0.498235963649E+00  0.490793323576E+00  0.492762901297E+00  0.491176782711E+00  0.497637814308E+00  0.498753316990E+00
  0.492051504385E+00  0.486062296202E+00  0.492255086393E+00  0.489681616362E+00  0.494622556607E+00  0.490040128027E+00  0.494628973542E+00
  0.492616671429E+00  0.499569338738E+00  0.498567815584E+00  0.498183512871E+00  0.496570941926E+00  0.494536388145E+00  0.494839507422E+00
  0.491695274686E+00  0.489493224041E+00  0.494635432916E+00  0.497856403078E+00
  0.000000000000E+00 -0.121469967373E-03 -0.110879903542E-02  0.000000000000E+00  0.000000000000E+00  0.000000000000E+00  0.121293808202E-03
  0.633471714564E-03  0.000000000000E+00  0.102565113887E-03 -0.874326058550E-03 -0.898645066103E-03 -0.157079896908E-02  0.695900863491E-04
 -0.888526010975E-03 -0.918893292398E-03 -0.139168246177E-02 -0.210154469449E-02 -0.141209925788E-02 -0.122049660994E-02 -0.534198767026E-03
 -0.644841471595E-03 -0.176723378129E-03  0.608284163118E-03 -0.247269125660E-04  0.142363508744E-02  0.000000000000E+00  0.724012123086E-03
  0.000000000000E+00  0.000000000000E+00  0.000000000000E+00  0.000000000000E+00