title="tecplot geometry and solution file"
variables = x y z mach temperature lambda1 lambda2 lambda3 lambda4 lambda5
zone t="boundary 1 bc-1", solutiontime= 0.4000000E+02, strandid=1001, i=32, j=46, f=feblock
  0.000000000000E+00  0.000000000000E+00  0.000000000000E+00  0.000000000000E+00  0.000000000000E+00  0.000000000000E+00  0.000000000000E+00
  0.000000000000E+00  0.000000000000E+00  0.000000000000E+00  0.000000000000E+00  0.000000000000E+00  0.000000000000E+00  0.000000000000E+00
  0.000000000000E+00  0.000000000000E+00  0.000000000000E+00  0.000000000000E+00  0.000000000000E+00  0.000000000000E+00  0.000000000000E+00
  0.000000000000E+00  0.000000000000E+00  0.000000000000E+00  0.000000000000E+00  0.000000000000E+00  0.000000000000E+00  0.000000000000E+00
  0.000000000000E+00  0.000000000000E+00  0.000000000000E+00  0.000000000000E+00
  0.250000000000E+01  0.250000000000E+01  0.125000000000E+01  0.146289271009E+01  0.157686156160E+01  0.308372018325E+00  0.000000000000E+00
 -0.125000000000E+01 -0.600232012419E+00  0.250000000000E+01  0.477386199275E+00  0.742988685424E+00 -0.739814786992E+00  0.177790177481E+01
  0.155830813274E+01  0.250000000000E+01 -0.250000000000E+01 -0.154800130438E+01 -0.487811078581E+00  0.250000000000E+01  0.627766083140E+00
 -0.345533899378E+00 -0.178862290564E+01 -0.158811787973E+01  0.125000000000E+01 -0.250000000000E+01 -0.144524380962E+01  0.000000000000E+00
 -0.125000000000E+01 -0.250000000000E+01 -0.250000000000E+01 -0.250000000000E+01
  0.000000000000E+00  0.125000000000E+01  0.000000000000E+00  0.103724302461E+01  0.219251206392E+01  0.922061490191E+00  0.000000000000E+00
  0.000000000000E+00  0.715990576545E+00  0.250000000000E+01  0.202479342020E+01  0.324151231464E+01  0.175434191980E+01  0.310152362409E+01
  0.404200324774E+01  0.375000000000E+01  0.000000000000E+00  0.930412228790E+00  0.299062775774E+01  0.500000000000E+01  0.429310310915E+01
  0.409252726285E+01  0.187029682677E+01  0.284428995242E+01  0.500000000000E+01  0.125000000000E+01  0.394624082883E+01  0.500000000000E+01
  0.500000000000E+01  0.250000000000E+01  0.375000000000E+01  0.500000000000E+01
  0.000000000000E+00  0.441239785988E+00  0.000000000000E+00  0.475215274863E+00  0.460125469115E+00  0.468829033016E+00  0.000000000000E+00
  0.000000000000E+00  0.402304816650E+00  0.469816606844E+00  0.464412782143E+00  0.478715406528E+00  0.489298660859E+00  0.483069730103E+00
  0.487930932807E+00  0.488962540251E+00  0.000000000000E+00  0.464777175811E+00  0.473797112853E+00  0.495347171760E+00  0.490266841402E+00
  0.486286962460E+00  0.445719479485E+00  0.464383763709E+00  0.496127919189E+00  0.443625026347E+00  0.486965334975E+00  0.497246761305E+00
  0.496059785041E+00  0.467733890136E+00  0.488212950097E+00  0.495098812149E+00
  0.100000000000E+01  0.102982613692E+01  0.100000000000E+01  0.104247134045E+01  0.101190025901E+01  0.102520692329E+01  0.100000000000E+01
  0.100000000000E+01  0.103891294613E+01  0.100826231153E+01  0.101252764203E+01  0.100300522166E+01  0.102702698129E+01  0.100605519113E+01
  0.100244372949E+01  0.100355626855E+01  0.100000000000E+01  0.103239734230E+01  0.100459494933E+01  0.100179316439E+01  0.100260278989E+01
  0.100234941843E+01  0.101657094887E+01  0.100617510648E+01  0.100168826201E+01  0.104043151483E+01  0.100303347612E+01  0.100118709692E+01
  0.100134152965E+01  0.100976739746E+01  0.100405336562E+01  0.100176093040E+01
 -0.110424527169E-03 -0.840410328119E-03  0.300647679989E-04 -0.909371968760E-03 -0.117108015072E-03  0.841617157074E-03  0.219684557138E-03
  0.131206797645E-03  0.184340559204E-02  0.125499052032E-04 -0.398301769486E-03  0.130174941763E-03 -0.164355923256E-03  0.107642664390E-03
  0.800169748655E-04  0.105733375912E-03  0.438189126395E-04 -0.376793134223E-04 -0.156667590941E-04 -0.125356828542E-03  0.547634270584E-04
  0.730055450264E-04 -0.241990245663E-03  0.342512252793E-05 -0.124132700793E-03 -0.560301943585E-03  0.534732908576E-04 -0.139983970525E-03
 -0.130341487940E-03 -0.694305960311E-04  0.876842991474E-04 -0.110634727870E-03
 -0.239691357240E-04 -0.138409642798E-03 -0.221528747826E-04 -0.141770653360E-03 -0.141816625832E-04  0.132257952939E-03 -0.258835610180E-06
 -0.355577462478E-05  0.266130227759E-03  0.571511297870E-05 -0.522524775200E-04  0.260906972711E-04 -0.217781144378E-04  0.244160923859E-04
  0.145370097115E-04  0.216306377483E-04  0.150099787446E-05 -0.213893636172E-04  0.623761650559E-05 -0.242994828224E-04  0.101094699011E-04
  0.161479509810E-04 -0.331383249293E-04  0.971044065390E-05 -0.251413153537E-04 -0.854189142355E-04  0.134009380209E-04 -0.306841181264E-04
 -0.308580277840E-04 -0.990231654645E-06  0.195472732489E-04 -0.280877775607E-04
 -0.163781522463E-04 -0.272438376303E-05 -0.151918557612E-04  0.251054328837E-04  0.175137123238E-04  0.266998004145E-04 -0.391769560557E-05
 -0.507241319383E-05 -0.317433833844E-04 -0.726395126756E-07  0.226087390931E-04  0.120536742681E-04 -0.242805438393E-04  0.911632654829E-05
  0.190939512920E-05 -0.620487148401E-06  0.635398612537E-05 -0.467822246046E-04  0.744236232403E-05 -0.804395259719E-07  0.750922085568E-06
  0.109593967418E-05 -0.171975515927E-04 -0.102294446368E-04  0.216227548591E-05  0.934342145877E-06  0.103551542977E-05  0.206555428182E-05
  0.766581167728E-06 -0.120673419188E-05  0.569305541601E-06  0.320805166205E-06
  0.229385919215E-04  0.379852601843E-04 -0.256136708516E-05  0.318875055875E-04  0.138101943538E-04  0.119048841427E-03 -0.355152503721E-04
 -0.336149851265E-04  0.993445535738E-04  0.858538167009E-05  0.627687366473E-04  0.145801503383E-04  0.109226546947E-03  0.792137722144E-05
  0.694442725992E-05  0.467169577290E-05 -0.410487877835E-05 -0.290978167944E-05  0.253693744748E-04  0.325345837735E-05  0.690643440216E-05
  0.858531800301E-05  0.247910467822E-04  0.197951985009E-04  0.310664939060E-05 -0.446404554577E-05  0.618066625290E-05  0.208221739889E-05
  0.191369466183E-05  0.117658639792E-04  0.498872963999E-05  0.217525618275E-05
  0.724058265321E-04  0.341054715092E-03 -0.640192140887E-04  0.369106463100E-03  0.458247389490E-04 -0.361744479097E-03  0.758072222645E-04
 -0.753436968227E-05 -0.757058664575E-03 -0.744112954359E-05  0.160618794107E-03 -0.556719116553E-04  0.697074523504E-04 -0.463520232492E-04
 -0.344080817954E-04 -0.450997984454E-04 -0.739225503249E-05  0.337215405903E-04  0.371912532770E-05  0.516022718206E-04 -0.237901422092E-04
 -0.316279639948E-04  0.101302799148E-03 -0.358235570211E-05  0.512589608436E-04  0.230175199482E-03 -0.229951791244E-04  0.583841535583E-04
  0.547224175654E-04  0.282370980502E-04 -0.370316814439E-04  0.464779008425E-04
        12        19        11        11
        11         5        12        12
        10        14         5         5
        19        13        11        11
        19        24        13        13
        30        23        24        24
        19        12        22        22
        28        22        21        21
        11        13         6         6
         7         6         9         9
        15        12        14        14
        18        13        23        23
        15        25        21        21
        27        19        22        22
        18         8         9         9
        27        31        24        24
         4        11         6         6
         5        14        12        12
         4         2         5         5
        21        12        15        15
        14        16        15        15
        24        19        27        27
        22        29        27        27
        23        26        18        18
        17         8        18        18
         5        11         4         4
         6         3         4         4
        26        23        30        30
         5         2        10        10
        16        14        10        10
         3         6         7         7
        21        25        28        28
        29        22        28        28
         6        13         9         9
         2         4         1         1
        31        27        32        32
        25        15        20        20
        24        23        13        13
         8         7         9         9
        13        18         9         9
        31        30        24        24
        12        21        22        22
        29        32        27        27
         3         1         4         4
        26        17        18        18
        16        20        15        15
zone t="boundary 2 bc-2", solutiontime= 0.4000000E+02, strandid=1002, i=33, j=48, f=feblock
  0.500000000000E+01  0.375000000000E+01  0.250000000000E+01  0.288078410721E+01  0.125000000000E+01  0.190974100652E+01  0.326683758169E+01
  0.201431602454E+01  0.000000000000E+00  0.963108083381E+00  0.500000000000E+01  0.403552511878E+01  0.423153924130E+01  0.500000000000E+01
  0.385533350601E+01  0.500000000000E+01  0.398173246726E+01  0.315249557942E+01  0.267000324704E+01  0.154774304040E+01  0.218329375016E+01
  0.893127759452E+00  0.000000000000E+00  0.698517061619E+00  0.964171764089E+00  0.310324758057E+01  0.000000000000E+00  0.000000000000E+00
  0.125000000000E+01  0.500000000000E+01  0.375000000000E+01  0.250000000000E+01  0.000000000000E+00
 -0.250000000000E+01 -0.250000000000E+01 -0.250000000000E+01 -0.250000000000E+01 -0.250000000000E+01 -0.250000000000E+01 -0.250000000000E+01
 -0.250000000000E+01 -0.250000000000E+01 -0.250000000000E+01 -0.250000000000E+01 -0.250000000000E+01 -0.250000000000E+01 -0.250000000000E+01
 -0.250000000000E+01 -0.250000000000E+01 -0.250000000000E+01 -0.250000000000E+01 -0.250000000000E+01 -0.250000000000E+01 -0.250000000000E+01
 -0.250000000000E+01 -0.250000000000E+01 -0.250000000000E+01 -0.250000000000E+01 -0.250000000000E+01 -0.250000000000E+01 -0.250000000000E+01
 -0.250000000000E+01 -0.250000000000E+01 -0.250000000000E+01 -0.250000000000E+01 -0.250000000000E+01
  0.000000000000E+00  0.000000000000E+00  0.000000000000E+00  0.904659890645E+00  0.000000000000E+00  0.717002441913E+00  0.188609243358E+01
  0.176246431481E+01  0.000000000000E+00  0.961328577125E+00  0.125000000000E+01  0.101201586758E+01  0.191586535653E+01  0.250000000000E+01
  0.293121848150E+01  0.375000000000E+01  0.406975391361E+01  0.363585050272E+01  0.285047954584E+01  0.292817774674E+01  0.395907379566E+01
  0.205246550326E+01  0.125000000000E+01  0.306828197606E+01  0.397245519226E+01  0.433168271247E+01  0.250000000000E+01  0.375000000000E+01
  0.500000000000E+01  0.500000000000E+01  0.500000000000E+01  0.500000000000E+01  0.500000000000E+01
  0.000000000000E+00  0.000000000000E+00  0.000000000000E+00  0.380992830094E+00  0.000000000000E+00  0.343629568856E+00  0.585286648998E+00
  0.579372754272E+00  0.000000000000E+00  0.501053917142E+00  0.508462688610E+00  0.435375182283E+00  0.572640857456E+00  0.537001600598E+00
  0.568922324808E+00  0.514993445722E+00  0.508247282359E+00  0.527252917665E+00  0.567446475338E+00  0.531657240797E+00  0.505981537505E+00
  0.520795935457E+00  0.443625026347E+00  0.490664539735E+00  0.492156651997E+00  0.501391299454E+00  0.467733890136E+00  0.488212950097E+00
  0.490003707998E+00  0.491352331256E+00  0.486076199652E+00  0.490037473019E+00  0.495098812149E+00
  0.100000000000E+01  0.100000000000E+01  0.100000000000E+01  0.989541508141E+00  0.100000000000E+01  0.985528358061E+00  0.989838816567E+00
  0.991798621961E+00  0.100000000000E+01  0.984413495574E+00  0.985092479637E+00  0.984690921830E+00  0.990058397112E+00  0.100289587074E+01
  0.999854860768E+00  0.100485278088E+01  0.100121537341E+01  0.100055609297E+01  0.997896330314E+00  0.100349975551E+01  0.100058042726E+01
  0.101093198268E+01  0.104043151483E+01  0.100326450519E+01  0.100254472042E+01  0.100045565689E+01  0.100976739746E+01  0.100405336562E+01
  0.100192632421E+01  0.100045428384E+01  0.100058757388E+01  0.100109969524E+01  0.100176093040E+01
  0.143026762063E-03 -0.615646861084E-04 -0.226546469616E-03 -0.211349189471E-02  0.261191859195E-04  0.434495532388E-03  0.180947920082E-05
 -0.635517555823E-03  0.438189126395E-04 -0.447508120478E-03  0.107734082993E-03  0.289330626185E-03  0.317097234801E-04  0.654662841165E-04
  0.211584403074E-04  0.138044364827E-04  0.416768173465E-05  0.217457218464E-04  0.142335905957E-03  0.167469522031E-03  0.168086765020E-04
 -0.268481299990E-03 -0.560301943585E-03  0.762438696167E-04  0.520131819088E-04  0.947317081074E-06 -0.694305960311E-04  0.876842991474E-04
 -0.111944066713E-03  0.991580346204E-05 -0.956813222220E-05 -0.667395027174E-04 -0.110634727870E-03
 -0.371844240009E-04  0.568864250550E-04 -0.627565235776E-05 -0.295790023239E-04 -0.247711814406E-04  0.130110991450E-03  0.133054615332E-03
  0.140752898640E-04  0.150099787446E-05 -0.965967513048E-04 -0.352258886001E-04  0.167960231750E-03  0.314771953578E-04 -0.144325093696E-04
  0.213863176182E-04 -0.300192828837E-05  0.680637881760E-05  0.176015119899E-04  0.776342435513E-04  0.737483078351E-04  0.131679659315E-04
  0.787991338937E-05 -0.854189142355E-04  0.375676109158E-04  0.144632637284E-04  0.991644567596E-05 -0.990231654645E-06  0.195472732489E-04
 -0.186216433958E-04  0.891352068471E-06  0.306326190042E-05 -0.450099510992E-05 -0.280877775607E-04
  0.962490830877E-05  0.425265608225E-05 -0.117944823289E-04  0.232836328811E-04 -0.198856726604E-05  0.113544289300E-04  0.161752101517E-04
 -0.664077002248E-06  0.635398612537E-05 -0.123028756228E-04  0.792130681631E-05  0.413013650120E-04 -0.204371072178E-05 -0.110078431815E-06
 -0.864011791556E-06  0.293395769738E-06  0.509802846243E-06 -0.742379570707E-06 -0.353793064739E-05 -0.119409953709E-05  0.154719689549E-06
 -0.147722498771E-05  0.934342145877E-06 -0.515928900501E-06 -0.129387001546E-06  0.379040487011E-07 -0.120673419188E-05  0.569305541601E-06
  0.173183637741E-06  0.761620340907E-07 -0.143763127094E-06  0.104079093603E-06  0.320805166205E-06
  0.394690108089E-05  0.269711241967E-04  0.102461701032E-04  0.346572660096E-04 -0.471893702856E-05  0.111173749598E-03 -0.963563938531E-04
  0.103364708423E-04 -0.410487877835E-05  0.227662799883E-04 -0.481070045192E-04 -0.157582275534E-03 -0.376145008537E-04 -0.127597977631E-04
 -0.114768868299E-04 -0.446009155042E-05 -0.309343634424E-05  0.461876780829E-05 -0.502449444722E-05  0.167525319484E-04  0.852901274595E-05
  0.170069425170E-04 -0.446404554577E-05  0.149948994757E-04  0.113106412756E-04  0.388805140453E-05  0.117658639792E-04  0.498872963999E-05
  0.562881709391E-05 -0.995746343304E-06  0.117476919702E-05  0.397564206685E-05  0.217525618275E-05
 -0.483462203524E-04 -0.259735833321E-03  0.105227781504E-03  0.795028606775E-03  0.713722426370E-04 -0.248932281893E-03 -0.429512133705E-04
  0.226070382781E-03 -0.739225503249E-05  0.196697216503E-03 -0.188389310259E-04 -0.154400001328E-03 -0.200407623776E-04 -0.135352669495E-04
 -0.140520262408E-04 -0.299820688617E-05 -0.347469106509E-05 -0.139891434796E-04 -0.732814074701E-04 -0.814204210890E-04 -0.109780693416E-04
  0.997175466656E-04  0.230175199482E-03 -0.363466698419E-04 -0.239204760072E-04 -0.391237092883E-05  0.282370980502E-04 -0.370316814439E-04
  0.446996854374E-04 -0.361099715283E-05  0.247693525193E-05  0.248437743908E-04  0.464779008425E-04
        15         7        19        19
         8        20        19        19
        18        19        21        21
         7         4         8         8
         3         6         4         4
        19         7         8         8
        19        18        15        15
        14        13        15        15
         8        22        20        20
        27        24        22        22
        19        20        21        21
        32        26        21        21
        17        18        26        26
        17        16        15        15
        25        29        21        21
        12         7        13        13
        10         8         6         6
        25        20        24        24
         4         6         8         8
        12         2         4         4
        10        23        22        22
        26        31        17        17
        30        16        17        17
         4         7        12        12
        13        11        12        12
        21        20        25        25
        24        28        25        25
        22         8        10        10
         6         5        10        10
        31        26        32        32
         4         2         3         3
         5         6         3         3
        11        13        14        14
        22        23        27        27
        28        24        27        27
        15        13         7         7
         2        12         1         1
        29        25        33        33
        23        10         9         9
        21        26        18        18
        16        14        15        15
        18        17        15        15
        29        32        21        21
        22        24        20        20
        28        33        25        25
        11         1        12        12
        31        30        17        17
         5         9        10        10
zone t="boundary 3 bc-3", solutiontime= 0.4000000E+02, strandid=1003, i=33, j=48, f=feblock
  0.375000000000E+01  0.250000000000E+01  0.500000000000E+01  0.403552511878E+01  0.288078410721E+01  0.125000000000E+01  0.190974100652E+01
  0.500000000000E+01  0.326683758169E+01  0.423153924130E+01  0.201431602454E+01  0.000000000000E+00  0.963108083381E+00  0.500000000000E+01
  0.267000324704E+01  0.385533350601E+01  0.893127759452E+00  0.154774304040E+01  0.000000000000E+00  0.500000000000E+01  0.315249557942E+01
  0.218329375016E+01  0.398173246726E+01  0.000000000000E+00  0.698517061619E+00  0.964171764089E+00  0.125000000000E+01  0.000000000000E+00
  0.500000000000E+01  0.310324758057E+01  0.250000000000E+01  0.375000000000E+01  0.000000000000E+00
  0.250000000000E+01  0.250000000000E+01  0.250000000000E+01  0.250000000000E+01  0.250000000000E+01  0.250000000000E+01  0.250000000000E+01
  0.250000000000E+01  0.250000000000E+01  0.250000000000E+01  0.250000000000E+01  0.250000000000E+01  0.250000000000E+01  0.250000000000E+01
  0.250000000000E+01  0.250000000000E+01  0.250000000000E+01  0.250000000000E+01  0.250000000000E+01  0.250000000000E+01  0.250000000000E+01
  0.250000000000E+01  0.250000000000E+01  0.250000000000E+01  0.250000000000E+01  0.250000000000E+01  0.250000000000E+01  0.250000000000E+01
  0.250000000000E+01  0.250000000000E+01  0.250000000000E+01  0.250000000000E+01  0.250000000000E+01
  0.000000000000E+00  0.000000000000E+00  0.000000000000E+00  0.101201586758E+01  0.904659890645E+00  0.000000000000E+00  0.717002441913E+00
  0.125000000000E+01  0.188609243358E+01  0.191586535653E+01  0.176246431481E+01  0.000000000000E+00  0.961328577125E+00  0.250000000000E+01
  0.285047954584E+01  0.293121848150E+01  0.205246550326E+01  0.292817774674E+01  0.125000000000E+01  0.375000000000E+01  0.363585050272E+01
  0.395907379566E+01  0.406975391361E+01  0.250000000000E+01  0.306828197606E+01  0.397245519226E+01  0.500000000000E+01  0.375000000000E+01
  0.500000000000E+01  0.433168271247E+01  0.500000000000E+01  0.500000000000E+01  0.500000000000E+01
  0.000000000000E+00  0.000000000000E+00  0.000000000000E+00  0.443770331736E+00  0.402287171226E+00  0.000000000000E+00  0.377548518817E+00
  0.509235490256E+00  0.575832411882E+00  0.573708273050E+00  0.562553347591E+00  0.000000000000E+00  0.490560550365E+00  0.534526479803E+00
  0.556586999650E+00  0.564391422515E+00  0.522731054000E+00  0.522052377449E+00  0.441239785988E+00  0.517181547931E+00  0.524228814576E+00
  0.503688070658E+00  0.509488649002E+00  0.469816606844E+00  0.495615241225E+00  0.494484543267E+00  0.488563386034E+00  0.488962540251E+00
  0.492980764076E+00  0.499006129986E+00  0.486461965853E+00  0.484597695101E+00  0.495347171760E+00
  0.100000000000E+01  0.100000000000E+01  0.100000000000E+01  0.981544853085E+00  0.988777726367E+00  0.100000000000E+01  0.982474464092E+00
  0.984105346981E+00  0.990427594648E+00  0.990355238130E+00  0.994363068874E+00  0.100000000000E+01  0.988654724521E+00  0.100368325855E+01
  0.999768563775E+00  0.100118428120E+01  0.100834796419E+01  0.100252058950E+01  0.102982613692E+01  0.100443277913E+01  0.100199491686E+01
  0.100082030644E+01  0.100138167444E+01  0.100826231153E+01  0.100298756175E+01  0.100192362714E+01  0.100215241692E+01  0.100355626855E+01
  0.100047663613E+01  0.100056570035E+01  0.100126796473E+01  0.100066558632E+01  0.100179316439E+01
  0.335772680777E-05 -0.666509831703E-04  0.290584797221E-04 -0.853716724341E-03 -0.145944383913E-02 -0.157391871618E-03 -0.233906320570E-02
  0.143373743754E-03 -0.856794297332E-04  0.682120679141E-04 -0.235695168043E-03 -0.110424527169E-03 -0.143291652068E-02  0.276772691801E-04
  0.114660105315E-04  0.285418387927E-04 -0.162253974598E-03  0.857871126210E-04 -0.840410328119E-03  0.111533516565E-04  0.405192644244E-05
  0.621594033652E-05  0.682786935411E-05  0.125499052032E-04  0.781231983893E-04  0.231670268096E-04 -0.402873286078E-04  0.105733375912E-03
  0.889553461019E-05  0.556310525751E-05 -0.658305049728E-05  0.159018007600E-04 -0.125356828542E-03
  0.760214963194E-05  0.119174546555E-04 -0.872913353638E-05 -0.160732041026E-03 -0.180720235462E-03  0.103999886051E-04 -0.287042991433E-03
 -0.787025665829E-05 -0.183149845167E-05  0.350573476401E-05  0.424559159510E-04 -0.239691357240E-04 -0.141801004771E-03 -0.788793566526E-05
  0.159526689744E-04  0.607314334435E-05  0.243795841621E-04  0.392919421420E-04 -0.138409642798E-03 -0.298263729932E-05  0.848521410428E-05
  0.125939818722E-04  0.256581711082E-05  0.571511297870E-05  0.335646990790E-04  0.890040499899E-05  0.116023186328E-05  0.216306377483E-04
 -0.551614224864E-07  0.855812883929E-05  0.775750053989E-05  0.474126658417E-05 -0.242994828224E-04
 -0.150104238283E-06 -0.142812047826E-05  0.376485469882E-05  0.216905549861E-04  0.270336894212E-04 -0.390717085688E-05  0.212371171905E-04
  0.135536699362E-05  0.318450387974E-05  0.294017604302E-06  0.319305123667E-05 -0.163781522463E-04  0.316720857936E-05 -0.611464174402E-06
  0.463757879642E-06 -0.123663050389E-06  0.153303336531E-05  0.167629943437E-05 -0.272438376303E-05 -0.272358491435E-06 -0.439776228507E-06
 -0.104306151837E-05 -0.205633260946E-06 -0.726395126756E-07 -0.108533706123E-05 -0.119433131341E-05 -0.328785338398E-06 -0.620487148401E-06
 -0.547071271285E-07  0.348618849787E-07 -0.194503692888E-07  0.890196209308E-07 -0.804395259719E-07
  0.126956945306E-04  0.260245900780E-04  0.367412690132E-05 -0.804561744620E-05 -0.327135476627E-04  0.229938874527E-04  0.876540291641E-05
 -0.102296750198E-04 -0.388077850531E-04 -0.151799984330E-04 -0.550983947358E-04  0.229385919215E-04  0.449462367775E-05 -0.426521580891E-05
 -0.612471440159E-05 -0.968499727691E-05 -0.149390703580E-04  0.876559317929E-05  0.379852601843E-04 -0.291096078720E-05 -0.677337367729E-05
  0.149089313251E-05 -0.426586754378E-05  0.858538167009E-05  0.445710669845E-05  0.661472393026E-05  0.362944150671E-05  0.467169577290E-05
 -0.115986007075E-05 -0.323408798055E-05  0.178018518398E-05 -0.607072056259E-06  0.325345837735E-05
 -0.108411774896E-03 -0.197220758115E-03 -0.413015967207E-04  0.384825820538E-03  0.613144300939E-03 -0.271381302601E-04  0.977523056811E-03
 -0.459110797049E-04  0.311379098724E-04 -0.246635322419E-04  0.668261037663E-04  0.724058265321E-04  0.560618946642E-03 -0.471945485372E-05
 -0.944734891648E-05 -0.112649957682E-04  0.496962424716E-04 -0.443913975427E-04  0.341054715092E-03 -0.198813216164E-05 -0.422479670435E-05
 -0.662373004827E-05 -0.271136193908E-05 -0.744112954359E-05 -0.360259160658E-04 -0.119766747982E-04  0.138290293221E-04 -0.450997984454E-04
 -0.286127000360E-05 -0.435265530509E-05  0.106139899063E-06 -0.691444465613E-05  0.516022718206E-04
        15         9        16        16
        15        18        11        11
        22        15        21        21
        11         5         9         9
         5         7         2         2
        11         9        15        15
        16        21        15        15
        16        10        14        14
        18        17        11        11
        17        25        24        24
        22        18        15        15
        22        30        31        31
        30        21        23        23
        16        20        23        23
        22        27        26        26
        10         9         4         4
         7        11        13        13
        25        18        26        26
        11         7         5         5
         5         1         4         4
        17        19        13        13
        23        32        30        30
        23        20        29        29
         4         9         5         5
         4         8        10        10
        26        18        22        22
        26        28        25        25
        13        11        17        17
        13         6         7         7
        31        30        32        32
         2         1         5         5
         2         7         6         6
        14        10         8         8
        24        19        17        17
        24        25        28        28
         9        10        16        16
         3         4         1         1
        33        26        27        27
        12        13        19        19
        21        30        22        22
        16        14        20        20
        16        23        21        21
        22        31        27        27
        18        25        17        17
        26        33        28        28
         4         3         8         8
        23        29        32        32
        13        12         6         6
zone t="boundary 4 bc-4", solutiontime= 0.4000000E+02, strandid=1004, i=32, j=46, f=feblock
  0.125000000000E+01  0.219251206392E+01  0.103724302461E+01  0.500000000000E+01  0.250000000000E+01  0.375000000000E+01  0.404200324774E+01
  0.500000000000E+01  0.000000000000E+00  0.310152362409E+01  0.202479342020E+01  0.324151231464E+01  0.922061490191E+00  0.000000000000E+00
  0.299062775774E+01  0.394624082883E+01  0.500000000000E+01  0.409252726285E+01  0.500000000000E+01  0.429310310915E+01  0.175434191980E+01
  0.284428995242E+01  0.000000000000E+00  0.000000000000E+00  0.715990576545E+00  0.930412228790E+00  0.125000000000E+01  0.187029682677E+01
  0.500000000000E+01  0.375000000000E+01  0.250000000000E+01  0.000000000000E+00
  0.250000000000E+01  0.157686156160E+01  0.146289271009E+01  0.250000000000E+01  0.250000000000E+01  0.250000000000E+01  0.155830813274E+01
  0.125000000000E+01  0.250000000000E+01  0.177790177481E+01  0.477386199275E+00  0.742988685424E+00  0.308372018325E+00  0.125000000000E+01
 -0.487811078581E+00 -0.144524380962E+01 -0.125000000000E+01 -0.345533899378E+00  0.000000000000E+00  0.627766083140E+00 -0.739814786992E+00
 -0.158811787973E+01  0.000000000000E+00 -0.125000000000E+01 -0.600232012419E+00 -0.154800130438E+01 -0.250000000000E+01 -0.178862290564E+01
 -0.250000000000E+01 -0.250000000000E+01 -0.250000000000E+01 -0.250000000000E+01
  0.500000000000E+01  0.500000000000E+01  0.500000000000E+01  0.500000000000E+01  0.500000000000E+01  0.500000000000E+01  0.500000000000E+01
  0.500000000000E+01  0.500000000000E+01  0.500000000000E+01  0.500000000000E+01  0.500000000000E+01  0.500000000000E+01  0.500000000000E+01
  0.500000000000E+01  0.500000000000E+01  0.500000000000E+01  0.500000000000E+01  0.500000000000E+01  0.500000000000E+01  0.500000000000E+01
  0.500000000000E+01  0.500000000000E+01  0.500000000000E+01  0.500000000000E+01  0.500000000000E+01  0.500000000000E+01  0.500000000000E+01
  0.500000000000E+01  0.500000000000E+01  0.500000000000E+01  0.500000000000E+01
  0.488563386034E+00  0.488874141190E+00  0.490563798743E+00  0.492980764076E+00  0.486461965853E+00  0.484597695101E+00  0.485348527628E+00
  0.494163498173E+00  0.495347171760E+00  0.486529157407E+00  0.487821059839E+00  0.487069818832E+00  0.494046662670E+00  0.496127919189E+00
  0.487613312932E+00  0.483220341467E+00  0.492395407238E+00  0.487214673604E+00  0.494738901691E+00  0.487958971889E+00  0.489678292776E+00
  0.488030085049E+00  0.497246761305E+00  0.496059785041E+00  0.494951737622E+00  0.492801157110E+00  0.490003707998E+00  0.490006147673E+00
  0.491352331256E+00  0.486076199652E+00  0.490037473019E+00  0.495098812149E+00
  0.100215241692E+01  0.100152628230E+01  0.100178324505E+01  0.100047663613E+01  0.100126796473E+01  0.100066558632E+01  0.100025348584E+01
  0.100050386214E+01  0.100179316439E+01  0.100112346564E+01  0.100133022918E+01  0.100072416220E+01  0.100164344151E+01  0.100168826201E+01
  0.100096255089E+01  0.100000864863E+01  0.100082856799E+01  0.100022259985E+01  0.100062140260E+01  0.100023490461E+01  0.100174609907E+01
  0.100098833616E+01  0.100118709692E+01  0.100134152965E+01  0.100132615972E+01  0.100179851151E+01  0.100192632421E+01  0.100163723092E+01
  0.100045428384E+01  0.100058757388E+01  0.100109969524E+01  0.100176093040E+01
 -0.402873286078E-04 -0.273422703060E-04 -0.701097485481E-04  0.889553461019E-05 -0.658305049728E-05  0.159018007600E-04  0.129904956066E-04
  0.988112650257E-05 -0.125356828542E-03  0.111478701556E-04 -0.434597486534E-04  0.153256954103E-05 -0.107586805742E-03 -0.124132700793E-03
 -0.211193375515E-04 -0.136894690698E-05  0.127817419289E-04  0.622668888493E-05  0.846903172917E-05  0.109992319514E-04 -0.901949330679E-04
 -0.429305909176E-04 -0.139983970525E-03 -0.130341487940E-03 -0.145556951631E-03 -0.114666196248E-03 -0.111944066713E-03 -0.998475581162E-04
  0.991580346204E-05 -0.956813222220E-05 -0.667395027174E-04 -0.110634727870E-03