title="tecplot geometry and solution file"
variables = x y z mach temperature lambda1 lambda2 lambda3 lambda4 lambda5
zone t="boundary 1 bc-1", solutiontime= 0.3000000E+02, strandid=1001, i=32, j=46, f=feblock
  0.000000000000E+00  0.000000000000E+00  0.000000000000E+00  0.000000000000E+00  0.000000000000E+00  0.000000000000E+00  0.000000000000E+00
  0.000000000000E+00  0.000000000000E+00  0.000000000000E+00  0.000000000000E+00  0.000000000000E+00  0.000000000000E+00  0.000000000000E+00
  0.000000000000E+00  0.000000000000E+00  0.000000000000E+00  0.000000000000E+00  0.000000000000E+00  0.000000000000E+00  0.000000000000E+00
  0.000000000000E+00  0.000000000000E+00  0.000000000000E+00  0.000000000000E+00  0.000000000000E+00  0.000000000000E+00  0.000000000000E+00
  0.000000000000E+00  0.000000000000E+00  0.000000000000E+00  0.000000000000E+00
  0.250000000000E+01  0.250000000000E+01  0.125000000000E+01  0.146289271009E+01  0.157686156160E+01  0.308372018325E+00  0.000000000000E+00
 -0.125000000000E+01 -0.600232012419E+00  0.250000000000E+01  0.477386199275E+00  0.742988685424E+00 -0.739814786992E+00  0.177790177481E+01
  0.155830813274E+01  0.250000000000E+01 -0.250000000000E+01 -0.154800130438E+01 -0.487811078581E+00  0.250000000000E+01  0.627766083140E+00
 -0.345533899378E+00 -0.178862290564E+01 -0.158811787973E+01  0.125000000000E+01 -0.250000000000E+01 -0.144524380962E+01  0.000000000000E+00
 -0.125000000000E+01 -0.250000000000E+01 -0.250000000000E+01 -0.250000000000E+01
  0.000000000000E+00  0.125000000000E+01  0.000000000000E+00  0.103724302461E+01  0.219251206392E+01  0.922061490191E+00  0.000000000000E+00
  0.000000000000E+00  0.715990576545E+00  0.250000000000E+01  0.202479342020E+01  0.324151231464E+01  0.175434191980E+01  0.310152362409E+01
  0.404200324774E+01  0.375000000000E+01  0.000000000000E+00  0.930412228790E+00  0.299062775774E+01  0.500000000000E+01  0.429310310915E+01
  0.409252726285E+01  0.187029682677E+01  0.284428995242E+01  0.500000000000E+01  0.125000000000E+01  0.394624082883E+01  0.500000000000E+01
  0.500000000000E+01  0.250000000000E+01  0.375000000000E+01  0.500000000000E+01
  0.000000000000E+00  0.441239785988E+00  0.000000000000E+00  0.475215274863E+00  0.460125469115E+00  0.468829033016E+00  0.000000000000E+00
  0.000000000000E+00  0.402304816650E+00  0.469816606844E+00  0.464412782143E+00  0.478715406528E+00  0.489298660859E+00  0.483069730103E+00
  0.487930932807E+00  0.488962540251E+00  0.000000000000E+00  0.464777175811E+00  0.473797112853E+00  0.495347171760E+00  0.490266841402E+00
  0.486286962460E+00  0.445719479485E+00  0.464383763709E+00  0.496127919189E+00  0.443625026347E+00  0.486965334975E+00  0.497246761305E+00
  0.496059785041E+00  0.467733890136E+00  0.488212950097E+00  0.495098812149E+00
  0.100000000000E+01  0.102982613692E+01  0.100000000000E+01  0.104247134045E+01  0.101190025901E+01  0.102520692329E+01  0.100000000000E+01
  0.100000000000E+01  0.103891294613E+01  0.100826231153E+01  0.101252764203E+01  0.100300522166E+01  0.102702698129E+01  0.100605519113E+01
  0.100244372949E+01  0.100355626855E+01  0.100000000000E+01  0.103239734230E+01  0.100459494933E+01  0.100179316439E+01  0.100260278989E+01
  0.100234941843E+01  0.101657094887E+01  0.100617510648E+01  0.100168826201E+01  0.104043151483E+01  0.100303347612E+01  0.100118709692E+01
  0.100134152965E+01  0.100976739746E+01  0.100405336562E+01  0.100176093040E+01
 -0.110417881967E-03 -0.840328404619E-03  0.300559518883E-04 -0.909354152830E-03 -0.117127142958E-03  0.841505353337E-03  0.219675753496E-03
  0.131212553630E-03  0.184339566843E-02  0.125266858405E-04 -0.398286228660E-03  0.130163144493E-03 -0.164320312845E-03  0.107638215935E-03
  0.800220023927E-04  0.105731902051E-03  0.438200652761E-04 -0.375423691580E-04 -0.156757460751E-04 -0.125352142307E-03  0.547761720053E-04
  0.729920624019E-04 -0.242038790375E-03  0.341045710240E-05 -0.124150957413E-03 -0.560372970599E-03  0.534833135255E-04 -0.139995570755E-03
 -0.130335949992E-03 -0.694676623349E-04  0.876866009121E-04 -0.110649010725E-03
 -0.239691850204E-04 -0.138393363355E-03 -0.221522656819E-04 -0.141765237499E-03 -0.141844778061E-04  0.132235905230E-03 -0.258897646756E-06
 -0.355579626509E-05  0.266130333921E-03  0.571167393347E-05 -0.522505532883E-04  0.260882436696E-04 -0.217718498472E-04  0.244158397341E-04
  0.145401009424E-04  0.216311092288E-04  0.150016861751E-05 -0.213632480254E-04  0.623562782987E-05 -0.243020947605E-04  0.101138856914E-04
  0.161465899767E-04 -0.331468849112E-04  0.970744180401E-05 -0.251474303941E-04 -0.854267588839E-04  0.134043312849E-04 -0.306879967942E-04
 -0.308561586730E-04 -0.998674695294E-06  0.195476581219E-04 -0.280914525881E-04
 -0.163768413954E-04 -0.272421463241E-05 -0.151897937790E-04  0.251147534634E-04  0.175133923752E-04  0.267053406324E-04 -0.391908770736E-05
 -0.507302306378E-05 -0.317392023988E-04 -0.725217418415E-07  0.226084772584E-04  0.120501932628E-04 -0.242820275095E-04  0.911475130100E-05
  0.191010247652E-05 -0.620358948251E-06  0.635419365182E-05 -0.467846972445E-04  0.743974914216E-05 -0.803984265580E-07  0.752630077754E-06
  0.109604431554E-05 -0.171987961331E-04 -0.102299983325E-04  0.216312976632E-05  0.934099361206E-06  0.103473461237E-05  0.206679722833E-05
  0.767067731332E-06 -0.120667141371E-05  0.569160092374E-06  0.320711530400E-06
  0.229376248625E-04  0.379874023892E-04 -0.255925985376E-05  0.318924360528E-04  0.138151606139E-04  0.119050774640E-03 -0.355135877659E-04
 -0.336164028487E-04  0.993441231037E-04  0.858800683663E-05  0.627666469257E-04  0.145798405081E-04  0.109222361245E-03  0.792124553049E-05
  0.694300973912E-05  0.466809295272E-05 -0.410504869595E-05 -0.290862199212E-05  0.253683267921E-04  0.325422667153E-05  0.690751765462E-05
  0.858686581647E-05  0.247892662139E-04  0.197919798728E-04  0.310745665228E-05 -0.446376253258E-05  0.618102343295E-05  0.208327726852E-05
  0.191415482679E-05  0.117623798862E-04  0.498784496682E-05  0.217588375310E-05
  0.723994859717E-04  0.341020305242E-03 -0.640091996710E-04  0.369098551890E-03  0.458324088705E-04 -0.361698629875E-03  0.758126927981E-04
 -0.753984148232E-05 -0.757054686222E-03 -0.743156787188E-05  0.160612255642E-03 -0.556670176413E-04  0.696927031039E-04 -0.463506168869E-04
 -0.344106685796E-04 -0.450992069663E-04 -0.739267036714E-05  0.336650425449E-04  0.372309895177E-05  0.516006832443E-04 -0.237961301300E-04
 -0.316228150178E-04  0.101322944848E-03 -0.357613252893E-05  0.512669081018E-04  0.230203826272E-03 -0.229999294477E-04  0.583893253833E-04
  0.547200521829E-04  0.282526389064E-04 -0.370326833270E-04  0.464839740588E-04
        12        19        11        11
        11         5        12        12
        10        14         5         5
        19        13        11        11
        19        24        13        13
        30        23        24        24
        19        12        22        22
        28        22        21        21
        11        13         6         6
         7         6         9         9
        15        12        14        14
        18        13        23        23
        15        25        21        21
        27        19        22        22
        18         8         9         9
        27        31        24        24
         4        11         6         6
         5        14        12        12
         4         2         5         5
        21        12        15        15
        14        16        15        15
        24        19        27        27
        22        29        27        27
        23        26        18        18
        17         8        18        18
         5        11         4         4
         6         3         4         4
        26        23        30        30
         5         2        10        10
        16        14        10        10
         3         6         7         7
        21        25        28        28
        29        22        28        28
         6        13         9         9
         2         4         1         1
        31        27        32        32
        25        15        20        20
        24        23        13        13
         8         7         9         9
        13        18         9         9
        31        30        24        24
        12        21        22        22
        29        32        27        27
         3         1         4         4
        26        17        18        18
        16        20        15        15
zone t="boundary 2 bc-2", solutiontime= 0.3000000E+02, strandid=1002, i=33, j=48, f=feblock
  0.500000000000E+01  0.375000000000E+01  0.250000000000E+01  0.288078410721E+01  0.125000000000E+01  0.190974100652E+01  0.326683758169E+01
  0.201431602454E+01  0.000000000000E+00  0.963108083381E+00  0.500000000000E+01  0.403552511878E+01  0.423153924130E+01  0.500000000000E+01
  0.385533350601E+01  0.500000000000E+01  0.398173246726E+01  0.315249557942E+01  0.267000324704E+01  0.154774304040E+01  0.218329375016E+01
  0.893127759452E+00  0.000000000000E+00  0.698517061619E+00  0.964171764089E+00  0.310324758057E+01  0.000000000000E+00  0.000000000000E+00
  0.125000000000E+01  0.500000000000E+01  0.375000000000E+01  0.250000000000E+01  0.000000000000E+00
 -0.250000000000E+01 -0.250000000000E+01 -0.250000000000E+01 -0.250000000000E+01 -0.250000000000E+01 -0.250000000000E+01 -0.250000000000E+01
 -0.250000000000E+01 -0.250000000000E+01 -0.250000000000E+01 -0.250000000000E+01 -0.250000000000E+01 -0.250000000000E+01 -0.250000000000E+01
 -0.250000000000E+01 -0.250000000000E+01 -0.250000000000E+01 -0.250000000000E+01 -0.250000000000E+01 -0.250000000000E+01 -0.250000000000E+01
 -0.250000000000E+01 -0.250000000000E+01 -0.250000000000E+01 -0.250000000000E+01 -0.250000000000E+01 -0.250000000000E+01 -0.250000000000E+01
 -0.250000000000E+01 -0.250000000000E+01 -0.250000000000E+01 -0.250000000000E+01 -0.250000000000E+01
  0.000000000000E+00  0.000000000000E+00  0.000000000000E+00  0.904659890645E+00  0.000000000000E+00  0.717002441913E+00  0.188609243358E+01
  0.176246431481E+01  0.000000000000E+00  0.961328577125E+00  0.125000000000E+01  0.101201586758E+01  0.191586535653E+01  0.250000000000E+01
  0.293121848150E+01  0.375000000000E+01  0.406975391361E+01  0.363585050272E+01  0.285047954584E+01  0.292817774674E+01  0.395907379566E+01
  0.205246550326E+01  0.125000000000E+01  0.306828197606E+01  0.397245519226E+01  0.433168271247E+01  0.250000000000E+01  0.375000000000E+01
  0.500000000000E+01  0.500000000000E+01  0.500000000000E+01  0.500000000000E+01  0.500000000000E+01
  0.000000000000E+00  0.000000000000E+00  0.000000000000E+00  0.380992830094E+00  0.000000000000E+00  0.343629568856E+00  0.585286648998E+00
  0.579372754272E+00  0.000000000000E+00  0.501053917142E+00  0.508462688610E+00  0.435375182283E+00  0.572640857456E+00  0.537001600598E+00
  0.568922324808E+00  0.514993445722E+00  0.508247282359E+00  0.527252917665E+00  0.567446475338E+00  0.531657240797E+00  0.505981537505E+00
  0.520795935457E+00  0.443625026347E+00  0.490664539735E+00  0.492156651997E+00  0.501391299454E+00  0.467733890136E+00  0.488212950097E+00
  0.490003707998E+00  0.491352331256E+00  0.486076199652E+00  0.490037473019E+00  0.495098812149E+00
  0.100000000000E+01  0.100000000000E+01  0.100000000000E+01  0.989541508141E+00  0.100000000000E+01  0.985528358061E+00  0.989838816567E+00
  0.991798621961E+00  0.100000000000E+01  0.984413495574E+00  0.985092479637E+00  0.984690921830E+00  0.990058397112E+00  0.100289587074E+01
  0.999854860768E+00  0.100485278088E+01  0.100121537341E+01  0.100055609297E+01  0.997896330314E+00  0.100349975551E+01  0.100058042726E+01
  0.101093198268E+01  0.104043151483E+01  0.100326450519E+01  0.100254472042E+01  0.100045565689E+01  0.100976739746E+01  0.100405336562E+01
  0.100192632421E+01  0.100045428384E+01  0.100058757388E+01  0.100109969524E+01  0.100176093040E+01
  0.143021344422E-03 -0.615653590894E-04 -0.226544455017E-03 -0.211354547023E-02  0.261199709008E-04  0.434507556409E-03  0.177555267710E-05
 -0.635555992553E-03  0.438200652761E-04 -0.447523964353E-03  0.107752036261E-03  0.289138895330E-03  0.317485748289E-04  0.654589586977E-04
  0.211646530082E-04  0.138033733161E-04  0.416568646108E-05  0.217479164172E-04  0.142326199292E-03  0.167445121356E-03  0.168184215692E-04
 -0.268478998217E-03 -0.560372970599E-03  0.762370782632E-04  0.520096452048E-04  0.943141199151E-06 -0.694676623349E-04  0.876866009121E-04
 -0.111941409654E-03  0.991564324241E-05 -0.956978455691E-05 -0.667460164042E-04 -0.110649010725E-03
 -0.371832775623E-04  0.568847319380E-04 -0.627531768803E-05 -0.295870271027E-04 -0.247713681575E-04  0.130120893164E-03  0.133045769877E-03
  0.140657767917E-04  0.150016861751E-05 -0.965956491972E-04 -0.352197549909E-04  0.167919145258E-03  0.314893015887E-04 -0.144335556119E-04
  0.213875662113E-04 -0.300203083527E-05  0.680585871155E-05  0.176015438161E-04  0.776300713977E-04  0.737397073228E-04  0.131703355522E-04
  0.788149380372E-05 -0.854267588839E-04  0.375639883286E-04  0.144616586119E-04  0.991594361737E-05 -0.998674695294E-06  0.195476581219E-04
 -0.186215268211E-04  0.891393216372E-06  0.306349809556E-05 -0.450196558662E-05 -0.280914525881E-04
  0.962539003207E-05  0.425327554493E-05 -0.117939154710E-04  0.232827244401E-04 -0.198868447340E-05  0.113544536904E-04  0.161744211534E-04
 -0.664558102609E-06  0.635419365182E-05 -0.123032696000E-04  0.792136676256E-05  0.412995575328E-04 -0.204330114837E-05 -0.110069704203E-06
 -0.863908859450E-06  0.293343276412E-06  0.509756058651E-06 -0.742399045286E-06 -0.353792648145E-05 -0.119430436744E-05  0.154881929499E-06
 -0.147647515149E-05  0.934099361206E-06 -0.515935555131E-06 -0.129436851736E-06  0.379423705258E-07 -0.120667141371E-05  0.569160092374E-06
  0.173308995483E-06  0.761579384446E-07 -0.143733480064E-06  0.104132012539E-06  0.320711530400E-06
  0.394687149200E-05  0.269711519540E-04  0.102459160450E-04  0.346594097371E-04 -0.471916128839E-05  0.111173568658E-03 -0.963521224360E-04
  0.103375462044E-04 -0.410504869595E-05  0.227671744341E-04 -0.481069233027E-04 -0.157568538877E-03 -0.376140391953E-04 -0.127594907621E-04
 -0.114761556143E-04 -0.446026921741E-05 -0.309348517007E-05  0.461873223962E-05 -0.502384297292E-05  0.167510969289E-04  0.852905243068E-05
  0.170061262255E-04 -0.446376253258E-05  0.149935341685E-04  0.113098239662E-04  0.388805763429E-05  0.117623798862E-04  0.498784496682E-05
  0.562877457051E-05 -0.995709853126E-06  0.117485013014E-05  0.397585157107E-05  0.217588375310E-05
 -0.483427788781E-04 -0.259734311999E-03  0.105228277521E-03  0.795051174238E-03  0.713721574565E-04 -0.248938755540E-03 -0.429362992251E-04
  0.226087586361E-03 -0.739267036714E-05  0.196703742270E-03 -0.188476473935E-04 -0.154316262294E-03 -0.200587778620E-04 -0.135324240943E-04
 -0.140546689990E-04 -0.299782556218E-05 -0.347384135700E-05 -0.139899356074E-04 -0.732766992182E-04 -0.814091660337E-04 -0.109822931267E-04
  0.997162117348E-04  0.230203826272E-03 -0.363432205026E-04 -0.239187442767E-04 -0.391071368441E-05  0.282526389064E-04 -0.370326833270E-04
  0.446985545921E-04 -0.361096607410E-05  0.247749010158E-05  0.248464348052E-04  0.464839740588E-04
        15         7        19        19
         8        20        19        19
        18        19        21        21
         7         4         8         8
         3         6         4         4
        19         7         8         8
        19        18        15        15
        14        13        15        15
         8        22        20        20
        27        24        22        22
        19        20        21        21
        32        26        21        21
        17        18        26        26
        17        16        15        15
        25        29        21        21
        12         7        13        13
        10         8         6         6
        25        20        24        24
         4         6         8         8
        12         2         4         4
        10        23        22        22
        26        31        17        17
        30        16        17        17
         4         7        12        12
        13        11        12        12
        21        20        25        25
        24        28        25        25
        22         8        10        10
         6         5        10        10
        31        26        32        32
         4         2         3         3
         5         6         3         3
        11        13        14        14
        22        23        27        27
        28        24        27        27
        15        13         7         7
         2        12         1         1
        29        25        33        33
        23        10         9         9
        21        26        18        18
        16        14        15        15
        18        17        15        15
        29        32        21        21
        22        24        20        20
        28        33        25        25
        11         1        12        12
        31        30        17        17
         5         9        10        10
zone t="boundary 3 bc-3", solutiontime= 0.3000000E+02, strandid=1003, i=33, j=48, f=feblock
  0.375000000000E+01  0.250000000000E+01  0.500000000000E+01  0.403552511878E+01  0.288078410721E+01  0.125000000000E+01  0.190974100652E+01
  0.500000000000E+01  0.326683758169E+01  0.423153924130E+01  0.201431602454E+01  0.000000000000E+00  0.963108083381E+00  0.500000000000E+01
  0.267000324704E+01  0.385533350601E+01  0.893127759452E+00  0.154774304040E+01  0.000000000000E+00  0.500000000000E+01  0.315249557942E+01
  0.218329375016E+01  0.398173246726E+01  0.000000000000E+00  0.698517061619E+00  0.964171764089E+00  0.125000000000E+01  0.000000000000E+00
  0.500000000000E+01  0.310324758057E+01  0.250000000000E+01  0.375000000000E+01  0.000000000000E+00
  0.250000000000E+01  0.250000000000E+01  0.250000000000E+01  0.250000000000E+01  0.250000000000E+01  0.250000000000E+01  0.250000000000E+01
  0.250000000000E+01  0.250000000000E+01  0.250000000000E+01  0.250000000000E+01  0.250000000000E+01  0.250000000000E+01  0.250000000000E+01
  0.250000000000E+01  0.250000000000E+01  0.250000000000E+01  0.250000000000E+01  0.250000000000E+01  0.250000000000E+01  0.250000000000E+01
  0.250000000000E+01  0.250000000000E+01  0.250000000000E+01  0.250000000000E+01  0.250000000000E+01  0.250000000000E+01  0.250000000000E+01
  0.250000000000E+01  0.250000000000E+01  0.250000000000E+01  0.250000000000E+01  0.250000000000E+01
  0.000000000000E+00  0.000000000000E+00  0.000000000000E+00  0.101201586758E+01  0.904659890645E+00  0.000000000000E+00  0.717002441913E+00
  0.125000000000E+01  0.188609243358E+01  0.191586535653E+01  0.176246431481E+01  0.000000000000E+00  0.961328577125E+00  0.250000000000E+01
  0.285047954584E+01  0.293121848150E+01  0.205246550326E+01  0.292817774674E+01  0.125000000000E+01  0.375000000000E+01  0.363585050272E+01
  0.395907379566E+01  0.406975391361E+01  0.250000000000E+01  0.306828197606E+01  0.397245519226E+01  0.500000000000E+01  0.375000000000E+01
  0.500000000000E+01  0.433168271247E+01  0.500000000000E+01  0.500000000000E+01  0.500000000000E+01
  0.000000000000E+00  0.000000000000E+00  0.000000000000E+00  0.443770331736E+00  0.402287171226E+00  0.000000000000E+00  0.377548518817E+00
  0.509235490256E+00  0.575832411882E+00  0.573708273050E+00  0.562553347591E+00  0.000000000000E+00  0.490560550365E+00  0.534526479803E+00
  0.556586999650E+00  0.564391422515E+00  0.522731054000E+00  0.522052377449E+00  0.441239785988E+00  0.517181547931E+00  0.524228814576E+00
  0.503688070658E+00  0.509488649002E+00  0.469816606844E+00  0.495615241225E+00  0.494484543267E+00  0.488563386034E+00  0.488962540251E+00
  0.492980764076E+00  0.499006129986E+00  0.486461965853E+00  0.484597695101E+00  0.495347171760E+00
  0.100000000000E+01  0.100000000000E+01  0.100000000000E+01  0.981544853085E+00  0.988777726367E+00  0.100000000000E+01  0.982474464092E+00
  0.984105346981E+00  0.990427594648E+00  0.990355238130E+00  0.994363068874E+00  0.100000000000E+01  0.988654724521E+00  0.100368325855E+01
  0.999768563775E+00  0.100118428120E+01  0.100834796419E+01  0.100252058950E+01  0.102982613692E+01  0.100443277913E+01  0.100199491686E+01
  0.100082030644E+01  0.100138167444E+01  0.100826231153E+01  0.100298756175E+01  0.100192362714E+01  0.100215241692E+01  0.100355626855E+01
  0.100047663613E+01  0.100056570035E+01  0.100126796473E+01  0.100066558632E+01  0.100179316439E+01
  0.335101903023E-05 -0.666478945551E-04  0.290583479868E-04 -0.853792510744E-03 -0.145927454775E-02 -0.157388587882E-03 -0.233890224234E-02
  0.143388173295E-03 -0.857114994299E-04  0.682292704254E-04 -0.235692178597E-03 -0.110417881967E-03 -0.143277700234E-02  0.276739305416E-04
  0.114674406155E-04  0.285451200083E-04 -0.162249759625E-03  0.857750522869E-04 -0.840328404619E-03  0.111531907371E-04  0.405080233801E-05
  0.622335376965E-05  0.682959139500E-05  0.125266858405E-04  0.781343405826E-04  0.231633508774E-04 -0.402899253029E-04  0.105731902051E-03
  0.889546068081E-05  0.556056038575E-05 -0.658188668221E-05  0.159011692084E-04 -0.125352142307E-03
  0.760113813619E-05  0.119155816184E-04 -0.872788700704E-05 -0.160738092964E-03 -0.180683264121E-03  0.103982230073E-04 -0.287004202978E-03
 -0.786573280275E-05 -0.183903041683E-05  0.351114689163E-05  0.424596269900E-04 -0.239691850204E-04 -0.141766001174E-03 -0.788855313333E-05
  0.159525097453E-04  0.607417295186E-05  0.243858176211E-04  0.392887402377E-04 -0.138393363355E-03 -0.298243933706E-05  0.848460438132E-05
  0.125950013337E-04  0.256628019939E-05  0.571167393347E-05  0.335707316560E-04  0.889775895365E-05  0.116065659677E-05  0.216311092288E-04
 -0.551980309579E-07  0.855788800142E-05  0.775685346786E-05  0.474112028650E-05 -0.243020947605E-04
 -0.150212561723E-06 -0.142799522001E-05  0.376525465299E-05  0.216903310802E-04  0.270315650323E-04 -0.390690865111E-05  0.212364305759E-04
  0.135530161504E-05  0.318481473409E-05  0.293746917755E-06  0.319303583491E-05 -0.163768413954E-04  0.316542241809E-05 -0.611474308922E-06
  0.463923052811E-06 -0.123656943074E-06  0.153162720177E-05  0.167627483949E-05 -0.272421463241E-05 -0.272348629448E-06 -0.439747029166E-06
 -0.104302900835E-05 -0.205655619853E-06 -0.725217418415E-07 -0.108519272086E-05 -0.119432315925E-05 -0.328845487087E-06 -0.620358948251E-06
 -0.547012098852E-07  0.348556843572E-07 -0.194517590455E-07  0.890039327458E-07 -0.803984265580E-07
  0.126965317604E-04  0.260225529736E-04  0.367363748222E-05 -0.804049678269E-05 -0.327140886497E-04  0.229927595071E-04  0.876105295792E-05
 -0.102312383984E-04 -0.388069718550E-04 -0.151801139041E-04 -0.550961310199E-04  0.229376248625E-04  0.449257850150E-05 -0.426492128101E-05
 -0.612469100452E-05 -0.968443520926E-05 -0.149395131615E-04  0.876502875814E-05  0.379874023892E-04 -0.291107675030E-05 -0.677301352976E-05
  0.149124214455E-05 -0.426578382303E-05  0.858800683663E-05  0.445475028656E-05  0.661572156963E-05  0.362911406584E-05  0.466809295272E-05
 -0.115982694633E-05 -0.323400569583E-05  0.178008420027E-05 -0.607022060582E-06  0.325422667153E-05
 -0.108408199519E-03 -0.197223255984E-03 -0.413034741461E-04  0.384856392849E-03  0.613070833505E-03 -0.271398486002E-04  0.977452306293E-03
 -0.459181402891E-04  0.311521499123E-04 -0.246715983888E-04  0.668246803850E-04  0.723994859717E-04  0.560557946356E-03 -0.471809070710E-05
 -0.944792508841E-05 -0.112665355864E-04  0.496935697245E-04 -0.443861059511E-04  0.341020305242E-03 -0.198817584929E-05 -0.422421588888E-05
 -0.662676886507E-05 -0.271214878805E-05 -0.743156787188E-05 -0.360315465987E-04 -0.119747194688E-04  0.138300121781E-04 -0.450992069663E-04
 -0.286123229732E-05 -0.435164626551E-05  0.105855577584E-06 -0.691418322299E-05  0.516006832443E-04
        15         9        16        16
        15        18        11        11
        22        15        21        21
        11         5         9         9
         5         7         2         2
        11         9        15        15
        16        21        15        15
        16        10        14        14
        18        17        11        11
        17        25        24        24
        22        18        15        15
        22        30        31        31
        30        21        23        23
        16        20        23        23
        22        27        26        26
        10         9         4         4
         7        11        13        13
        25        18        26        26
        11         7         5         5
         5         1         4         4
        17        19        13        13
        23        32        30        30
        23        20        29        29
         4         9         5         5
         4         8        10        10
        26        18        22        22
        26        28        25        25
        13        11        17        17
        13         6         7         7
        31        30        32        32
         2         1         5         5
         2         7         6         6
        14        10         8         8
        24        19        17        17
        24        25        28        28
         9        10        16        16
         3         4         1         1
        33        26        27        27
        12        13        19        19
        21        30        22        22
        16        14        20        20
        16        23        21        21
        22        31        27        27
        18        25        17        17
        26        33        28        28
         4         3         8         8
        23        29        32        32
        13        12         6         6
zone t="boundary 4 bc-4", solutiontime= 0.3000000E+02, strandid=1004, i=32, j=46, f=feblock
  0.125000000000E+01  0.219251206392E+01  0.103724302461E+01  0.500000000000E+01  0.250000000000E+01  0.375000000000E+01  0.404200324774E+01
  0.500000000000E+01  0.000000000000E+00  0.310152362409E+01  0.202479342020E+01  0.324151231464E+01  0.922061490191E+00  0.000000000000E+00
  0.299062775774E+01  0.394624082883E+01  0.500000000000E+01  0.409252726285E+01  0.500000000000E+01  0.429310310915E+01  0.175434191980E+01
  0.284428995242E+01  0.000000000000E+00  0.000000000000E+00  0.715990576545E+00  0.930412228790E+00  0.125000000000E+01  0.187029682677E+01
  0.500000000000E+01  0.375000000000E+01  0.250000000000E+01  0.000000000000E+00
  0.250000000000E+01  0.157686156160E+01  0.146289271009E+01  0.250000000000E+01  0.250000000000E+01  0.250000000000E+01  0.155830813274E+01
  0.125000000000E+01  0.250000000000E+01  0.177790177481E+01  0.477386199275E+00  0.742988685424E+00  0.308372018325E+00  0.125000000000E+01
 -0.487811078581E+00 -0.144524380962E+01 -0.125000000000E+01 -0.345533899378E+00  0.000000000000E+00  0.627766083140E+00 -0.739814786992E+00
 -0.158811787973E+01  0.000000000000E+00 -0.125000000000E+01 -0.600232012419E+00 -0.154800130438E+01 -0.250000000000E+01 -0.178862290564E+01
 -0.250000000000E+01 -0.250000000000E+01 -0.250000000000E+01 -0.250000000000E+01
  0.500000000000E+01  0.500000000000E+01  0.500000000000E+01  0.500000000000E+01  0.500000000000E+01  0.500000000000E+01  0.500000000000E+01
  0.500000000000E+01  0.500000000000E+01  0.500000000000E+01  0.500000000000E+01  0.500000000000E+01  0.500000000000E+01  0.500000000000E+01
  0.500000000000E+01  0.500000000000E+01  0.500000000000E+01  0.500000000000E+01  0.500000000000E+01  0.500000000000E+01  0.500000000000E+01
  0.500000000000E+01  0.500000000000E+01  0.500000000000E+01  0.500000000000E+01  0.500000000000E+01  0.500000000000E+01  0.500000000000E+01
  0.500000000000E+01  0.500000000000E+01  0.500000000000E+01  0.500000000000E+01
  0.488563386034E+00  0.488874141190E+00  0.490563798743E+00  0.492980764076E+00  0.486461965853E+00  0.484597695101E+00  0.485348527628E+00
  0.494163498173E+00  0.495347171760E+00  0.486529157407E+00  0.487821059839E+00  0.487069818832E+00  0.494046662670E+00  0.496127919189E+00
  0.487613312932E+00  0.483220341467E+00  0.492395407238E+00  0.487214673604E+00  0.494738901691E+00  0.487958971889E+00  0.489678292776E+00
  0.488030085049E+00  0.497246761305E+00  0.496059785041E+00  0.494951737622E+00  0.492801157110E+00  0.490003707998E+00  0.490006147673E+00
  0.491352331256E+00  0.486076199652E+00  0.490037473019E+00  0.495098812149E+00
  0.100215241692E+01  0.100152628230E+01  0.100178324505E+01  0.100047663613E+01  0.100126796473E+01  0.100066558632E+01  0.100025348584E+01
  0.100050386214E+01  0.100179316439E+01  0.100112346564E+01  0.100133022918E+01  0.100072416220E+01  0.100164344151E+01  0.100168826201E+01
  0.100096255089E+01  0.100000864863E+01  0.100082856799E+01  0.100022259985E+01  0.100062140260E+01  0.100023490461E+01  0.100174609907E+01
  0.100098833616E+01  0.100118709692E+01  0.100134152965E+01  0.100132615972E+01  0.100179851151E+01  0.100192632421E+01  0.100163723092E+01
  0.100045428384E+01  0.100058757388E+01  0.100109969524E+01  0.100176093040E+01
 -0.402899253029E-04 -0.273469141721E-04 -0.701085426108E-04  0.889546068081E-05 -0.658188668221E-05  0.159011692084E-04  0.129891233231E-04
  0.988100669353E-05 -0.125352142307E-03  0.111500623501E-04 -0.434488425878E-04  0.153042043347E-05 -0.107570242084E-03 -0.124150957413E-03
 -0.211241793109E-04 -0.136937717381E-05  0.127806470900E-04  0.622701879308E-05  0.846929267508E-05  0.110007528692E-04 -0.901913968302E-04
 -0.429307610644E-04 -0.139995570755E-03 -0.130335949992E-03 -0.145499245335E-03 -0.114666886044E-03 -0.111941409654E-03 -0.998556802253E-04
  0.991564324241E-05 -0.956978455691E-05 -0.667460164042E-04 -0.110649010725E-03