# vtk DataFile Version 2.0
FUN3D:global_image_vtk
ASCII
DATASET UNSTRUCTURED_GRID
POINTS 213 double
    0.0000000000000000E+00    0.2500000000000000E+01    0.0000000000000000E+00
    0.1250000000000000E+01    0.2500000000000000E+01    0.0000000000000000E+00
    0.2500000000000000E+01    0.2500000000000000E+01    0.0000000000000000E+00
    0.3750000000000000E+01    0.2500000000000000E+01    0.0000000000000000E+00
    0.5000000000000000E+01    0.2500000000000000E+01    0.0000000000000000E+00
    0.5000000000000000E+01    0.1250000000000000E+01    0.0000000000000000E+00
    0.5000000000000000E+01    0.0000000000000000E+00    0.0000000000000000E+00
    0.5000000000000000E+01   -0.1250000000000000E+01    0.0000000000000000E+00
    0.5000000000000000E+01   -0.2500000000000000E+01    0.0000000000000000E+00
    0.3750000000000000E+01   -0.2500000000000000E+01    0.0000000000000000E+00
    0.2500000000000000E+01   -0.2500000000000000E+01    0.0000000000000000E+00
    0.1250000000000000E+01   -0.2500000000000000E+01    0.0000000000000000E+00
    0.0000000000000000E+00   -0.2500000000000000E+01    0.0000000000000000E+00
    0.0000000000000000E+00   -0.1250000000000000E+01    0.0000000000000000E+00
    0.0000000000000000E+00    0.0000000000000000E+00    0.0000000000000000E+00
    0.0000000000000000E+00    0.1250000000000000E+01    0.0000000000000000E+00
    0.9058375365086910E+00    0.1578994732800803E+01    0.0000000000000000E+00
    0.3982050490726493E+01   -0.1583989954232354E+01    0.0000000000000000E+00
    0.4033849428301197E+01    0.1453322699199022E+01    0.0000000000000000E+00
    0.1040505887381675E+01   -0.1479596339503735E+01    0.0000000000000000E+00
    0.1099454400140349E+01   -0.3227322616384110E+00    0.0000000000000000E+00
    0.7354504170366591E+00    0.6593508822075582E+00    0.0000000000000000E+00
    0.1622302608453282E+01    0.8256214013940779E+00    0.0000000000000000E+00
    0.2145871574390382E+01   -0.1650070333782557E+01    0.0000000000000000E+00
    0.4086422318222992E+01   -0.4612828702537229E+00    0.0000000000000000E+00
    0.2979540174134984E+01   -0.8579242121530853E+00    0.0000000000000000E+00
    0.3045064261640043E+01   -0.1836846154397680E+01    0.0000000000000000E+00
    0.3428197553792836E+01    0.3508002863614053E+00    0.0000000000000000E+00
    0.4309693860063405E+01    0.5185680230613409E+00    0.0000000000000000E+00
    0.1827272193562204E+01    0.1738996113203182E+01    0.0000000000000000E+00
    0.2808563282768077E+01    0.1325493893339706E+01    0.0000000000000000E+00
    0.1895995683864404E+01   -0.8731419609589618E+00    0.0000000000000000E+00
    0.2273179336307740E+01    0.4906150219227333E-01    0.0000000000000000E+00
    0.5000000000000000E+01    0.2500000000000000E+01    0.1250000000000000E+01
    0.5000000000000000E+01    0.2500000000000000E+01    0.2500000000000000E+01
    0.5000000000000000E+01    0.2500000000000000E+01    0.3750000000000000E+01
    0.5000000000000000E+01    0.2500000000000000E+01    0.5000000000000000E+01
    0.3750000000000000E+01    0.2500000000000000E+01    0.5000000000000000E+01
    0.2500000000000000E+01    0.2500000000000000E+01    0.5000000000000000E+01
    0.1250000000000000E+01    0.2500000000000000E+01    0.5000000000000000E+01
    0.0000000000000000E+00    0.2500000000000000E+01    0.5000000000000000E+01
    0.0000000000000000E+00    0.2500000000000000E+01    0.3750000000000000E+01
    0.0000000000000000E+00    0.2500000000000000E+01    0.2500000000000000E+01
    0.0000000000000000E+00    0.2500000000000000E+01    0.1250000000000000E+01
    0.9631080833812172E+00    0.2500000000000000E+01    0.9613285771248219E+00
    0.3981732467264904E+01    0.2500000000000000E+01    0.4069753913607991E+01
    0.4035525118777670E+01    0.2500000000000000E+01    0.1012015867579395E+01
    0.9641717640894248E+00    0.2500000000000000E+01    0.3972455192261839E+01
    0.1547743040396780E+01    0.2500000000000000E+01    0.2928177746738678E+01
    0.6985170616192014E+00    0.2500000000000000E+01    0.3068281976055466E+01
    0.8931277594515110E+00    0.2500000000000000E+01    0.2052465503257726E+01
    0.2183293750162785E+01    0.2500000000000000E+01    0.3959073795658649E+01
    0.3855333506014705E+01    0.2500000000000000E+01    0.2931218481500625E+01
    0.3152495579421047E+01    0.2500000000000000E+01    0.3635850502723324E+01
    0.3103247580566054E+01    0.2500000000000000E+01    0.4331682712472464E+01
    0.3266837581688852E+01    0.2500000000000000E+01    0.1886092433583972E+01
    0.4231539241296245E+01    0.2500000000000000E+01    0.1915865356532799E+01
    0.1909741006522088E+01    0.2500000000000000E+01    0.7170024419130505E+00
    0.2880784107213163E+01    0.2500000000000000E+01    0.9046598906449592E+00
    0.2014316024535771E+01    0.2500000000000000E+01    0.1762464314805728E+01
    0.2670003247036656E+01    0.2500000000000000E+01    0.2850479545835163E+01
    0.5000000000000000E+01    0.1250000000000000E+01    0.5000000000000000E+01
    0.5000000000000000E+01    0.0000000000000000E+00    0.5000000000000000E+01
    0.5000000000000000E+01   -0.1250000000000000E+01    0.5000000000000000E+01
    0.5000000000000000E+01   -0.2500000000000000E+01    0.5000000000000000E+01
    0.5000000000000000E+01   -0.2500000000000000E+01    0.3750000000000000E+01
    0.5000000000000000E+01   -0.2500000000000000E+01    0.2500000000000000E+01
    0.5000000000000000E+01   -0.2500000000000000E+01    0.1250000000000000E+01
    0.5000000000000000E+01    0.1578994732800803E+01    0.9058375365086910E+00
    0.5000000000000000E+01   -0.1583989954232354E+01    0.3982050490726493E+01
    0.5000000000000000E+01    0.1453322699199022E+01    0.4033849428301197E+01
    0.5000000000000000E+01   -0.1479596339503735E+01    0.1040505887381675E+01
    0.5000000000000000E+01   -0.3227322616384110E+00    0.1099454400140349E+01
    0.5000000000000000E+01    0.6593508822075582E+00    0.7354504170366591E+00
    0.5000000000000000E+01    0.8256214013940779E+00    0.1622302608453282E+01
    0.5000000000000000E+01   -0.1650070333782557E+01    0.2145871574390382E+01
    0.5000000000000000E+01   -0.4612828702537229E+00    0.4086422318222992E+01
    0.5000000000000000E+01   -0.8579242121530853E+00    0.2979540174134984E+01
    0.5000000000000000E+01   -0.1836846154397680E+01    0.3045064261640043E+01
    0.5000000000000000E+01    0.3508002863614053E+00    0.3428197553792836E+01
    0.5000000000000000E+01    0.5185680230613409E+00    0.4309693860063405E+01
    0.5000000000000000E+01    0.1738996113203182E+01    0.1827272193562204E+01
    0.5000000000000000E+01    0.1325493893339706E+01    0.2808563282768077E+01
    0.5000000000000000E+01   -0.8731419609589618E+00    0.1895995683864404E+01
    0.5000000000000000E+01    0.4906150219227333E-01    0.2273179336307740E+01
    0.0000000000000000E+00    0.1250000000000000E+01    0.5000000000000000E+01
    0.0000000000000000E+00    0.0000000000000000E+00    0.5000000000000000E+01
    0.0000000000000000E+00   -0.1250000000000000E+01    0.5000000000000000E+01
    0.0000000000000000E+00   -0.2500000000000000E+01    0.5000000000000000E+01
    0.1250000000000000E+01   -0.2500000000000000E+01    0.5000000000000000E+01
    0.2500000000000000E+01   -0.2500000000000000E+01    0.5000000000000000E+01
    0.3750000000000000E+01   -0.2500000000000000E+01    0.5000000000000000E+01
    0.4042003247744892E+01    0.1558308132739014E+01    0.5000000000000000E+01
    0.9304122287900499E+00   -0.1548001304379777E+01    0.5000000000000000E+01
    0.1037243024609388E+01    0.1462892710085612E+01    0.5000000000000000E+01
    0.3946240828834967E+01   -0.1445243809615570E+01    0.5000000000000000E+01
    0.4092527262848217E+01   -0.3455338993778935E+00    0.5000000000000000E+01
    0.4293103109154542E+01    0.6277660831404320E+00    0.5000000000000000E+01
    0.3241512314643519E+01    0.7429886854239611E+00    0.5000000000000000E+01
    0.2844289952419609E+01   -0.1588117879734118E+01    0.5000000000000000E+01
    0.7159905765450471E+00   -0.6002320124191652E+00    0.5000000000000000E+01
    0.1754341919796891E+01   -0.7398147869923652E+00    0.5000000000000000E+01
    0.1870296826774691E+01   -0.1788622905643739E+01    0.5000000000000000E+01
    0.9220614901912976E+00    0.3083720183248586E+00    0.5000000000000000E+01
    0.3101523624086016E+01    0.1777901774806180E+01    0.5000000000000000E+01
    0.2192512063922564E+01    0.1576861561598471E+01    0.5000000000000000E+01
    0.2024793420196460E+01    0.4773861992750707E+00    0.5000000000000000E+01
    0.2990627757741975E+01   -0.4878110785814084E+00    0.5000000000000000E+01
    0.0000000000000000E+00   -0.2500000000000000E+01    0.1250000000000000E+01
    0.0000000000000000E+00   -0.2500000000000000E+01    0.2500000000000000E+01
    0.0000000000000000E+00   -0.2500000000000000E+01    0.3750000000000000E+01
    0.0000000000000000E+00    0.1558308132739014E+01    0.4042003247744892E+01
    0.0000000000000000E+00   -0.1548001304379777E+01    0.9304122287900499E+00
    0.0000000000000000E+00    0.1462892710085612E+01    0.1037243024609388E+01
    0.0000000000000000E+00   -0.1445243809615570E+01    0.3946240828834967E+01
    0.0000000000000000E+00   -0.3455338993778935E+00    0.4092527262848217E+01
    0.0000000000000000E+00    0.6277660831404320E+00    0.4293103109154542E+01
    0.0000000000000000E+00    0.7429886854239611E+00    0.3241512314643519E+01
    0.0000000000000000E+00   -0.1588117879734118E+01    0.2844289952419609E+01
    0.0000000000000000E+00   -0.6002320124191652E+00    0.7159905765450471E+00
    0.0000000000000000E+00   -0.7398147869923652E+00    0.1754341919796891E+01
    0.0000000000000000E+00   -0.1788622905643739E+01    0.1870296826774691E+01
    0.0000000000000000E+00    0.3083720183248586E+00    0.9220614901912976E+00
    0.0000000000000000E+00    0.1777901774806180E+01    0.3101523624086016E+01
    0.0000000000000000E+00    0.1576861561598471E+01    0.2192512063922564E+01
[...]
POINT_DATA 213
SCALARS p double 1
LOOKUP_TABLE default
   0.9601734391394565E+00
   0.6835477992181812E+00
   0.6759191888540225E+00
   0.6727494757680853E+00
   0.6026528317219062E+00
   0.5527031909402823E+00
   0.5449768681758070E+00
   0.5474612633345127E+00
   0.5934119010582006E+00
   0.6680640266021688E+00
   0.6672971465943986E+00
   0.6869380034451943E+00
   0.1035308466162807E+01
   0.1067188133854270E+01
   0.1174734996108358E+01
   0.1018429932612073E+01
   0.7207165840923112E+00
   0.6791951180858699E+00
   0.6740277296941153E+00
   0.6843928870591010E+00
   0.6725566111539643E+00
   0.7402615592359328E+00
   0.6611494043961178E+00
   0.6658780639799543E+00
   0.6812418150605212E+00
   0.6799066304904334E+00
   0.6677509608596263E+00
   0.6831374754693725E+00
   0.6697133612169986E+00
   0.6643275480537937E+00
   0.6746470028247321E+00
   0.6331041685827310E+00
   0.6731073335897152E+00
   0.6772731047664585E+00
   0.7228663280648114E+00
   0.7222843188636022E+00
   0.7160298427742723E+00
   0.7170619133074646E+00
   0.7181461071189118E+00
   0.7195654695794428E+00
   0.7186147962927455E+00
   0.7227808968278085E+00
   0.7373937654754291E+00
   0.7823390072741488E+00
   0.7197257842568429E+00
   0.7165460844850341E+00
   0.6760923202421105E+00
   0.7194405571563719E+00
   0.7166021667959387E+00
   0.7226820157194299E+00
   0.7260663467809770E+00
   0.7165509749556355E+00
   0.7137003883577470E+00
   0.7161280412213907E+00
   0.7158472177070169E+00
   0.6952009523764635E+00
   0.6962499025784615E+00
   0.6900664443820798E+00
   0.6913080513958193E+00
   0.7033434201279153E+00
   0.7094470955309972E+00
   0.7160830458661380E+00
   0.7162548963513259E+00
   0.7165046106594016E+00
   0.7158924664803851E+00
   0.7247705966989501E+00
   0.7209596936021297E+00
   0.6725904484483355E+00
   0.6451059273732717E+00
   0.7221023438514373E+00
   0.7196940346078879E+00
   0.6358182924969049E+00
   0.6307803926199385E+00
   0.5995137018838905E+00
   0.6915332955851582E+00
   0.7155278832576623E+00
   0.7212038590381972E+00
   0.7290141499428034E+00
   0.7268953627195817E+00
   0.7265266060974794E+00
   0.7204469138311895E+00
   0.7037435595825369E+00
   0.7205072504722543E+00
   0.7023654121706511E+00
   0.7220890360903065E+00
   0.7185306675615284E+00
   0.7171989328699327E+00
   0.7176364255257645E+00
   0.7184001661681138E+00
   0.7193123297016728E+00
   0.7173673018079202E+00
   0.7166083880799674E+00
   0.7163140865133631E+00
   0.7184758417316209E+00
   0.7186505402919828E+00
   0.7154642406880088E+00
   0.7160682920917606E+00
   0.7162702760044072E+00
   0.7172824756987127E+00
   0.7174026201073290E+00
   0.7175444297245831E+00
   0.7186978822941378E+00
   0.7185405051735260E+00
   0.7180777406604325E+00
   0.7177500714194681E+00
   0.7184728182377603E+00
   0.7184288865885041E+00
   0.7175633801098528E+00
   0.7910415378458847E+00
   0.7417982705004850E+00
   0.7240557949904559E+00
   0.7207843478913055E+00
   0.8583137669396702E+00
   0.8087249549205243E+00
   0.7221072081756156E+00
   0.7211508920074448E+00
   0.7210127856300226E+00
   0.7257580232431685E+00
   0.7326271554872846E+00
   0.9166141642468822E+00
   0.7574534827342733E+00
   0.7600167717312942E+00
   0.8794418898901216E+00
   0.7291872724644615E+00
   0.7461241544474194E+00
   0.7435518579957175E+00
   0.7280638508360815E+00
   0.7236943106168238E+00
   0.7165801410145670E+00
   0.6757017421605384E+00
   0.7210100197443926E+00
   0.7177364542902688E+00
   0.7243720211137671E+00
   0.7309366094757231E+00
   0.7153759566132457E+00
   0.7126908077842217E+00
   0.7132984403031595E+00
   0.7154569743938402E+00
   0.6958109682769801E+00
   0.6940925210891578E+00
   0.6792014396333909E+00
   0.6842568501108904E+00
   0.7023432887511717E+00
   0.7064289829326921E+00
   0.7092511108528717E+00
   0.7176143448318911E+00
   0.7173900003133128E+00
   0.7117189176045743E+00
   0.7288314777539572E+00
   0.7352314248271331E+00
   0.7097522365039958E+00
   0.7230446997770027E+00
   0.7189783916228426E+00
   0.7231634246989580E+00
   0.7128294754807982E+00
   0.6918506061162776E+00
   0.7175386263283591E+00
   0.7113147788972095E+00
   0.6973271240187707E+00
   0.7095398516902750E+00
   0.7134561452008364E+00
   0.7078897922377191E+00
   0.7159193952175417E+00
   0.7175564579998709E+00
   0.7166969662505529E+00
   0.7110654388677443E+00
   0.7103502249759626E+00
   0.7187200822945373E+00
   0.7362189490149531E+00
   0.7210412935394054E+00
   0.6966935470573271E+00
   0.7191721248607349E+00
   0.7279729354932977E+00
   0.6957910327389690E+00
   0.6741419222407020E+00
   0.7020816761108929E+00
   0.7006022970774531E+00
   0.6996542626267711E+00
   0.7043399958102067E+00
   0.6875495138123323E+00
   0.7541432577782026E+00
   0.7257239009568212E+00
   0.7163726960924015E+00
   0.7164936213619765E+00
   0.7072979024612194E+00
   0.7062383883483622E+00
   0.6798325745444623E+00
   0.7081020616991424E+00
   0.7211940038220516E+00
   0.7177387081282410E+00
   0.7069470749078034E+00
   0.6847272430275581E+00
   0.6585974710031589E+00
   0.6907365584622748E+00
   0.6956022573317353E+00
   0.6931208648694297E+00
   0.6873761604397121E+00
   0.6731735055296458E+00
   0.6669542440911144E+00
   0.6793665890993966E+00
   0.7172147508542416E+00
   0.7168059791918627E+00
   0.7154495339139805E+00
   0.7175314211225005E+00
   0.6789113090272779E+00
   0.6691409989909664E+00
   0.6790145558060655E+00
   0.7156257533826967E+00
   0.7152937489168288E+00
   0.7168554883692806E+00
   0.6951120609984341E+00
   0.6910822484781228E+00
   0.6838686729507834E+00
SCALARS mach double 1
LOOKUP_TABLE default
   0.0000000000000000E+00
   0.0000000000000000E+00
   0.0000000000000000E+00
   0.0000000000000000E+00
   0.0000000000000000E+00
   0.0000000000000000E+00
   0.0000000000000000E+00
   0.0000000000000000E+00
   0.0000000000000000E+00
   0.0000000000000000E+00
   0.0000000000000000E+00
   0.0000000000000000E+00
   0.0000000000000000E+00
   0.0000000000000000E+00
   0.0000000000000000E+00
   0.0000000000000000E+00
   0.0000000000000000E+00
   0.0000000000000000E+00
   0.0000000000000000E+00
   0.0000000000000000E+00
   0.0000000000000000E+00
   0.0000000000000000E+00
   0.0000000000000000E+00
   0.0000000000000000E+00
   0.0000000000000000E+00
   0.0000000000000000E+00
   0.0000000000000000E+00
   0.0000000000000000E+00
   0.0000000000000000E+00
   0.0000000000000000E+00
   0.0000000000000000E+00
   0.0000000000000000E+00
   0.0000000000000000E+00
   0.5092354902561871E+00
   0.5345264798034048E+00
   0.5171815479305344E+00
   0.4929807640763020E+00
   0.4845976951009668E+00
   0.4864619658529948E+00
   0.4885633860339580E+00
   0.4953471717602730E+00
   0.4889625402505726E+00
   0.4698166068443857E+00
   0.4412397859877800E+00
   0.4905605503651049E+00
   0.5094886490019146E+00
   0.4437703317361936E+00
   0.4944845432672053E+00
   0.5220523774493059E+00
   0.4956152412252656E+00
   0.5227310539997454E+00
   0.5036880706576536E+00
   0.5643914225150538E+00
   0.5242288145756804E+00
   0.4990061299864954E+00
   0.5758324118822873E+00
   0.5737082730500237E+00
   0.3775485188171651E+00
   0.4022871712258646E+00
   0.5625533475912116E+00
   0.5565869996504403E+00
   0.4941634981731111E+00
   0.4947389016912639E+00
   0.4923954072378622E+00
   0.4913523312563202E+00
   0.5149934457220213E+00
   0.5370016005975318E+00
   0.5084626886099475E+00
   0.4721040495016338E+00
   0.5119104092480747E+00
   0.5110361903586682E+00
   0.4956083545083560E+00
   0.5103602156031770E+00
   0.4808122254548555E+00
   0.5354810308963890E+00
   0.5337785092436605E+00
   0.5120035135309875E+00
   0.5311723579504218E+00
   0.5295533666717207E+00
   0.5292762601752492E+00
   0.5056206120003405E+00
   0.5358302273442384E+00
   0.5407851652922991E+00
   0.5429805732029082E+00
   0.5391870685123630E+00
   0.4961279191893497E+00
   0.4972467613047376E+00
   0.4960597850412974E+00
   0.4950988121491075E+00
   0.4900037079980792E+00
   0.4900374730192826E+00
   0.4860761996515971E+00
   0.4853485276277735E+00
   0.4928011571104290E+00
   0.4905637987428405E+00
   0.4832203414671248E+00
   0.4872146736037449E+00
   0.4879589718887464E+00
   0.4870698188321780E+00
   0.4880300850488425E+00
   0.4949517376218670E+00
   0.4896782927756267E+00
   0.4900061476733014E+00
   0.4940466626702540E+00
   0.4865291574065346E+00
   0.4888741411901030E+00
   0.4878210598391987E+00
   0.4876133129319596E+00
   0.4436250263471787E+00
   0.4677338901356538E+00
   0.4882129500966895E+00
   0.4879309328072046E+00
   0.4647771758114589E+00
   0.4752152748634543E+00
   0.4869653349748300E+00
   0.4862869624603042E+00
   0.4902668414020094E+00
   0.4787154065279644E+00
   0.4643837637090549E+00
   0.4023048166497541E+00
   0.4892986608593161E+00
   0.4457194794852502E+00
   0.4688290330163428E+00
   0.4830697301028856E+00
   0.4601254691147450E+00
   0.4644127821426479E+00
   0.4737971128533650E+00
   0.5010539171423616E+00
   0.5082472823593005E+00
   0.4353751822833147E+00
   0.4921566519967525E+00
   0.5316572407965388E+00
   0.4906645397348342E+00
   0.5207959354570649E+00
   0.5059815375045982E+00
   0.5689223248083322E+00
   0.5272529176654827E+00
   0.5013912994544402E+00
   0.5852866489980112E+00
   0.5726408574563312E+00
   0.3436295688562389E+00
   0.3809928300943977E+00
   0.5793727542715992E+00
   0.5674464753377806E+00
   0.5707661969405673E+00
   0.5288676062090962E+00
   0.5447477430860614E+00
   0.5732739048202803E+00
   0.5383813718101244E+00
   0.5542562079000936E+00
   0.5870623141520225E+00
   0.4918966271783133E+00
   0.5038459919228800E+00
   0.4955075967579816E+00
   0.5581658085010031E+00
   0.4899009741658796E+00
   0.4947407682238212E+00
   0.5497812917837324E+00
   0.5912740453811166E+00
   0.5845152041993451E+00
   0.5465424723908285E+00
   0.5815227333617320E+00
   0.5103947693446407E+00
   0.5026520027533703E+00
   0.5030713698890987E+00
   0.5675224024712258E+00
   0.5563191021392461E+00
   0.4944371562073048E+00
   0.5523476035386379E+00
   0.5528915986644876E+00
   0.5690573567455723E+00
   0.4915652947343325E+00
   0.4913828274541107E+00
   0.3894738094537221E+00
   0.3711854000992979E+00
   0.5592906283031180E+00
   0.5784859438650714E+00
   0.4227800723499403E+00
   0.5854896311946314E+00
   0.4393449880199181E+00
   0.5443823190160216E+00
   0.5169035671505999E+00
   0.5115815769899436E+00
   0.5046282750164676E+00
   0.5758026902868459E+00
   0.5884501002821314E+00
   0.5427348261191821E+00
   0.5687408311426416E+00
   0.5341710431711002E+00
   0.5330402360418777E+00
   0.5585866728640714E+00
   0.5562760049541442E+00
   0.4330714104846273E+00
   0.5315660573978996E+00
   0.5812992120112206E+00
   0.3318917214413926E+00
   0.4786029153761688E+00
   0.5494668832031869E+00
   0.4851090628017455E+00
   0.3009052334472770E+00
   0.5029787667061835E+00
   0.5014726503287344E+00
   0.5126187824001490E+00
   0.5407117478961572E+00
   0.3456752170503783E+00
   0.3423014225230489E+00
   0.3204847138772999E+00
   0.5064079946065360E+00
   0.5121144491461149E+00
   0.5323884560683284E+00
   0.5909249438689769E+00
   0.4690179477315502E+00
   0.3541856430753432E+00
SCALARS temperature double 1
LOOKUP_TABLE default
   0.9999999999999989E+00
   0.1000000000000000E+01
   0.9999999999999986E+00
   0.9999999999999994E+00
   0.1000000000000000E+01
   0.1000000000000000E+01
   0.9999999999999987E+00
   0.1000000000000000E+01
   0.1000000000000001E+01
   0.9999999999999996E+00
   0.9999999999999988E+00
   0.1000000000000000E+01
   0.9999999999999989E+00
   0.1000000000000000E+01
   0.9999999999999996E+00
   0.1000000000000000E+01
   0.9999999999999991E+00
   0.9999999999999996E+00
   0.9999999999999997E+00
   0.1000000000000000E+01
   0.1000000000000000E+01
   0.9999999999999998E+00
   0.9999999999999999E+00
   0.1000000000000001E+01
   0.9999999999999996E+00
   0.9999999999999990E+00
   0.9999999999999994E+00
   0.9999999999999994E+00
   0.9999999999999992E+00
   0.9999999999999997E+00
   0.1000000000000001E+01
   0.9999999999999999E+00
   0.1000000000000001E+01
   0.9841053469806850E+00
   0.1003683258548275E+01
   0.1004432779129851E+01
   0.1000476636134897E+01
   0.1000665586315415E+01
   0.1001267964732840E+01
   0.1002152416915622E+01
   0.1001793164393622E+01
   0.1003556268546451E+01
   0.1008262311529489E+01
   0.1029826136922401E+01
   0.9886547245210993E+00
   0.1001381674437773E+01
   0.9815448530851805E+00
   0.1001923627136771E+01
   0.1002520589502763E+01
   0.1002987561749855E+01
   0.1008347964192915E+01
   0.1000820306442497E+01
   0.1001184281196061E+01
   0.1001994916856716E+01
   0.1000565700348061E+01
   0.9904275946482026E+00
   0.9903552381300509E+00
   0.9824744640918840E+00
   0.9887777263666891E+00
   0.9943630688737856E+00
   0.9997685637752330E+00
   0.1000503862135716E+01
   0.1000621402604581E+01
   0.1000828567989881E+01
   0.1000454283840981E+01
   0.1004852780878885E+01
   0.1002895870741885E+01
   0.9850924796365865E+00
   0.9764461942237428E+00
   0.1003879250526004E+01
   0.1003053006480525E+01
   0.9735169369041111E+00
   0.9715384975302519E+00
   0.9590444490681600E+00
   0.9912166786238156E+00
   0.1001286090735404E+01
   0.1003831905663020E+01
   0.1007638114469958E+01
   0.1005965075043415E+01
   0.1006628860483389E+01
   0.1003140276787627E+01
   0.9944295384617747E+00
   0.1003551267959570E+01
   0.9972164650253205E+00
   0.1005284842367115E+01
   0.1001688262009427E+01
   0.1001187096921446E+01
   0.1001341529654473E+01
   0.1001760930396086E+01
   0.1001926324208589E+01
   0.1001099695243934E+01
   0.1000587573884794E+01
   0.1000253485836747E+01
   0.1001798511507108E+01
   0.1001783245053637E+01
   0.1000008648629216E+01
   0.1000222599850257E+01
   0.1000234904614258E+01
   0.1000724162201464E+01
   0.1000988336159609E+01
   0.1001326159716570E+01
   0.1001746099070570E+01
   0.1001637230919999E+01
   0.1001643441513535E+01
   0.1001123465641800E+01
   0.1001526282297056E+01
   0.1001330229180521E+01
   0.1000962550885913E+01
   0.1040431514828301E+01
   0.1009767397460002E+01
   0.1004053365617420E+01
   0.1002443729485199E+01
   0.1032397342300944E+01
   0.1042471340451268E+01
   0.1003033476116708E+01
   0.1002349418426662E+01
   0.1002602789891162E+01
   0.1003005221662207E+01
   0.1006175106484038E+01
   0.1038912946134443E+01
   0.1027026981285185E+01
   0.1016570948874842E+01
   0.1025206923289036E+01
   0.1006055191128357E+01
   0.1011900259008801E+01
   0.1012527642028449E+01
   0.1004594949325798E+01
   0.9844134955737154E+00
   0.1001215373408304E+01
   0.9846909218304419E+00
   0.1002544720415699E+01
   0.1003499755514171E+01
   0.1003264505187632E+01
   0.1010931982684679E+01
   0.1000580427259156E+01
   0.9998548607675432E+00
   0.1000556092970146E+01
   0.1000455656891826E+01
   0.9898388165666724E+00
   0.9900583971122747E+00
   0.9855283580610699E+00
   0.9895415081406371E+00
   0.9917986219613709E+00
   0.9978963303142925E+00
   0.1000400085144034E+01
   0.1002927925242177E+01
   0.1005008508830828E+01
   0.1002278768459707E+01
   0.1013232164385992E+01
   0.1006635437666277E+01
   0.9925740151582347E+00
   0.1003434720150442E+01
   0.1001788107181094E+01
   0.1003349153599049E+01
   0.1001319061518711E+01
   0.9637877365252497E+00
   0.1001225135887299E+01
   0.1000902401352196E+01
   0.9928711057928961E+00
   0.9989542614598229E+00
   0.1001500643382295E+01
   0.9978118654764824E+00
   0.1000979958702001E+01
   0.1001573329401718E+01
   0.1001190126368987E+01
   0.1000787769941761E+01
   0.1000698249546535E+01
   0.1001334520389673E+01
   0.1010420124650065E+01
   0.1004072033249302E+01
   0.9935536421130781E+00
   0.1001859370478287E+01
   0.1006697720937405E+01
   0.9867994459250344E+00
   0.9881172595497407E+00
   0.9963582756046232E+00
   0.9943135143928267E+00
   0.9875243181695657E+00
   0.9926772698418372E+00
   0.9669824471631608E+00
   0.1017799990177917E+01
   0.9830477233213640E+00
   0.1001476632916502E+01
   0.1001158934796099E+01
   0.9989601463823398E+00
   0.9976207373966977E+00
   0.9864416586279063E+00
   0.9980015228169722E+00
   0.1003591240601957E+01
   0.1002874576963303E+01
   0.9988420996206245E+00
   0.9841144508830016E+00
   0.9789376210315814E+00
   0.9848215865205652E+00
   0.9942451814917258E+00
   0.9999539026124341E+00
   0.9900014324664630E+00
   0.9860938203756299E+00
   0.9832211720576521E+00
   0.9981639404191137E+00
   0.1001437997823182E+01
   0.1001054788017926E+01
   0.1001119833722758E+01
   0.1002861785438977E+01
   0.9892673335190916E+00
   0.9869786851696456E+00
   0.9918350400342730E+00
   0.1000754591761568E+01
   0.1000915128974072E+01
   0.1002438364796267E+01
   0.9922708399285037E+00
   0.9866582892013499E+00
   0.9943632370741615E+00
SCALARS lambda1 double 1
LOOKUP_TABLE default
  -0.1104248382387639E-03
  -0.1573919931659532E-03
  -0.6665104819418936E-04
   0.3358012236310702E-05
   0.2905848003278980E-04
   0.2120902399757594E-04
   0.4755008882322235E-04
   0.5209557297076093E-04
   0.1430269904318700E-03
  -0.6156466690817762E-04
  -0.2265466904335741E-03
   0.2611921712795851E-04
   0.4381879141566375E-04
   0.1312064542213560E-03
   0.2196849275294442E-03
   0.3006508235154867E-04
  -0.1046253039081351E-03
   0.1152776331327503E-04
   0.1363251346070405E-04
   0.2354635009888638E-04
  -0.5340477286543539E-04
  -0.2547980431269591E-04
  -0.1685022578398357E-03
  -0.1742482669303878E-03
   0.3149868573435217E-04
  -0.2063429165094001E-03
  -0.2796948557361050E-03
  -0.4059560850632261E-05
   0.1984830641981958E-04
  -0.1221048839725514E-03
  -0.3368920822163141E-04
  -0.8889161040967470E-04
  -0.1538099027746350E-03
   0.1433731245268559E-03
   0.2767738215173674E-04
   0.1115335167681682E-04
   0.8895523773698736E-05
   0.1590184466268634E-04
  -0.6583216670412554E-05
  -0.4028769043096280E-04
  -0.1253566557440764E-03
   0.1057329604968467E-03
   0.1255094902655574E-04
  -0.8404132800316498E-03
  -0.1432921739942856E-02
   0.6827782532252466E-05
  -0.8537132152394276E-03
   0.2316704941448454E-04
   0.8578757369599700E-04
   0.7812287041138905E-04
  -0.1622540667911509E-03
   0.6215812165374475E-05
   0.2854174519149262E-04
   0.4051888835529709E-05
   0.5563095265188011E-05
  -0.8567823371951025E-04
   0.6821132103609197E-04
  -0.2339068051025301E-02
  -0.1459449021577211E-02
  -0.2356947538723620E-03
   0.1146576988876001E-04
   0.9881117772067695E-05
   0.8469019301373227E-05
   0.1278179863090427E-04
   0.9915811023620621E-05
   0.1380446787861822E-04
   0.6546656027575942E-04
   0.1077333043504349E-03
   0.1509172505901796E-03
   0.9019316548147964E-05
   0.9664869748386917E-05
  -0.1014301901009185E-03
   0.5863524819951249E-04
   0.3262077507620773E-04
   0.4616013677369283E-04
   0.7335917981822804E-04
   0.8626434025527719E-05
   0.2555116077559635E-04
   0.2930186334913040E-04
   0.1428198604580261E-04
   0.8352863367027428E-05
   0.4843010363474278E-04
   0.2017098214176326E-04
   0.4918233159541895E-04
   0.3973248007729465E-04
  -0.1241333981267803E-03
  -0.1399865937629091E-03
  -0.1303423773005303E-03
  -0.1106343998358250E-03
  -0.1119442109822755E-03
  -0.6673921749775144E-04
  -0.9568153447347787E-05
   0.1299051747912912E-04
  -0.1146659693453758E-03
  -0.7010984687112236E-04
  -0.1368871482101521E-05
   0.6226632474787580E-05
   0.1099908916382618E-04
   0.1532461531043340E-05
  -0.4293062410454406E-04
  -0.1455579561417486E-03
  -0.9019457186133702E-04
  -0.9984741199834337E-04
  -0.1075877508183024E-03
   0.1114770433055596E-04
  -0.2734229127458289E-04
  -0.4345971419751438E-04
  -0.2111943441578546E-04
  -0.5602930185929363E-03
  -0.6943025610866260E-04
   0.8768396545057480E-04
   0.8001684270639383E-04
  -0.3768662302342684E-04
  -0.9093725745919423E-03
   0.5347317500120535E-04
   0.7300742558808153E-04
   0.5476371421156393E-04
   0.1301749058446645E-03
   0.3425404414413506E-05
   0.1843405447718308E-02
  -0.1643579793705553E-03
  -0.2419885859942283E-03