title="tecplot geometry and solution file"
variables = x y z mach temperature lambda1 lambda2 lambda3 lambda4 lambda5
zone t="boundary 1 bc-1", solutiontime= 0.5000000E+02, strandid=1001, i=32, j=46, f=feblock
  0.000000000000E+00  0.000000000000E+00  0.000000000000E+00  0.000000000000E+00  0.000000000000E+00  0.000000000000E+00  0.000000000000E+00
  0.000000000000E+00  0.000000000000E+00  0.000000000000E+00  0.000000000000E+00  0.000000000000E+00  0.000000000000E+00  0.000000000000E+00
  0.000000000000E+00  0.000000000000E+00  0.000000000000E+00  0.000000000000E+00  0.000000000000E+00  0.000000000000E+00  0.000000000000E+00
  0.000000000000E+00  0.000000000000E+00  0.000000000000E+00  0.000000000000E+00  0.000000000000E+00  0.000000000000E+00  0.000000000000E+00
  0.000000000000E+00  0.000000000000E+00  0.000000000000E+00  0.000000000000E+00
  0.250000000000E+01  0.250000000000E+01  0.125000000000E+01  0.146289271009E+01  0.157686156160E+01  0.308372018325E+00  0.000000000000E+00
 -0.125000000000E+01 -0.600232012419E+00  0.250000000000E+01  0.477386199275E+00  0.742988685424E+00 -0.739814786992E+00  0.177790177481E+01
  0.155830813274E+01  0.250000000000E+01 -0.250000000000E+01 -0.154800130438E+01 -0.487811078581E+00  0.250000000000E+01  0.627766083140E+00
 -0.345533899378E+00 -0.178862290564E+01 -0.158811787973E+01  0.125000000000E+01 -0.250000000000E+01 -0.144524380962E+01  0.000000000000E+00
 -0.125000000000E+01 -0.250000000000E+01 -0.250000000000E+01 -0.250000000000E+01
  0.000000000000E+00  0.125000000000E+01  0.000000000000E+00  0.103724302461E+01  0.219251206392E+01  0.922061490191E+00  0.000000000000E+00
  0.000000000000E+00  0.715990576545E+00  0.250000000000E+01  0.202479342020E+01  0.324151231464E+01  0.175434191980E+01  0.310152362409E+01
  0.404200324774E+01  0.375000000000E+01  0.000000000000E+00  0.930412228790E+00  0.299062775774E+01  0.500000000000E+01  0.429310310915E+01
  0.409252726285E+01  0.187029682677E+01  0.284428995242E+01  0.500000000000E+01  0.125000000000E+01  0.394624082883E+01  0.500000000000E+01
  0.500000000000E+01  0.250000000000E+01  0.375000000000E+01  0.500000000000E+01
  0.000000000000E+00  0.441239785988E+00  0.000000000000E+00  0.475215274863E+00  0.460125469115E+00  0.468829033016E+00  0.000000000000E+00
  0.000000000000E+00  0.402304816650E+00  0.469816606844E+00  0.464412782143E+00  0.478715406528E+00  0.489298660859E+00  0.483069730103E+00
  0.487930932807E+00  0.488962540251E+00  0.000000000000E+00  0.464777175811E+00  0.473797112853E+00  0.495347171760E+00  0.490266841402E+00
  0.486286962460E+00  0.445719479485E+00  0.464383763709E+00  0.496127919189E+00  0.443625026347E+00  0.486965334975E+00  0.497246761305E+00
  0.496059785041E+00  0.467733890136E+00  0.488212950097E+00  0.495098812149E+00
  0.100000000000E+01  0.102982613692E+01  0.100000000000E+01  0.104247134045E+01  0.101190025901E+01  0.102520692329E+01  0.100000000000E+01
  0.100000000000E+01  0.103891294613E+01  0.100826231153E+01  0.101252764203E+01  0.100300522166E+01  0.102702698129E+01  0.100605519113E+01
  0.100244372949E+01  0.100355626855E+01  0.100000000000E+01  0.103239734230E+01  0.100459494933E+01  0.100179316439E+01  0.100260278989E+01
  0.100234941843E+01  0.101657094887E+01  0.100617510648E+01  0.100168826201E+01  0.104043151483E+01  0.100303347612E+01  0.100118709692E+01
  0.100134152965E+01  0.100976739746E+01  0.100405336562E+01  0.100176093040E+01
 -0.110424829261E-03 -0.840413196616E-03  0.300650738210E-04 -0.909372541853E-03 -0.117107009096E-03  0.841621697273E-03  0.219684916848E-03
  0.131206470468E-03  0.184340544614E-02  0.125509074393E-04 -0.398302270322E-03  0.130174918375E-03 -0.164357933713E-03  0.107642689134E-03
  0.800168487041E-04  0.105732966562E-03  0.438188003571E-04 -0.376862478860E-04 -0.156660371889E-04 -0.125356650480E-03  0.547636920529E-04
  0.730073774388E-04 -0.241988627993E-03  0.342539048441E-05 -0.124133355151E-03 -0.560293495951E-03  0.534731917777E-04 -0.139986516511E-03
 -0.130342364818E-03 -0.694302580235E-04  0.876839703792E-04 -0.110634411294E-03
 -0.239691342657E-04 -0.138410260961E-03 -0.221529100537E-04 -0.141770892498E-03 -0.141814867107E-04  0.132258936064E-03 -0.258836671428E-06
 -0.355577066066E-05  0.266130135588E-03  0.571528397728E-05 -0.522525581391E-04  0.260907236272E-04 -0.217785412411E-04  0.244161019595E-04
  0.145369661765E-04  0.216305679133E-04  0.150103109154E-05 -0.213905669050E-04  0.623777120228E-05 -0.242994351195E-04  0.101095083273E-04
  0.161483822820E-04 -0.331380265150E-04  0.971049876909E-05 -0.251414232966E-04 -0.854174863086E-04  0.134009074794E-04 -0.306846339899E-04
 -0.308582577309E-04 -0.990121757952E-06  0.195472079720E-04 -0.280876952630E-04
 -0.163781938245E-04 -0.272438988050E-05 -0.151919347721E-04  0.251049713073E-04  0.175136981012E-04  0.266994275917E-04 -0.391764652176E-05
 -0.507238056988E-05 -0.317436433393E-04 -0.726417300177E-07  0.226087628644E-04  0.120538244185E-04 -0.242804725385E-04  0.911638029190E-05
  0.190936865606E-05 -0.620489405982E-06  0.635398443782E-05 -0.467820200287E-04  0.744247207710E-05 -0.804394566143E-07  0.750901119408E-06
  0.109594261525E-05 -0.171975109368E-04 -0.102294724643E-04  0.216222156318E-05  0.934362392321E-06  0.103550343986E-05  0.206551797237E-05
  0.766581256810E-06 -0.120673973135E-05  0.569305498066E-06  0.320807724513E-06
  0.229386415342E-04  0.379853644752E-04 -0.256143804854E-05  0.318874145607E-04  0.138100539487E-04  0.119048749920E-03 -0.355153202368E-04
 -0.336149233682E-04  0.993446131579E-04  0.858534891170E-05  0.627688009905E-04  0.145801523384E-04  0.109226750711E-03  0.792140406894E-05
  0.694446127573E-05  0.467177109444E-05 -0.410488250375E-05 -0.290989706719E-05  0.253693991566E-04  0.325344347375E-05  0.690646049585E-05
  0.858533284007E-05  0.247911165778E-04  0.197952658429E-04  0.310665544009E-05 -0.446402529013E-05  0.618067588673E-05  0.208224712611E-05
  0.191372960603E-05  0.117659657403E-04  0.498875181266E-05  0.217525125686E-05
  0.724061194957E-04  0.341055938258E-03 -0.640195597781E-04  0.369106724194E-03  0.458243209098E-04 -0.361746348873E-03  0.758069805021E-04
 -0.753409680229E-05 -0.757058616182E-03 -0.744154887226E-05  0.160619001713E-03 -0.556719018298E-04  0.697082974446E-04 -0.463520236993E-04
 -0.344080277043E-04 -0.450996272308E-04 -0.739220565741E-05  0.337243744051E-04  0.371881377042E-05  0.516021959079E-04 -0.237902584291E-04
 -0.316287578317E-04  0.101302124930E-03 -0.358247248650E-05  0.512592291074E-04  0.230171724765E-03 -0.229951349960E-04  0.583852285778E-04
  0.547227984486E-04  0.282369572416E-04 -0.370315483164E-04  0.464777603458E-04
        12        19        11        11
        11         5        12        12
        10        14         5         5
        19        13        11        11
        19        24        13        13
        30        23        24        24
        19        12        22        22
        28        22        21        21
        11        13         6         6
         7         6         9         9
        15        12        14        14
        18        13        23        23
        15        25        21        21
        27        19        22        22
        18         8         9         9
        27        31        24        24
         4        11         6         6
         5        14        12        12
         4         2         5         5
        21        12        15        15
        14        16        15        15
        24        19        27        27
        22        29        27        27
        23        26        18        18
        17         8        18        18
         5        11         4         4
         6         3         4         4
        26        23        30        30
         5         2        10        10
        16        14        10        10
         3         6         7         7
        21        25        28        28
        29        22        28        28
         6        13         9         9
         2         4         1         1
        31        27        32        32
        25        15        20        20
        24        23        13        13
         8         7         9         9
        13        18         9         9
        31        30        24        24
        12        21        22        22
        29        32        27        27
         3         1         4         4
        26        17        18        18
        16        20        15        15
zone t="boundary 2 bc-2", solutiontime= 0.5000000E+02, strandid=1002, i=33, j=48, f=feblock
  0.500000000000E+01  0.375000000000E+01  0.250000000000E+01  0.288078410721E+01  0.125000000000E+01  0.190974100652E+01  0.326683758169E+01
  0.201431602454E+01  0.000000000000E+00  0.963108083381E+00  0.500000000000E+01  0.403552511878E+01  0.423153924130E+01  0.500000000000E+01
  0.385533350601E+01  0.500000000000E+01  0.398173246726E+01  0.315249557942E+01  0.267000324704E+01  0.154774304040E+01  0.218329375016E+01
  0.893127759452E+00  0.000000000000E+00  0.698517061619E+00  0.964171764089E+00  0.310324758057E+01  0.000000000000E+00  0.000000000000E+00
  0.125000000000E+01  0.500000000000E+01  0.375000000000E+01  0.250000000000E+01  0.000000000000E+00
 -0.250000000000E+01 -0.250000000000E+01 -0.250000000000E+01 -0.250000000000E+01 -0.250000000000E+01 -0.250000000000E+01 -0.250000000000E+01
 -0.250000000000E+01 -0.250000000000E+01 -0.250000000000E+01 -0.250000000000E+01 -0.250000000000E+01 -0.250000000000E+01 -0.250000000000E+01
 -0.250000000000E+01 -0.250000000000E+01 -0.250000000000E+01 -0.250000000000E+01 -0.250000000000E+01 -0.250000000000E+01 -0.250000000000E+01
 -0.250000000000E+01 -0.250000000000E+01 -0.250000000000E+01 -0.250000000000E+01 -0.250000000000E+01 -0.250000000000E+01 -0.250000000000E+01
 -0.250000000000E+01 -0.250000000000E+01 -0.250000000000E+01 -0.250000000000E+01 -0.250000000000E+01
  0.000000000000E+00  0.000000000000E+00  0.000000000000E+00  0.904659890645E+00  0.000000000000E+00  0.717002441913E+00  0.188609243358E+01
  0.176246431481E+01  0.000000000000E+00  0.961328577125E+00  0.125000000000E+01  0.101201586758E+01  0.191586535653E+01  0.250000000000E+01
  0.293121848150E+01  0.375000000000E+01  0.406975391361E+01  0.363585050272E+01  0.285047954584E+01  0.292817774674E+01  0.395907379566E+01
  0.205246550326E+01  0.125000000000E+01  0.306828197606E+01  0.397245519226E+01  0.433168271247E+01  0.250000000000E+01  0.375000000000E+01
  0.500000000000E+01  0.500000000000E+01  0.500000000000E+01  0.500000000000E+01  0.500000000000E+01
  0.000000000000E+00  0.000000000000E+00  0.000000000000E+00  0.380992830094E+00  0.000000000000E+00  0.343629568856E+00  0.585286648998E+00
  0.579372754272E+00  0.000000000000E+00  0.501053917142E+00  0.508462688610E+00  0.435375182283E+00  0.572640857456E+00  0.537001600598E+00
  0.568922324808E+00  0.514993445722E+00  0.508247282359E+00  0.527252917665E+00  0.567446475338E+00  0.531657240797E+00  0.505981537505E+00
  0.520795935457E+00  0.443625026347E+00  0.490664539735E+00  0.492156651997E+00  0.501391299454E+00  0.467733890136E+00  0.488212950097E+00
  0.490003707998E+00  0.491352331256E+00  0.486076199652E+00  0.490037473019E+00  0.495098812149E+00
  0.100000000000E+01  0.100000000000E+01  0.100000000000E+01  0.989541508141E+00  0.100000000000E+01  0.985528358061E+00  0.989838816567E+00
  0.991798621961E+00  0.100000000000E+01  0.984413495574E+00  0.985092479637E+00  0.984690921830E+00  0.990058397112E+00  0.100289587074E+01
  0.999854860768E+00  0.100485278088E+01  0.100121537341E+01  0.100055609297E+01  0.997896330314E+00  0.100349975551E+01  0.100058042726E+01
  0.101093198268E+01  0.104043151483E+01  0.100326450519E+01  0.100254472042E+01  0.100045565689E+01  0.100976739746E+01  0.100405336562E+01
  0.100192632421E+01  0.100045428384E+01  0.100058757388E+01  0.100109969524E+01  0.100176093040E+01
  0.143026981350E-03 -0.615646680698E-04 -0.226546679846E-03 -0.211349041876E-02  0.261192139193E-04  0.434498296669E-03  0.181081070640E-05
 -0.635516467035E-03  0.438188003571E-04 -0.447507017184E-03  0.107733335415E-03  0.289338050634E-03  0.317081987316E-04  0.654665489332E-04
  0.211582076740E-04  0.138044659466E-04  0.416772883355E-05  0.217456153539E-04  0.142336075675E-03  0.167471026137E-03  0.168085547119E-04
 -0.268482245394E-03 -0.560293495951E-03  0.762443156989E-04  0.520125030926E-04  0.947503972320E-06 -0.694302580235E-04  0.876839703792E-04
 -0.111944206749E-03  0.991581125311E-05 -0.956815265239E-05 -0.667392261860E-04 -0.110634411294E-03
 -0.371844690837E-04  0.568864998150E-04 -0.627567469576E-05 -0.295786539887E-04 -0.247711933834E-04  0.130111166413E-03  0.133054955405E-03
  0.140756063561E-04  0.150103109154E-05 -0.965966166657E-04 -0.352261196060E-04  0.167961853446E-03  0.314767321176E-04 -0.144324661028E-04
  0.213862716609E-04 -0.300192354889E-05  0.680639434937E-05  0.176015026220E-04  0.776343574370E-04  0.737488174127E-04  0.131679475837E-04
  0.787969827464E-05 -0.854174863086E-04  0.375677810687E-04  0.144631306688E-04  0.991649789488E-05 -0.990121757952E-06  0.195472079720E-04
 -0.186216560253E-04  0.891348252453E-06  0.306324737240E-05 -0.450091145464E-05 -0.280876952630E-04
  0.962488370736E-05  0.425262730495E-05 -0.117945016220E-04  0.232836738502E-04 -0.198854910819E-05  0.113544567799E-04  0.161752386830E-04
 -0.664057465979E-06  0.635398443782E-05 -0.123028436124E-04  0.792130378800E-05  0.413014341518E-04 -0.204372719796E-05 -0.110078399823E-06
 -0.864017985782E-06  0.293397503128E-06  0.509802695634E-06 -0.742379846638E-06 -0.353793456852E-05 -0.119409057963E-05  0.154726162590E-06
 -0.147725273028E-05  0.934362392321E-06 -0.515926632051E-06 -0.129385308178E-06  0.379049534251E-07 -0.120673973135E-05  0.569305498066E-06
  0.173184543604E-06  0.761615116056E-07 -0.143764189384E-06  0.104080007950E-06  0.320807724513E-06
  0.394689593798E-05  0.269711257501E-04  0.102461928015E-04  0.346572320294E-04 -0.471894902642E-05  0.111173785438E-03 -0.963565509098E-04
  0.103364183331E-04 -0.410488250375E-05  0.227662471668E-04 -0.481070129901E-04 -0.157582834877E-03 -0.376145136523E-04 -0.127598082803E-04
 -0.114769128870E-04 -0.446008272735E-05 -0.309343346138E-05  0.461876348835E-05 -0.502452402343E-05  0.167525930955E-04  0.852901757784E-05
  0.170069790545E-04 -0.446402529013E-05  0.149949361647E-04  0.113106717451E-04  0.388804858602E-05  0.117659657403E-04  0.498875181266E-05
  0.562881671776E-05 -0.995747141346E-06  0.117477089428E-05  0.397564433288E-05  0.217525125686E-05
 -0.483463717997E-04 -0.259735897906E-03  0.105227811447E-03  0.795027956955E-03  0.713722390034E-04 -0.248933413730E-03 -0.429517991599E-04
  0.226069882626E-03 -0.739220565741E-05  0.196696739844E-03 -0.188385797006E-04 -0.154403255795E-03 -0.200400599534E-04 -0.135353724215E-04
 -0.140519290336E-04 -0.299821861393E-05 -0.347471254018E-05 -0.139891033422E-04 -0.732815012968E-04 -0.814211099977E-04 -0.109780216102E-04
  0.997179576812E-04  0.230171724765E-03 -0.363468803588E-04 -0.239201937184E-04 -0.391245344871E-05  0.282369572416E-04 -0.370315483164E-04
  0.446997405441E-04 -0.361099858456E-05  0.247694651607E-05  0.248436503837E-04  0.464777603458E-04
        15         7        19        19
         8        20        19        19
        18        19        21        21
         7         4         8         8
         3         6         4         4
        19         7         8         8
        19        18        15        15
        14        13        15        15
         8        22        20        20
        27        24        22        22
        19        20        21        21
        32        26        21        21
        17        18        26        26
        17        16        15        15
        25        29        21        21
        12         7        13        13
        10         8         6         6
        25        20        24        24
         4         6         8         8
        12         2         4         4
        10        23        22        22
        26        31        17        17
        30        16        17        17
         4         7        12        12
        13        11        12        12
        21        20        25        25
        24        28        25        25
        22         8        10        10
         6         5        10        10
        31        26        32        32
         4         2         3         3
         5         6         3         3
        11        13        14        14
        22        23        27        27
        28        24        27        27
        15        13         7         7
         2        12         1         1
        29        25        33        33
        23        10         9         9
        21        26        18        18
        16        14        15        15
        18        17        15        15
        29        32        21        21
        22        24        20        20
        28        33        25        25
        11         1        12        12
        31        30        17        17
         5         9        10        10
zone t="boundary 3 bc-3", solutiontime= 0.5000000E+02, strandid=1003, i=33, j=48, f=feblock
  0.375000000000E+01  0.250000000000E+01  0.500000000000E+01  0.403552511878E+01  0.288078410721E+01  0.125000000000E+01  0.190974100652E+01
  0.500000000000E+01  0.326683758169E+01  0.423153924130E+01  0.201431602454E+01  0.000000000000E+00  0.963108083381E+00  0.500000000000E+01
  0.267000324704E+01  0.385533350601E+01  0.893127759452E+00  0.154774304040E+01  0.000000000000E+00  0.500000000000E+01  0.315249557942E+01
  0.218329375016E+01  0.398173246726E+01  0.000000000000E+00  0.698517061619E+00  0.964171764089E+00  0.125000000000E+01  0.000000000000E+00
  0.500000000000E+01  0.310324758057E+01  0.250000000000E+01  0.375000000000E+01  0.000000000000E+00
  0.250000000000E+01  0.250000000000E+01  0.250000000000E+01  0.250000000000E+01  0.250000000000E+01  0.250000000000E+01  0.250000000000E+01
  0.250000000000E+01  0.250000000000E+01  0.250000000000E+01  0.250000000000E+01  0.250000000000E+01  0.250000000000E+01  0.250000000000E+01
  0.250000000000E+01  0.250000000000E+01  0.250000000000E+01  0.250000000000E+01  0.250000000000E+01  0.250000000000E+01  0.250000000000E+01
  0.250000000000E+01  0.250000000000E+01  0.250000000000E+01  0.250000000000E+01  0.250000000000E+01  0.250000000000E+01  0.250000000000E+01
  0.250000000000E+01  0.250000000000E+01  0.250000000000E+01  0.250000000000E+01  0.250000000000E+01
  0.000000000000E+00  0.000000000000E+00  0.000000000000E+00  0.101201586758E+01  0.904659890645E+00  0.000000000000E+00  0.717002441913E+00
  0.125000000000E+01  0.188609243358E+01  0.191586535653E+01  0.176246431481E+01  0.000000000000E+00  0.961328577125E+00  0.250000000000E+01
  0.285047954584E+01  0.293121848150E+01  0.205246550326E+01  0.292817774674E+01  0.125000000000E+01  0.375000000000E+01  0.363585050272E+01
  0.395907379566E+01  0.406975391361E+01  0.250000000000E+01  0.306828197606E+01  0.397245519226E+01  0.500000000000E+01  0.375000000000E+01
  0.500000000000E+01  0.433168271247E+01  0.500000000000E+01  0.500000000000E+01  0.500000000000E+01
  0.000000000000E+00  0.000000000000E+00  0.000000000000E+00  0.443770331736E+00  0.402287171226E+00  0.000000000000E+00  0.377548518817E+00
  0.509235490256E+00  0.575832411882E+00  0.573708273050E+00  0.562553347591E+00  0.000000000000E+00  0.490560550365E+00  0.534526479803E+00
  0.556586999650E+00  0.564391422515E+00  0.522731054000E+00  0.522052377449E+00  0.441239785988E+00  0.517181547931E+00  0.524228814576E+00
  0.503688070658E+00  0.509488649002E+00  0.469816606844E+00  0.495615241225E+00  0.494484543267E+00  0.488563386034E+00  0.488962540251E+00
  0.492980764076E+00  0.499006129986E+00  0.486461965853E+00  0.484597695101E+00  0.495347171760E+00
  0.100000000000E+01  0.100000000000E+01  0.100000000000E+01  0.981544853085E+00  0.988777726367E+00  0.100000000000E+01  0.982474464092E+00
  0.984105346981E+00  0.990427594648E+00  0.990355238130E+00  0.994363068874E+00  0.100000000000E+01  0.988654724521E+00  0.100368325855E+01
  0.999768563775E+00  0.100118428120E+01  0.100834796419E+01  0.100252058950E+01  0.102982613692E+01  0.100443277913E+01  0.100199491686E+01
  0.100082030644E+01  0.100138167444E+01  0.100826231153E+01  0.100298756175E+01  0.100192362714E+01  0.100215241692E+01  0.100355626855E+01
  0.100047663613E+01  0.100056570035E+01  0.100126796473E+01  0.100066558632E+01  0.100179316439E+01
  0.335800218751E-05 -0.666510486087E-04  0.290584800274E-04 -0.853713339988E-03 -0.145944890350E-02 -0.157391990305E-03 -0.233906793478E-02
  0.143373144373E-03 -0.856782687927E-04  0.682113452369E-04 -0.235694777321E-03 -0.110424829261E-03 -0.143292160978E-02  0.276773786391E-04
  0.114657802227E-04  0.285417477262E-04 -0.162254067652E-03  0.857875645526E-04 -0.840413196616E-03  0.111533518121E-04  0.405188968889E-05
  0.621581551394E-05  0.682778634074E-05  0.125509074393E-04  0.781228786669E-04  0.231670450347E-04 -0.402876705310E-04  0.105732966562E-03
  0.889552453518E-05  0.556309670838E-05 -0.658321952219E-05  0.159018415457E-04 -0.125356650480E-03
  0.760218043847E-05  0.119175113006E-04 -0.872917940762E-05 -0.160731828292E-03 -0.180721599155E-03  0.104000818754E-04 -0.287044345695E-03
 -0.787044048772E-05 -0.183120736724E-05  0.350551229480E-05  0.424558639510E-04 -0.239691342657E-04 -0.141802462960E-03 -0.788790595361E-05
  0.159526448219E-04  0.607311731123E-05  0.243793709532E-04  0.392921076547E-04 -0.138410260961E-03 -0.298264129487E-05  0.848521176102E-05
  0.125939952166E-04  0.256579759005E-05  0.571528397728E-05  0.335645521959E-04  0.890048539533E-05  0.116012132807E-05  0.216305679133E-04
 -0.551584094776E-07  0.855813817981E-05  0.775747893682E-05  0.474128224092E-05 -0.242994351195E-04
 -0.150099336969E-06 -0.142812337886E-05  0.376483939342E-05  0.216905670191E-04  0.270337653707E-04 -0.390717572964E-05  0.212371339034E-04
  0.135536888260E-05  0.318448844213E-05  0.294028236490E-06  0.319304466288E-05 -0.163781938245E-04  0.316729206865E-05 -0.611463679792E-06
  0.463751725601E-06 -0.123663084124E-06  0.153311530378E-05  0.167629950681E-05 -0.272438988050E-05 -0.272359396236E-06 -0.439775580037E-06
 -0.104306406907E-05 -0.205633039431E-06 -0.726417300177E-07 -0.108533796072E-05 -0.119433294499E-05 -0.328782292845E-06 -0.620489405982E-06
 -0.547074800614E-07  0.348617658868E-07 -0.194505828415E-07  0.890192912747E-07 -0.804394566143E-07
  0.126956582104E-04  0.260246544200E-04  0.367414638953E-05 -0.804579608944E-05 -0.327134610261E-04  0.229939184070E-04  0.876558997065E-05
 -0.102296101141E-04 -0.388078001907E-04 -0.151799968255E-04 -0.550984111652E-04  0.229386415342E-04  0.449473655350E-05 -0.426522598769E-05
 -0.612471016182E-05 -0.968501764892E-05 -0.149390592635E-04  0.876566347779E-05  0.379853644752E-04 -0.291095478795E-05 -0.677339367656E-05
  0.149089553610E-05 -0.426586794832E-05  0.858534891170E-05  0.445722267517E-05  0.661471895875E-05  0.362945604320E-05  0.467177109444E-05
 -0.115985996968E-05 -0.323408611323E-05  0.178018907142E-05 -0.607070169967E-06  0.325344347375E-05
 -0.108411895045E-03 -0.197220685617E-03 -0.413015136162E-04  0.384824465152E-03  0.613146538563E-03 -0.271381107511E-04  0.977525170891E-03
 -0.459107886772E-04  0.311373849856E-04 -0.246631973355E-04  0.668259376388E-04  0.724061194957E-04  0.560621206359E-03 -0.471950343823E-05
 -0.944725547721E-05 -0.112649549508E-04  0.496963124823E-04 -0.443916078977E-04  0.341055938258E-03 -0.198812994522E-05 -0.422478341548E-05
 -0.662368867486E-05 -0.271132592747E-05 -0.744154887226E-05 -0.360257565972E-04 -0.119767006906E-04  0.138291807604E-04 -0.450996272308E-04
 -0.286126776792E-05 -0.435265606121E-05  0.106209209521E-06 -0.691446412914E-05  0.516021959079E-04
        15         9        16        16
        15        18        11        11
        22        15        21        21
        11         5         9         9
         5         7         2         2
        11         9        15        15
        16        21        15        15
        16        10        14        14
        18        17        11        11
        17        25        24        24
        22        18        15        15
        22        30        31        31
        30        21        23        23
        16        20        23        23
        22        27        26        26
        10         9         4         4
         7        11        13        13
        25        18        26        26
        11         7         5         5
         5         1         4         4
        17        19        13        13
        23        32        30        30
        23        20        29        29
         4         9         5         5
         4         8        10        10
        26        18        22        22
        26        28        25        25
        13        11        17        17
        13         6         7         7
        31        30        32        32
         2         1         5         5
         2         7         6         6
        14        10         8         8
        24        19        17        17
        24        25        28        28
         9        10        16        16
         3         4         1         1
        33        26        27        27
        12        13        19        19
        21        30        22        22
        16        14        20        20
        16        23        21        21
        22        31        27        27
        18        25        17        17
        26        33        28        28
         4         3         8         8
        23        29        32        32
        13        12         6         6
zone t="boundary 4 bc-4", solutiontime= 0.5000000E+02, strandid=1004, i=32, j=46, f=feblock
  0.125000000000E+01  0.219251206392E+01  0.103724302461E+01  0.500000000000E+01  0.250000000000E+01  0.375000000000E+01  0.404200324774E+01
  0.500000000000E+01  0.000000000000E+00  0.310152362409E+01  0.202479342020E+01  0.324151231464E+01  0.922061490191E+00  0.000000000000E+00
  0.299062775774E+01  0.394624082883E+01  0.500000000000E+01  0.409252726285E+01  0.500000000000E+01  0.429310310915E+01  0.175434191980E+01
  0.284428995242E+01  0.000000000000E+00  0.000000000000E+00  0.715990576545E+00  0.930412228790E+00  0.125000000000E+01  0.187029682677E+01
  0.500000000000E+01  0.375000000000E+01  0.250000000000E+01  0.000000000000E+00
  0.250000000000E+01  0.157686156160E+01  0.146289271009E+01  0.250000000000E+01  0.250000000000E+01  0.250000000000E+01  0.155830813274E+01
  0.125000000000E+01  0.250000000000E+01  0.177790177481E+01  0.477386199275E+00  0.742988685424E+00  0.308372018325E+00  0.125000000000E+01
 -0.487811078581E+00 -0.144524380962E+01 -0.125000000000E+01 -0.345533899378E+00  0.000000000000E+00  0.627766083140E+00 -0.739814786992E+00
 -0.158811787973E+01  0.000000000000E+00 -0.125000000000E+01 -0.600232012419E+00 -0.154800130438E+01 -0.250000000000E+01 -0.178862290564E+01
 -0.250000000000E+01 -0.250000000000E+01 -0.250000000000E+01 -0.250000000000E+01
  0.500000000000E+01  0.500000000000E+01  0.500000000000E+01  0.500000000000E+01  0.500000000000E+01  0.500000000000E+01  0.500000000000E+01
  0.500000000000E+01  0.500000000000E+01  0.500000000000E+01  0.500000000000E+01  0.500000000000E+01  0.500000000000E+01  0.500000000000E+01
  0.500000000000E+01  0.500000000000E+01  0.500000000000E+01  0.500000000000E+01  0.500000000000E+01  0.500000000000E+01  0.500000000000E+01
  0.500000000000E+01  0.500000000000E+01  0.500000000000E+01  0.500000000000E+01  0.500000000000E+01  0.500000000000E+01  0.500000000000E+01
  0.500000000000E+01  0.500000000000E+01  0.500000000000E+01  0.500000000000E+01
  0.488563386034E+00  0.488874141190E+00  0.490563798743E+00  0.492980764076E+00  0.486461965853E+00  0.484597695101E+00  0.485348527628E+00
  0.494163498173E+00  0.495347171760E+00  0.486529157407E+00  0.487821059839E+00  0.487069818832E+00  0.494046662670E+00  0.496127919189E+00
  0.487613312932E+00  0.483220341467E+00  0.492395407238E+00  0.487214673604E+00  0.494738901691E+00  0.487958971889E+00  0.489678292776E+00
  0.488030085049E+00  0.497246761305E+00  0.496059785041E+00  0.494951737622E+00  0.492801157110E+00  0.490003707998E+00  0.490006147673E+00
  0.491352331256E+00  0.486076199652E+00  0.490037473019E+00  0.495098812149E+00
  0.100215241692E+01  0.100152628230E+01  0.100178324505E+01  0.100047663613E+01  0.100126796473E+01  0.100066558632E+01  0.100025348584E+01
  0.100050386214E+01  0.100179316439E+01  0.100112346564E+01  0.100133022918E+01  0.100072416220E+01  0.100164344151E+01  0.100168826201E+01
  0.100096255089E+01  0.100000864863E+01  0.100082856799E+01  0.100022259985E+01  0.100062140260E+01  0.100023490461E+01  0.100174609907E+01
  0.100098833616E+01  0.100118709692E+01  0.100134152965E+01  0.100132615972E+01  0.100179851151E+01  0.100192632421E+01  0.100163723092E+01
  0.100045428384E+01  0.100058757388E+01  0.100109969524E+01  0.100176093040E+01
 -0.402876705310E-04 -0.273422909932E-04 -0.701098390634E-04  0.889552453518E-05 -0.658321952219E-05  0.159018415457E-04  0.129905154153E-04
  0.988111847664E-05 -0.125356650480E-03  0.111477097028E-04 -0.434597153656E-04  0.153246936538E-05 -0.107587728011E-03 -0.124133355151E-03
 -0.211194250027E-04 -0.136887409086E-05  0.127817974021E-04  0.622663158943E-05  0.846901974675E-05  0.109990912126E-04 -0.901945652592E-04
 -0.429306267387E-04 -0.139986516511E-03 -0.130342364818E-03 -0.145557946625E-03 -0.114665981675E-03 -0.111944206749E-03 -0.998474145383E-04
  0.991581125311E-05 -0.956815265239E-05 -0.667392261860E-04 -0.110634411294E-03