# vtk DataFile Version 2.0
FUN3D:global_image_vtk
ASCII
DATASET UNSTRUCTURED_GRID
POINTS 213 double
   -0.5474685441687832E-02    0.2504941971167291E+01    0.8038138598670530E-04
    0.1245419105183473E+01    0.2504941971167291E+01    0.1039425058009796E-03
    0.2497696093128780E+01    0.2504941971167291E+01    0.1101298164665754E-03
    0.3750590968915824E+01    0.2504941971167291E+01    0.1356499004940254E-03
    0.5003221331742151E+01    0.2504941971167291E+01    0.9668873038898296E-04
    0.5004676687979097E+01    0.1281291202167040E+01    0.1638053019384356E-03
    0.5004772673778115E+01    0.2775079906482894E-01    0.1903478008447590E-03
    0.5003581183341212E+01   -0.1225853508883528E+01    0.1607765204486578E-03
    0.5001952533742191E+01   -0.2496589036641631E+01    0.1082258890302557E-03
    0.3750348111606544E+01   -0.2496589036641631E+01    0.1458753696815807E-03
    0.2498611462994928E+01   -0.2496589036641631E+01    0.1008933264248224E-03
    0.1247175269333276E+01   -0.2496589036641631E+01    0.1108587619169654E-03
   -0.3383959865719266E-02   -0.2496589036641631E+01    0.8107259626494142E-04
   -0.4257768979765597E-02   -0.1225734811642590E+01    0.3415458742295208E-04
   -0.5251592448509257E-02    0.2619486024420461E-01    0.1038724387187884E-03
   -0.5676060312426845E-02    0.1278221569065707E+01    0.8224601702150336E-04
    0.9003209617952581E+00    0.1608979112280158E+01    0.8704140727638843E-04
    0.3983172210692289E+01   -0.1561211904840279E+01    0.1757116720370600E-03
    0.4035602039224469E+01    0.1486760030415520E+01    0.1713312862103295E-03
    0.1036613723302902E+01   -0.1455626429916848E+01    0.1047189301532914E-03
    0.1094353480630802E+01   -0.2964622010671852E+00    0.1260590236917269E-03
    0.7298400267480001E+00    0.6874684746719117E+00    0.1044598640544958E-03
    0.1617018659308944E+01    0.8553208024939369E+00    0.1529810904971061E-03
    0.2143199662875790E+01   -0.1627128509216730E+01    0.1606170425226816E-03
    0.4088840445400889E+01   -0.4351047825936264E+00    0.2719933294109134E-03
    0.2977916511248925E+01   -0.8334991483094500E+00    0.2245596931861325E-03
    0.3044093241383418E+01   -0.1814361225108581E+01    0.1617000112420497E-03
    0.3427866614805211E+01    0.3813904839972500E+00    0.2936955483429033E-03
    0.4313225355351749E+01    0.5489133376342495E+00    0.2313009573592373E-03
    0.1823032737597358E+01    0.1771265193544253E+01    0.1836202887151583E-03
    0.2806311152168375E+01    0.1358629373600680E+01    0.1943492163983818E-03
    0.1891860875936711E+01   -0.8481310365607546E+00    0.1670645501816170E-03
    0.2268769200166909E+01    0.7723691819196575E-01    0.2072307783085319E-03
    0.5000000000000000E+01    0.2504941971167291E+01    0.1250000000000000E+01
    0.5000000000000000E+01    0.2504941971167291E+01    0.2500000000000000E+01
    0.5000000000000000E+01    0.2504941971167291E+01    0.3750000000000000E+01
    0.5000000000000000E+01    0.2504941971167291E+01    0.5000000000000000E+01
    0.3750000000000000E+01    0.2504941971167291E+01    0.5000000000000000E+01
    0.2500000000000000E+01    0.2504941971167291E+01    0.5000000000000000E+01
    0.1250000000000000E+01    0.2504941971167291E+01    0.5000000000000000E+01
    0.0000000000000000E+00    0.2504941971167291E+01    0.5000000000000000E+01
    0.0000000000000000E+00    0.2504941971167291E+01    0.3750000000000000E+01
    0.0000000000000000E+00    0.2504941971167291E+01    0.2500000000000000E+01
    0.0000000000000000E+00    0.2504941971167291E+01    0.1250000000000000E+01
    0.9588956434871097E+00    0.2504941971167291E+01    0.9696525519543867E+00
    0.3981953078951402E+01    0.2504941971167291E+01    0.4070563854751271E+01
    0.4036122187252336E+01    0.2504941971167291E+01    0.1017567520094671E+01
    0.9637572773153887E+00    0.2504941971167291E+01    0.3973598203142229E+01
    0.1546540136992396E+01    0.2504941971167291E+01    0.2931570169315601E+01
    0.6973799521244312E+00    0.2504941971167291E+01    0.3070319952453756E+01
    0.8903742148356885E+00    0.2504941971167291E+01    0.2056562238187738E+01
    0.2183041995146012E+01    0.2504941971167291E+01    0.3960694449828019E+01
    0.3855844872709870E+01    0.2504941971167291E+01    0.2933250588118631E+01
    0.3152611367438029E+01    0.2504941971167291E+01    0.3637668388416195E+01
    0.3103307385241870E+01    0.2504941971167291E+01    0.4332607813099731E+01
    0.3266711045517939E+01    0.2504941971167291E+01    0.1889656617463739E+01
    0.4232537554484796E+01    0.2504941971167291E+01    0.1918626969802351E+01
    0.1905522374036519E+01    0.2504941971167291E+01    0.7226290832134605E+00
    0.2879767723645805E+01    0.2504941971167291E+01    0.9080945892181979E+00
    0.2012711365064515E+01    0.2504941971167291E+01    0.1767082390977754E+01
    0.2669681472994637E+01    0.2504941971167291E+01    0.2853394335010792E+01
    0.5000000000000000E+01    0.1250000000000000E+01    0.5000000000000000E+01
    0.5000000000000000E+01    0.0000000000000000E+00    0.5000000000000000E+01
    0.5000000000000000E+01   -0.1250000000000000E+01    0.5000000000000000E+01
    0.5000000000000000E+01   -0.2496589036641631E+01    0.5000000000000000E+01
    0.5000000000000000E+01   -0.2496589036641631E+01    0.3750000000000000E+01
    0.5000000000000000E+01   -0.2496589036641631E+01    0.2500000000000000E+01
    0.5000000000000000E+01   -0.2496589036641631E+01    0.1250000000000000E+01
    0.5000000000000000E+01    0.1578994732800803E+01    0.9058375365086910E+00
    0.5000000000000000E+01   -0.1583989954232354E+01    0.3982050490726493E+01
    0.5000000000000000E+01    0.1453322699199022E+01    0.4033849428301197E+01
    0.5000000000000000E+01   -0.1479596339503735E+01    0.1040505887381675E+01
    0.5000000000000000E+01   -0.3227322616384110E+00    0.1099454400140349E+01
    0.5000000000000000E+01    0.6593508822075582E+00    0.7354504170366591E+00
    0.5000000000000000E+01    0.8256214013940779E+00    0.1622302608453282E+01
    0.5000000000000000E+01   -0.1650070333782557E+01    0.2145871574390382E+01
    0.5000000000000000E+01   -0.4612828702537229E+00    0.4086422318222992E+01
    0.5000000000000000E+01   -0.8579242121530853E+00    0.2979540174134984E+01
    0.5000000000000000E+01   -0.1836846154397680E+01    0.3045064261640043E+01
    0.5000000000000000E+01    0.3508002863614053E+00    0.3428197553792836E+01
    0.5000000000000000E+01    0.5185680230613409E+00    0.4309693860063405E+01
    0.5000000000000000E+01    0.1738996113203182E+01    0.1827272193562204E+01
    0.5000000000000000E+01    0.1325493893339706E+01    0.2808563282768077E+01
    0.5000000000000000E+01   -0.8731419609589618E+00    0.1895995683864404E+01
    0.5000000000000000E+01    0.4906150219227333E-01    0.2273179336307740E+01
    0.0000000000000000E+00    0.1250000000000000E+01    0.5000000000000000E+01
    0.0000000000000000E+00    0.0000000000000000E+00    0.5000000000000000E+01
    0.0000000000000000E+00   -0.1250000000000000E+01    0.5000000000000000E+01
    0.0000000000000000E+00   -0.2496589036641631E+01    0.5000000000000000E+01
    0.1250000000000000E+01   -0.2496589036641631E+01    0.5000000000000000E+01
    0.2500000000000000E+01   -0.2496589036641631E+01    0.5000000000000000E+01
    0.3750000000000000E+01   -0.2496589036641631E+01    0.5000000000000000E+01
    0.4042003247744892E+01    0.1558308132739014E+01    0.5000000000000000E+01
    0.9304122287900499E+00   -0.1548001304379777E+01    0.5000000000000000E+01
    0.1037243024609388E+01    0.1462892710085612E+01    0.5000000000000000E+01
    0.3946240828834967E+01   -0.1445243809615570E+01    0.5000000000000000E+01
    0.4092527262848217E+01   -0.3455338993778935E+00    0.5000000000000000E+01
    0.4293103109154542E+01    0.6277660831404320E+00    0.5000000000000000E+01
    0.3241512314643519E+01    0.7429886854239611E+00    0.5000000000000000E+01
    0.2844289952419609E+01   -0.1588117879734118E+01    0.5000000000000000E+01
    0.7159905765450471E+00   -0.6002320124191652E+00    0.5000000000000000E+01
    0.1754341919796891E+01   -0.7398147869923652E+00    0.5000000000000000E+01
    0.1870296826774691E+01   -0.1788622905643739E+01    0.5000000000000000E+01
    0.9220614901912976E+00    0.3083720183248586E+00    0.5000000000000000E+01
    0.3101523624086016E+01    0.1777901774806180E+01    0.5000000000000000E+01
    0.2192512063922564E+01    0.1576861561598471E+01    0.5000000000000000E+01
    0.2024793420196460E+01    0.4773861992750707E+00    0.5000000000000000E+01
    0.2990627757741975E+01   -0.4878110785814084E+00    0.5000000000000000E+01
    0.0000000000000000E+00   -0.2496589036641631E+01    0.1250000000000000E+01
    0.0000000000000000E+00   -0.2496589036641631E+01    0.2500000000000000E+01
    0.0000000000000000E+00   -0.2496589036641631E+01    0.3750000000000000E+01
    0.0000000000000000E+00    0.1558308132739014E+01    0.4042003247744892E+01
    0.0000000000000000E+00   -0.1548001304379777E+01    0.9304122287900499E+00
    0.0000000000000000E+00    0.1462892710085612E+01    0.1037243024609388E+01
    0.0000000000000000E+00   -0.1445243809615570E+01    0.3946240828834967E+01
    0.0000000000000000E+00   -0.3455338993778935E+00    0.4092527262848217E+01
    0.0000000000000000E+00    0.6277660831404320E+00    0.4293103109154542E+01
    0.0000000000000000E+00    0.7429886854239611E+00    0.3241512314643519E+01
    0.0000000000000000E+00   -0.1588117879734118E+01    0.2844289952419609E+01
    0.0000000000000000E+00   -0.6002320124191652E+00    0.7159905765450471E+00
    0.0000000000000000E+00   -0.7398147869923652E+00    0.1754341919796891E+01
    0.0000000000000000E+00   -0.1788622905643739E+01    0.1870296826774691E+01
    0.0000000000000000E+00    0.3083720183248586E+00    0.9220614901912976E+00
    0.0000000000000000E+00    0.1777901774806180E+01    0.3101523624086016E+01
    0.0000000000000000E+00    0.1576861561598471E+01    0.2192512063922564E+01
[...]
POINT_DATA 213
SCALARS rho double 1
LOOKUP_TABLE default
   0.1346125694796170E+01
   0.9572084527647177E+00
   0.9461020639078119E+00
   0.9421833077514675E+00
   0.8436100785905032E+00
   0.7742024922725260E+00
   0.7627632914204222E+00
   0.7661496233415017E+00
   0.8310481703367263E+00
   0.9353608197671145E+00
   0.9344036383958098E+00
   0.9615898876470030E+00
   0.1448480208888123E+01
   0.1495421840745494E+01
   0.1646754928386004E+01
   0.1426608058877443E+01
   0.1009808068720545E+01
   0.9511456929613188E+00
   0.9438291099370202E+00
   0.9574489508572961E+00
   0.9414832416640703E+00
   0.1037118221425503E+01
   0.9258147537148553E+00
   0.9322497228173982E+00
   0.9538141799783578E+00
   0.9520438484218449E+00
   0.9350971720205272E+00
   0.9565537237118934E+00
   0.9378700247680093E+00
   0.9303318784868113E+00
   0.9446515867126484E+00
   0.8862352513653067E+00
   0.9424046836435387E+00
   0.9637217255546098E+00
   0.1008362577771464E+01
   0.1006713364979950E+01
   0.1001959240549338E+01
   0.1003218316276310E+01
   0.1004120538082294E+01
   0.1005207992650280E+01
   0.1004249813847909E+01
   0.1008267843881786E+01
   0.1023867443067884E+01
   0.1063751875324935E+01
   0.1019386187162554E+01
   0.1001778934113208E+01
   0.9645975233959347E+00
   0.1005263110528869E+01
   0.1000745578316709E+01
   0.1008695104813589E+01
   0.1008032475142374E+01
   0.1002354650880921E+01
   0.9980224682790607E+00
   0.1000594440604981E+01
   0.1001621537589702E+01
   0.9828107810948312E+00
   0.9844011041687633E+00
   0.9834292502931208E+00
   0.9790423922415734E+00
   0.9904798796909297E+00
   0.9935224893886206E+00
   0.1002009103475674E+01
   0.1002132311998029E+01
   0.1002273033582341E+01
   0.1001793219489189E+01
   0.1009814972833392E+01
   0.1006499311746351E+01
   0.9560849990714079E+00
   0.9252996566846429E+00
   0.1007053712651865E+01
   0.1004491538498358E+01
   0.9144889717497050E+00
   0.9091476761027146E+00
   0.8752502590928951E+00
   0.9768039036525082E+00
   0.1000530366597899E+01
   0.1005826553460181E+01
   0.1012895293779665E+01
   0.1011677102427478E+01
   0.1010415988351595E+01
   0.1005456560095716E+01
   0.9909260255110189E+00
   0.1005152543423357E+01
   0.9860803849583187E+00
   0.1005592650627447E+01
   0.1004239968494962E+01
   0.1002886283632248E+01
   0.1003350788888627E+01
   0.1003998912068584E+01
   0.1005116700254014E+01
   0.1003224183257987E+01
   0.1002669183700800E+01
   0.1002590255848407E+01
   0.1004070004659133E+01
   0.1004304937933141E+01
   0.1001643036025504E+01
   0.1002279357321899E+01
   0.1002547248781977E+01
   0.1003472641567324E+01
   0.1003380931080902E+01
   0.1003233776571531E+01
   0.1004430854293400E+01
   0.1004325283197200E+01
   0.1003653379478006E+01
   0.1003719191863772E+01
   0.1004319534138409E+01
   0.1004463155501088E+01
   0.1003629980599648E+01
   0.1064490581493543E+01
   0.1028445780971469E+01
   0.1009607603147356E+01
   0.1006626774102676E+01
   0.1163979474301379E+01
   0.1086026004530845E+01
   0.1007908398971676E+01
   0.1007252664643614E+01
   0.1006796746946192E+01
   0.1013053608644299E+01
   0.1019342644427341E+01
   0.1235143811205287E+01
   0.1032536232933634E+01
   0.1046567728934203E+01
   0.1201703012923367E+01
   0.1014671125332394E+01
   0.1032295324199352E+01
   0.1028222151031622E+01
   0.1014641483573336E+01
   0.1029002257770447E+01
   0.1002002818476381E+01
   0.9607830580820056E+00
   0.1006859706957371E+01
   0.1001326954010039E+01
   0.1010800868392034E+01
   0.1012237273234303E+01
   0.1000940436429746E+01
   0.9979317235317201E+00
   0.9980683699440425E+00
   0.1001191956733436E+01
   0.9841985797708257E+00
   0.9815070579349490E+00
   0.9648654914695790E+00
   0.9680713427302862E+00
   0.9914149190810115E+00
   0.9910916479216320E+00
   0.9925598184525990E+00
   0.1001728510387250E+01
   0.9993250772469863E+00
   0.9941444029265151E+00
   0.1006981383545158E+01
   0.1022611654050734E+01
   0.1001121691833200E+01
   0.1008784265586799E+01
   0.1004775043985261E+01
   0.1009029447306727E+01
   0.9967197949768091E+00
   0.1005567613152644E+01
   0.1003325685873304E+01
   0.9949865129967023E+00
   0.9833521892790527E+00
   0.9944521638504085E+00
   0.9973482230863590E+00
   0.9932519263849507E+00
   0.1001312608249049E+01
   0.1003001448725934E+01
   0.1002189173482838E+01
   0.9947119516184391E+00
   0.9937839725485351E+00
   0.1004862069432106E+01
   0.1020102936709553E+01
   0.1005341234391229E+01
   0.9817063601277453E+00
   0.1004975501327930E+01
   0.1012376568815317E+01
   0.9873747459242614E+00
   0.9551282272141167E+00
   0.9865280377056407E+00
   0.9865952832622860E+00
   0.9920084248960092E+00
   0.9934470865439922E+00
   0.9960657346530505E+00
   0.1037405690909356E+01
   0.1033165796316031E+01
   0.1001443358073574E+01
   0.1001929574473309E+01
   0.9912286695852766E+00
   0.9911121698768727E+00
   0.9649300819288704E+00
   0.9933729920342936E+00
   0.1006089075111743E+01
   0.1001962080811798E+01
   0.9908628495068610E+00
   0.9742274508734921E+00
   0.9420781785086659E+00
   0.9821604770833161E+00
   0.9794777371334423E+00
   0.9704352201667028E+00
   0.9720842372276906E+00
   0.9557868488075298E+00
   0.9497981758175317E+00
   0.9529847958461076E+00
   0.1002637256815284E+01
   0.1002476301970758E+01
   0.1000513242287925E+01
   0.1001675737919762E+01
   0.9610108169557009E+00
   0.9492469479940659E+00
   0.9586432519906327E+00
   0.1001121462568686E+01
   0.1000500591166404E+01
   0.1001161102485526E+01
   0.9807429276960816E+00
   0.9805608284045672E+00
   0.9629214371681079E+00
SCALARS u double 1
LOOKUP_TABLE default
   0.0000000000000000E+00
   0.0000000000000000E+00
   0.0000000000000000E+00
   0.0000000000000000E+00
   0.0000000000000000E+00
   0.0000000000000000E+00
   0.0000000000000000E+00
   0.0000000000000000E+00
   0.0000000000000000E+00
   0.0000000000000000E+00
   0.0000000000000000E+00
   0.0000000000000000E+00
   0.0000000000000000E+00
   0.0000000000000000E+00
   0.0000000000000000E+00
   0.0000000000000000E+00
   0.0000000000000000E+00
   0.0000000000000000E+00
   0.0000000000000000E+00
   0.0000000000000000E+00
   0.0000000000000000E+00
   0.0000000000000000E+00
   0.0000000000000000E+00
   0.0000000000000000E+00
   0.0000000000000000E+00
   0.0000000000000000E+00
   0.0000000000000000E+00
   0.0000000000000000E+00
   0.0000000000000000E+00
   0.0000000000000000E+00
   0.0000000000000000E+00
   0.0000000000000000E+00
   0.0000000000000000E+00
   0.4946084390403301E+00
   0.5336296229396231E+00
   0.5182737288741373E+00
   0.4930696975718006E+00
   0.4847718119408591E+00
   0.4868108136215754E+00
   0.4891429098222737E+00
   0.4958014376856369E+00
   0.4899016128305088E+00
   0.4718097598415670E+00
   0.4448926899587169E+00
   0.4844425910270769E+00
   0.5097672109152616E+00
   0.4402157107389183E+00
   0.4949584587264926E+00
   0.5222981757400271E+00
   0.4962761335160894E+00
   0.5223877814044889E+00
   0.5038134104987515E+00
   0.5644352140169039E+00
   0.5245862239270114E+00
   0.4990946955700121E+00
   0.5729384848058990E+00
   0.5693720714277628E+00
   0.3752129680555524E+00
   0.4003935337289323E+00
   0.5599622500290228E+00
   0.5562276759088323E+00
   0.4942631174083063E+00
   0.4948654038379451E+00
   0.4925634782160296E+00
   0.4913991786278476E+00
   0.5162611628896505E+00
   0.5363588932424885E+00
   0.4951213607875170E+00
   0.4520531595291027E+00
   0.5129024774601987E+00
   0.5117690526466551E+00
   0.4786251287211856E+00
   0.4931155293858619E+00
   0.4600306954373310E+00
   0.5242629198942664E+00
   0.5299866667529149E+00
   0.5129711999262121E+00
   0.5328938855274176E+00
   0.5309772093587928E+00
   0.5309771260032691E+00
   0.5063651410167973E+00
   0.5279605765589299E+00
   0.5409254473520720E+00
   0.5363677255166451E+00
   0.5374194372046835E+00
   0.4965359093627151E+00
   0.4975361620576704E+00
   0.4963807509447986E+00
   0.4955144774623494E+00
   0.4904151887411501E+00
   0.4902491479027398E+00
   0.4861626503315328E+00
   0.4854037739486375E+00
   0.4931941380558101E+00
   0.4910329234529702E+00
   0.4831698316704794E+00
   0.4872469605539458E+00
   0.4880010969404930E+00
   0.4872294036566933E+00
   0.4882160211825612E+00
   0.4952567366102101E+00
   0.4900705809522942E+00
   0.4903581267311298E+00
   0.4944346859693042E+00
   0.4868163397682809E+00
   0.4892720557096087E+00
   0.4881455378810503E+00
   0.4878245184536384E+00
   0.4449022026406392E+00
   0.4700099664047580E+00
   0.4891756201751464E+00
   0.4885980866227769E+00
   0.4510286412221156E+00
   0.4681799610771215E+00
   0.4876648975240567E+00
   0.4868253758067008E+00
   0.4909267533148835E+00
   0.4793946319363190E+00
   0.4657884653213601E+00
   0.3794302312506677E+00
   0.4903697421167737E+00
   0.4487929174615822E+00
   0.4432385355260891E+00
   0.4845729179217866E+00
   0.4621884481320288E+00
   0.4663602298884585E+00
   0.4747774268406427E+00
   0.4893613112006183E+00
   0.5085681474237974E+00
   0.4304904287089587E+00
   0.4927280753895718E+00
   0.5320316185099454E+00
   0.4913826501723290E+00
   0.5209404404684795E+00
   0.5061319828047663E+00
   0.5690636320470004E+00
   0.5275039918422010E+00
   0.5015047795155804E+00
   0.5821373618613811E+00
   0.5691503700217420E+00
   0.3402452490602638E+00
   0.3785432685556853E+00
   0.5753091283338715E+00
   0.5668547247073888E+00
   0.5703055450940467E+00
   0.5291879661617326E+00
   0.5449833828652855E+00
   0.5719093999232531E+00
   0.5385694587091793E+00
   0.5475896936889278E+00
   0.5821565652939823E+00
   0.4925313046001149E+00
   0.5041557177772625E+00
   0.4961299804140888E+00
   0.5562803684740075E+00
   0.4757814624157536E+00
   0.4950174786318898E+00
   0.5496174672072777E+00
   0.5889519110818262E+00
   0.5839568631087247E+00
   0.5468163498067893E+00
   0.5803877175569195E+00
   0.5106055693788852E+00
   0.5029532236716210E+00
   0.5033085380851450E+00
   0.5676232052870116E+00
   0.5564629528967069E+00
   0.4947135441323420E+00
   0.5506799461326946E+00
   0.5513545696829872E+00
   0.5658254157230908E+00
   0.4919953536842098E+00
   0.4927852057935225E+00
   0.3865438338108561E+00
   0.3687907202102862E+00
   0.5574381187364843E+00
   0.5761778935277850E+00
   0.4194381851565613E+00
   0.5822999347244215E+00
   0.4268238595782716E+00
   0.5397390504913867E+00
   0.5016174621437437E+00
   0.5119228251417909E+00
   0.5048434168007307E+00
   0.5752768158184659E+00
   0.5878367583822558E+00
   0.5382358738623333E+00
   0.5679645541100907E+00
   0.5352016964049802E+00
   0.5338463699699363E+00
   0.5582293100247258E+00
   0.5511563293009429E+00
   0.4256775843519400E+00
   0.5272986084059184E+00
   0.5796794667591799E+00
   0.3318312940209043E+00
   0.4761441131774728E+00
   0.5446494937269647E+00
   0.4800669226981651E+00
   0.3006201115470306E+00
   0.5031625243250785E+00
   0.5017180913079282E+00
   0.5129133729797088E+00
   0.5414117118086922E+00
   0.3435217015008368E+00
   0.3398080158395750E+00
   0.3190194433778100E+00
   0.5066187045011924E+00
   0.5123864689540961E+00
   0.5329068386150685E+00
   0.5881307275880259E+00
   0.4644883168924273E+00
   0.3529622376807842E+00
SCALARS v double 1
LOOKUP_TABLE default
   0.0000000000000000E+00
   0.0000000000000000E+00
   0.0000000000000000E+00
   0.0000000000000000E+00
   0.0000000000000000E+00
   0.0000000000000000E+00
   0.0000000000000000E+00
   0.0000000000000000E+00
   0.0000000000000000E+00
   0.0000000000000000E+00
   0.0000000000000000E+00
   0.0000000000000000E+00
   0.0000000000000000E+00
   0.0000000000000000E+00
   0.0000000000000000E+00
   0.0000000000000000E+00
   0.0000000000000000E+00
   0.0000000000000000E+00
   0.0000000000000000E+00
   0.0000000000000000E+00
   0.0000000000000000E+00
   0.0000000000000000E+00
   0.0000000000000000E+00
   0.0000000000000000E+00
   0.0000000000000000E+00
   0.0000000000000000E+00
   0.0000000000000000E+00
   0.0000000000000000E+00
   0.0000000000000000E+00
   0.0000000000000000E+00
   0.0000000000000000E+00
   0.0000000000000000E+00
   0.0000000000000000E+00
   0.0000000000000000E+00
   0.0000000000000000E+00
   0.0000000000000000E+00
   0.0000000000000000E+00
   0.0000000000000000E+00
   0.0000000000000000E+00
   0.0000000000000000E+00
   0.0000000000000000E+00
   0.0000000000000000E+00
   0.0000000000000000E+00
   0.0000000000000000E+00
   0.0000000000000000E+00
   0.0000000000000000E+00
   0.0000000000000000E+00
   0.0000000000000000E+00
   0.0000000000000000E+00
   0.0000000000000000E+00
   0.0000000000000000E+00
   0.0000000000000000E+00
   0.0000000000000000E+00
   0.0000000000000000E+00
   0.0000000000000000E+00
   0.0000000000000000E+00
   0.0000000000000000E+00
   0.0000000000000000E+00
   0.0000000000000000E+00
   0.0000000000000000E+00
   0.0000000000000000E+00
   0.8513955360435038E-03
  -0.1262646023070809E-02
  -0.1293747196401451E-02
   0.0000000000000000E+00
   0.0000000000000000E+00
   0.0000000000000000E+00
   0.0000000000000000E+00
  -0.1933774494544047E-01
   0.5035656971514682E-03
   0.2213150726907283E-02
   0.1419313534927918E-01
  -0.6753674551774912E-02
  -0.8171004420975110E-02
  -0.1325788718021205E-01
   0.4993929178382735E-02
   0.7358934070796467E-03
   0.3478388764906052E-02
   0.1946723832699598E-02
   0.3168072266655838E-02
   0.1755557793783998E-02
  -0.7295454604876418E-02
  -0.6912294258203518E-04
   0.4552258095460509E-02
  -0.4165984000321131E-03
  -0.6650692158930764E-04
  -0.2024618782411842E-03
   0.8052041902681073E-03
   0.0000000000000000E+00
   0.0000000000000000E+00
   0.0000000000000000E+00
   0.0000000000000000E+00
   0.4747328653182187E-03
   0.1624022890307479E-02
  -0.1273125041853261E-02
  -0.9977717767269642E-03
  -0.2076428544261369E-02
  -0.9960615485169269E-03
  -0.7502640411778149E-03
  -0.7419340926137193E-03
   0.6055381866061065E-04
  -0.5966235993537727E-03
   0.8041021995718690E-03
  -0.1730002248433339E-02
   0.3146405561653859E-03
  -0.5710223163283625E-04
  -0.8890514618098249E-03
  -0.1052087353788672E-02
   0.0000000000000000E+00
   0.0000000000000000E+00
   0.0000000000000000E+00
  -0.1035601496445657E-02
  -0.7789944224353733E-02
   0.1821259126100618E-01
  -0.2902416971203057E-04
  -0.1377098222241453E-02
  -0.2028456947005344E-02
  -0.5613671772718789E-02
  -0.1620474381078292E-02
  -0.6357462322348780E-02
  -0.4327186037956755E-02
   0.1517793743078401E-02
   0.3300594270581644E-01
   0.4394529829095849E-04
  -0.2766565870397130E-02
   0.3629287488198418E-02
   0.3910358756423714E-03
   0.0000000000000000E+00
   0.0000000000000000E+00
   0.0000000000000000E+00
   0.0000000000000000E+00
   0.0000000000000000E+00
   0.0000000000000000E+00
   0.0000000000000000E+00
   0.0000000000000000E+00
   0.0000000000000000E+00
   0.0000000000000000E+00
   0.0000000000000000E+00
   0.0000000000000000E+00
   0.0000000000000000E+00
   0.0000000000000000E+00
   0.0000000000000000E+00
   0.0000000000000000E+00
   0.0000000000000000E+00
   0.5001778196299499E-02
   0.3214065065724395E-02
   0.8126045455210973E-02
   0.6096300950008839E-02
   0.1117411732735740E-01
   0.1403811528123838E-01
  -0.3216221144901455E-03
   0.5161911444149720E-02
   0.2930107585324390E-02
   0.3378096200238179E-02
   0.3728544903384134E-02
  -0.1469573980207899E-01
  -0.6136953896329303E-03
   0.6639776179998006E-02
   0.1457244614324731E-02
   0.1959300739018757E-02
   0.4263980430204873E-02
  -0.2812426158146243E-02
   0.1267609577195046E-02
   0.2851959414342446E-02
   0.1534868031405830E-02
   0.2563344866180447E-02
   0.2013569101301872E-02
   0.2154333995320306E-02
   0.8583998694346059E-02
  -0.3830083253380078E-02
   0.6155698670902422E-02
   0.4725666910451493E-04
  -0.4231582248167711E-03
  -0.1674129340542855E-01
  -0.4996659887244964E-02
  -0.4827349435059582E-02
   0.3399378242595896E-02
  -0.6077437487940503E-02
   0.3194967241506733E-04
  -0.3284948881754284E-01
  -0.3181989491005408E-02
   0.4581319063920290E-02
   0.9682240723922878E-03
   0.2133486665784367E-02
   0.4530687697946826E-02
   0.2692787741503452E-02
   0.3243073203971028E-02
   0.5223605127043771E-02
   0.1957627594950709E-02
   0.7485460677651014E-03
  -0.5693750210198271E-04
  -0.5322690140562712E-02
  -0.6972866624887339E-02
  -0.9635303160459725E-03
   0.1062718465646992E-02
  -0.2106021482052460E-02
  -0.3219291745888197E-02
  -0.2544864648770654E-02
  -0.4131306124126658E-02
  -0.7566170041721096E-02
  -0.2012358476861107E-02
   0.6515130175091831E-03
  -0.1916276468157720E-03
   0.1227816750977063E-02
  -0.3502806472663233E-02
   0.4846684277736617E-02
  -0.8642681610464159E-02
   0.3341930297526276E-04
  -0.3327777675255442E-03
   0.2558606058705674E-02
   0.1615750370951201E-02
   0.2039006090882515E-02
  -0.5641501447131292E-02
SCALARS w double 1
LOOKUP_TABLE default
   0.0000000000000000E+00
   0.0000000000000000E+00
   0.0000000000000000E+00
   0.0000000000000000E+00
   0.0000000000000000E+00
   0.0000000000000000E+00
   0.0000000000000000E+00
   0.0000000000000000E+00
   0.0000000000000000E+00
   0.0000000000000000E+00
   0.0000000000000000E+00
   0.0000000000000000E+00
   0.0000000000000000E+00
   0.0000000000000000E+00
   0.0000000000000000E+00
   0.0000000000000000E+00
   0.0000000000000000E+00
   0.0000000000000000E+00
   0.0000000000000000E+00
   0.0000000000000000E+00
   0.0000000000000000E+00
   0.0000000000000000E+00
   0.0000000000000000E+00
   0.0000000000000000E+00
   0.0000000000000000E+00
   0.0000000000000000E+00
   0.0000000000000000E+00
   0.0000000000000000E+00
   0.0000000000000000E+00
   0.0000000000000000E+00
   0.0000000000000000E+00
   0.0000000000000000E+00
   0.0000000000000000E+00
  -0.1007241858922396E+00
  -0.4245528620582237E-01
   0.7158753615131508E-03
   0.5704943558366655E-02
   0.5684952911829703E-03
   0.1606878242802651E-02
   0.3372604798003190E-02
   0.2364299402580771E-02
   0.4720647222284803E-03
   0.3528387233050244E-02
   0.4533336070131310E-01
   0.6563397479811806E-01
   0.8384124266408424E-03
  -0.2266132317405255E-01
   0.4271064976064574E-02
   0.1341970173599656E-01
   0.1029750710298288E-01
   0.4870834203713934E-01
   0.2381551735220269E-02
  -0.6534999693242685E-02
  -0.7372433721274677E-03
   0.3056375870820035E-03
   0.3846852349356368E-02
  -0.3893635252290435E-01
   0.1820273584096785E-01
   0.1120446069783662E-01
   0.3395774046044077E-01
   0.8380191415443100E-02
   0.4924617876955702E-02
   0.4973761413441584E-02
   0.4900522917453797E-02
   0.6056718409337839E-02
   0.2695309307556344E-02
  -0.4127769734062092E-01
  -0.9927104317847356E-01
  -0.1120360380853811E+00
   0.5144525313310038E-02
   0.4216388428306669E-02
  -0.1002595860482224E+00
  -0.9892594349067876E-01
  -0.9835483711505391E-01
  -0.9443969382457119E-01
  -0.6790972039197375E-01
   0.5196996620979112E-02
  -0.1927315220195691E-01
  -0.1563508313095259E-01
  -0.5964345919506871E-02
   0.6822779802463536E-02
  -0.7999951897209534E-01
  -0.2776431479434699E-01
  -0.8086526756575446E-01
  -0.5863339146028249E-01
   0.3073989812114157E-02
   0.2685175147707369E-02
   0.2644703078773967E-02
   0.3457404374779067E-02
   0.3998529298517855E-02
   0.1199876519473175E-02
  -0.1355432377612406E-03
   0.2028966191357733E-02
   0.4894373680660300E-02
   0.3864560753656548E-02
   0.1126430713200123E-02
   0.1188310627292290E-02
   0.1460245323285060E-02
  -0.2199459239755281E-04
   0.9121998348160206E-04
   0.4387187200718086E-02
   0.2712579859882906E-02
   0.2317255083761496E-02
   0.5007037344017213E-02
   0.1069971393882723E-02
   0.2707114404566484E-02
   0.2010664724067250E-02
   0.3391927294811687E-04
   0.8386260354652651E-01
   0.2832480964333980E-02
  -0.8469296581179624E-03
  -0.1274285298768262E-03
   0.1410903979825476E+00
   0.1236626536393906E+00
  -0.1228867735325678E-02
  -0.4383136247450483E-02
  -0.2804612791939019E-03
  -0.6477826838253248E-02
  -0.1895598713954089E-02
   0.1559394040483225E+00
   0.7528604328438608E-01
   0.2567550695077138E-01
   0.1661313051472775E+00