# vtk DataFile Version 2.0
FUN3D:global_image_vtk
ASCII
DATASET UNSTRUCTURED_GRID
POINTS 213 double
   -0.5474685441687832E-02    0.2504941971167291E+01    0.8038138598670546E-04
    0.1245419105183472E+01    0.2504941971167291E+01    0.1039425058014245E-03
    0.2497696093128780E+01    0.2504941971167291E+01    0.1101298164665745E-03
    0.3750590968915824E+01    0.2504941971167291E+01    0.1356499004951412E-03
    0.5003221331742151E+01    0.2504941971167291E+01    0.9668873038898279E-04
    0.5004676687979097E+01    0.1281291202167040E+01    0.1638053019384346E-03
    0.5004772673778115E+01    0.2775079906482894E-01    0.1903478008447630E-03
    0.5003581183341212E+01   -0.1225853508883527E+01    0.1607765204486571E-03
    0.5001952533742191E+01   -0.2496589036641631E+01    0.1082258890302562E-03
    0.3750348111606544E+01   -0.2496589036641631E+01    0.1458753696815807E-03
    0.2498611462994928E+01   -0.2496589036641631E+01    0.1008933264248224E-03
    0.1247175269333276E+01   -0.2496589036641631E+01    0.1108587619169653E-03
   -0.3383959865719266E-02   -0.2496589036641631E+01    0.8107259626499754E-04
   -0.4257768979765597E-02   -0.1225734811642590E+01    0.3415458742295225E-04
   -0.5251592448509257E-02    0.2619486024420451E-01    0.1038724387187892E-03
   -0.5676060312426845E-02    0.1278221569065707E+01    0.8224601702150302E-04
    0.9003209617952581E+00    0.1608979112280158E+01    0.8704140727688787E-04
    0.3983172210692289E+01   -0.1561211904840279E+01    0.1757116720370610E-03
    0.4035602039224469E+01    0.1486760030415520E+01    0.1713312862107730E-03
    0.1036613723302902E+01   -0.1455626429916848E+01    0.1047189301532912E-03
    0.1094353480630802E+01   -0.2964622010671852E+00    0.1260590236917253E-03
    0.7298400267480001E+00    0.6874684746719117E+00    0.1044598640544945E-03
    0.1617018659308944E+01    0.8553208024939369E+00    0.1529810904974387E-03
    0.2143199662875790E+01   -0.1627128509216727E+01    0.1606170425226823E-03
    0.4088840445400889E+01   -0.4351047825936264E+00    0.2719933294109134E-03
    0.2977916511248925E+01   -0.8334991483094500E+00    0.2245596931861877E-03
    0.3044093241383418E+01   -0.1814361225108581E+01    0.1617000112420504E-03
    0.3427866614805211E+01    0.3813904839972511E+00    0.2936955483449149E-03
    0.4313225355351749E+01    0.5489133376342481E+00    0.2313009573592373E-03
    0.1823032737597358E+01    0.1771265193544254E+01    0.1836202887151583E-03
    0.2806311152168375E+01    0.1358629373600680E+01    0.1943492163983811E-03
    0.1891860875936711E+01   -0.8481310365607546E+00    0.1670645501816170E-03
    0.2268769200166909E+01    0.7723691819196564E-01    0.2072307783084747E-03
    0.5000000000000000E+01    0.2504941971167291E+01    0.1250000000000000E+01
    0.5000000000000000E+01    0.2504941971167291E+01    0.2500000000000000E+01
    0.5000000000000000E+01    0.2504941971167291E+01    0.3750000000000000E+01
    0.5000000000000000E+01    0.2504941971167291E+01    0.5000000000000000E+01
    0.3750000000000000E+01    0.2504941971167291E+01    0.5000000000000000E+01
    0.2500000000000000E+01    0.2504941971167291E+01    0.5000000000000000E+01
    0.1250000000000000E+01    0.2504941971167291E+01    0.5000000000000000E+01
    0.0000000000000000E+00    0.2504941971167291E+01    0.5000000000000000E+01
    0.0000000000000000E+00    0.2504941971167291E+01    0.3750000000000000E+01
    0.0000000000000000E+00    0.2504941971167291E+01    0.2500000000000000E+01
    0.0000000000000000E+00    0.2504941971167291E+01    0.1250000000000000E+01
    0.9588956434871091E+00    0.2504941971167291E+01    0.9696525519543878E+00
    0.3981953078951401E+01    0.2504941971167291E+01    0.4070563854751271E+01
    0.4036122187252336E+01    0.2504941971167291E+01    0.1017567520094671E+01
    0.9637572773153887E+00    0.2504941971167291E+01    0.3973598203142229E+01
    0.1546540136992396E+01    0.2504941971167291E+01    0.2931570169315601E+01
    0.6973799521244312E+00    0.2504941971167291E+01    0.3070319952453756E+01
    0.8903742148356885E+00    0.2504941971167291E+01    0.2056562238187738E+01
    0.2183041995146012E+01    0.2504941971167291E+01    0.3960694449828019E+01
    0.3855844872709870E+01    0.2504941971167291E+01    0.2933250588118630E+01
    0.3152611367438029E+01    0.2504941971167291E+01    0.3637668388416195E+01
    0.3103307385241870E+01    0.2504941971167291E+01    0.4332607813099731E+01
    0.3266711045517940E+01    0.2504941971167291E+01    0.1889656617463739E+01
    0.4232537554484796E+01    0.2504941971167291E+01    0.1918626969802351E+01
    0.1905522374036519E+01    0.2504941971167291E+01    0.7226290832134610E+00
    0.2879767723645805E+01    0.2504941971167291E+01    0.9080945892181982E+00
    0.2012711365064515E+01    0.2504941971167291E+01    0.1767082390977754E+01
    0.2669681472994637E+01    0.2504941971167291E+01    0.2853394335010791E+01
    0.5000000000000000E+01    0.1250000000000000E+01    0.5000000000000000E+01
    0.5000000000000000E+01    0.0000000000000000E+00    0.5000000000000000E+01
    0.5000000000000000E+01   -0.1250000000000000E+01    0.5000000000000000E+01
    0.5000000000000000E+01   -0.2496589036641631E+01    0.5000000000000000E+01
    0.5000000000000000E+01   -0.2496589036641631E+01    0.3750000000000000E+01
    0.5000000000000000E+01   -0.2496589036641631E+01    0.2500000000000000E+01
    0.5000000000000000E+01   -0.2496589036641631E+01    0.1250000000000000E+01
    0.5000000000000000E+01    0.1578994732800803E+01    0.9058375365086910E+00
    0.5000000000000000E+01   -0.1583989954232354E+01    0.3982050490726493E+01
    0.5000000000000000E+01    0.1453322699199022E+01    0.4033849428301197E+01
    0.5000000000000000E+01   -0.1479596339503735E+01    0.1040505887381675E+01
    0.5000000000000000E+01   -0.3227322616384110E+00    0.1099454400140349E+01
    0.5000000000000000E+01    0.6593508822075582E+00    0.7354504170366591E+00
    0.5000000000000000E+01    0.8256214013940779E+00    0.1622302608453282E+01
    0.5000000000000000E+01   -0.1650070333782557E+01    0.2145871574390382E+01
    0.5000000000000000E+01   -0.4612828702537229E+00    0.4086422318222992E+01
    0.5000000000000000E+01   -0.8579242121530853E+00    0.2979540174134984E+01
    0.5000000000000000E+01   -0.1836846154397680E+01    0.3045064261640043E+01
    0.5000000000000000E+01    0.3508002863614053E+00    0.3428197553792836E+01
    0.5000000000000000E+01    0.5185680230613409E+00    0.4309693860063405E+01
    0.5000000000000000E+01    0.1738996113203182E+01    0.1827272193562204E+01
    0.5000000000000000E+01    0.1325493893339706E+01    0.2808563282768077E+01
    0.5000000000000000E+01   -0.8731419609589618E+00    0.1895995683864404E+01
    0.5000000000000000E+01    0.4906150219227333E-01    0.2273179336307740E+01
    0.0000000000000000E+00    0.1250000000000000E+01    0.5000000000000000E+01
    0.0000000000000000E+00    0.0000000000000000E+00    0.5000000000000000E+01
    0.0000000000000000E+00   -0.1250000000000000E+01    0.5000000000000000E+01
    0.0000000000000000E+00   -0.2496589036641631E+01    0.5000000000000000E+01
    0.1250000000000000E+01   -0.2496589036641631E+01    0.5000000000000000E+01
    0.2500000000000000E+01   -0.2496589036641631E+01    0.5000000000000000E+01
    0.3750000000000000E+01   -0.2496589036641631E+01    0.5000000000000000E+01
    0.4042003247744892E+01    0.1558308132739014E+01    0.5000000000000000E+01
    0.9304122287900499E+00   -0.1548001304379777E+01    0.5000000000000000E+01
    0.1037243024609388E+01    0.1462892710085612E+01    0.5000000000000000E+01
    0.3946240828834967E+01   -0.1445243809615570E+01    0.5000000000000000E+01
    0.4092527262848217E+01   -0.3455338993778935E+00    0.5000000000000000E+01
    0.4293103109154542E+01    0.6277660831404320E+00    0.5000000000000000E+01
    0.3241512314643519E+01    0.7429886854239611E+00    0.5000000000000000E+01
    0.2844289952419609E+01   -0.1588117879734118E+01    0.5000000000000000E+01
    0.7159905765450471E+00   -0.6002320124191652E+00    0.5000000000000000E+01
    0.1754341919796891E+01   -0.7398147869923652E+00    0.5000000000000000E+01
    0.1870296826774691E+01   -0.1788622905643739E+01    0.5000000000000000E+01
    0.9220614901912976E+00    0.3083720183248586E+00    0.5000000000000000E+01
    0.3101523624086016E+01    0.1777901774806180E+01    0.5000000000000000E+01
    0.2192512063922564E+01    0.1576861561598471E+01    0.5000000000000000E+01
    0.2024793420196460E+01    0.4773861992750707E+00    0.5000000000000000E+01
    0.2990627757741975E+01   -0.4878110785814084E+00    0.5000000000000000E+01
    0.0000000000000000E+00   -0.2496589036641631E+01    0.1250000000000000E+01
    0.0000000000000000E+00   -0.2496589036641631E+01    0.2500000000000000E+01
    0.0000000000000000E+00   -0.2496589036641631E+01    0.3750000000000000E+01
    0.0000000000000000E+00    0.1558308132739014E+01    0.4042003247744892E+01
    0.0000000000000000E+00   -0.1548001304379777E+01    0.9304122287900499E+00
    0.0000000000000000E+00    0.1462892710085612E+01    0.1037243024609388E+01
    0.0000000000000000E+00   -0.1445243809615570E+01    0.3946240828834967E+01
    0.0000000000000000E+00   -0.3455338993778935E+00    0.4092527262848217E+01
    0.0000000000000000E+00    0.6277660831404320E+00    0.4293103109154542E+01
    0.0000000000000000E+00    0.7429886854239611E+00    0.3241512314643519E+01
    0.0000000000000000E+00   -0.1588117879734118E+01    0.2844289952419609E+01
    0.0000000000000000E+00   -0.6002320124191652E+00    0.7159905765450471E+00
    0.0000000000000000E+00   -0.7398147869923652E+00    0.1754341919796891E+01
    0.0000000000000000E+00   -0.1788622905643739E+01    0.1870296826774691E+01
    0.0000000000000000E+00    0.3083720183248586E+00    0.9220614901912976E+00
    0.0000000000000000E+00    0.1777901774806180E+01    0.3101523624086016E+01
    0.0000000000000000E+00    0.1576861561598471E+01    0.2192512063922564E+01
[...]
POINT_DATA 213
SCALARS rho double 1
LOOKUP_TABLE default
   0.1346125694796170E+01
   0.9572084527647174E+00
   0.9461020639078127E+00
   0.9421833077514700E+00
   0.8436100785905047E+00
   0.7742024922725257E+00
   0.7627632914204218E+00
   0.7661496233415017E+00
   0.8310481703367264E+00
   0.9353608197671143E+00
   0.9344036383958096E+00
   0.9615898876470028E+00
   0.1448480208888123E+01
   0.1495421840745494E+01
   0.1646754928386005E+01
   0.1426608058877443E+01
   0.1009808068720545E+01
   0.9511456929613185E+00
   0.9438291099370214E+00
   0.9574489508572962E+00
   0.9414832416640702E+00
   0.1037118221425503E+01
   0.9258147537148551E+00
   0.9322497228173979E+00
   0.9538141799783572E+00
   0.9520438484218448E+00
   0.9350971720205272E+00
   0.9565537237118932E+00
   0.9378700247680081E+00
   0.9303318784868111E+00
   0.9446515867126494E+00
   0.8862352513653066E+00
   0.9424046836435387E+00
   0.9637217255546102E+00
   0.1008362577771465E+01
   0.1006713364979951E+01
   0.1001959240549336E+01
   0.1003218316276311E+01
   0.1004120538082294E+01
   0.1005207992650281E+01
   0.1004249813847909E+01
   0.1008267843881787E+01
   0.1023867443067885E+01
   0.1063751875324936E+01
   0.1019386187162553E+01
   0.1001778934113208E+01
   0.9645975233959363E+00
   0.1005263110528869E+01
   0.1000745578316710E+01
   0.1008695104813589E+01
   0.1008032475142374E+01
   0.1002354650880921E+01
   0.9980224682790610E+00
   0.1000594440604981E+01
   0.1001621537589701E+01
   0.9828107810948311E+00
   0.9844011041687633E+00
   0.9834292502931207E+00
   0.9790423922415691E+00
   0.9904798796909299E+00
   0.9935224893886211E+00
   0.1002009103475673E+01
   0.1002132311998028E+01
   0.1002273033582340E+01
   0.1001793219489189E+01
   0.1009814972833392E+01
   0.1006499311746351E+01
   0.9560849990714086E+00
   0.9252996566846418E+00
   0.1007053712651865E+01
   0.1004491538498357E+01
   0.9144889717497033E+00
   0.9091476761027150E+00
   0.8752502590928944E+00
   0.9768039036525079E+00
   0.1000530366597898E+01
   0.1005826553460180E+01
   0.1012895293779665E+01
   0.1011677102427478E+01
   0.1010415988351595E+01
   0.1005456560095715E+01
   0.9909260255110178E+00
   0.1005152543423358E+01
   0.9860803849583185E+00
   0.1005592650627448E+01
   0.1004239968494962E+01
   0.1002886283632249E+01
   0.1003350788888627E+01
   0.1003998912068584E+01
   0.1005116700254013E+01
   0.1003224183257986E+01
   0.1002669183700800E+01
   0.1002590255848407E+01
   0.1004070004659132E+01
   0.1004304937933142E+01
   0.1001643036025504E+01
   0.1002279357321899E+01
   0.1002547248781977E+01
   0.1003472641567325E+01
   0.1003380931080901E+01
   0.1003233776571532E+01
   0.1004430854293400E+01
   0.1004325283197199E+01
   0.1003653379478006E+01
   0.1003719191863772E+01
   0.1004319534138409E+01
   0.1004463155501089E+01
   0.1003629980599647E+01
   0.1064490581493545E+01
   0.1028445780971468E+01
   0.1009607603147356E+01
   0.1006626774102676E+01
   0.1163979474301378E+01
   0.1086026004530846E+01
   0.1007908398971676E+01
   0.1007252664643614E+01
   0.1006796746946193E+01
   0.1013053608644298E+01
   0.1019342644427341E+01
   0.1235143811205287E+01
   0.1032536232933634E+01
   0.1046567728934203E+01
   0.1201703012923367E+01
   0.1014671125332393E+01
   0.1032295324199352E+01
   0.1028222151031622E+01
   0.1014641483573336E+01
   0.1029002257770446E+01
   0.1002002818476381E+01
   0.9607830580820067E+00
   0.1006859706957371E+01
   0.1001326954010039E+01
   0.1010800868392034E+01
   0.1012237273234303E+01
   0.1000940436429746E+01
   0.9979317235317202E+00
   0.9980683699440427E+00
   0.1001191956733436E+01
   0.9841985797708261E+00
   0.9815070579349496E+00
   0.9648654914695793E+00
   0.9680713427302869E+00
   0.9914149190810118E+00
   0.9910916479216320E+00
   0.9925598184525992E+00
   0.1001728510387250E+01
   0.9993250772469865E+00
   0.9941444029265148E+00
   0.1006981383545158E+01
   0.1022611654050734E+01
   0.1001121691833200E+01
   0.1008784265586799E+01
   0.1004775043985261E+01
   0.1009029447306728E+01
   0.9967197949768091E+00
   0.1005567613152644E+01
   0.1003325685873304E+01
   0.9949865129967020E+00
   0.9833521892790531E+00
   0.9944521638504091E+00
   0.9973482230863591E+00
   0.9932519263849511E+00
   0.1001312608249049E+01
   0.1003001448725934E+01
   0.1002189173482838E+01
   0.9947119516184391E+00
   0.9937839725485351E+00
   0.1004862069432106E+01
   0.1020102936709553E+01
   0.1005341234391229E+01
   0.9817063601277447E+00
   0.1004975501327930E+01
   0.1012376568815317E+01
   0.9873747459242618E+00
   0.9551282272141164E+00
   0.9865280377056410E+00
   0.9865952832622858E+00
   0.9920084248960093E+00
   0.9934470865439925E+00
   0.9960657346530505E+00
   0.1037405690909356E+01
   0.1033165796316030E+01
   0.1001443358073574E+01
   0.1001929574473309E+01
   0.9912286695852768E+00
   0.9911121698768731E+00
   0.9649300819288702E+00
   0.9933729920342937E+00
   0.1006089075111743E+01
   0.1001962080811798E+01
   0.9908628495068610E+00
   0.9742274508734904E+00
   0.9420781785086655E+00
   0.9821604770833179E+00
   0.9794777371334421E+00
   0.9704352201667026E+00
   0.9720842372276906E+00
   0.9557868488075297E+00
   0.9497981758175310E+00
   0.9529847958461067E+00
   0.1002637256815284E+01
   0.1002476301970757E+01
   0.1000513242287925E+01
   0.1001675737919763E+01
   0.9610108169557017E+00
   0.9492469479940653E+00
   0.9586432519906314E+00
   0.1001121462568686E+01
   0.1000500591166405E+01
   0.1001161102485526E+01
   0.9807429276960816E+00
   0.9805608284045665E+00
   0.9629214371681071E+00
SCALARS u double 1
LOOKUP_TABLE default
   0.0000000000000000E+00
   0.0000000000000000E+00
   0.0000000000000000E+00
   0.0000000000000000E+00
   0.0000000000000000E+00
   0.0000000000000000E+00
   0.0000000000000000E+00
   0.0000000000000000E+00
   0.0000000000000000E+00
   0.0000000000000000E+00
   0.0000000000000000E+00
   0.0000000000000000E+00
   0.0000000000000000E+00
   0.0000000000000000E+00
   0.0000000000000000E+00
   0.0000000000000000E+00
   0.0000000000000000E+00
   0.0000000000000000E+00
   0.0000000000000000E+00
   0.0000000000000000E+00
   0.0000000000000000E+00
   0.0000000000000000E+00
   0.0000000000000000E+00
   0.0000000000000000E+00
   0.0000000000000000E+00
   0.0000000000000000E+00
   0.0000000000000000E+00
   0.0000000000000000E+00
   0.0000000000000000E+00
   0.0000000000000000E+00
   0.0000000000000000E+00
   0.0000000000000000E+00
   0.0000000000000000E+00
   0.4946084390403323E+00
   0.5336296229396229E+00
   0.5182737288741380E+00
   0.4930696975718003E+00
   0.4847718119408580E+00
   0.4868108136215764E+00
   0.4891429098222743E+00
   0.4958014376856375E+00
   0.4899016128305101E+00
   0.4718097598415653E+00
   0.4448926899587169E+00
   0.4844425910270774E+00
   0.5097672109152636E+00
   0.4402157107389260E+00
   0.4949584587264925E+00
   0.5222981757400273E+00
   0.4962761335160897E+00
   0.5223877814044895E+00
   0.5038134104987522E+00
   0.5644352140169032E+00
   0.5245862239270118E+00
   0.4990946955700135E+00
   0.5729384848058996E+00
   0.5693720714277644E+00
   0.3752129680555535E+00
   0.4003935337289380E+00
   0.5599622500290231E+00
   0.5562276759088325E+00
   0.4942631174083057E+00
   0.4948654038379425E+00
   0.4925634782160276E+00
   0.4913991786278473E+00
   0.5162611628896523E+00
   0.5363588932424881E+00
   0.4951213607875153E+00
   0.4520531595291050E+00
   0.5129024774601986E+00
   0.5117690526466568E+00
   0.4786251287211858E+00
   0.4931155293858618E+00
   0.4600306954373319E+00
   0.5242629198942662E+00
   0.5299866667529139E+00
   0.5129711999262132E+00
   0.5328938855274175E+00
   0.5309772093587930E+00
   0.5309771260032690E+00
   0.5063651410167983E+00
   0.5279605765589324E+00
   0.5409254473520705E+00
   0.5363677255166451E+00
   0.5374194372046833E+00
   0.4965359093627156E+00
   0.4975361620576700E+00
   0.4963807509447983E+00
   0.4955144774623507E+00
   0.4904151887411503E+00
   0.4902491479027393E+00
   0.4861626503315316E+00
   0.4854037739486350E+00
   0.4931941380558103E+00
   0.4910329234529699E+00
   0.4831698316704774E+00
   0.4872469605539425E+00
   0.4880010969404897E+00
   0.4872294036566913E+00
   0.4882160211825602E+00
   0.4952567366102100E+00
   0.4900705809522939E+00
   0.4903581267311297E+00
   0.4944346859693040E+00
   0.4868163397682809E+00
   0.4892720557096086E+00
   0.4881455378810495E+00
   0.4878245184536373E+00
   0.4449022026406371E+00
   0.4700099664047586E+00
   0.4891756201751468E+00
   0.4885980866227754E+00
   0.4510286412221171E+00
   0.4681799610771218E+00
   0.4876648975240564E+00
   0.4868253758067014E+00
   0.4909267533148831E+00
   0.4793946319363188E+00
   0.4657884653213602E+00
   0.3794302312506669E+00
   0.4903697421167733E+00
   0.4487929174615830E+00
   0.4432385355260891E+00
   0.4845729179217871E+00
   0.4621884481320297E+00
   0.4663602298884580E+00
   0.4747774268406427E+00
   0.4893613112006180E+00
   0.5085681474237974E+00
   0.4304904287089588E+00
   0.4927280753895716E+00
   0.5320316185099452E+00
   0.4913826501723290E+00
   0.5209404404684792E+00
   0.5061319828047662E+00
   0.5690636320469999E+00
   0.5275039918422005E+00
   0.5015047795155801E+00
   0.5821373618613810E+00
   0.5691503700217414E+00
   0.3402452490602642E+00
   0.3785432685556855E+00
   0.5753091283338714E+00
   0.5668547247073884E+00
   0.5703055450940469E+00
   0.5291879661617327E+00
   0.5449833828652857E+00
   0.5719093999232530E+00
   0.5385694587091793E+00
   0.5475896936889280E+00
   0.5821565652939826E+00
   0.4925313046001148E+00
   0.5041557177772626E+00
   0.4961299804140887E+00
   0.5562803684740080E+00
   0.4757814624157540E+00
   0.4950174786318901E+00
   0.5496174672072780E+00
   0.5889519110818260E+00
   0.5839568631087245E+00
   0.5468163498067902E+00
   0.5803877175569186E+00
   0.5106055693788857E+00
   0.5029532236716214E+00
   0.5033085380851461E+00
   0.5676232052870119E+00
   0.5564629528967073E+00
   0.4947135441323419E+00
   0.5506799461326949E+00
   0.5513545696829873E+00
   0.5658254157230912E+00
   0.4919953536842102E+00
   0.4927852057935228E+00
   0.3865438338108554E+00
   0.3687907202102864E+00
   0.5574381187364846E+00
   0.5761778935277850E+00
   0.4194381851565619E+00
   0.5822999347244219E+00
   0.4268238595782715E+00
   0.5397390504913868E+00
   0.5016174621437437E+00
   0.5119228251417913E+00
   0.5048434168007316E+00
   0.5752768158184661E+00
   0.5878367583822554E+00
   0.5382358738623331E+00
   0.5679645541100908E+00
   0.5352016964049804E+00
   0.5338463699699367E+00
   0.5582293100247256E+00
   0.5511563293009438E+00
   0.4256775843519406E+00
   0.5272986084059182E+00
   0.5796794667591803E+00
   0.3318312940209044E+00
   0.4761441131774730E+00
   0.5446494937269640E+00
   0.4800669226981654E+00
   0.3006201115470306E+00
   0.5031625243250784E+00
   0.5017180913079288E+00
   0.5129133729797091E+00
   0.5414117118086929E+00
   0.3435217015008361E+00
   0.3398080158395742E+00
   0.3190194433778099E+00
   0.5066187045011924E+00
   0.5123864689540958E+00
   0.5329068386150690E+00
   0.5881307275880260E+00
   0.4644883168924278E+00
   0.3529622376807836E+00
SCALARS v double 1
LOOKUP_TABLE default
   0.0000000000000000E+00
   0.0000000000000000E+00
   0.0000000000000000E+00
   0.0000000000000000E+00
   0.0000000000000000E+00
   0.0000000000000000E+00
   0.0000000000000000E+00
   0.0000000000000000E+00
   0.0000000000000000E+00
   0.0000000000000000E+00
   0.0000000000000000E+00
   0.0000000000000000E+00
   0.0000000000000000E+00
   0.0000000000000000E+00
   0.0000000000000000E+00
   0.0000000000000000E+00
   0.0000000000000000E+00
   0.0000000000000000E+00
   0.0000000000000000E+00
   0.0000000000000000E+00
   0.0000000000000000E+00
   0.0000000000000000E+00
   0.0000000000000000E+00
   0.0000000000000000E+00
   0.0000000000000000E+00
   0.0000000000000000E+00
   0.0000000000000000E+00
   0.0000000000000000E+00
   0.0000000000000000E+00
   0.0000000000000000E+00
   0.0000000000000000E+00
   0.0000000000000000E+00
   0.0000000000000000E+00
   0.0000000000000000E+00
   0.0000000000000000E+00
   0.0000000000000000E+00
   0.0000000000000000E+00
   0.0000000000000000E+00
   0.0000000000000000E+00
   0.0000000000000000E+00
   0.0000000000000000E+00
   0.0000000000000000E+00
   0.0000000000000000E+00
   0.0000000000000000E+00
   0.0000000000000000E+00
   0.0000000000000000E+00
   0.0000000000000000E+00
   0.0000000000000000E+00
   0.0000000000000000E+00
   0.0000000000000000E+00
   0.0000000000000000E+00
   0.0000000000000000E+00
   0.0000000000000000E+00
   0.0000000000000000E+00
   0.0000000000000000E+00
   0.0000000000000000E+00
   0.0000000000000000E+00
   0.0000000000000000E+00
   0.0000000000000000E+00
   0.0000000000000000E+00
   0.0000000000000000E+00
   0.8513955360456437E-03
  -0.1262646023070862E-02
  -0.1293747196402141E-02
   0.0000000000000000E+00
   0.0000000000000000E+00
   0.0000000000000000E+00
   0.0000000000000000E+00
  -0.1933774494544292E-01
   0.5035656971513027E-03
   0.2213150726906947E-02
   0.1419313534927967E-01
  -0.6753674551775112E-02
  -0.8171004420976499E-02
  -0.1325788718021249E-01
   0.4993929178383131E-02
   0.7358934070793273E-03
   0.3478388764906054E-02
   0.1946723832699841E-02
   0.3168072266655697E-02
   0.1755557793783747E-02
  -0.7295454604877001E-02
  -0.6912294258187635E-04
   0.4552258095460632E-02
  -0.4165984000319174E-03
  -0.6650692158940961E-04
  -0.2024618782411810E-03
   0.8052041902678973E-03
   0.0000000000000000E+00
   0.0000000000000000E+00
   0.0000000000000000E+00
   0.0000000000000000E+00
   0.4747328653202161E-03
   0.1624022890307263E-02
  -0.1273125041853476E-02
  -0.9977717767275475E-03
  -0.2076428544262223E-02
  -0.9960615485158078E-03
  -0.7502640411775583E-03
  -0.7419340926140746E-03
   0.6055381866026694E-04
  -0.5966235993541772E-03
   0.8041021995715875E-03
  -0.1730002248433707E-02
   0.3146405561654642E-03
  -0.5710223163296494E-04
  -0.8890514618102995E-03
  -0.1052087353788895E-02
   0.0000000000000000E+00
   0.0000000000000000E+00
   0.0000000000000000E+00
  -0.1035601496445952E-02
  -0.7789944224353453E-02
   0.1821259126100580E-01
  -0.2902416971198551E-04
  -0.1377098222241723E-02
  -0.2028456947005595E-02
  -0.5613671772718899E-02
  -0.1620474381078358E-02
  -0.6357462322349039E-02
  -0.4327186037956836E-02
   0.1517793743078139E-02
   0.3300594270581618E-01
   0.4394529829090662E-04
  -0.2766565870397099E-02
   0.3629287488198412E-02
   0.3910358756425086E-03
   0.0000000000000000E+00
   0.0000000000000000E+00
   0.0000000000000000E+00
   0.0000000000000000E+00
   0.0000000000000000E+00
   0.0000000000000000E+00
   0.0000000000000000E+00
   0.0000000000000000E+00
   0.0000000000000000E+00
   0.0000000000000000E+00
   0.0000000000000000E+00
   0.0000000000000000E+00
   0.0000000000000000E+00
   0.0000000000000000E+00
   0.0000000000000000E+00
   0.0000000000000000E+00
   0.0000000000000000E+00
   0.5001778196299259E-02
   0.3214065065724354E-02
   0.8126045455210956E-02
   0.6096300950008760E-02
   0.1117411732735717E-01
   0.1403811528123833E-01
  -0.3216221144902826E-03
   0.5161911444149812E-02
   0.2930107585324241E-02
   0.3378096200237988E-02
   0.3728544903383940E-02
  -0.1469573980207885E-01
  -0.6136953896330408E-03
   0.6639776179997891E-02
   0.1457244614325040E-02
   0.1959300739019107E-02
   0.4263980430204636E-02
  -0.2812426158145826E-02
   0.1267609577194922E-02
   0.2851959414342224E-02
   0.1534868031406000E-02
   0.2563344866180412E-02
   0.2013569101301823E-02
   0.2154333995320285E-02
   0.8583998694346187E-02
  -0.3830083253380412E-02
   0.6155698670902281E-02
   0.4725666910427461E-04
  -0.4231582248168133E-03
  -0.1674129340542775E-01
  -0.4996659887244722E-02
  -0.4827349435059717E-02
   0.3399378242596305E-02
  -0.6077437487939963E-02
   0.3194967241532673E-04
  -0.3284948881754278E-01
  -0.3181989491005423E-02
   0.4581319063920280E-02
   0.9682240723920653E-03
   0.2133486665784279E-02
   0.4530687697946823E-02
   0.2692787741503399E-02
   0.3243073203971221E-02
   0.5223605127043885E-02
   0.1957627594950373E-02
   0.7485460677649238E-03
  -0.5693750210214655E-04
  -0.5322690140562172E-02
  -0.6972866624888615E-02
  -0.9635303160447707E-03
   0.1062718465646785E-02
  -0.2106021482052336E-02
  -0.3219291745888226E-02
  -0.2544864648770725E-02
  -0.4131306124126631E-02
  -0.7566170041721381E-02
  -0.2012358476861123E-02
   0.6515130175091079E-03
  -0.1916276468161879E-03
   0.1227816750976967E-02
  -0.3502806472663001E-02
   0.4846684277736503E-02
  -0.8642681610464087E-02
   0.3341930297514899E-04
  -0.3327777675258512E-03
   0.2558606058705640E-02
   0.1615750370951239E-02
   0.2039006090882560E-02
  -0.5641501447131514E-02
SCALARS w double 1
LOOKUP_TABLE default
   0.0000000000000000E+00
   0.0000000000000000E+00
   0.0000000000000000E+00
   0.0000000000000000E+00
   0.0000000000000000E+00
   0.0000000000000000E+00
   0.0000000000000000E+00
   0.0000000000000000E+00
   0.0000000000000000E+00
   0.0000000000000000E+00
   0.0000000000000000E+00
   0.0000000000000000E+00
   0.0000000000000000E+00
   0.0000000000000000E+00
   0.0000000000000000E+00
   0.0000000000000000E+00
   0.0000000000000000E+00
   0.0000000000000000E+00
   0.0000000000000000E+00
   0.0000000000000000E+00
   0.0000000000000000E+00
   0.0000000000000000E+00
   0.0000000000000000E+00
   0.0000000000000000E+00
   0.0000000000000000E+00
   0.0000000000000000E+00
   0.0000000000000000E+00
   0.0000000000000000E+00
   0.0000000000000000E+00
   0.0000000000000000E+00
   0.0000000000000000E+00
   0.0000000000000000E+00
   0.0000000000000000E+00
  -0.1007241858922386E+00
  -0.4245528620582260E-01
   0.7158753615133571E-03
   0.5704943558367310E-02
   0.5684952911830795E-03
   0.1606878242802231E-02
   0.3372604798001291E-02
   0.2364299402580788E-02
   0.4720647222280903E-03
   0.3528387233049995E-02
   0.4533336070131305E-01
   0.6563397479811807E-01
   0.8384124266402438E-03
  -0.2266132317405319E-01
   0.4271064976064110E-02
   0.1341970173599616E-01
   0.1029750710298234E-01
   0.4870834203713930E-01
   0.2381551735219465E-02
  -0.6534999693243359E-02
  -0.7372433721275777E-03
   0.3056375870810983E-03
   0.3846852349355232E-02
  -0.3893635252290508E-01
   0.1820273584096770E-01
   0.1120446069783523E-01
   0.3395774046043960E-01
   0.8380191415442557E-02
   0.4924617876955415E-02
   0.4973761413440692E-02
   0.4900522917452519E-02
   0.6056718409337485E-02
   0.2695309307556322E-02
  -0.4127769734062092E-01
  -0.9927104317847388E-01
  -0.1120360380853804E+00
   0.5144525313309929E-02
   0.4216388428307137E-02
  -0.1002595860482228E+00
  -0.9892594349067897E-01
  -0.9835483711505397E-01
  -0.9443969382457090E-01
  -0.6790972039197393E-01
   0.5196996620979271E-02
  -0.1927315220195648E-01
  -0.1563508313095237E-01
  -0.5964345919506194E-02
   0.6822779802463576E-02
  -0.7999951897209530E-01
  -0.2776431479434704E-01
  -0.8086526756575460E-01
  -0.5863339146028247E-01
   0.3073989812114064E-02
   0.2685175147708198E-02
   0.2644703078773939E-02
   0.3457404374779334E-02
   0.3998529298518705E-02
   0.1199876519474486E-02
  -0.1355432377609590E-03
   0.2028966191358811E-02
   0.4894373680660025E-02
   0.3864560753655511E-02
   0.1126430713199883E-02
   0.1188310627292489E-02
   0.1460245323282476E-02
  -0.2199459239790425E-04
   0.9121998348237989E-04
   0.4387187200717924E-02
   0.2712579859882983E-02
   0.2317255083762914E-02
   0.5007037344016714E-02
   0.1069971393883092E-02
   0.2707114404565270E-02
   0.2010664724066613E-02
   0.3391927294951267E-04
   0.8386260354652557E-01
   0.2832480964333916E-02
  -0.8469296581178877E-03
  -0.1274285298769018E-03
   0.1410903979825476E+00
   0.1236626536393905E+00
  -0.1228867735325765E-02
  -0.4383136247450818E-02
  -0.2804612791939596E-03
  -0.6477826838253232E-02
  -0.1895598713953931E-02
   0.1559394040483225E+00
   0.7528604328438609E-01
   0.2567550695077146E-01
   0.1661313051472772E+00