TITLE="fun3d_case_title"
VARIABLES="Iteration" "R_1" "R_2" "R_3" "R_4" "R_5" "C_L" "C_D" "C_M_x" "C_M_y" "C_M_z" "Wall Time" "C_x" "C_y" "C_z" "C_Lp" "C_Dp" "C_Lv" "C_Dv" "C_M_xp" "C_M_yp" "C_M_zp" "C_M_xv" "C_M_yv" "C_M_zv" "C_xp" "C_yp" "C_zp" "C_xv" "C_yv" "C_zv"
ZONE  I=100 F=POINT
1  0.2160287136E-01  0.2804887047E-01  0.2161193411E-02  0.5316853910E-02  0.5302292613E-01 -0.4827319000E+01  0.4117804032E-02 -0.2090018925E+00 -0.3520877703E+00 -0.3609482574E-04  0.4626000000E+00  0.4117804032E-02  0.7182703188E-05 -0.4827319000E+01 -0.4827516630E+01  0.0000000000E+00  0.1976297389E-03  0.4117804032E-02 -0.2089972950E+00 -0.3519085436E+00  0.0000000000E+00 -0.4597491992E-05 -0.1792266777E-03 -0.3609482574E-04  0.0000000000E+00  0.0000000000E+00 -0.4827516630E+01  0.4117804032E-02  0.7182703188E-05  0.1976297389E-03
2  0.1278964999E-01  0.1580648512E-01  0.2338030527E-02  0.4999703334E-02  0.1764322493E-01 -0.3116929884E+01  0.3942370864E-02  0.5651544183E-01 -0.1152316406E+02 -0.7877446773E-04  0.5462000000E+00  0.3942370864E-02 -0.1147198876E-05 -0.3116929884E+01 -0.3117193272E+01  0.3113668128E-05  0.2633885887E-03  0.3939257196E-02  0.5651607129E-01 -0.1152304498E+02  0.1601644720E-05 -0.6294515469E-06 -0.1190742116E-03 -0.8037611245E-04  0.3113668128E-05  0.5202004247E-09 -0.3117193272E+01  0.3939257196E-02 -0.1147719077E-05  0.2633885887E-03
3  0.6945478998E-02  0.1078063419E-01  0.1715427255E-02  0.5327912634E-02  0.1220028767E-01 -0.1533161176E+01  0.4169345480E-02  0.3028222708E+00 -0.1877300138E+02  0.2765909425E-04  0.6132000000E+00  0.4169345480E-02 -0.5022745226E-05 -0.1533161176E+01 -0.1533451821E+01  0.3066729632E-03  0.2906453689E-03  0.3862672517E-02  0.3028146642E+00 -0.1877298454E+02  0.1883619264E-03  0.7606609051E-05 -0.1683034814E-04 -0.1607028322E-03  0.3066729632E-03  0.8092569909E-05 -0.1533451821E+01  0.3862672517E-02 -0.1311531514E-04  0.2906453689E-03
4  0.3318114781E-02  0.7857350820E-02  0.1665526207E-02  0.5107684520E-02  0.8874948691E-02 -0.2538685126E+00  0.4080924566E-02  0.4433962628E+00 -0.2211087869E+02 -0.1940639947E-04  0.6802000000E+00  0.4080924566E-02 -0.1311891621E-04 -0.2538685126E+00 -0.2541655432E+00  0.2792918190E-03  0.2970305726E-03  0.3801632747E-02  0.4433888240E+00 -0.2211094792E+02  0.1941860967E-03  0.7438856540E-05  0.6922401824E-04 -0.2135924962E-03  0.2792918190E-03  0.1124176607E-04 -0.2541655432E+00  0.3801632747E-02 -0.2436068228E-04  0.2970305726E-03
5  0.1781399396E-02  0.5336317364E-02  0.1195158170E-02  0.3672032612E-02  0.5451757084E-02  0.6596360296E+00  0.4007603645E-02  0.4300545548E+00 -0.2346153495E+02 -0.6636899762E-04  0.7340000000E+00  0.4007603645E-02 -0.2212415163E-04  0.6596360296E+00  0.6593429933E+00  0.2533040879E-03  0.2930363452E-03  0.3754299557E-02  0.4300488059E+00 -0.2346166148E+02  0.1839469978E-03  0.5748890220E-05  0.1265346522E-03 -0.2503159954E-03  0.2533040879E-03  0.1069888120E-04  0.6593429933E+00  0.3754299557E-02 -0.3282303283E-04  0.2930363452E-03
6  0.1176080086E-02  0.3581999630E-02  0.8787838586E-03  0.2175318635E-02  0.3275376577E-02  0.1205756155E+01  0.3956201911E-02  0.3609230255E+00 -0.2402688388E+02 -0.1010276505E-03  0.7970000000E+00  0.3956201911E-02 -0.2937924868E-04  0.1205756155E+01  0.1205470549E+01  0.2382242421E-03  0.2856053737E-03  0.3717977668E-02  0.3609179005E+00 -0.2402704316E+02  0.1720583297E-03  0.5125018441E-05  0.1592736995E-03 -0.2730859802E-03  0.2382242421E-03  0.9112993638E-05  0.1205470549E+01  0.3717977668E-02 -0.3849224232E-04  0.2856053737E-03
7  0.7247230859E-03  0.2445713935E-02  0.6491349372E-03  0.1381052820E-02  0.2002164355E-02  0.1538849905E+01  0.3925979726E-02  0.2882501710E+00 -0.2451741623E+02 -0.1250461947E-03  0.8507000000E+00  0.3925979726E-02 -0.3499073240E-04  0.1538849905E+01  0.1538569554E+01  0.2324154252E-03  0.2803509071E-03  0.3693564301E-02  0.2882445163E+00 -0.2451758998E+02  0.1628111139E-03  0.5654666397E-05  0.1737493684E-03 -0.2878573087E-03  0.2324154252E-03  0.7399068783E-05  0.1538569554E+01  0.3693564301E-02 -0.4238980118E-04  0.2803509071E-03
8  0.4166459301E-03  0.1693968356E-02  0.4375573438E-03  0.9596183345E-03  0.1341814859E-02  0.1661541955E+01  0.3909675514E-02  0.2532205301E+00 -0.2481422214E+02 -0.1384219475E-03  0.9137000000E+00  0.3909675514E-02 -0.3828428799E-04  0.1661541955E+01  0.1661264909E+01  0.2331237491E-03  0.2770461440E-03  0.3676551765E-02  0.2532134534E+00 -0.2481440357E+02  0.1586862292E-03  0.7076677356E-05  0.1814290175E-03 -0.2971081767E-03  0.2331237491E-03  0.6444011376E-05  0.1661264909E+01  0.3676551765E-02 -0.4472829936E-04  0.2770461440E-03
9  0.2677103439E-03  0.1171626133E-02  0.2850964578E-03  0.8726758391E-03  0.9428858690E-03  0.1684368729E+01  0.3900089375E-02  0.2529677492E+00 -0.2497576533E+02 -0.1448043332E-03  0.9675000000E+00  0.3900089375E-02 -0.3977385945E-04  0.1684368729E+01  0.1684093273E+01  0.2355856593E-03  0.2754557243E-03  0.3664503715E-02  0.2529591811E+00 -0.2497595227E+02  0.1580947200E-03  0.8568039686E-05  0.1869415387E-03 -0.3028990532E-03  0.2355856593E-03  0.6155266052E-05  0.1684093273E+01  0.3664503715E-02 -0.4592912550E-04  0.2754557243E-03
10  0.2243173013E-03  0.8118364428E-03  0.1858861934E-03  0.8700317080E-03  0.7313200949E-03  0.1789465983E+01  0.3895326091E-02  0.2731786520E+00 -0.2535714243E+02 -0.1466328957E-03  0.1029200000E+01  0.3895326091E-02 -0.3975002217E-04  0.1789465983E+01  0.1789189967E+01  0.2360151646E-03  0.2760159676E-03  0.3659310926E-02  0.2731688971E+00 -0.2535733018E+02  0.1595100328E-03  0.9754898210E-05  0.1877580373E-03 -0.3061429284E-03  0.2360151646E-03  0.6468546103E-05  0.1789189967E+01  0.3659310926E-02 -0.4621856827E-04  0.2760159676E-03
11  0.1457616104E-03  0.5351942404E-03  0.1312540111E-03  0.5109328394E-03  0.4379960033E-03  0.1793728102E+01  0.3890464182E-02  0.2830353236E+00 -0.2542913254E+02 -0.1488086671E-03  0.1285900000E+01  0.3890464182E-02 -0.4003531043E-04  0.1793728102E+01  0.1793452757E+01  0.2367081142E-03  0.2753450089E-03  0.3653756068E-02  0.2830251505E+00 -0.2542932483E+02  0.1598082538E-03  0.1017301507E-04  0.1922876071E-03 -0.3086169209E-03  0.2367081142E-03  0.6442412899E-05  0.1793452757E+01  0.3653756068E-02 -0.4647772333E-04  0.2753450089E-03
12  0.1246997286E-03  0.3678445582E-03  0.8505636907E-04  0.4768399467E-03  0.3526063479E-03  0.1857959741E+01  0.3887859250E-02  0.2978521681E+00 -0.2562975956E+02 -0.1485685114E-03  0.1347900000E+01  0.3887859250E-02 -0.3945898918E-04  0.1857959741E+01  0.1857684156E+01  0.2360829916E-03  0.2755858278E-03  0.3651776259E-02  0.2978414194E+00 -0.2562995307E+02  0.1609240489E-03  0.1074872765E-04  0.1935045230E-03 -0.3094925602E-03  0.2360829916E-03  0.6746781281E-05  0.1857684156E+01  0.3651776259E-02 -0.4620577046E-04  0.2755858278E-03
13  0.7518755019E-04  0.2409966443E-03  0.6651874459E-04  0.2487187581E-03  0.2199349554E-03  0.1863945436E+01  0.3885167601E-02  0.3009048229E+00 -0.2565338496E+02 -0.1489596408E-03  0.1400600000E+01  0.3885167601E-02 -0.3925637028E-04  0.1863945436E+01  0.1863670331E+01  0.2359116053E-03  0.2751051273E-03  0.3649255996E-02  0.3008938175E+00 -0.2565358118E+02  0.1610133135E-03  0.1100539194E-04  0.1962267945E-03 -0.3099729543E-03  0.2359116053E-03  0.6758217860E-05  0.1863670331E+01  0.3649255996E-02 -0.4601458814E-04  0.2751051273E-03
14  0.4846538090E-04  0.1534044271E-03  0.4563377462E-04  0.9560747169E-04  0.1368203146E-03  0.1877076687E+01  0.3883629397E-02  0.3019771593E+00 -0.2569233810E+02 -0.1491902160E-03  0.1453300000E+01  0.3883629397E-02 -0.3906466117E-04  0.1877076687E+01  0.1876801756E+01  0.2357095117E-03  0.2749313538E-03  0.3647919885E-02  0.3019659133E+00 -0.2569253556E+02  0.1610234781E-03  0.1124593214E-04  0.1974640895E-03 -0.3102136941E-03  0.2357095117E-03  0.6775108758E-05  0.1876801756E+01  0.3647919885E-02 -0.4583976992E-04  0.2749313538E-03
15  0.2743238429E-04  0.1019192757E-03  0.3249431205E-04  0.6668022057E-04  0.8729664802E-04  0.1883454523E+01  0.3882751533E-02  0.3024277579E+00 -0.2571142272E+02 -0.1492438136E-03  0.1505800000E+01  0.3882751533E-02 -0.3890310639E-04  0.1883454523E+01  0.1883179707E+01  0.2356351164E-03  0.2748161924E-03  0.3647116416E-02  0.3024163231E+00 -0.2571162091E+02  0.1610516490E-03  0.1143480411E-04  0.1981874273E-03 -0.3102954626E-03  0.2356351164E-03  0.6793303543E-05  0.1883179707E+01  0.3647116416E-02 -0.4569640993E-04  0.2748161924E-03
16  0.1644179356E-04  0.6748192150E-04  0.2251539776E-04  0.4630722581E-04  0.5810218579E-04  0.1886497043E+01  0.3882272960E-02  0.3028928296E+00 -0.2572117508E+02 -0.1492127375E-03  0.1557200000E+01  0.3882272960E-02 -0.3877838929E-04  0.1886497043E+01  0.1886222281E+01  0.2356276120E-03  0.2747614889E-03  0.3646645348E-02  0.3028812635E+00 -0.2572137364E+02  0.1610990816E-03  0.1156611105E-04  0.1985608373E-03 -0.3103118191E-03  0.2356276120E-03  0.6813764148E-05  0.1886222281E+01  0.3646645348E-02 -0.4559215344E-04  0.2747614889E-03
17  0.1092175251E-04  0.4618127951E-04  0.1539687065E-04  0.3049129190E-04  0.3869640466E-04  0.1888195649E+01  0.3882028402E-02  0.3033812005E+00 -0.2572723901E+02 -0.1491665640E-03  0.1608600000E+01  0.3882028402E-02 -0.3869202110E-04  0.1888195649E+01  0.1887920914E+01  0.2356455023E-03  0.2747353980E-03  0.3646382900E-02  0.3033695532E+00 -0.2572743777E+02  0.1611478974E-03  0.1164724977E-04  0.1987533637E-03 -0.3103144614E-03  0.2356455023E-03  0.6832027554E-05  0.1887920914E+01  0.3646382900E-02 -0.4552404865E-04  0.2747353980E-03
18  0.7192391776E-05  0.3214898272E-04  0.1046127956E-04  0.1937786986E-04  0.2531384418E-04  0.1889053398E+01  0.3881919284E-02  0.3038600473E+00 -0.2573094750E+02 -0.1491206705E-03  0.1669400000E+01  0.3881919284E-02 -0.3863230012E-04  0.1889053398E+01  0.1888778681E+01  0.2356714459E-03  0.2747167591E-03  0.3646247838E-02  0.3038483530E+00 -0.2573114637E+02  0.1611960190E-03  0.1169430926E-04  0.1988676743E-03 -0.3103166895E-03  0.2356714459E-03  0.6848219809E-05  0.1888778681E+01  0.3646247838E-02 -0.4548051993E-04  0.2747167591E-03
19  0.5027282356E-05  0.2338719881E-04  0.7214294000E-05  0.1186290889E-04  0.1775074122E-04  0.1889370675E+01  0.3881879977E-02  0.3042014140E+00 -0.2573284433E+02 -0.1490903125E-03  0.1720800000E+01  0.3881879977E-02 -0.3859341349E-04  0.1889370675E+01  0.1889095973E+01  0.2356939152E-03  0.2747019475E-03  0.3646186061E-02  0.3041896937E+00 -0.2573304327E+02  0.1612312741E-03  0.1172034315E-04  0.1989417457E-03 -0.3103215866E-03  0.2356939152E-03  0.6859837840E-05  0.1889095973E+01  0.3646186061E-02 -0.4545325133E-04  0.2747019475E-03
20  0.3614821772E-05  0.1750839921E-04  0.5068648815E-05  0.7583903235E-05  0.1330724523E-04  0.1889340916E+01  0.3881869895E-02  0.3044446851E+00 -0.2573336745E+02 -0.1490650670E-03  0.1772200000E+01  0.3881869895E-02 -0.3856566302E-04  0.1889340916E+01  0.1889066227E+01  0.2357091673E-03  0.2746890742E-03  0.3646160727E-02  0.3044329487E+00 -0.2573356645E+02  0.1612582508E-03  0.1173641343E-04  0.1989966928E-03 -0.3103233179E-03  0.2357091673E-03  0.6868617668E-05  0.1889066227E+01  0.3646160727E-02 -0.4543428069E-04  0.2746890742E-03
21  0.2734352596E-05  0.1322933120E-04  0.3604242912E-05  0.5026076476E-05  0.1023003946E-04  0.1889109308E+01  0.3881867619E-02  0.3046130612E+00 -0.2573297510E+02 -0.1490401689E-03  0.2002100000E+01  0.3881867619E-02 -0.3854420403E-04  0.1889109308E+01  0.1888834630E+01  0.2357179563E-03  0.2746779060E-03  0.3646149662E-02  0.3046013135E+00 -0.2573317414E+02  0.1612781876E-03  0.1174771192E-04  0.1990406627E-03 -0.3103183565E-03  0.2357179563E-03  0.6875094325E-05  0.1888834630E+01  0.3646149662E-02 -0.4541929835E-04  0.2746779060E-03
22  0.2106389622E-05  0.9920613447E-05  0.2570443088E-05  0.3444173290E-05  0.7791929971E-05  0.1888797986E+01  0.3881865516E-02  0.3047280037E+00 -0.2573214665E+02 -0.1490147326E-03  0.2052100000E+01  0.3881865516E-02 -0.3852697449E-04  0.1888797986E+01  0.1888523317E+01  0.2357225769E-03  0.2746687642E-03  0.3646142939E-02  0.3047162477E+00 -0.2573234572E+02  0.1612925710E-03  0.1175602900E-04  0.1990752142E-03 -0.3103073036E-03  0.2357225769E-03  0.6879732721E-05  0.1888523317E+01  0.3646142939E-02 -0.4540670721E-04  0.2746687642E-03
23  0.1616986376E-05  0.7347404602E-05  0.1829948741E-05  0.2441083301E-05  0.5816386505E-05  0.1888492777E+01  0.3881862583E-02  0.3048018805E+00 -0.2573125066E+02 -0.1489906642E-03  0.2102300000E+01  0.3881862583E-02 -0.3851341967E-04  0.1888492777E+01  0.1888218115E+01  0.2357250884E-03  0.2746619982E-03  0.3646137495E-02  0.3047901186E+00 -0.2573144976E+02  0.1613022861E-03  0.1176192120E-04  0.1991001876E-03 -0.3102929503E-03  0.2357250884E-03  0.6882823460E-05  0.1888218115E+01  0.3646137495E-02 -0.4539624313E-04  0.2746619982E-03
24  0.1230572508E-05  0.5366261315E-05  0.1292834344E-05  0.1779654108E-05  0.4259535415E-05  0.1888243626E+01  0.3881859774E-02  0.3048446091E+00 -0.2573050728E+02 -0.1489701091E-03  0.2152400000E+01  0.3881859774E-02 -0.3850330348E-04  0.1888243626E+01  0.1887968969E+01  0.2357266965E-03  0.2746574675E-03  0.3646133078E-02  0.3048328433E+00 -0.2573070640E+02  0.1613083001E-03  0.1176574537E-04  0.1991166780E-03 -0.3102784093E-03  0.2357266965E-03  0.6884690930E-05  0.1887968969E+01  0.3646133078E-02 -0.4538799441E-04  0.2746574675E-03
25  0.9247632066E-06  0.3864179060E-05  0.9036605940E-06  0.1311783282E-05  0.3067627534E-05  0.1888065625E+01  0.3881857800E-02  0.3048647501E+00 -0.2572998832E+02 -0.1489544665E-03  0.2202500000E+01  0.3881857800E-02 -0.3849630484E-04  0.1888065625E+01  0.1887790970E+01  0.2357279131E-03  0.2746546532E-03  0.3646129887E-02  0.3048529821E+00 -0.2573018745E+02  0.1613114862E-03  0.1176797369E-04  0.1991269402E-03 -0.3102659527E-03  0.2357279131E-03  0.6885638891E-05  0.1887790970E+01  0.3646129887E-02 -0.4538194373E-04  0.2746546532E-03
26  0.6836669816E-06  0.2741857596E-05  0.6239076742E-06  0.9623071737E-06  0.2172776740E-05  0.1887950189E+01  0.3881856719E-02  0.3048709546E+00 -0.2572966826E+02 -0.1489438799E-03  0.2252700000E+01  0.3881856719E-02 -0.3849186872E-04  0.1887950189E+01  0.1887675536E+01  0.2357288839E-03  0.2746529297E-03  0.3646127835E-02  0.3048591855E+00 -0.2572986739E+02  0.1613127730E-03  0.1176911552E-04  0.1991333888E-03 -0.3102566529E-03  0.2357288839E-03  0.6885978302E-05  0.1887675536E+01  0.3646127835E-02 -0.4537784702E-04  0.2746529297E-03
27  0.4952989646E-06  0.1916855221E-05  0.4256945632E-06  0.6951808460E-06  0.1511855291E-05  0.1887878659E+01  0.3881856217E-02  0.3048703706E+00 -0.2572948275E+02 -0.1489375539E-03  0.2303000000E+01  0.3881856217E-02 -0.3848931581E-04  0.1887878659E+01  0.1887604007E+01  0.2357296429E-03  0.2746518058E-03  0.3646126574E-02  0.3048586010E+00 -0.2572968189E+02  0.1613129808E-03  0.1176960919E-04  0.1991377851E-03 -0.3102505346E-03  0.2357296429E-03  0.6885978436E-05  0.1887604007E+01  0.3646126574E-02 -0.4537529424E-04  0.2746518058E-03
28  0.3517395406E-06  0.1321586886E-05  0.2880922518E-06  0.4922534268E-06  0.1033498217E-05  0.1887833178E+01  0.3881855966E-02  0.3048677777E+00 -0.2572937166E+02 -0.1489342584E-03  0.2353200000E+01  0.3881855966E-02 -0.3848798679E-04  0.1887833178E+01  0.1887558527E+01  0.2357302224E-03  0.2746509942E-03  0.3646125744E-02  0.3048560080E+00 -0.2572957080E+02  0.1613127349E-03  0.1176976688E-04  0.1991410792E-03 -0.3102469933E-03  0.2357302224E-03  0.6885841760E-05  0.1887558527E+01  0.3646125744E-02 -0.4537382855E-04  0.2746509942E-03
29  0.2456504678E-06  0.9005692766E-06  0.1950737309E-06  0.3417894643E-06  0.6957728298E-06  0.1887801529E+01  0.3881855783E-02  0.3048655317E+00 -0.2572929613E+02 -0.1489327997E-03  0.2403400000E+01  0.3881855783E-02 -0.3848735476E-04  0.1887801529E+01  0.1887526879E+01  0.2357306704E-03  0.2746503709E-03  0.3646125112E-02  0.3048537619E+00 -0.2572949528E+02  0.1613124155E-03  0.1176978153E-04  0.1991436392E-03 -0.3102452152E-03  0.2357306704E-03  0.6885691220E-05  0.1887526879E+01  0.3646125112E-02 -0.4537304598E-04  0.2746503709E-03
30  0.1698618258E-06  0.6083554095E-06  0.1337855297E-06  0.2339008143E-06  0.4638642364E-06  0.1887777367E+01  0.3881855623E-02  0.3048643499E+00 -0.2572923791E+02 -0.1489322661E-03  0.2463000000E+01  0.3881855623E-02 -0.3848706185E-04  0.1887777367E+01  0.1887502717E+01  0.2357310314E-03  0.2746498967E-03  0.3646124591E-02  0.3048525801E+00 -0.2572943705E+02  0.1613121995E-03  0.1176975625E-04  0.1991455700E-03 -0.3102444656E-03  0.2357310314E-03  0.6885583902E-05  0.1887502717E+01  0.3646124591E-02 -0.4537264575E-04  0.2746498967E-03
31  0.1171824329E-06  0.4086985255E-06  0.9395550095E-07  0.1591855538E-06  0.3085621181E-06  0.1887758246E+01  0.3881855508E-02  0.3048641329E+00 -0.2572919121E+02 -0.1489320891E-03  0.2693500000E+01  0.3881855508E-02 -0.3848690262E-04  0.1887758246E+01  0.1887483596E+01  0.2357313315E-03  0.2746495567E-03  0.3646124177E-02  0.3048523632E+00 -0.2572939035E+02  0.1613121279E-03  0.1176973670E-04  0.1991469300E-03 -0.3102442169E-03  0.2357313315E-03  0.6885532542E-05  0.1887483596E+01  0.3646124177E-02 -0.4537243517E-04  0.2746495567E-03
32  0.8118964513E-07  0.2738795820E-06  0.6789153990E-07  0.1091471590E-06  0.2063955566E-06  0.1887743436E+01  0.3881855460E-02  0.3048645380E+00 -0.2572915502E+02 -0.1489319827E-03  0.2742500000E+01  0.3881855460E-02 -0.3848678111E-04  0.1887743436E+01  0.1887468787E+01  0.2357315795E-03  0.2746493312E-03  0.3646123881E-02  0.3048527683E+00 -0.2572935417E+02  0.1613121730E-03  0.1176973593E-04  0.1991478139E-03 -0.3102441557E-03  0.2357315795E-03  0.6885527021E-05  0.1887468787E+01  0.3646123881E-02 -0.4537230813E-04  0.2746493312E-03
33  0.5660584307E-07  0.1835666620E-06  0.5032885236E-07  0.7653105794E-07  0.1395791880E-06  0.1887732572E+01  0.3881855476E-02  0.3048652403E+00 -0.2572912882E+02 -0.1489318473E-03  0.2791500000E+01  0.3881855476E-02 -0.3848666614E-04  0.1887732572E+01  0.1887457923E+01  0.2357317752E-03  0.2746491924E-03  0.3646123701E-02  0.3048534705E+00 -0.2572932796E+02  0.1613122852E-03  0.1176975148E-04  0.1991483477E-03 -0.3102441325E-03  0.2357317752E-03  0.6885549600E-05  0.1887457923E+01  0.3646123701E-02 -0.4537221574E-04  0.2746491924E-03
34  0.3960801407E-07  0.1233760433E-06  0.3797141099E-07  0.5531363282E-07  0.9563200795E-07  0.1887725102E+01  0.3881855533E-02  0.3048660132E+00 -0.2572911115E+02 -0.1489316782E-03  0.2840400000E+01  0.3881855533E-02 -0.3848655659E-04  0.1887725102E+01  0.1887450453E+01  0.2357319193E-03  0.2746491114E-03  0.3646123614E-02  0.3048542434E+00 -0.2572931030E+02  0.1613124190E-03  0.1176977578E-04  0.1991486553E-03 -0.3102440972E-03  0.2357319193E-03  0.6885583897E-05  0.1887450453E+01  0.3646123614E-02 -0.4537214049E-04  0.2746491114E-03
35  0.2766469414E-07  0.8339835751E-07  0.2887990152E-07  0.4090184449E-07  0.6636807190E-07  0.1887720279E+01  0.3881855605E-02  0.3048667243E+00 -0.2572909996E+02 -0.1489315034E-03  0.2889500000E+01  0.3881855605E-02 -0.3848645988E-04  0.1887720279E+01  0.1887445630E+01  0.2357320168E-03  0.2746490645E-03  0.3646123588E-02  0.3048549545E+00 -0.2572929911E+02  0.1613125440E-03  0.1176980168E-04  0.1991488324E-03 -0.3102440474E-03  0.2357320168E-03  0.6885618539E-05  0.1887445630E+01  0.3646123588E-02 -0.4537207842E-04  0.2746490645E-03
36  0.1919460068E-07  0.5690303384E-07  0.2196017743E-07  0.3040265271E-07  0.4662135212E-07  0.1887717332E+01  0.3881855672E-02  0.3048673117E+00 -0.2572909320E+02 -0.1489313495E-03  0.2938500000E+01  0.3881855672E-02 -0.3848638183E-04  0.1887717332E+01  0.1887442682E+01  0.2357320772E-03  0.2746490362E-03  0.3646123595E-02  0.3048555418E+00 -0.2572929235E+02  0.1613126451E-03  0.1176982463E-04  0.1991489399E-03 -0.3102439946E-03  0.2357320772E-03  0.6885647562E-05  0.1887442682E+01  0.3646123595E-02 -0.4537202939E-04  0.2746490362E-03
37  0.1319835156E-07  0.3933559501E-07  0.1660312017E-07  0.2237166415E-07  0.3313174434E-07  0.1887715614E+01  0.3881855724E-02  0.3048677601E+00 -0.2572908926E+02 -0.1489312302E-03  0.2987500000E+01  0.3881855724E-02 -0.3848632375E-04  0.1887715614E+01  0.1887440965E+01  0.2357321113E-03  0.2746490179E-03  0.3646123613E-02  0.3048559903E+00 -0.2572928841E+02  0.1613127193E-03  0.1176984271E-04  0.1991490100E-03 -0.3102439495E-03  0.2357321113E-03  0.6885669157E-05  0.1887440965E+01  0.3646123613E-02 -0.4537199291E-04  0.2746490179E-03
38  0.9001669986E-08  0.2761850231E-07  0.1245125815E-07  0.1617827876E-07  0.2379635248E-07  0.1887714659E+01  0.3881855760E-02  0.3048680826E+00 -0.2572908705E+02 -0.1489311469E-03  0.3036500000E+01  0.3881855760E-02 -0.3848628334E-04  0.1887714659E+01  0.1887440010E+01  0.2357321288E-03  0.2746490056E-03  0.3646123632E-02  0.3048563128E+00 -0.2572928619E+02  0.1613127699E-03  0.1176985588E-04  0.1991490576E-03 -0.3102439168E-03  0.2357321288E-03  0.6885683967E-05  0.1887440010E+01  0.3646123632E-02 -0.4537196730E-04  0.2746490056E-03
39  0.6110623849E-08  0.1969530050E-07  0.9262430724E-08  0.1148631227E-07  0.1723664648E-07  0.1887714161E+01  0.3881855785E-02  0.3048683051E+00 -0.2572908589E+02 -0.1489310933E-03  0.3085600000E+01  0.3881855785E-02 -0.3848625657E-04  0.1887714161E+01  0.1887439512E+01  0.2357321371E-03  0.2746489975E-03  0.3646123648E-02  0.3048565352E+00 -0.2572928504E+02  0.1613128030E-03  0.1176986502E-04  0.1991490894E-03 -0.3102438963E-03  0.2357321371E-03  0.6885693626E-05  0.1887439512E+01  0.3646123648E-02 -0.4537195020E-04  0.2746489975E-03
40  0.4149082128E-08  0.1422483152E-07  0.6844508630E-08  0.8020498654E-08  0.1255254219E-07  0.1887713931E+01  0.3881855801E-02  0.3048684556E+00 -0.2572908539E+02 -0.1489310609E-03  0.3144000000E+01  0.3881855801E-02 -0.3848623933E-04  0.1887713931E+01  0.1887439282E+01  0.2357321407E-03  0.2746489924E-03  0.3646123661E-02  0.3048566857E+00 -0.2572928454E+02  0.1613128244E-03  0.1176987123E-04  0.1991491095E-03 -0.3102438853E-03  0.2357321407E-03  0.6885699828E-05  0.1887439282E+01  0.3646123661E-02 -0.4537193915E-04  0.2746489924E-03
41  0.2832728445E-08  0.1035777648E-07  0.5032954121E-08  0.5519621707E-08  0.9161973074E-08  0.1887713855E+01  0.3881855813E-02  0.3048685579E+00 -0.2572908528E+02 -0.1489310421E-03  0.3372000000E+01  0.3881855813E-02 -0.3848622827E-04  0.1887713855E+01  0.1887439206E+01  0.2357321421E-03  0.2746489896E-03  0.3646123671E-02  0.3048567880E+00 -0.2572928443E+02  0.1613128384E-03  0.1176987545E-04  0.1991491213E-03 -0.3102438805E-03  0.2357321421E-03  0.6885703886E-05  0.1887439206E+01  0.3646123671E-02 -0.4537193215E-04  0.2746489896E-03
42  0.1953917105E-08  0.7566500206E-08  0.3687592666E-08  0.3750624256E-08  0.6686008278E-08  0.1887713859E+01  0.3881855822E-02  0.3048686294E+00 -0.2572908536E+02 -0.1489310314E-03  0.3419900000E+01  0.3881855822E-02 -0.3848622106E-04  0.1887713859E+01  0.1887439210E+01  0.2357321426E-03  0.2746489881E-03  0.3646123679E-02  0.3048568596E+00 -0.2572928451E+02  0.1613128479E-03  0.1176987835E-04  0.1991491277E-03 -0.3102438793E-03  0.2357321426E-03  0.6885706656E-05  0.1887439210E+01  0.3646123679E-02 -0.4537192772E-04  0.2746489881E-03
43  0.1366307750E-08  0.5522216307E-08  0.2693767394E-08  0.2521751908E-08  0.4870303775E-08  0.1887713899E+01  0.3881855829E-02  0.3048686812E+00 -0.2572908554E+02 -0.1489310251E-03  0.3467700000E+01  0.3881855829E-02 -0.3848621625E-04  0.1887713899E+01  0.1887439250E+01  0.2357321426E-03  0.2746489874E-03  0.3646123686E-02  0.3048569113E+00 -0.2572928469E+02  0.1613128546E-03  0.1176988039E-04  0.1991491309E-03 -0.3102438797E-03  0.2357321426E-03  0.6885708629E-05  0.1887439250E+01  0.3646123686E-02 -0.4537192488E-04  0.2746489874E-03
44  0.9698491655E-09  0.4013965359E-08  0.1961701942E-08  0.1682935894E-08  0.3537103699E-08  0.1887713948E+01  0.3881855834E-02  0.3048687197E+00 -0.2572908572E+02 -0.1489310214E-03  0.3515500000E+01  0.3881855834E-02 -0.3848621295E-04  0.1887713948E+01  0.1887439299E+01  0.2357321425E-03  0.2746489870E-03  0.3646123692E-02  0.3048569498E+00 -0.2572928486E+02  0.1613128594E-03  0.1176988183E-04  0.1991491325E-03 -0.3102438809E-03  0.2357321425E-03  0.6885710067E-05  0.1887439299E+01  0.3646123692E-02 -0.4537192302E-04  0.2746489870E-03
45  0.6978697218E-09  0.2899883352E-08  0.1423391208E-08  0.1119799524E-08  0.2558448959E-08  0.1887713992E+01  0.3881855838E-02  0.3048687487E+00 -0.2572908587E+02 -0.1489310191E-03  0.3563400000E+01  0.3881855838E-02 -0.3848621065E-04  0.1887713992E+01  0.1887439343E+01  0.2357321423E-03  0.2746489869E-03  0.3646123696E-02  0.3048569788E+00 -0.2572928502E+02  0.1613128629E-03  0.1176988285E-04  0.1991491332E-03 -0.3102438820E-03  0.2357321423E-03  0.6885711118E-05  0.1887439343E+01  0.3646123696E-02 -0.4537192177E-04  0.2746489869E-03
46  0.5071554355E-09  0.2079752673E-08  0.1028301984E-08  0.7468315109E-09  0.1841113741E-08  0.1887714027E+01  0.3881855841E-02  0.3048687705E+00 -0.2572908598E+02 -0.1489310176E-03  0.3611300000E+01  0.3881855841E-02 -0.3848620903E-04  0.1887714027E+01  0.1887439378E+01  0.2357321421E-03  0.2746489868E-03  0.3646123699E-02  0.3048570007E+00 -0.2572928513E+02  0.1613128654E-03  0.1176988357E-04  0.1991491335E-03 -0.3102438830E-03  0.2357321421E-03  0.6885711878E-05  0.1887439378E+01  0.3646123699E-02 -0.4537192091E-04  0.2746489868E-03
47  0.3704159652E-09  0.1479949086E-08  0.7391561156E-09  0.5016437820E-09  0.1316996818E-08  0.1887714053E+01  0.3881855843E-02  0.3048687868E+00 -0.2572908606E+02 -0.1489310166E-03  0.3659300000E+01  0.3881855843E-02 -0.3848620786E-04  0.1887714053E+01  0.1887439404E+01  0.2357321420E-03  0.2746489867E-03  0.3646123701E-02  0.3048570169E+00 -0.2572928521E+02  0.1613128672E-03  0.1176988409E-04  0.1991491336E-03 -0.3102438838E-03  0.2357321420E-03  0.6885712422E-05  0.1887439404E+01  0.3646123701E-02 -0.4537192028E-04  0.2746489867E-03
48  0.2706600668E-09  0.1045011323E-08  0.5284252069E-09  0.3402702523E-09  0.9361333219E-09  0.1887714072E+01  0.3881855845E-02  0.3048687988E+00 -0.2572908612E+02 -0.1489310157E-03  0.3707200000E+01  0.3881855845E-02 -0.3848620700E-04  0.1887714072E+01  0.1887439423E+01  0.2357321418E-03  0.2746489868E-03  0.3646123703E-02  0.3048570290E+00 -0.2572928526E+02  0.1613128685E-03  0.1176988447E-04  0.1991491334E-03 -0.3102438842E-03  0.2357321418E-03  0.6885712810E-05  0.1887439423E+01  0.3646123703E-02 -0.4537191981E-04  0.2746489868E-03
49  0.1971919788E-09  0.7326321623E-09  0.3756730296E-09  0.2330412684E-09  0.6614600237E-09  0.1887714085E+01  0.3881855846E-02  0.3048688077E+00 -0.2572908615E+02 -0.1489310150E-03  0.3755200000E+01  0.3881855846E-02 -0.3848620634E-04  0.1887714085E+01  0.1887439436E+01  0.2357321417E-03  0.2746489868E-03  0.3646123704E-02  0.3048570378E+00 -0.2572928530E+02  0.1613128694E-03  0.1176988476E-04  0.1991491332E-03 -0.3102438844E-03  0.2357321417E-03  0.6885713091E-05  0.1887439436E+01  0.3646123704E-02 -0.4537191943E-04  0.2746489868E-03
50  0.1429947780E-09  0.5104573915E-09  0.2656443685E-09  0.1607770141E-09  0.4651054569E-09  0.1887714095E+01  0.3881855846E-02  0.3048688143E+00 -0.2572908618E+02 -0.1489310143E-03  0.3812400000E+01  0.3881855846E-02 -0.3848620583E-04  0.1887714095E+01  0.1887439446E+01  0.2357321417E-03  0.2746489868E-03  0.3646123705E-02  0.3048570444E+00 -0.2572928533E+02  0.1613128701E-03  0.1176988498E-04  0.1991491329E-03 -0.3102438843E-03  0.2357321417E-03  0.6885713298E-05  0.1887439446E+01  0.3646123705E-02 -0.4537191913E-04  0.2746489868E-03
51  0.1031733626E-09  0.3538852203E-09  0.1869220302E-09  0.1114287218E-09  0.3259449424E-09  0.1887714102E+01  0.3881855847E-02  0.3048688193E+00 -0.2572908620E+02 -0.1489310136E-03  0.4039300000E+01  0.3881855847E-02 -0.3848620542E-04  0.1887714102E+01  0.1887439453E+01  0.2357321416E-03  0.2746489869E-03  0.3646123705E-02  0.3048570494E+00 -0.2572928535E+02  0.1613128706E-03  0.1176988516E-04  0.1991491327E-03 -0.3102438842E-03  0.2357321416E-03  0.6885713455E-05  0.1887439453E+01  0.3646123705E-02 -0.4537191888E-04  0.2746489869E-03
52  0.7411275009E-10  0.2444300933E-09  0.1309759129E-09  0.7744182619E-10  0.2280223566E-09  0.1887714108E+01  0.3881855847E-02  0.3048688230E+00 -0.2572908622E+02 -0.1489310129E-03  0.4086100000E+01  0.3881855847E-02 -0.3848620510E-04  0.1887714108E+01  0.1887439459E+01  0.2357321416E-03  0.2746489869E-03  0.3646123706E-02  0.3048570531E+00 -0.2572928537E+02  0.1613128710E-03  0.1176988531E-04  0.1991491324E-03 -0.3102438839E-03  0.2357321416E-03  0.6885713576E-05  0.1887439459E+01  0.3646123706E-02 -0.4537191867E-04  0.2746489869E-03
53  0.5305564431E-10  0.1684158399E-09  0.9146825303E-10  0.5395335594E-10  0.1594548898E-09  0.1887714112E+01  0.3881855847E-02  0.3048688259E+00 -0.2572908623E+02 -0.1489310123E-03  0.4134000000E+01  0.3881855847E-02 -0.3848620484E-04  0.1887714112E+01  0.1887439463E+01  0.2357321415E-03  0.2746489869E-03  0.3646123706E-02  0.3048570560E+00 -0.2572928538E+02  0.1613128713E-03  0.1176988542E-04  0.1991491323E-03 -0.3102438836E-03  0.2357321415E-03  0.6885713670E-05  0.1887439463E+01  0.3646123706E-02 -0.4537191851E-04  0.2746489869E-03
54  0.3788771101E-10  0.1158901180E-09  0.6372748557E-10  0.3770651854E-10  0.1115647005E-09  0.1887714115E+01  0.3881855848E-02  0.3048688281E+00 -0.2572908624E+02 -0.1489310118E-03  0.4182100000E+01  0.3881855848E-02 -0.3848620464E-04  0.1887714115E+01  0.1887439466E+01  0.2357321415E-03  0.2746489870E-03  0.3646123706E-02  0.3048570582E+00 -0.2572928539E+02  0.1613128715E-03  0.1176988552E-04  0.1991491322E-03 -0.3102438833E-03  0.2357321415E-03  0.6885713743E-05  0.1887439466E+01  0.3646123706E-02 -0.4537191838E-04  0.2746489870E-03