# vtk DataFile Version 2.0
FUN3D:global_image_vtk
ASCII
DATASET UNSTRUCTURED_GRID
POINTS 213 double
   -0.5474685441688287E-02    0.2504941971167291E+01    0.8038138598664994E-04
    0.1245419105183472E+01    0.2504941971167291E+01    0.1039425058013135E-03
    0.2497696093128780E+01    0.2504941971167291E+01    0.1101298164665756E-03
    0.3750590968915824E+01    0.2504941971167291E+01    0.1356499004944170E-03
    0.5003221331742151E+01    0.2504941971167291E+01    0.9668873038898313E-04
    0.5004676687979098E+01    0.1281291202167040E+01    0.1638053019383804E-03
    0.5004772673778115E+01    0.2775079906482933E-01    0.1903478008447593E-03
    0.5003581183341212E+01   -0.1225853508883529E+01    0.1607765204486580E-03
    0.5001952533742191E+01   -0.2496589036641631E+01    0.1082258890302559E-03
    0.3750348111606544E+01   -0.2496589036641631E+01    0.1458753696815809E-03
    0.2498611462994928E+01   -0.2496589036641631E+01    0.1008933264248226E-03
    0.1247175269333276E+01   -0.2496589036641631E+01    0.1108587619169656E-03
   -0.3383959865718384E-02   -0.2496589036641631E+01    0.8107259626494183E-04
   -0.4257768979765605E-02   -0.1225734811642591E+01    0.3415458742311866E-04
   -0.5251592448509711E-02    0.2619486024420466E-01    0.1038724387188441E-03
   -0.5676060312426855E-02    0.1278221569065707E+01    0.8224601702155903E-04
    0.9003209617952583E+00    0.1608979112280158E+01    0.8704140727677796E-04
    0.3983172210692289E+01   -0.1561211904840279E+01    0.1757116720370603E-03
    0.4035602039224469E+01    0.1486760030415520E+01    0.1713312862106079E-03
    0.1036613723302902E+01   -0.1455626429916848E+01    0.1047189301533471E-03
    0.1094353480630802E+01   -0.2964622010671855E+00    0.1260590236916717E-03
    0.7298400267479996E+00    0.6874684746719122E+00    0.1044598640544960E-03
    0.1617018659308945E+01    0.8553208024939367E+00    0.1529810904973841E-03
    0.2143199662875790E+01   -0.1627128509216730E+01    0.1606170425226819E-03
    0.4088840445400889E+01   -0.4351047825936263E+00    0.2719933294109139E-03
    0.2977916511248925E+01   -0.8334991483094500E+00    0.2245596931861331E-03
    0.3044093241383418E+01   -0.1814361225108581E+01    0.1617000112420500E-03
    0.3427866614805211E+01    0.3813904839972497E+00    0.2936955483429655E-03
    0.4313225355351749E+01    0.5489133376342498E+00    0.2313009573592377E-03
    0.1823032737597358E+01    0.1771265193544254E+01    0.1836202887152142E-03
    0.2806311152168375E+01    0.1358629373600680E+01    0.1943492163983821E-03
    0.1891860875936711E+01   -0.8481310365607546E+00    0.1670645501816729E-03
    0.2268769200166909E+01    0.7723691819196572E-01    0.2072307783084763E-03
    0.5000000000000000E+01    0.2504941971167291E+01    0.1250000000000000E+01
    0.5000000000000000E+01    0.2504941971167291E+01    0.2500000000000000E+01
    0.5000000000000000E+01    0.2504941971167291E+01    0.3750000000000000E+01
    0.5000000000000000E+01    0.2504941971167291E+01    0.5000000000000000E+01
    0.3750000000000000E+01    0.2504941971167291E+01    0.5000000000000000E+01
    0.2500000000000000E+01    0.2504941971167291E+01    0.5000000000000000E+01
    0.1250000000000000E+01    0.2504941971167291E+01    0.5000000000000000E+01
    0.0000000000000000E+00    0.2504941971167291E+01    0.5000000000000000E+01
    0.0000000000000000E+00    0.2504941971167291E+01    0.3750000000000000E+01
    0.0000000000000000E+00    0.2504941971167291E+01    0.2500000000000000E+01
    0.0000000000000000E+00    0.2504941971167291E+01    0.1250000000000000E+01
    0.9588956434871090E+00    0.2504941971167291E+01    0.9696525519543869E+00
    0.3981953078951401E+01    0.2504941971167291E+01    0.4070563854751270E+01
    0.4036122187252336E+01    0.2504941971167291E+01    0.1017567520094671E+01
    0.9637572773153887E+00    0.2504941971167291E+01    0.3973598203142228E+01
    0.1546540136992395E+01    0.2504941971167291E+01    0.2931570169315600E+01
    0.6973799521244306E+00    0.2504941971167291E+01    0.3070319952453755E+01
    0.8903742148356872E+00    0.2504941971167291E+01    0.2056562238187737E+01
    0.2183041995146012E+01    0.2504941971167291E+01    0.3960694449828018E+01
    0.3855844872709869E+01    0.2504941971167291E+01    0.2933250588118629E+01
    0.3152611367438029E+01    0.2504941971167291E+01    0.3637668388416192E+01
    0.3103307385241870E+01    0.2504941971167291E+01    0.4332607813099730E+01
    0.3266711045517938E+01    0.2504941971167291E+01    0.1889656617463737E+01
    0.4232537554484795E+01    0.2504941971167291E+01    0.1918626969802350E+01
    0.1905522374036519E+01    0.2504941971167291E+01    0.7226290832134606E+00
    0.2879767723645805E+01    0.2504941971167291E+01    0.9080945892181977E+00
    0.2012711365064514E+01    0.2504941971167291E+01    0.1767082390977753E+01
    0.2669681472994636E+01    0.2504941971167291E+01    0.2853394335010790E+01
    0.5000000000000000E+01    0.1250000000000000E+01    0.5000000000000000E+01
    0.5000000000000000E+01    0.0000000000000000E+00    0.5000000000000000E+01
    0.5000000000000000E+01   -0.1250000000000000E+01    0.5000000000000000E+01
    0.5000000000000000E+01   -0.2496589036641631E+01    0.5000000000000000E+01
    0.5000000000000000E+01   -0.2496589036641631E+01    0.3750000000000000E+01
    0.5000000000000000E+01   -0.2496589036641631E+01    0.2500000000000000E+01
    0.5000000000000000E+01   -0.2496589036641631E+01    0.1250000000000000E+01
    0.5000000000000000E+01    0.1578994732800803E+01    0.9058375365086910E+00
    0.5000000000000000E+01   -0.1583989954232354E+01    0.3982050490726493E+01
    0.5000000000000000E+01    0.1453322699199022E+01    0.4033849428301197E+01
    0.5000000000000000E+01   -0.1479596339503735E+01    0.1040505887381675E+01
    0.5000000000000000E+01   -0.3227322616384110E+00    0.1099454400140349E+01
    0.5000000000000000E+01    0.6593508822075582E+00    0.7354504170366591E+00
    0.5000000000000000E+01    0.8256214013940779E+00    0.1622302608453282E+01
    0.5000000000000000E+01   -0.1650070333782557E+01    0.2145871574390382E+01
    0.5000000000000000E+01   -0.4612828702537229E+00    0.4086422318222992E+01
    0.5000000000000000E+01   -0.8579242121530853E+00    0.2979540174134984E+01
    0.5000000000000000E+01   -0.1836846154397680E+01    0.3045064261640043E+01
    0.5000000000000000E+01    0.3508002863614053E+00    0.3428197553792836E+01
    0.5000000000000000E+01    0.5185680230613409E+00    0.4309693860063405E+01
    0.5000000000000000E+01    0.1738996113203182E+01    0.1827272193562204E+01
    0.5000000000000000E+01    0.1325493893339706E+01    0.2808563282768077E+01
    0.5000000000000000E+01   -0.8731419609589618E+00    0.1895995683864404E+01
    0.5000000000000000E+01    0.4906150219227333E-01    0.2273179336307740E+01
    0.0000000000000000E+00    0.1250000000000000E+01    0.5000000000000000E+01
    0.0000000000000000E+00    0.0000000000000000E+00    0.5000000000000000E+01
    0.0000000000000000E+00   -0.1250000000000000E+01    0.5000000000000000E+01
    0.0000000000000000E+00   -0.2496589036641631E+01    0.5000000000000000E+01
    0.1250000000000000E+01   -0.2496589036641631E+01    0.5000000000000000E+01
    0.2500000000000000E+01   -0.2496589036641631E+01    0.5000000000000000E+01
    0.3750000000000000E+01   -0.2496589036641631E+01    0.5000000000000000E+01
    0.4042003247744892E+01    0.1558308132739014E+01    0.5000000000000000E+01
    0.9304122287900499E+00   -0.1548001304379777E+01    0.5000000000000000E+01
    0.1037243024609388E+01    0.1462892710085612E+01    0.5000000000000000E+01
    0.3946240828834967E+01   -0.1445243809615570E+01    0.5000000000000000E+01
    0.4092527262848217E+01   -0.3455338993778935E+00    0.5000000000000000E+01
    0.4293103109154542E+01    0.6277660831404320E+00    0.5000000000000000E+01
    0.3241512314643519E+01    0.7429886854239611E+00    0.5000000000000000E+01
    0.2844289952419609E+01   -0.1588117879734118E+01    0.5000000000000000E+01
    0.7159905765450471E+00   -0.6002320124191652E+00    0.5000000000000000E+01
    0.1754341919796891E+01   -0.7398147869923652E+00    0.5000000000000000E+01
    0.1870296826774691E+01   -0.1788622905643739E+01    0.5000000000000000E+01
    0.9220614901912976E+00    0.3083720183248586E+00    0.5000000000000000E+01
    0.3101523624086016E+01    0.1777901774806180E+01    0.5000000000000000E+01
    0.2192512063922564E+01    0.1576861561598471E+01    0.5000000000000000E+01
    0.2024793420196460E+01    0.4773861992750707E+00    0.5000000000000000E+01
    0.2990627757741975E+01   -0.4878110785814084E+00    0.5000000000000000E+01
    0.0000000000000000E+00   -0.2496589036641631E+01    0.1250000000000000E+01
    0.0000000000000000E+00   -0.2496589036641631E+01    0.2500000000000000E+01
    0.0000000000000000E+00   -0.2496589036641631E+01    0.3750000000000000E+01
    0.0000000000000000E+00    0.1558308132739014E+01    0.4042003247744892E+01
    0.0000000000000000E+00   -0.1548001304379777E+01    0.9304122287900499E+00
    0.0000000000000000E+00    0.1462892710085612E+01    0.1037243024609388E+01
    0.0000000000000000E+00   -0.1445243809615570E+01    0.3946240828834967E+01
    0.0000000000000000E+00   -0.3455338993778935E+00    0.4092527262848217E+01
    0.0000000000000000E+00    0.6277660831404320E+00    0.4293103109154542E+01
    0.0000000000000000E+00    0.7429886854239611E+00    0.3241512314643519E+01
    0.0000000000000000E+00   -0.1588117879734118E+01    0.2844289952419609E+01
    0.0000000000000000E+00   -0.6002320124191652E+00    0.7159905765450471E+00
    0.0000000000000000E+00   -0.7398147869923652E+00    0.1754341919796891E+01
    0.0000000000000000E+00   -0.1788622905643739E+01    0.1870296826774691E+01
    0.0000000000000000E+00    0.3083720183248586E+00    0.9220614901912976E+00
    0.0000000000000000E+00    0.1777901774806180E+01    0.3101523624086016E+01
    0.0000000000000000E+00    0.1576861561598471E+01    0.2192512063922564E+01
[...]
POINT_DATA 213
SCALARS p double 1
LOOKUP_TABLE default
   0.9615090270461891E+00
   0.6837133719730056E+00
   0.6757800352245792E+00
   0.6729809066589122E+00
   0.6025723803857450E+00
   0.5529964077715461E+00
   0.5448262876920035E+00
   0.5472458031527467E+00
   0.5936019706812327E+00
   0.6681106560870146E+00
   0.6674268615085385E+00
   0.6868452073072461E+00
   0.1034621192868642E+01
   0.1068150095134785E+01
   0.1176243428670174E+01
   0.1018996343389530E+01
   0.7212845351350458E+00
   0.6793852943305222E+00
   0.6741566409665808E+00
   0.6838869927926642E+00
   0.6724824126109195E+00
   0.7407920042686246E+00
   0.6612900262973204E+00
   0.6658881007016315E+00
   0.6812904896329013E+00
   0.6800263496102456E+00
   0.6679221965179155E+00
   0.6832461640361831E+00
   0.6699009217732924E+00
   0.6645159936657440E+00
   0.6747441315816378E+00
   0.6330203176627607E+00
   0.6731403010506354E+00
   0.6774107700026150E+00
   0.7228907437039379E+00
   0.7222597021427312E+00
   0.7160256047819441E+00
   0.7170629685783131E+00
   0.7181378238121867E+00
   0.7195479147661400E+00
   0.7186026151201598E+00
   0.7227466829824499E+00
   0.7373732103187319E+00
   0.7824880541051622E+00
   0.7199367094512865E+00
   0.7165435400128810E+00
   0.6761661180696564E+00
   0.7194216583800166E+00
   0.7166145636637203E+00
   0.7226390995287718E+00
   0.7259999477908362E+00
   0.7165546636138916E+00
   0.7137110303090645E+00
   0.7161345987928159E+00
   0.7158487109950781E+00
   0.6952726759187134E+00
   0.6963372788907350E+00
   0.6899963638880701E+00
   0.6913945997339329E+00
   0.7035168684562033E+00
   0.7094989619550164E+00
   0.7160808592936847E+00
   0.7162535295029782E+00
   0.7165050834299852E+00
   0.7158945100947914E+00
   0.7248110606850838E+00
   0.7210300445554233E+00
   0.6727696847463600E+00
   0.6453757690642365E+00
   0.7221259523099647E+00
   0.7196819208005140E+00
   0.6359304262508754E+00
   0.6309666866476045E+00
   0.5996041063119215E+00
   0.6915945307500241E+00
   0.7156066489148180E+00
   0.7212073087543013E+00
   0.7290382459353920E+00
   0.7269565327744701E+00
   0.7265130640623744E+00
   0.7204389504627866E+00
   0.7038443633849204E+00
   0.7205086244515465E+00
   0.7023921856295047E+00
   0.7220871189033831E+00
   0.7185220018676504E+00
   0.7171978020515863E+00
   0.7176427234778041E+00
   0.7184073563353471E+00
   0.7193234409034525E+00
   0.7173776055384528E+00
   0.7166144495505787E+00
   0.7163185779140478E+00
   0.7184836661359471E+00
   0.7186370006603183E+00
   0.7154672477676672E+00
   0.7160740451633968E+00
   0.7162725978847317E+00
   0.7172843919107067E+00
   0.7174103684410553E+00
   0.7175466641816798E+00
   0.7187042652335739E+00
   0.7185503416799758E+00
   0.7180715815601869E+00
   0.7177479884414161E+00
   0.7184641990630987E+00
   0.7184268983503616E+00
   0.7175694881993649E+00
   0.7909545884809420E+00
   0.7417772454775984E+00
   0.7240735121365665E+00
   0.7207773593130556E+00
   0.8581022297679392E+00
   0.8086350761924583E+00
   0.7221194122267177E+00
   0.7211551066761767E+00
   0.7210126470990795E+00
   0.7257924571603874E+00
   0.7326205690047750E+00
   0.9164972239123447E+00
   0.7574803385218045E+00
   0.7599365097419130E+00
   0.8799590534958887E+00
   0.7291434991366371E+00
   0.7461110836441295E+00
   0.7436509191718488E+00
   0.7280735771658277E+00
   0.7234035720786823E+00
   0.7165946600862497E+00
   0.6758544096661866E+00
   0.7210190880481572E+00
   0.7177435949002219E+00
   0.7243684915878162E+00
   0.7309127288730805E+00
   0.7153818920470919E+00
   0.7127069637016874E+00
   0.7133122195205782E+00
   0.7154718288137099E+00
   0.6958561565176947E+00
   0.6941123107772519E+00
   0.6792681254885899E+00
   0.6842858436019331E+00
   0.7022975214911104E+00
   0.7064276550258818E+00
   0.7092639167787061E+00
   0.7176250736162010E+00
   0.7173827341671087E+00
   0.7117399660339808E+00
   0.7287968913839021E+00
   0.7352756192792548E+00
   0.7097316727913138E+00
   0.7230298957884064E+00
   0.7189769496861728E+00
   0.7231309007020784E+00
   0.7128921578945943E+00
   0.6922549659868692E+00
   0.7175444897974500E+00
   0.7113550431662813E+00
   0.6973970278760596E+00
   0.7095833011349674E+00
   0.7134676295851866E+00
   0.7079227498993573E+00
   0.7159287310428727E+00
   0.7175553864453168E+00
   0.7167030177255576E+00
   0.7110825192098523E+00
   0.7103510270400820E+00
   0.7187134444478757E+00
   0.7362440671405502E+00
   0.7209851904120542E+00
   0.6967151938930984E+00
   0.7191760799932684E+00
   0.7279869911864053E+00
   0.6958387148727808E+00
   0.6741066095445459E+00
   0.7021104083599984E+00
   0.7007174984704782E+00
   0.6996471376384797E+00
   0.7043910123687324E+00
   0.6878262404083342E+00
   0.7541078215474840E+00
   0.7254179408273832E+00
   0.7163759580008142E+00
   0.7164924045905382E+00
   0.7072942082244332E+00
   0.7062530203784471E+00
   0.6799096517453614E+00
   0.7081442603666063E+00
   0.7212278436764815E+00
   0.7177576749401494E+00
   0.7069395199174531E+00
   0.6847925063582506E+00
   0.6587353577287399E+00
   0.6908614465278368E+00
   0.6956175770553273E+00
   0.6931679759189796E+00
   0.6874262965941245E+00
   0.6732335082619344E+00
   0.6670674277366048E+00
   0.6794797823673411E+00
   0.7172133908406970E+00
   0.7168144142328009E+00
   0.7154594994097830E+00
   0.7175335913095043E+00
   0.6790224983936629E+00
   0.6691939862981905E+00
   0.6792021820170702E+00
   0.7156331665005865E+00
   0.7153053764628280E+00
   0.7168587799687928E+00
   0.6951014853436933E+00
   0.6910741672166648E+00
   0.6839136771975020E+00
SCALARS mach double 1
LOOKUP_TABLE default
   0.0000000000000000E+00
   0.0000000000000000E+00
   0.0000000000000000E+00
   0.0000000000000000E+00
   0.0000000000000000E+00
   0.0000000000000000E+00
   0.0000000000000000E+00
   0.0000000000000000E+00
   0.0000000000000000E+00
   0.0000000000000000E+00
   0.0000000000000000E+00
   0.0000000000000000E+00
   0.0000000000000000E+00
   0.0000000000000000E+00
   0.0000000000000000E+00
   0.0000000000000000E+00
   0.0000000000000000E+00
   0.0000000000000000E+00
   0.0000000000000000E+00
   0.0000000000000000E+00
   0.0000000000000000E+00
   0.0000000000000000E+00
   0.0000000000000000E+00
   0.0000000000000000E+00
   0.0000000000000000E+00
   0.0000000000000000E+00
   0.0000000000000000E+00
   0.0000000000000000E+00
   0.0000000000000000E+00
   0.0000000000000000E+00
   0.0000000000000000E+00
   0.0000000000000000E+00
   0.0000000000000000E+00
   0.5088278464108553E+00
   0.5343404935530149E+00
   0.5171324809225150E+00
   0.4929854640118680E+00
   0.4846103873054263E+00
   0.4865053149750534E+00
   0.4886300534227885E+00
   0.4953648480644035E+00
   0.4890350172147716E+00
   0.4698867899823698E+00
   0.4406721365121289E+00
   0.4916434743393157E+00
   0.5094166341104855E+00
   0.4449616269282300E+00
   0.4945031019694920E+00
   0.5218153140999752E+00
   0.4956465322454048E+00
   0.5224896390298288E+00
   0.5036126136826862E+00
   0.5641416236745954E+00
   0.5240648202558046E+00
   0.4989536699772508E+00
   0.5757197674679775E+00
   0.5734842319160721E+00
   0.3790290015492672E+00
   0.4028383161899560E+00
   0.5625710910333596E+00
   0.5563535061252536E+00
   0.4941640948263715E+00
   0.4947383412086431E+00
   0.4923847176620777E+00
   0.4913239357977273E+00
   0.5150149701705319E+00
   0.5371602080804589E+00
   0.5087694601479639E+00
   0.4717140518477246E+00
   0.5119324676809501E+00
   0.5110126450077794E+00
   0.4958198681552396E+00
   0.5102768305790421E+00
   0.4804275397729895E+00
   0.5352195379474514E+00
   0.5339912395326823E+00
   0.5120155934121825E+00
   0.5312230768755266E+00
   0.5296265103056194E+00
   0.5292676032538014E+00
   0.5056207345718287E+00
   0.5355371812688733E+00
   0.5406810120999120E+00
   0.5432012090051600E+00
   0.5391817815786389E+00
   0.4961279405777366E+00
   0.4972483668592023E+00
   0.4960550837471205E+00
   0.4950899802440794E+00
   0.4899598209894870E+00
   0.4899809767415726E+00
   0.4860194428405460E+00
   0.4853463464171181E+00
   0.4927778445237847E+00
   0.4906135244542504E+00
   0.4831694951334687E+00
   0.4871983205465292E+00
   0.4879472622812395E+00
   0.4870539444913177E+00
   0.4879750478105395E+00
   0.4949478180771549E+00
   0.4896508362191712E+00
   0.4899631187436355E+00
   0.4940578954982542E+00
   0.4865443018254122E+00
   0.4889072006726342E+00
   0.4878265394971167E+00
   0.4875907397121074E+00
   0.4438919094038581E+00
   0.4677403996897038E+00
   0.4881872281711975E+00
   0.4880029023656234E+00
   0.4652376983306739E+00
   0.4746180258200347E+00
   0.4869281470254988E+00
   0.4862766320932201E+00
   0.4902932571905421E+00
   0.4787497394908659E+00
   0.4643564465190839E+00
   0.4025346239385095E+00
   0.4895557565065471E+00
   0.4458502651906284E+00
   0.4686393201432797E+00
   0.4831300379901458E+00
   0.4601250686009103E+00
   0.4641931073672886E+00
   0.4737591271764286E+00
   0.5009595789132782E+00
   0.5082567650613200E+00
   0.4343124197714694E+00
   0.4921479264117521E+00
   0.5318570690838055E+00
   0.4907030781455431E+00
   0.5210445737391824E+00
   0.5060133911794775E+00
   0.5691056457824911E+00
   0.5273540369883946E+00
   0.5013880003195486E+00
   0.5852444969247518E+00
   0.5728179194514647E+00
   0.3432130811713792E+00
   0.3805349338927157E+00
   0.5794993442053762E+00
   0.5676561824894327E+00
   0.5706562945968469E+00
   0.5289494757109328E+00
   0.5445336084153738E+00
   0.5732968236027023E+00
   0.5380254886501763E+00
   0.5543141514156810E+00
   0.5870710731753263E+00
   0.4918692562138944E+00
   0.5037853464957778E+00
   0.4954667735479113E+00
   0.5579111112015329E+00
   0.4897927034542546E+00
   0.4947289254917209E+00
   0.5495411673176134E+00
   0.5911005052453996E+00
   0.5842749236715995E+00
   0.5464465390886133E+00
   0.5813642346082301E+00
   0.5103733312540401E+00
   0.5025849584044033E+00
   0.5030165217164605E+00
   0.5674949101502212E+00
   0.5563848366145351E+00
   0.4944253866272802E+00
   0.5525179061180315E+00
   0.5531771336237475E+00
   0.5691413112554400E+00
   0.4915523593208707E+00
   0.4914338402902176E+00
   0.3895354644561082E+00
   0.3712062254161555E+00
   0.5592296484395948E+00
   0.5782801809642957E+00
   0.4228152295372892E+00
   0.5853095617089220E+00
   0.4396767593542991E+00
   0.5448891012157655E+00
   0.5173421589228975E+00
   0.5115522101765315E+00
   0.5045595787730456E+00
   0.5758760301231630E+00
   0.5886507965624622E+00
   0.5429648096014513E+00
   0.5689503868685287E+00
   0.5342437468240866E+00
   0.5330765011334706E+00
   0.5587864661079033E+00
   0.5561714398732825E+00
   0.4325507952903630E+00
   0.5315405364833083E+00
   0.5814004397232789E+00
   0.3318453238117220E+00
   0.4787091126554786E+00
   0.5494851328418092E+00
   0.4853296712582516E+00
   0.3009872732473315E+00
   0.5030315721440690E+00
   0.5014772282733305E+00
   0.5126263813764116E+00
   0.5406388648385166E+00
   0.3454450646321581E+00
   0.3423297261694002E+00
   0.3205015388762344E+00
   0.5064303475597782E+00
   0.5121494958194046E+00
   0.5322644503195144E+00
   0.5911324859058026E+00
   0.4690727830938126E+00
   0.3540211941340958E+00
SCALARS temperature double 1
LOOKUP_TABLE default
   0.9999903003623237E+00
   0.9999898329329607E+00
   0.9999894148910745E+00
   0.9999893455669318E+00
   0.9999896325913095E+00
   0.9999902849804329E+00
   0.9999914932303513E+00
   0.9999928226452272E+00
   0.9999934884845499E+00
   0.9999936909423945E+00
   0.9999935442419012E+00
   0.9999931390534121E+00
   0.9999927241863860E+00
   0.9999921710674029E+00
   0.9999914205523116E+00
   0.9999907626120437E+00
   0.9999903748724313E+00
   0.9999933964915850E+00
   0.9999896034316981E+00
   0.9999925208048327E+00
   0.9999916472132107E+00
   0.9999909215273294E+00
   0.9999905846190380E+00
   0.9999931543716688E+00
   0.9999921426075928E+00
   0.9999926904968586E+00
   0.9999934799338206E+00
   0.9999904928902462E+00
   0.9999906871046429E+00
   0.9999898021824373E+00
   0.9999896231600166E+00
   0.9999923196042685E+00
   0.9999912328824416E+00
   0.9840756443026987E+00
   0.1003653907329833E+01
   0.1004420541312633E+01
   0.1000475674185233E+01
   0.1000667690892860E+01
   0.1001267193734726E+01
   0.1002147901765707E+01
   0.1001786256064556E+01
   0.1003548176524078E+01
   0.1008257955105015E+01
   0.1029829701040573E+01
   0.9887434280793110E+00
   0.1001379567744703E+01
   0.9813756953934850E+00
   0.1001917121182474E+01
   0.1002512937220996E+01
   0.1002973777222053E+01
   0.1008300775988010E+01
   0.1000819947488451E+01
   0.1001175298343385E+01
   0.1001992813095939E+01
   0.1000565740434028E+01
   0.9904060527316065E+00
   0.9903200903763912E+00
   0.9822718910947318E+00
   0.9886726532967829E+00
   0.9943903314280560E+00
   0.9997745973000212E+00
   0.1000503088778072E+01
   0.1000621304491120E+01
   0.1000832191620139E+01
   0.1000458272859696E+01
   0.1004872686836796E+01
   0.1002923748279704E+01
   0.9851399818632208E+00
   0.9764686176662741E+00
   0.1003895145346077E+01
   0.1003049453882848E+01
   0.9735520320685740E+00
   0.9716280253757656E+00
   0.9590922597460161E+00
   0.9912248911266397E+00
   0.1001318242730935E+01
   0.1003841297271930E+01
   0.1007659479294186E+01
   0.1005992073401913E+01
   0.1006633209898691E+01
   0.1003140832411382E+01
   0.9944053172190415E+00
   0.1003541284188254E+01
   0.9972301192492248E+00
   0.1005299676597640E+01
   0.1001683695304701E+01
   0.1001187212607654E+01
   0.1001344518781706E+01
   0.1001764331394795E+01
   0.1001926260911127E+01
   0.1001100914944315E+01
   0.1000589472260262E+01
   0.1000255092476481E+01
   0.1001799802725715E+01
   0.1001779203630106E+01
   0.1000011092623651E+01
   0.1000223795796269E+01
   0.1000233792728405E+01
   0.1000722996400312E+01
   0.1000990236814155E+01
   0.1001327261216594E+01
   0.1001747374671041E+01
   0.1001638109865689E+01
   0.1001640840094727E+01
   0.1001123812280719E+01
   0.1001523762605336E+01
   0.1001328572563472E+01
   0.1000963804288594E+01
   0.1040250090629886E+01
   0.1009764600995964E+01
   0.1004056342118533E+01
   0.1002445324323700E+01
   0.1032099919456194E+01
   0.1042414363879340E+01
   0.1003034777911217E+01
   0.1002347459367476E+01
   0.1002603265257332E+01
   0.1003016455747423E+01
   0.1006206109607921E+01
   0.1038823254293928E+01
   0.1027055942547914E+01
   0.1016571679237747E+01
   0.1025164006119376E+01
   0.1006041143091452E+01
   0.1011876633183376E+01
   0.1012535360958751E+01
   0.1004594257710029E+01
   0.9842203875281355E+00
   0.1001227247690020E+01
   0.9848177125661813E+00
   0.1002549527299892E+01
   0.1003509422008664E+01
   0.1003279597331750E+01
   0.1010907074339135E+01
   0.1000593654142201E+01
   0.9998577313998444E+00
   0.1000569838101170E+01
   0.1000468045715516E+01
   0.9898394888474829E+00
   0.9900664770895181E+00
   0.9856040910278621E+00
   0.9895966740848089E+00
   0.9917306176902636E+00
   0.9978882569641400E+00
   0.1000412735867374E+01
   0.1002941508247871E+01
   0.1005014134740589E+01
   0.1002305046947217E+01
   0.1013241818180750E+01
   0.1006624423761834E+01
   0.9925110503682801E+00
   0.1003427480616937E+01
   0.1001784166103759E+01
   0.1003323801584913E+01
   0.1001333600558875E+01
   0.9637909372828017E+00
   0.1001232500932187E+01
   0.1000915135455805E+01
   0.9928852039698021E+00
   0.9989586806695210E+00
   0.1001510463745792E+01
   0.9978252480881540E+00
   0.1000986320558471E+01
   0.1001571375893336E+01
   0.1001192440873004E+01
   0.1000807847210488E+01
   0.1000711890438085E+01
   0.1001330284857578E+01
   0.1010429101715493E+01
   0.1004016578697373E+01
   0.9935774189375867E+00
   0.1001861747535311E+01
   0.1006722023262169E+01
   0.9866306636291253E+00
   0.9880864437595548E+00
   0.9963777349805956E+00
   0.9943332534642474E+00
   0.9873968487682472E+00
   0.9926521811512267E+00
   0.9667602278348476E+00
   0.1017683785059093E+01
   0.9829836806247539E+00
   0.1001480845736916E+01
   0.1001157558358385E+01
   0.9989742245132036E+00
   0.9976209137384118E+00
   0.9864688957988910E+00
   0.9980158233243197E+00
   0.1003607937035722E+01
   0.1002892987828504E+01
   0.9988418966126364E+00
   0.9840715410369235E+00
   0.9789309654535773E+00
   0.9847739220898459E+00
   0.9942692630539910E+00
   0.9999999444783844E+00
   0.9900343801237393E+00
   0.9861266795443304E+00
   0.9832556248356702E+00
   0.9982023841940637E+00
   0.1001457646174384E+01
   0.1001061249979748E+01
   0.1001129477190314E+01
   0.1002866486433530E+01
   0.9891995812935251E+00
   0.9869629634282728E+00
   0.9919050208191419E+00
   0.1000764113607327E+01
   0.1000926472097807E+01
   0.1002438358286916E+01
   0.9922499076972530E+00
   0.9866841567366291E+00
   0.9943481483727163E+00
SCALARS lambda1 double 1
LOOKUP_TABLE default
   0.6101299232112271E-02
   0.3842719114807936E-02
   0.1322070985430408E-02
  -0.1706967809390095E-02
  -0.2823198146238711E-02
  -0.2506283548485978E-02
  -0.3267038113964016E-02
  -0.2128236338771358E-02
  -0.2523304879736398E-02
  -0.1978366218817778E-02
  -0.1214597454946832E-02
   0.2415861834579508E-02
   0.3086046137009079E-02
   0.1705982378304045E-02
   0.5121657545208920E-02
   0.6984948110632762E-02
   0.4208845775036468E-02
  -0.2260545880095682E-02
  -0.2396507068907034E-02
   0.1992645214499344E-02
   0.1473283756116082E-02
   0.3517328855748336E-02
   0.1480024598859523E-02
   0.9942211275829092E-04
  -0.2621840486216679E-02
  -0.2429258350029976E-03
  -0.1949876514367574E-03
  -0.1086675920388666E-02
  -0.2648561605631646E-02
   0.1599068788692606E-02
   0.3066197942932132E-03
   0.1438861811097058E-02
   0.6218247363003580E-03
  -0.9670383510585034E-02
  -0.4628404096179161E-02
  -0.3152029173238797E-02
  -0.2987513882519245E-02
  -0.1299899837698356E-01
  -0.2395804160013433E-01
  -0.2562451480428675E-01
  -0.3398524058824672E-01
  -0.9311343846708793E-02
  -0.1649952488224447E-02
   0.3067161062352983E-01
   0.4116995398468568E-01
  -0.2403556172174710E-02
   0.1561576454576024E-01
  -0.8336833726225895E-02
  -0.5173372839442638E-02
  -0.4509615146821711E-02
   0.1181224493744794E-02
  -0.3153012994438901E-02
  -0.3803363374985802E-02
  -0.2303535185371898E-02
  -0.3674564203691135E-02
  -0.4924331893306990E-02
  -0.6092816297505455E-02
   0.6079498175883258E-01
   0.6109785125298087E-01
   0.1010255274157265E-01
  -0.5353083427445502E-02
  -0.2973448580523468E-02
  -0.2761693085007952E-02
  -0.3368520397579849E-02
  -0.3456839646275022E-02
  -0.2970038349002764E-02
  -0.4425512203012433E-02
  -0.6595396322635749E-02
  -0.1215030393912617E-01
  -0.2426377380805845E-02
  -0.2527709359508053E-02
  -0.4392933361548884E-02
  -0.5488822811881288E-02
  -0.3423381423693285E-02
  -0.6990172706747353E-02
  -0.5105992731769561E-02
  -0.2215786480115849E-02
  -0.3795878353109828E-02
  -0.3704394603876909E-02
  -0.3247659615903020E-02
  -0.2011407998796658E-02
  -0.6197341996532637E-02
  -0.4016725364094576E-02
  -0.5434682236398711E-02
  -0.4873342875782509E-02
  -0.3518909394432602E-01
  -0.3878559100849913E-01
  -0.3423028240000321E-01
  -0.3217065536741084E-01
  -0.2893735462952442E-01
  -0.2542481086268939E-01
  -0.1323154154334034E-01
  -0.9036075749719865E-02
  -0.2891710873300572E-01
  -0.2553046242063938E-01
  -0.8701830090631406E-02
  -0.1108071531570400E-01
  -0.1106912217555819E-01
  -0.1872554280769790E-01
  -0.1986162393944262E-01
  -0.3605818852697956E-01
  -0.3288524660119201E-01
  -0.3060106811630266E-01
  -0.3112461599029871E-01
  -0.1992397595173883E-01
  -0.2485911992870319E-01
  -0.2672030044009271E-01
  -0.2110458162028597E-01
   0.2487596355099053E-01
  -0.3610214969682994E-02
  -0.6971417325062987E-02
  -0.9333791031628989E-02
   0.3856748405871099E-01
   0.4928367810346146E-01
  -0.6331503072911178E-02
  -0.8126908306648065E-02
  -0.1213614669250116E-01
  -0.7019588349517651E-02
  -0.4437450704718513E-02
   0.5827325150646171E-01
   0.3292937136738807E-02
   0.1865745833376725E-02