title="tecplot geometry and solution file"
variables = x y z mach temperature lambda1 lambda2 lambda3 lambda4 lambda5
zone t="boundary 1 bc-1", solutiontime= 0.4000000E+02, strandid=1001, i=32, j=46, f=feblock
 -0.547468544169E-02  0.000000000000E+00 -0.567606031243E-02  0.000000000000E+00  0.000000000000E+00  0.000000000000E+00 -0.525159244851E-02
 -0.425776897977E-02  0.000000000000E+00  0.000000000000E+00  0.000000000000E+00  0.000000000000E+00  0.000000000000E+00  0.000000000000E+00
  0.000000000000E+00  0.000000000000E+00 -0.338395986572E-02  0.000000000000E+00  0.000000000000E+00  0.000000000000E+00  0.000000000000E+00
  0.000000000000E+00  0.000000000000E+00  0.000000000000E+00  0.000000000000E+00  0.000000000000E+00  0.000000000000E+00  0.000000000000E+00
  0.000000000000E+00  0.000000000000E+00  0.000000000000E+00  0.000000000000E+00
  0.250494197117E+01  0.250494197117E+01  0.127822156907E+01  0.146289271009E+01  0.157686156160E+01  0.308372018325E+00  0.261948602442E-01
 -0.122573481164E+01 -0.600232012419E+00  0.250494197117E+01  0.477386199275E+00  0.742988685424E+00 -0.739814786992E+00  0.177790177481E+01
  0.155830813274E+01  0.250494197117E+01 -0.249658903664E+01 -0.154800130438E+01 -0.487811078581E+00  0.250494197117E+01  0.627766083140E+00
 -0.345533899378E+00 -0.178862290564E+01 -0.158811787973E+01  0.125000000000E+01 -0.249658903664E+01 -0.144524380962E+01  0.000000000000E+00
 -0.125000000000E+01 -0.249658903664E+01 -0.249658903664E+01 -0.249658903664E+01
  0.803813859866E-04  0.125000000000E+01  0.822460170216E-04  0.103724302461E+01  0.219251206392E+01  0.922061490191E+00  0.103872438719E-03
  0.341545874231E-04  0.715990576545E+00  0.250000000000E+01  0.202479342020E+01  0.324151231464E+01  0.175434191980E+01  0.310152362409E+01
  0.404200324774E+01  0.375000000000E+01  0.810725962649E-04  0.930412228790E+00  0.299062775774E+01  0.500000000000E+01  0.429310310915E+01
  0.409252726285E+01  0.187029682677E+01  0.284428995242E+01  0.500000000000E+01  0.125000000000E+01  0.394624082883E+01  0.500000000000E+01
  0.500000000000E+01  0.250000000000E+01  0.375000000000E+01  0.500000000000E+01
  0.000000000000E+00  0.440672136512E+00  0.000000000000E+00  0.474618025820E+00  0.460125068601E+00  0.468639320143E+00  0.000000000000E+00
  0.000000000000E+00  0.402534623939E+00  0.469886789982E+00  0.464193107367E+00  0.478749739491E+00  0.489555756507E+00  0.483130037990E+00
  0.488002902366E+00  0.489035017215E+00  0.000000000000E+00  0.465237698331E+00  0.473759127176E+00  0.495364848064E+00  0.490293257191E+00
  0.486276632093E+00  0.445850265191E+00  0.464356446519E+00  0.496127940578E+00  0.443891909404E+00  0.486928147025E+00  0.497248366859E+00
  0.496055083747E+00  0.467740399690E+00  0.488187228171E+00  0.495089980244E+00
  0.999990300362E+00  0.102982970104E+01  0.999990762612E+00  0.104241436388E+01  0.101187663318E+01  0.102516400612E+01  0.999991420552E+00
  0.999992171067E+00  0.103882325429E+01  0.100825795511E+01  0.101253536096E+01  0.100301645575E+01  0.102705594255E+01  0.100604114309E+01
  0.100244532432E+01  0.100354817652E+01  0.999992724186E+00  0.103209991946E+01  0.100459425771E+01  0.100178625606E+01  0.100260326526E+01
  0.100234745937E+01  0.101657167924E+01  0.100620610961E+01  0.100168369530E+01  0.104025009063E+01  0.100303477791E+01  0.100118721261E+01
  0.100134451878E+01  0.100976460100E+01  0.100405634212E+01  0.100176433139E+01
  0.610099359326E-02  0.306698153626E-01  0.698529105847E-02  0.492839199939E-01  0.346842610642E-02  0.587106873528E-01  0.512221830628E-02
  0.170592532034E-02  0.582743296728E-01 -0.164940797485E-02  0.389742163710E-02 -0.701847934789E-02  0.328945210826E-02 -0.389638279857E-02
 -0.933351121715E-02 -0.930968841911E-02  0.308599648368E-02  0.385650115643E-01 -0.515805658650E-02 -0.339875221353E-01 -0.121346091769E-01
 -0.811863752172E-02  0.186719473915E-02 -0.443803946920E-02 -0.351926884281E-01  0.248800552744E-01 -0.633063542510E-02 -0.387959454831E-01
 -0.342357832564E-01 -0.360986431807E-02 -0.697165810651E-02 -0.321709051454E-01
  0.239185616527E-03  0.444646371891E-02  0.331428798015E-03  0.629784372775E-02  0.165025829640E-03  0.888214476512E-02  0.361497487945E-03
  0.321527512173E-03  0.868025700723E-02 -0.782535484550E-03  0.346739077249E-03 -0.148111503435E-02 -0.979225416973E-04 -0.114285357739E-02
 -0.183010925041E-02 -0.204888549977E-02  0.284330869685E-03  0.601267946038E-02 -0.103399261798E-02 -0.697895831144E-02 -0.240638833299E-02
 -0.155442949932E-02 -0.207442578587E-03 -0.851750534069E-03 -0.736764763437E-02  0.306484421022E-02 -0.124811745599E-02 -0.814953942934E-02
 -0.716239314384E-02 -0.904688798515E-03 -0.148512877248E-02 -0.669145023948E-02
  0.405768791173E-03  0.128345911019E-03  0.546793287559E-03  0.124989229637E-02  0.147293463018E-03  0.606461965314E-03  0.467435288373E-03
 -0.174805913930E-03 -0.334483768171E-04 -0.133155649769E-04  0.128278395287E-03  0.133366861222E-03 -0.140551313658E-03  0.251131384391E-04
 -0.495818381653E-04 -0.286948741872E-05 -0.245074916401E-03 -0.793911792575E-03  0.153237497510E-04  0.332282746775E-05 -0.317908662363E-04
 -0.379537359622E-04 -0.165257641637E-04 -0.137067166835E-03  0.896193422910E-04 -0.102517180601E-03 -0.785669703780E-04 -0.176067488699E-04
 -0.758788110475E-04 -0.219876436876E-04 -0.802323074700E-05  0.654923408943E-05
 -0.147365870735E-02 -0.134218235133E-02 -0.160712970283E-02 -0.723019230180E-05  0.142105630113E-02  0.153399956165E-02 -0.900080355523E-03
 -0.786570949382E-03  0.108737640689E-02  0.155240234040E-02  0.289669056871E-02  0.159493267832E-02  0.319751711551E-02  0.148274168158E-02
  0.109570521615E-02  0.128790280621E-02 -0.609651558520E-03  0.916992807084E-03  0.183378149951E-02  0.461520103641E-03  0.101776269220E-02
  0.121250100150E-02  0.217918034209E-02  0.148765688265E-02  0.443181239632E-03  0.112529630345E-02  0.111185138844E-02  0.419587671643E-03
  0.501331299260E-03  0.168634992429E-02  0.113905313858E-02  0.491807421720E-03
 -0.487320632457E-02 -0.126317668580E-01 -0.665674636961E-02 -0.197248024811E-01 -0.144235384442E-02 -0.243706498633E-01  0.325266222329E-03
  0.104275802954E-02 -0.242171537130E-01  0.663494985192E-03 -0.170410127066E-02  0.274392852926E-02 -0.141889786506E-02  0.153536311296E-02
  0.372757951244E-02  0.375468054339E-02 -0.101634008539E-02 -0.161227304168E-01  0.191143544590E-02  0.141094002959E-01  0.490073855958E-02
  0.321057554588E-02 -0.898273168170E-03  0.158984664064E-02  0.146360371481E-01 -0.101429160431E-01  0.246879826703E-02  0.161818592868E-01
  0.142468726129E-01  0.131277821303E-02  0.276997773922E-02  0.133526217269E-01
        12        19        11        11
        11         5        12        12
        10        14         5         5
        19        13        11        11
        19        24        13        13
        30        23        24        24
        19        12        22        22
        28        22        21        21
        11        13         6         6
         7         6         9         9
        15        12        14        14
        18        13        23        23
        15        25        21        21
        27        19        22        22
        18         8         9         9
        27        31        24        24
         4        11         6         6
         5        14        12        12
         4         2         5         5
        21        12        15        15
        14        16        15        15
        24        19        27        27
        22        29        27        27
        23        26        18        18
        17         8        18        18
         5        11         4         4
         6         3         4         4
        26        23        30        30
         5         2        10        10
        16        14        10        10
         3         6         7         7
        21        25        28        28
        29        22        28        28
         6        13         9         9
         2         4         1         1
        31        27        32        32
        25        15        20        20
        24        23        13        13
         8         7         9         9
        13        18         9         9
        31        30        24        24
        12        21        22        22
        29        32        27        27
         3         1         4         4
        26        17        18        18
        16        20        15        15
zone t="boundary 2 bc-2", solutiontime= 0.4000000E+02, strandid=1002, i=33, j=48, f=feblock
  0.500195253374E+01  0.375034811161E+01  0.249861146299E+01  0.288036674177E+01  0.124717526933E+01  0.190856698521E+01  0.326577190273E+01
  0.201394856120E+01 -0.338395986572E-02  0.962374249381E+00  0.500000000000E+01  0.403430190008E+01  0.423029563807E+01  0.500000000000E+01
  0.385439188940E+01  0.500000000000E+01  0.398133433176E+01  0.315200081417E+01  0.266958028869E+01  0.154798029824E+01  0.218327860466E+01
  0.893688440338E+00  0.000000000000E+00  0.699009761768E+00  0.964460899052E+00  0.310303671659E+01  0.000000000000E+00  0.000000000000E+00
  0.125000000000E+01  0.500000000000E+01  0.375000000000E+01  0.250000000000E+01  0.000000000000E+00
 -0.249658903664E+01 -0.249658903664E+01 -0.249658903664E+01 -0.249658903664E+01 -0.249658903664E+01 -0.249658903664E+01 -0.249658903664E+01
 -0.249658903664E+01 -0.249658903664E+01 -0.249658903664E+01 -0.249658903664E+01 -0.249658903664E+01 -0.249658903664E+01 -0.249658903664E+01
 -0.249658903664E+01 -0.249658903664E+01 -0.249658903664E+01 -0.249658903664E+01 -0.249658903664E+01 -0.249658903664E+01 -0.249658903664E+01
 -0.249658903664E+01 -0.249658903664E+01 -0.249658903664E+01 -0.249658903664E+01 -0.249658903664E+01 -0.249658903664E+01 -0.249658903664E+01
 -0.249658903664E+01 -0.249658903664E+01 -0.249658903664E+01 -0.249658903664E+01 -0.249658903664E+01
  0.108225889030E-03  0.145875369682E-03  0.100893326425E-03  0.901663374396E+00  0.110858761917E-03  0.714928318829E+00  0.188140648011E+01
  0.175892165504E+01  0.810725962649E-04  0.957504300331E+00  0.125000000000E+01  0.100596698996E+01  0.191313519089E+01  0.250000000000E+01
  0.292898096716E+01  0.375000000000E+01  0.406883369524E+01  0.363389289944E+01  0.284756860985E+01  0.292582308120E+01  0.395754054931E+01
  0.205027256979E+01  0.125000000000E+01  0.306703272692E+01  0.397155766662E+01  0.433068622168E+01  0.250000000000E+01  0.375000000000E+01
  0.500000000000E+01  0.500000000000E+01  0.500000000000E+01  0.500000000000E+01  0.500000000000E+01
  0.000000000000E+00  0.000000000000E+00  0.000000000000E+00  0.380534933893E+00  0.000000000000E+00  0.343213081171E+00  0.585244496925E+00
  0.579499344205E+00  0.000000000000E+00  0.500959578913E+00  0.508769460148E+00  0.434312419771E+00  0.572817919451E+00  0.537160208080E+00
  0.569105645782E+00  0.515014970171E+00  0.508256765061E+00  0.527354036988E+00  0.567656182489E+00  0.531857069084E+00  0.506013391179E+00
  0.521044573739E+00  0.443891909404E+00  0.490703078146E+00  0.492147926412E+00  0.501388000320E+00  0.467740399690E+00  0.488187228171E+00
  0.489959820989E+00  0.491323935798E+00  0.486019442841E+00  0.489980976742E+00  0.495089980244E+00
  0.999993488485E+00  0.999993690942E+00  0.999993544242E+00  0.989596674085E+00  0.999993139053E+00  0.985604091028E+00  0.989839488847E+00
  0.991730617690E+00  0.999992724186E+00  0.984220387528E+00  0.985139981863E+00  0.984817712566E+00  0.990066477090E+00  0.100292374828E+01
  0.999857731400E+00  0.100487268684E+01  0.100122724769E+01  0.100056983810E+01  0.997888256964E+00  0.100350942201E+01  0.100059365414E+01
  0.101090707434E+01  0.104025009063E+01  0.100327959733E+01  0.100254952730E+01  0.100046804572E+01  0.100976460100E+01  0.100405634212E+01
  0.100192626091E+01  0.100045827286E+01  0.100058947226E+01  0.100110091494E+01  0.100176433139E+01
 -0.252320374987E-02 -0.197836694376E-02 -0.121465120425E-02  0.238879037991E-01  0.241579308182E-02  0.783243754872E-01 -0.513224886836E-02
  0.946139957607E-03  0.308599648368E-02  0.364103360155E-01 -0.659572387529E-02 -0.762266389170E-02 -0.517739549563E-02 -0.442541622943E-02
 -0.325429412893E-02 -0.297003103503E-02 -0.218673012461E-02 -0.253086583194E-02 -0.418832279093E-02 -0.501113262347E-02 -0.329327134976E-02
  0.131199484549E-02  0.248800552744E-01 -0.338760886316E-02 -0.609107186594E-02 -0.396481452520E-02 -0.360986431807E-02 -0.697165810651E-02
 -0.289404160432E-01 -0.345688938991E-02 -0.132317927191E-01 -0.254252076214E-01 -0.321709051454E-01
  0.688000643773E-03 -0.192382124524E-03  0.185980427409E-04  0.410473996866E-02 -0.447437657657E-03  0.973174900874E-02 -0.194055862949E-04
 -0.387458053594E-03  0.284330869685E-03  0.429763270197E-02  0.149320415911E-02  0.517130730914E-04  0.758425575668E-03  0.113148152937E-02
  0.753201157595E-03  0.696403598943E-03  0.834178617974E-03  0.695135485021E-03  0.256022080257E-03 -0.423469512790E-03  0.298417860611E-03
 -0.360394992929E-03  0.306484421022E-02 -0.230060851739E-03 -0.701742536422E-03  0.411751205793E-03 -0.904688798515E-03 -0.148512877248E-02
 -0.520586277872E-02  0.174283470807E-03 -0.132935742210E-02 -0.395231605544E-02 -0.669145023948E-02
 -0.155448255550E-03  0.410890819233E-04  0.241689659778E-03  0.557925734460E-03  0.128336918429E-03  0.973139745913E-03 -0.760919990412E-04
  0.868579226109E-05 -0.245074916401E-03  0.373129420297E-03 -0.884482965278E-04 -0.284835662155E-03  0.529353204451E-05  0.835666522708E-05
  0.687189661641E-05 -0.133536584910E-04  0.161892560314E-05 -0.711640402537E-05  0.115841568269E-04  0.276386709554E-04 -0.169072177148E-04
  0.289372982786E-04 -0.102517180601E-03  0.545798275599E-05 -0.267295763623E-05 -0.591853010701E-05 -0.219876436876E-04 -0.802323074700E-05
 -0.261820682996E-05 -0.238051080726E-05  0.518892745534E-06  0.173553493639E-05  0.654923408943E-05
 -0.198499833598E-03 -0.204932242384E-03 -0.309697129313E-03  0.103420792538E-02 -0.716676540025E-03  0.224351648206E-03  0.156036732684E-02
  0.208712778151E-02 -0.609651558520E-03  0.980805445325E-03  0.298748034027E-03  0.109194485857E-02  0.626923640459E-03  0.283378828084E-03
  0.647020653818E-03  0.236867372263E-03  0.629135895196E-03  0.888600871168E-03  0.105425338858E-02  0.109578698549E-02  0.102591519939E-02
  0.165905868670E-02  0.112529630345E-02  0.116591484717E-02  0.102752124673E-02  0.886906667000E-03  0.168634992429E-02  0.113905313858E-02
  0.691318344530E-03  0.368559465741E-03  0.801739939795E-03  0.869572584660E-03  0.491807421720E-03
  0.718421897219E-03  0.197890097719E-02  0.342980232715E-02 -0.108867103107E-01  0.409105451405E-02 -0.335471121373E-01  0.152372133792E-02
 -0.485885911389E-03 -0.101634008539E-02 -0.150870522972E-01  0.142568025944E-02  0.231422366454E-02  0.127194045972E-02  0.848515657011E-03
  0.635898473657E-03  0.600567585138E-03  0.300561634394E-03  0.460732372913E-03  0.114872735182E-02  0.170328285115E-02  0.880304933179E-03
 -0.598416952142E-03 -0.101429160431E-01  0.109205311356E-02  0.222238174336E-02  0.108174076908E-02  0.131277821303E-02  0.276997773922E-02
  0.117586099938E-01  0.104475518408E-02  0.496527183638E-02  0.101092159519E-01  0.133526217269E-01
        15         7        19        19
         8        20        19        19
        18        19        21        21
         7         4         8         8
         3         6         4         4
        19         7         8         8
        19        18        15        15
        14        13        15        15
         8        22        20        20
        27        24        22        22
        19        20        21        21
        32        26        21        21
        17        18        26        26
        17        16        15        15
        25        29        21        21
        12         7        13        13
        10         8         6         6
        25        20        24        24
         4         6         8         8
        12         2         4         4
        10        23        22        22
        26        31        17        17
        30        16        17        17
         4         7        12        12
        13        11        12        12
        21        20        25        25
        24        28        25        25
        22         8        10        10
         6         5        10        10
        31        26        32        32
         4         2         3         3
         5         6         3         3
        11        13        14        14
        22        23        27        27
        28        24        27        27
        15        13         7         7
         2        12         1         1
        29        25        33        33
        23        10         9         9
        21        26        18        18
        16        14        15        15
        18        17        15        15
        29        32        21        21
        22        24        20        20
        28        33        25        25
        11         1        12        12
        31        30        17        17
         5         9        10        10
zone t="boundary 3 bc-3", solutiontime= 0.4000000E+02, strandid=1003, i=33, j=48, f=feblock
  0.375059096892E+01  0.249769609313E+01  0.500322133174E+01  0.403612218725E+01  0.287976772365E+01  0.124541910518E+01  0.190552237404E+01
  0.500000000000E+01  0.326671104552E+01  0.423253755448E+01  0.201271136506E+01 -0.547468544169E-02  0.958895643487E+00  0.500000000000E+01
  0.266968147299E+01  0.385584487271E+01  0.890374214836E+00  0.154654013699E+01  0.000000000000E+00  0.500000000000E+01  0.315261136744E+01
  0.218304199515E+01  0.398195307895E+01  0.000000000000E+00  0.697379952124E+00  0.963757277315E+00  0.125000000000E+01  0.000000000000E+00
  0.500000000000E+01  0.310330738524E+01  0.250000000000E+01  0.375000000000E+01  0.000000000000E+00
  0.250494197117E+01  0.250494197117E+01  0.250494197117E+01  0.250494197117E+01  0.250494197117E+01  0.250494197117E+01  0.250494197117E+01
  0.250494197117E+01  0.250494197117E+01  0.250494197117E+01  0.250494197117E+01  0.250494197117E+01  0.250494197117E+01  0.250494197117E+01
  0.250494197117E+01  0.250494197117E+01  0.250494197117E+01  0.250494197117E+01  0.250494197117E+01  0.250494197117E+01  0.250494197117E+01
  0.250494197117E+01  0.250494197117E+01  0.250494197117E+01  0.250494197117E+01  0.250494197117E+01  0.250494197117E+01  0.250494197117E+01
  0.250494197117E+01  0.250494197117E+01  0.250494197117E+01  0.250494197117E+01  0.250494197117E+01
  0.135649900494E-03  0.110129816467E-03  0.966887303890E-04  0.101756752009E+01  0.908094589218E+00  0.103942505801E-03  0.722629083213E+00
  0.125000000000E+01  0.188965661746E+01  0.191862696980E+01  0.176708239098E+01  0.803813859866E-04  0.969652551954E+00  0.250000000000E+01
  0.285339433501E+01  0.293325058812E+01  0.205656223819E+01  0.293157016932E+01  0.125000000000E+01  0.375000000000E+01  0.363766838842E+01
  0.396069444983E+01  0.407056385475E+01  0.250000000000E+01  0.307031995245E+01  0.397359820314E+01  0.500000000000E+01  0.375000000000E+01
  0.500000000000E+01  0.433260781310E+01  0.500000000000E+01  0.500000000000E+01  0.500000000000E+01
  0.000000000000E+00  0.000000000000E+00  0.000000000000E+00  0.444961626928E+00  0.402838316190E+00  0.000000000000E+00  0.379029001549E+00
  0.508827846411E+00  0.575719767468E+00  0.573484231916E+00  0.562571091033E+00  0.000000000000E+00  0.491643474339E+00  0.534340493553E+00
  0.556353506125E+00  0.564141623675E+00  0.522489639030E+00  0.521815314100E+00  0.440672136512E+00  0.517132480923E+00  0.524064820256E+00
  0.503612613683E+00  0.509416634110E+00  0.469886789982E+00  0.495646532245E+00  0.494503101969E+00  0.488630053423E+00  0.489035017215E+00
  0.492985464012E+00  0.498953669977E+00  0.486505314975E+00  0.484610387305E+00  0.495364848064E+00
  0.999989345567E+00  0.999989414891E+00  0.999989632591E+00  0.981375695393E+00  0.988672653297E+00  0.999989832933E+00  0.982271891095E+00
  0.984075644303E+00  0.990406052732E+00  0.990320090376E+00  0.994390331428E+00  0.999990300362E+00  0.988743428079E+00  0.100365390733E+01
  0.999774597300E+00  0.100117529834E+01  0.100830077599E+01  0.100251293722E+01  0.102982970104E+01  0.100442054131E+01  0.100199281310E+01
  0.100081994749E+01  0.100137956774E+01  0.100825795511E+01  0.100297377722E+01  0.100191712118E+01  0.100214790177E+01  0.100354817652E+01
  0.100047567419E+01  0.100056574043E+01  0.100126719373E+01  0.100066769089E+01  0.100178625606E+01
 -0.170674386205E-02  0.132201083458E-02 -0.282320104484E-02  0.156188359654E-01  0.610937315581E-01  0.384258691554E-02  0.607903995664E-01
 -0.967093913068E-02 -0.492333571335E-02 -0.609344565975E-02  0.101030015254E-01  0.610099359326E-02  0.411654707832E-01 -0.462832958635E-02
 -0.535330919694E-02 -0.380340262798E-02  0.118149484541E-02 -0.517332393295E-02  0.306698153626E-01 -0.315201979976E-02 -0.230361408611E-02
 -0.315320832701E-02 -0.240372365508E-02 -0.164940797485E-02 -0.451018700255E-02 -0.833663249528E-02 -0.256255586187E-01 -0.930968841911E-02
 -0.298754050713E-02 -0.367426761532E-02 -0.239587352917E-01 -0.129991838863E-01 -0.339875221353E-01
 -0.395679704207E-03 -0.383791067456E-03  0.702825138259E-03  0.442210230841E-02  0.843906960620E-02 -0.799379537530E-03  0.752104445257E-02
  0.158554167605E-02 -0.847727711216E-04  0.835288218411E-03  0.183802373724E-03  0.239185616527E-03  0.310025184309E-02  0.121103520003E-02
 -0.766491599584E-04  0.632353169055E-03 -0.114699412831E-02 -0.543364967297E-03  0.444646371891E-02  0.772756952433E-03  0.668052301040E-03
  0.362223964373E-03  0.780302804067E-03 -0.782535484550E-03 -0.105790387307E-02 -0.104803737430E-02 -0.454570593726E-02 -0.204888549977E-02
  0.271643722444E-03  0.430083969531E-03 -0.371566496234E-02 -0.129186412985E-02 -0.697895831144E-02
 -0.747327504923E-04  0.397275696416E-04  0.956215247339E-04 -0.296462697020E-03 -0.858394501725E-03  0.335326303330E-03 -0.127690171103E-04
  0.190341726310E-05 -0.958475106769E-04  0.160500623907E-04 -0.808348380187E-04  0.405768791173E-03  0.465443186299E-03  0.352477998316E-04
 -0.405115366242E-05  0.485397526083E-05 -0.158887303557E-03 -0.596924082841E-04  0.128345911019E-03  0.197164910702E-04  0.966577483307E-05
  0.428250899478E-04  0.768436114988E-06 -0.133155649769E-04 -0.361562327553E-04  0.122072308406E-04  0.171434869512E-04 -0.286948741872E-05
  0.691856224384E-05 -0.247534908923E-06  0.391385443385E-05 -0.100985285456E-05  0.332282746775E-05
 -0.462527389128E-03 -0.866011552658E-03 -0.242240073518E-03  0.654460101286E-03  0.104387667176E-02 -0.834650084168E-03  0.330834756354E-03
  0.374410860911E-03  0.191561138296E-02  0.929870861749E-03  0.277642662204E-02 -0.147365870735E-02  0.912627207257E-03  0.371733963027E-03
  0.986691143796E-03  0.826342096364E-03  0.233934958091E-02  0.105022357730E-02 -0.134218235133E-02  0.329612439931E-03  0.949348358111E-03
  0.981430122681E-03  0.710060965212E-03  0.155240234040E-02  0.151220641032E-02  0.101226831145E-02  0.727909395440E-03  0.128790280621E-02
  0.350545109994E-03  0.922576374814E-03  0.882362789920E-03  0.804657678707E-03  0.461520103641E-03
  0.706460002928E-02  0.301239296382E-02  0.132773038244E-02 -0.812664328366E-02 -0.264523516397E-01  0.190794000885E-03 -0.255304057276E-01
  0.246353488872E-02  0.152821923323E-02  0.157378495566E-02 -0.394641872922E-02 -0.487320632457E-02 -0.162193720405E-01  0.871092884333E-03
  0.169082310835E-02  0.862133109285E-03 -0.354049724698E-03  0.179119336817E-02 -0.126317668580E-01  0.618586003205E-03  0.381154449874E-03
  0.812931179764E-03  0.391944579562E-03  0.663494985192E-03  0.165175445924E-02  0.313645334891E-02  0.103602163999E-01  0.375468054339E-02
  0.846629311519E-03  0.970700248413E-03  0.950701105909E-02  0.486639404653E-02  0.141094002959E-01
        15         9        16        16
        15        18        11        11
        22        15        21        21
        11         5         9         9
         5         7         2         2
        11         9        15        15
        16        21        15        15
        16        10        14        14
        18        17        11        11
        17        25        24        24
        22        18        15        15
        22        30        31        31
        30        21        23        23
        16        20        23        23
        22        27        26        26
        10         9         4         4
         7        11        13        13
        25        18        26        26
        11         7         5         5
         5         1         4         4
        17        19        13        13
        23        32        30        30
        23        20        29        29
         4         9         5         5
         4         8        10        10
        26        18        22        22
        26        28        25        25
        13        11        17        17
        13         6         7         7
        31        30        32        32
         2         1         5         5
         2         7         6         6
        14        10         8         8
        24        19        17        17
        24        25        28        28
         9        10        16        16
         3         4         1         1
        33        26        27        27
        12        13        19        19
        21        30        22        22
        16        14        20        20
        16        23        21        21
        22        31        27        27
        18        25        17        17
        26        33        28        28
         4         3         8         8
        23        29        32        32
        13        12         6         6
zone t="boundary 4 bc-4", solutiontime= 0.4000000E+02, strandid=1004, i=32, j=46, f=feblock
  0.125000000000E+01  0.219251206392E+01  0.103724302461E+01  0.500000000000E+01  0.250000000000E+01  0.375000000000E+01  0.404200324774E+01
  0.500000000000E+01  0.000000000000E+00  0.310152362409E+01  0.202479342020E+01  0.324151231464E+01  0.922061490191E+00  0.000000000000E+00
  0.299062775774E+01  0.394624082883E+01  0.500000000000E+01  0.409252726285E+01  0.500000000000E+01  0.429310310915E+01  0.175434191980E+01
  0.284428995242E+01  0.000000000000E+00  0.000000000000E+00  0.715990576545E+00  0.930412228790E+00  0.125000000000E+01  0.187029682677E+01
  0.500000000000E+01  0.375000000000E+01  0.250000000000E+01  0.000000000000E+00
  0.250494197117E+01  0.157686156160E+01  0.146289271009E+01  0.250494197117E+01  0.250494197117E+01  0.250494197117E+01  0.155830813274E+01
  0.125000000000E+01  0.250494197117E+01  0.177790177481E+01  0.477386199275E+00  0.742988685424E+00  0.308372018325E+00  0.125000000000E+01
 -0.487811078581E+00 -0.144524380962E+01 -0.125000000000E+01 -0.345533899378E+00  0.000000000000E+00  0.627766083140E+00 -0.739814786992E+00
 -0.158811787973E+01  0.000000000000E+00 -0.125000000000E+01 -0.600232012419E+00 -0.154800130438E+01 -0.249658903664E+01 -0.178862290564E+01
 -0.249658903664E+01 -0.249658903664E+01 -0.249658903664E+01 -0.249658903664E+01
  0.500000000000E+01  0.500000000000E+01  0.500000000000E+01  0.500000000000E+01  0.500000000000E+01  0.500000000000E+01  0.500000000000E+01
  0.500000000000E+01  0.500000000000E+01  0.500000000000E+01  0.500000000000E+01  0.500000000000E+01  0.500000000000E+01  0.500000000000E+01
  0.500000000000E+01  0.500000000000E+01  0.500000000000E+01  0.500000000000E+01  0.500000000000E+01  0.500000000000E+01  0.500000000000E+01
  0.500000000000E+01  0.500000000000E+01  0.500000000000E+01  0.500000000000E+01  0.500000000000E+01  0.500000000000E+01  0.500000000000E+01
  0.500000000000E+01  0.500000000000E+01  0.500000000000E+01  0.500000000000E+01
  0.488630053423E+00  0.488907200673E+00  0.490613524454E+00  0.492985464012E+00  0.486505314975E+00  0.484610387305E+00  0.485346346417E+00
  0.494164094826E+00  0.495364848064E+00  0.486544301825E+00  0.487826539497E+00  0.487053944491E+00  0.494057895498E+00  0.496127940578E+00
  0.487590739712E+00  0.483169495133E+00  0.492384717662E+00  0.487198320547E+00  0.494738341209E+00  0.487947262281E+00  0.489650836219E+00
  0.487975047811E+00  0.497248366859E+00  0.496055083747E+00  0.494947818077E+00  0.492777844524E+00  0.489959820989E+00  0.489963118744E+00
  0.491323935798E+00  0.486019442841E+00  0.489980976742E+00  0.495089980244E+00
  0.100214790177E+01  0.100152376261E+01  0.100177920363E+01  0.100047567419E+01  0.100126719373E+01  0.100066769089E+01  0.100025509248E+01
  0.100050308878E+01  0.100178625606E+01  0.100112381228E+01  0.100132857256E+01  0.100072299640E+01  0.100164084009E+01  0.100168369530E+01
  0.100096380429E+01  0.100001109262E+01  0.100083219162E+01  0.100022379580E+01  0.100062130449E+01  0.100023379273E+01  0.100174737467E+01
  0.100099023681E+01  0.100118721261E+01  0.100134451878E+01  0.100132726122E+01  0.100179980273E+01  0.100192626091E+01  0.100163810987E+01
  0.100045827286E+01  0.100058947226E+01  0.100110091494E+01  0.100176433139E+01
 -0.256255586187E-01 -0.248593622978E-01 -0.255314477402E-01 -0.298754050713E-02 -0.239587352917E-01 -0.129991838863E-01 -0.903601524287E-02
 -0.297349045216E-02 -0.339875221353E-01 -0.199251058509E-01 -0.267214104500E-01 -0.187256424627E-01 -0.311307892236E-01 -0.351926884281E-01
 -0.211049575739E-01 -0.870187043147E-02 -0.336845227626E-02 -0.110810436202E-01 -0.276162952124E-02 -0.110693515170E-01 -0.328839254970E-01
 -0.198624591662E-01 -0.387959454831E-01 -0.342357832564E-01 -0.360639199617E-01 -0.289167409971E-01 -0.289404160432E-01 -0.306023380005E-01
 -0.345688938991E-02 -0.132317927191E-01 -0.254252076214E-01 -0.321709051454E-01