# vtk DataFile Version 2.0
FUN3D:global_image_vtk
ASCII
DATASET UNSTRUCTURED_GRID
POINTS 213 double
   -0.5474685441588804E-02    0.2526211113745771E-35    0.2504941971167247E+01
   -0.1707340428180244E-35    0.8038138597353968E-04    0.4453519464597403E-35
    0.1245419105183553E+01    0.1985224894311882E-35    0.2504941971167247E+01
   -0.1707340428180244E-35    0.1039425057863163E-03    0.4316162635685664E-35
    0.2497696093128823E+01    0.6944896612951595E-36    0.2504941971167247E+01
   -0.1707340428180244E-35    0.1101298164497465E-03    0.4173225959378977E-35
    0.3750590968915816E+01   -0.1060143106942381E-35    0.2504941971167247E+01
   -0.1707340428180244E-35    0.1356499004753125E-03    0.3988778972571765E-35
    0.5003221331742100E+01   -0.2625385098938825E-35    0.2504941971167247E+01
   -0.1707340428180244E-35    0.9668873036949041E-04    0.3848783644235137E-35
    0.5004676687979024E+01   -0.2972653908263992E-35    0.1281291202166762E+01
   -0.1021399743581513E-34    0.1638053019228863E-03    0.2750101870651452E-35
    0.5004772673778053E+01   -0.2495863875884927E-35    0.2775079906459896E-01
   -0.8577871414238328E-35    0.1903478008335419E-03    0.1720658615788301E-35
    0.5003581183341172E+01   -0.1486267184222420E-35   -0.1225853508883716E+01
   -0.7060022786760930E-35    0.1607765204439931E-03    0.7496133483515301E-36
    0.5001952533742172E+01   -0.4919871114027091E-36   -0.2496589036641657E+01
   -0.1009112692362907E-35    0.1082258890299231E-03   -0.2216189583576546E-36
    0.3750348111606540E+01   -0.1504753490332257E-37   -0.2496589036641657E+01
   -0.1009112692362907E-35    0.1458753696816364E-03   -0.1647442752115810E-36
    0.2498611462994939E+01    0.5153662235149054E-36   -0.2496589036641657E+01
   -0.1009112692362907E-35    0.1008933264257106E-03   -0.9832617016047011E-37
    0.1247175269333299E+01    0.9830714798681592E-36   -0.2496589036641657E+01
   -0.1009112692362907E-35    0.1108587619190194E-03   -0.3744866888941271E-37
   -0.3383959865690848E-02    0.1123058279369039E-35   -0.2496589036641657E+01
   -0.1009112692362907E-35    0.8107259626749519E-04    0.5081468500413634E-37
   -0.4257768979715417E-02    0.1686868554153108E-35   -0.1225734811642753E+01
   -0.7187501084205908E-35    0.3415458742117358E-04    0.1137913395730692E-35
   -0.5251592448436873E-02    0.2332995260267599E-35    0.2619486024401898E-01
   -0.8045087649350971E-35    0.1038724387134547E-03    0.2221160426548656E-35
   -0.5676060312334479E-02    0.2689399293207173E-35    0.1278221569065493E+01
   -0.9076701862698097E-35    0.8224601701239251E-04    0.3347933941357509E-35
    0.9003209617953525E+00    0.2636586420329535E-35    0.1608979112279912E+01
   -0.1006792799698197E-34    0.8704140726522409E-04    0.3545065049132923E-35
    0.3983172210692280E+01   -0.4343478604288321E-36   -0.1561211904840453E+01
   -0.6823999385238442E-35    0.1757116720330620E-03    0.5416552918752148E-36
    0.4035602039224441E+01   -0.1426108516619815E-35    0.1486760030415210E+01
   -0.1156068559658853E-34    0.1713312861948913E-03    0.3031872491294855E-35
    0.1036613723302945E+01    0.1478020043798120E-35   -0.1455626429917021E+01
   -0.7266803569343295E-35    0.1047189301521237E-03    0.8365337809074907E-36
    0.1094353480630872E+01    0.2200231733269143E-35   -0.2964622010673848E+00
   -0.8265146075299544E-35    0.1260590236860053E-03    0.1822116556044968E-35
    0.7298400267480862E+00    0.2619512570259065E-35    0.6874684746716935E+00
   -0.9075958037447516E-35    0.1044598640463298E-03    0.2737673041114743E-35
    0.1617018659309029E+01    0.2462764046985659E-35    0.8553208024936867E+00
   -0.9979286546144651E-35    0.1529810904871084E-03    0.2767301625485654E-35
    0.2143199662875819E+01    0.1025242246370047E-35   -0.1627128509216901E+01
   -0.6988552735446424E-35    0.1606170425196828E-03    0.5966697455999075E-36
    0.4088840445400856E+01   -0.1231968741325697E-35   -0.4351047825938426E+00
   -0.8243792169480824E-35    0.2719933294014179E-03    0.1386158584656833E-35
    0.2977916511248946E+01    0.6304883531531588E-36   -0.8334991483096447E+00
   -0.7610896135971881E-35    0.2245596931800793E-03    0.1168221724972206E-35
    0.3044093241383426E+01    0.3769466529648392E-36   -0.1814361225108754E+01
   -0.6842909271041691E-35    0.1617000112395509E-03    0.3951501028853445E-36
    0.3427866614805219E+01   -0.8582324414279006E-37    0.3813904839969788E+00
   -0.1030135109039084E-34    0.2936955483306923E-03    0.2111991700965638E-35
    0.4313225355351699E+01   -0.2083827281727345E-35    0.5489133376339804E+00
   -0.1004988327557221E-34    0.2313009573462985E-03    0.2191841130999007E-35
    0.1823032737597431E+01    0.1857983067961447E-35    0.1771265193543967E+01
   -0.1125205458709768E-34    0.1836202887008289E-03    0.3546017249857714E-35
    0.2806311152168412E+01    0.7857211630640703E-36    0.1358629373600376E+01
   -0.1164804066037046E-34    0.1943492163842754E-03    0.3057315044107337E-35
    0.1891860875936763E+01    0.1695464646579660E-35   -0.8481310365609485E+00
   -0.7858508506393660E-35    0.1670645501765072E-03    0.1263369112363992E-35
    0.2268769200166970E+01    0.1923092406296543E-35    0.7723691819172872E-01
   -0.9339584543518456E-35    0.2072307782994233E-03    0.2004381738278963E-35
    0.5000000000000000E+01    0.1855544078048566-173    0.2504941971167247E+01
   -0.1707340428180244E-35    0.1250000000000000E+01    0.1855544078048566-173
    0.5000000000000000E+01    0.1855544078048566-173    0.2504941971167247E+01
   -0.1707340428180244E-35    0.2500000000000000E+01    0.1855544078048566-173
    0.5000000000000000E+01    0.1855544078048566-173    0.2504941971167247E+01
   -0.1707340428180244E-35    0.3750000000000000E+01    0.1855544078048566-173
    0.5000000000000000E+01    0.1855544078048566-173    0.2504941971167247E+01
   -0.1707340428180244E-35    0.5000000000000000E+01    0.1855544078048566-173
    0.3750000000000000E+01    0.1855544078048566-173    0.2504941971167247E+01
   -0.1707340428180244E-35    0.5000000000000000E+01    0.1855544078048566-173
    0.2500000000000000E+01    0.1855544078048566-173    0.2504941971167247E+01
   -0.1707340428180244E-35    0.5000000000000000E+01    0.1855544078048566-173
    0.1250000000000000E+01    0.1855544078048566-173    0.2504941971167247E+01
   -0.1707340428180244E-35    0.5000000000000000E+01    0.1855544078048566-173
   -0.1999918782622763-145    0.1855544078048566-173    0.2504941971167247E+01
   -0.1707340428180244E-35    0.5000000000000000E+01    0.1855544078048566-173
   -0.1999918782622763-145    0.1855544078048566-173    0.2504941971167247E+01
   -0.1707340428180244E-35    0.3750000000000000E+01    0.1855544078048566-173
   -0.1999918782622763-145    0.1855544078048566-173    0.2504941971167247E+01
   -0.1707340428180244E-35    0.2500000000000000E+01    0.1855544078048566-173
   -0.1999918782622763-145    0.1855544078048566-173    0.2504941971167247E+01
   -0.1707340428180244E-35    0.1250000000000000E+01    0.1855544078048566-173
    0.9588956434871732E+00    0.1886337358828331E-35    0.2504941971167247E+01
   -0.1707340428180244E-35    0.9696525519543094E+00    0.5864296231776194E-36
    0.3981953078951400E+01    0.6147436250741590E-37    0.2504941971167247E+01
   -0.1707340428180244E-35    0.4070563854751263E+01    0.2059246207753373E-36
    0.4036122187252332E+01   -0.6794251098625432E-36    0.2504941971167247E+01
   -0.1707340428180244E-35    0.1017567520094607E+01    0.1354406339140036E-35
    0.9637572773153936E+00    0.1524590518453771E-37    0.2504941971167247E+01
   -0.1707340428180244E-35    0.3973598203142217E+01    0.1392117569451868E-36
    0.1546540136992412E+01    0.2880207976748923E-36    0.2504941971167247E+01
   -0.1707340428180244E-35    0.2931570169315567E+01    0.4616123731062006E-36
    0.6973799521244448E+00    0.1881883644486196E-36    0.2504941971167247E+01
   -0.1707340428180244E-35    0.3070319952453735E+01    0.2276481154608085E-36
    0.8903742148357219E+00    0.7663485171209320E-36    0.2504941971167247E+01
   -0.1707340428180244E-35    0.2056562238187697E+01    0.4670626438260509E-36
    0.2183041995146016E+01    0.5179722764431609E-37    0.2504941971167247E+01
   -0.1707340428180244E-35    0.3960694449828003E+01    0.2957124172146419E-36
    0.3855844872709867E+01    0.4748537933484121E-37    0.2504941971167247E+01
   -0.1707340428180244E-35    0.2933250588118610E+01    0.5271168660452885E-36
    0.3152611367438030E+01    0.7618072157504757E-37    0.2504941971167247E+01
   -0.1707340428180244E-35    0.3637668388416177E+01    0.4101800496528937E-36
    0.3103307385241870E+01    0.5086436728890333E-37    0.2504941971167247E+01
   -0.1707340428180244E-35    0.4332607813099722E+01    0.2039554908240120E-36
    0.3266711045517948E+01    0.1358669887899618E-36    0.2504941971167247E+01
   -0.1707340428180244E-35    0.1889656617463699E+01    0.1403363901359008E-35
    0.4232537554484789E+01   -0.1138391077012771E-36    0.2504941971167247E+01
   -0.1707340428180244E-35    0.1918626969802322E+01    0.5196691142771863E-36
    0.1905522374036585E+01    0.1714519729037908E-35    0.2504941971167247E+01
   -0.1707340428180244E-35    0.7226290832133980E+00    0.1984543996457859E-35
    0.2879767723645830E+01    0.1870160839145138E-36    0.2504941971167247E+01
   -0.1707340428180244E-35    0.9080945892181529E+00    0.2690983363250975E-35
    0.2012711365064544E+01    0.5672081385512284E-36    0.2504941971167247E+01
   -0.1707340428180244E-35    0.1767082390977705E+01    0.1412358670949005E-35
    0.2669681472994645E+01    0.1668577384700260E-36    0.2504941971167247E+01
   -0.1707340428180244E-35    0.2853394335010762E+01    0.8673857040691615E-36
    0.5000000000000000E+01    0.1855544078048566-173    0.1250000000000000E+01
    0.1855544078048566-173    0.5000000000000000E+01    0.1855544078048566-173
    0.5000000000000000E+01    0.1855544078048566-173   -0.1999918782622763-145
[...]
POINT_DATA 213
SCALARS rho double 1
LOOKUP_TABLE default
   0.1346125698792234E+01
  -0.2990663927267602E-29
   0.9572084502456131E+00
  -0.9000293704070529E-30
   0.9461020581736764E+00
  -0.9196392290223692E-30
   0.9421833153601121E+00
  -0.1155060138976282E-29
   0.8436101190301983E+00
  -0.1607464777958314E-29
   0.7742024978838172E+00
  -0.1648216402835550E-29
   0.7627632861757325E+00
  -0.1686390653190951E-29
   0.7661496069897232E+00
  -0.1673524096326872E-29
   0.8310481753372569E+00
  -0.1630815084634179E-29
   0.9353608244459183E+00
  -0.1165782845431171E-29
   0.9344036358503111E+00
  -0.9153363773760054E-30
   0.9615898855041625E+00
  -0.9253650641527218E-30
   0.1448480211593568E+01
  -0.3498532182178161E-29
   0.1495421837651054E+01
  -0.3486129986402464E-29
   0.1646754926652728E+01
  -0.4495610077905547E-29
   0.1426608059276625E+01
  -0.3287549125394669E-29
   0.1009808066593215E+01
  -0.1186691420902603E-29
   0.9511456921285727E+00
  -0.1177199896337611E-29
   0.9438291249430905E+00
  -0.1182572750682834E-29
   0.9574489516459812E+00
  -0.8216375234888081E-30
   0.9414832402068095E+00
  -0.7275572947372423E-30
   0.1037118220250649E+01
  -0.1233217542468490E-29
   0.9258147524565198E+00
  -0.7439337110961870E-30
   0.9322497215286589E+00
  -0.8337874852585067E-30
   0.9538141781519113E+00
  -0.1194227240043439E-29
   0.9520438536346391E+00
  -0.1036316692783848E-29
   0.9350971730942297E+00
  -0.1037483392560521E-29
   0.9565537312345297E+00
  -0.1112897328086125E-29
   0.9378700247189825E+00
  -0.1210740631309187E-29
   0.9303318758458294E+00
  -0.7520723255455580E-30
   0.9446515868571923E+00
  -0.9792114636411691E-30
   0.8862352504856351E+00
  -0.6356512918458752E-30
   0.9424046867138058E+00
  -0.8899188248965028E-30
   0.9637219621678222E+00
  -0.3619105353085364E-30
   0.1008362555381963E+01
  -0.7272906188389864E-32
   0.1006713359407599E+01
   0.7273862912345884E-32
   0.1001959292488218E+01
  -0.4790066414356838E-31
   0.1003218319909937E+01
  -0.7467480432807597E-31
   0.1004120515597372E+01
  -0.8423595948047841E-31
   0.1005207984588952E+01
  -0.7402501040431925E-31
   0.1004249812870448E+01
  -0.5997106128898734E-31
   0.1008267840486172E+01
  -0.8963514600210365E-31
   0.1023867442327900E+01
  -0.1811868132770349E-30
   0.1063751872115611E+01
  -0.1307621714887511E-30
   0.1019386190169300E+01
  -0.3785902565906322E-30
   0.1001778951569801E+01
  -0.4757322160675210E-31
   0.9645978253141163E+00
  -0.5029534393802647E-30
   0.1005263108607352E+01
  -0.8609535947514968E-31
   0.1000745575693967E+01
  -0.6849663372854825E-31
   0.1008695102924244E+01
  -0.1111658203333162E-30
   0.1008032474265670E+01
  -0.7639804162073616E-31
   0.1002354647795214E+01
  -0.8168593668056341E-31
   0.9980224583641054E+00
  -0.1446136233491765E-31
   0.1000594439961462E+01
  -0.4967978616046286E-31
   0.1001621525173876E+01
  -0.7634946369916764E-31
   0.9828107626701558E+00
  -0.1431527986433238E-30
   0.9844011470098925E+00
  -0.1426054824351023E-30
   0.9834292436775629E+00
  -0.5258647351012848E-30
   0.9790424715228693E+00
  -0.5045260646955490E-30
   0.9904798688289790E+00
  -0.1145037323782798E-30
   0.9935224859956434E+00
  -0.4223647753589722E-31
   0.1002009121472733E+01
  -0.4310208611986858E-31
   0.1002132306679108E+01
  -0.4050238714163600E-31
   0.1002272999047613E+01
  -0.3957077003598658E-31
   0.1001793211324072E+01
  -0.5061318244056040E-31
   0.1009815023262302E+01
  -0.5989119391240094E-33
   0.1006499292022658E+01
   0.2173878336762889E-32
   0.9560850197882453E+00
  -0.3244781417857729E-30
   0.9252997229986978E+00
  -0.5909925330079514E-30
   0.1007053745723093E+01
  -0.2987446814599670E-33
   0.1004491579433930E+01
  -0.7389476360274728E-32
   0.9144889788676498E+00
  -0.4963915481678407E-30
   0.9091476972005011E+00
  -0.4567303079059707E-30
   0.8752502421480783E+00
  -0.7547575614345526E-30
   0.9768038789474521E+00
  -0.1834828031580755E-30
   0.1000530350430620E+01
  -0.3179222229150998E-31
   0.1005826594058000E+01
   0.7672973425344115E-32
   0.1012895283708351E+01
   0.6245063429135065E-31
   0.1011677093075250E+01
   0.2730948710039536E-31
   0.1010416006845094E+01
   0.5992478988855580E-31
   0.1005456624941747E+01
  -0.7117064808952936E-32
   0.9909260167286628E+00
  -0.1398433480031613E-30
   0.1005152521437605E+01
   0.2745451546330455E-31
   0.9860803793460944E+00
  -0.5833005009472223E-31
   0.1005592634882578E+01
   0.4285910564059372E-31
   0.1004239968047815E+01
  -0.6075974091104264E-31
   0.1002886288344104E+01
  -0.5570719188257129E-31
   0.1003350790183601E+01
  -0.5469739287182749E-31
   0.1003998919009253E+01
  -0.5711084071766987E-31
   0.1005116695723469E+01
  -0.7528298033382877E-31
   0.1003224182926270E+01
  -0.8074987396397767E-31
   0.1002669141845435E+01
  -0.6921632358659146E-31
   0.1002590239987068E+01
  -0.7684730722489544E-31
   0.1004070006871416E+01
  -0.6264551074469300E-31
   0.1004304927420573E+01
  -0.6497524391158234E-31
   0.1001642991099652E+01
  -0.8112224214505407E-31
   0.1002279318422699E+01
  -0.7405609769927314E-31
   0.1002547201290750E+01
  -0.7074137751659995E-31
   0.1003472605471870E+01
  -0.8800615119264102E-31
   0.1003380912627355E+01
  -0.7982419566987487E-31
   0.1003233772935285E+01
  -0.5851160154176642E-31
   0.1004430836566264E+01
  -0.8068054841233295E-31
   0.1004325274795477E+01
  -0.8140332803911564E-31
   0.1003653371444713E+01
  -0.5756696426488403E-31
   0.1003719202371933E+01
  -0.7809630028323583E-31
   0.1004319513737515E+01
  -0.8060964172374614E-31
   0.1004463148110463E+01
  -0.9047623729083344E-31
   0.1003629976406947E+01
  -0.8347085913314914E-31
   0.1064490591623287E+01
  -0.1009242862907677E-30
   0.1028445777421935E+01
  -0.1985451941059252E-30
   0.1009607601744748E+01
  -0.9533598619126984E-31
   0.1006626773737332E+01
  -0.8390281006972384E-31
   0.1163979469084354E+01
  -0.5829200462818841E-30
   0.1086026000648833E+01
  -0.8543295528256914E-31
   0.1007908396157716E+01
  -0.9245073667292059E-31
   0.1007252665002219E+01
  -0.8875842498629219E-31
   0.1006796748366696E+01
  -0.7935536954687322E-31
   0.1013053607356000E+01
  -0.1623543577276188E-30
   0.1019342639062194E+01
  -0.1758383912916793E-30
   0.1235143810518178E+01
  -0.1086737564810546E-29
   0.1032536233436494E+01
  -0.9026683281903433E-31
   0.1046567724677642E+01
  -0.2794850035630572E-30
   0.1201703015202829E+01
  -0.8353459304926885E-30
   0.1014671123069100E+01
  -0.1237272665466600E-30
   0.1032295321172646E+01
  -0.2131374251956110E-30
   0.1028222147653825E+01
  -0.2591311531340728E-30
   0.1014641480020890E+01
  -0.1733531648625157E-30
   0.1029002255340666E+01
  -0.4098640823971887E-30
   0.1002002850850638E+01
  -0.5134518002641421E-31
   0.9607830875367402E+00
  -0.4525446965649164E-30
   0.1006859702014848E+01
  -0.8889641218896305E-31
   0.1001326953676552E+01
  -0.6698065363013710E-31
   0.1010800862673338E+01
  -0.1140629068242132E-30
   0.1012237271693942E+01
  -0.8474355498949924E-31
   0.1000940429241398E+01
  -0.8009554286358985E-31
   0.9979317148526368E+00
  -0.1552802427232993E-31
   0.9980683513669822E+00
  -0.5354414923923436E-31
   0.1001191941476254E+01
  -0.7139554397089553E-31
   0.9841985844064196E+00
  -0.1124210314616358E-30
   0.9815070628897741E+00
  -0.1156480299969527E-30
   0.9648654985652597E+00
  -0.4677967370245757E-30
   0.9680713451661550E+00
  -0.4779794571119029E-30
   0.9914149188356318E+00
  -0.1182692878692269E-30
   0.9910916499299443E+00
  -0.4125709613816983E-31
   0.9925598158205605E+00
  -0.1301271614531957E-31
   0.1001728507349954E+01
  -0.5348271574063875E-31
   0.9993250730181558E+00
  -0.2591998834817242E-31
   0.9941444013954788E+00
  -0.7424886529676337E-32
   0.1006981379691589E+01
  -0.1135782037506773E-31
   0.1022611652790495E+01
  -0.6399080171171945E-31
   0.1001121694422858E+01
  -0.1090002902486072E-30
   0.1008784262488803E+01
  -0.1044829158680097E-30
   0.1004775042370012E+01
  -0.8932340917081550E-31
   0.1009029444980402E+01
  -0.1083774640855355E-30
   0.9967197951464259E+00
  -0.5481057708671743E-31
   0.1005567615110115E+01
  -0.5408980663040321E-30
   0.1003325680983588E+01
  -0.8309580653519175E-31
   0.9949865113826158E+00
  -0.3648209939321084E-31
   0.9833521980895175E+00
  -0.6098004900180808E-31
   0.9944521715914768E+00
  -0.1718103607054251E-31
   0.9973482195830834E+00
  -0.1868209623907433E-31
   0.9932519192408887E+00
  -0.6891246358274377E-32
   0.1001312596127498E+01
  -0.6994593046587702E-31
   0.1003001443387642E+01
  -0.7913286975296889E-31
   0.1002189164023832E+01
  -0.6706284018180005E-31
   0.9947119520445860E+00
   0.1606207712275684E-31
   0.9937839663275465E+00
  -0.1967519021632568E-31
   0.1004862067999046E+01
  -0.9258674899326646E-31
   0.1020102934380948E+01
  -0.5206962334695484E-31
   0.1005341234166943E+01
  -0.7753832413750238E-31
   0.9817063604719776E+00
  -0.5874968623501350E-31
   0.1004975496208316E+01
  -0.8294757770802312E-31
   0.1012376563096532E+01
  -0.1079731737012734E-30
   0.9873747506642870E+00
  -0.4721384824466911E-30
   0.9551282273253612E+00
  -0.3482252346872020E-30
   0.9865280352195790E+00
  -0.7983605185298226E-31
   0.9865952837892362E+00
  -0.7622555977646191E-31
   0.9920084189393118E+00
  -0.4497310303216643E-30
   0.9934470882557470E+00
  -0.9430090785853819E-31
   0.9960657351067861E+00
  -0.4989294948633927E-30
   0.1037405689197987E+01
  -0.9723028859349556E-31
   0.1033165793969471E+01
  -0.3283809343121877E-30
   0.1001443388346411E+01
  -0.3862163457326946E-31
   0.1001929572657985E+01
  -0.7325892370874687E-31
   0.9912286619383303E+00
  -0.3889654267160891E-32
   0.9911121618511488E+00
  -0.2743953525278360E-31
   0.9649300772426938E+00
  -0.2244591030357394E-30
   0.9933729779537289E+00
  -0.2626313008390656E-31
   0.1006089078660993E+01
   0.7891250459349267E-34
   0.1001962090510668E+01
  -0.2967220359953392E-32
   0.9908628432216207E+00
  -0.4229290507740897E-31
   0.9742274354942684E+00
  -0.2550628393644746E-30
   0.9420781894552888E+00
  -0.5831922646221748E-30
   0.9821604707853678E+00
  -0.2774291584196526E-30
   0.9794777322481546E+00
  -0.5877076310755209E-31
   0.9704352213683038E+00
  -0.4067931518391716E-30
   0.9720842366312282E+00
  -0.2975298519242830E-30
   0.9557868574578133E+00
  -0.2043896965581694E-30
   0.9497981857568077E+00
  -0.3653565475524763E-30
   0.9529848035044254E+00
  -0.6016468162599558E-30
   0.1002637253101575E+01
  -0.8841164136002531E-31
   0.1002476289735560E+01
  -0.8034545572767656E-31
   0.1000513241502894E+01
  -0.4708409361318036E-31
   0.1001675743952288E+01
   0.3905417090655162E-32
   0.9610108026032879E+00
  -0.5831153304999497E-30
   0.9492469675491552E+00
  -0.6704304389235088E-30
   0.9586432573268068E+00
  -0.6015835757436594E-30
   0.1001121461658383E+01
  -0.7278710959456200E-31
   0.1000500583032202E+01
  -0.5864617394507407E-31
   0.1001161090895125E+01
  -0.2235849256396261E-31
   0.9807429268002931E+00
  -0.5793046402087857E-31
   0.9805608244551546E+00
  -0.2767570345336390E-30
   0.9629214509903323E+00
  -0.4945528943991711E-30
SCALARS u double 1
LOOKUP_TABLE default
   0.0000000000000000E+00
   0.0000000000000000E+00
   0.0000000000000000E+00
   0.0000000000000000E+00
   0.0000000000000000E+00
   0.0000000000000000E+00
   0.0000000000000000E+00
   0.0000000000000000E+00
   0.0000000000000000E+00
   0.0000000000000000E+00
   0.0000000000000000E+00
   0.0000000000000000E+00
   0.0000000000000000E+00
   0.0000000000000000E+00
   0.0000000000000000E+00
   0.0000000000000000E+00
   0.0000000000000000E+00
   0.0000000000000000E+00
   0.0000000000000000E+00
   0.0000000000000000E+00
   0.0000000000000000E+00
   0.0000000000000000E+00
   0.0000000000000000E+00
   0.0000000000000000E+00
   0.0000000000000000E+00
   0.0000000000000000E+00
   0.0000000000000000E+00
   0.0000000000000000E+00
   0.0000000000000000E+00
   0.0000000000000000E+00
   0.0000000000000000E+00
   0.0000000000000000E+00
   0.0000000000000000E+00
   0.0000000000000000E+00
   0.0000000000000000E+00
   0.0000000000000000E+00
   0.0000000000000000E+00
   0.0000000000000000E+00
   0.0000000000000000E+00
   0.0000000000000000E+00
   0.0000000000000000E+00
   0.0000000000000000E+00
   0.0000000000000000E+00
   0.0000000000000000E+00
   0.0000000000000000E+00
   0.0000000000000000E+00
   0.0000000000000000E+00
   0.0000000000000000E+00
   0.0000000000000000E+00
   0.0000000000000000E+00
   0.0000000000000000E+00
   0.0000000000000000E+00
   0.0000000000000000E+00
   0.0000000000000000E+00
   0.0000000000000000E+00
   0.0000000000000000E+00
   0.0000000000000000E+00
   0.0000000000000000E+00
   0.0000000000000000E+00
   0.0000000000000000E+00
   0.0000000000000000E+00
   0.0000000000000000E+00
   0.0000000000000000E+00
   0.0000000000000000E+00
   0.0000000000000000E+00
   0.0000000000000000E+00
   0.4946081651908171E+00
   0.2834780414308874E-30
   0.5336296442192845E+00
  -0.1014735310340821E-30
   0.5182736728862525E+00
  -0.9677157295172221E-31
   0.4930698279096969E+00
   0.8890694897656720E-33
   0.4847720768856953E+00
   0.8804959184529042E-31
   0.4868108593687290E+00
   0.1169865687186011E-30
   0.4891429169153926E+00
   0.1080171352409122E-30
   0.4958014252332903E+00
   0.6399957443046483E-31
   0.4899016245902033E+00
   0.9608516987491497E-31
   0.4718097593530437E+00
   0.1764329746224502E-30
   0.4448926943384620E+00
   0.1645282872312051E-30
   0.4844425894357574E+00
  -0.1805474921047898E-30
   0.5097671551428108E+00
   0.5984736285790857E-32
   0.4402156568804850E+00
   0.3068274237237658E-30
   0.4949584553911194E+00
   0.8495454998714008E-31
   0.5222981830417174E+00
   0.3672308048106012E-31
   0.4962761396581917E+00
   0.8894831186638769E-31
   0.5223877841411766E+00
   0.5360402192090490E-31
   0.5038133921401634E+00
   0.6863915880662275E-31
   0.5644352017674403E+00
  -0.3955092662528383E-31
   0.5245862018745401E+00
   0.1276021918677341E-31
   0.4990946621991525E+00
   0.6525556408923120E-31
   0.5729384890809731E+00
   0.2134666888743036E-31
   0.5693720462205037E+00
   0.6540685563430442E-31
   0.3752129623315346E+00
  -0.9456049229438233E-31
   0.4003935148647362E+00
   0.9268699574068992E-31
   0.5599622584318318E+00
  -0.6610426697840494E-31
   0.5562276818511114E+00
  -0.1106748224718732E-31
   0.4942632948621272E+00
  -0.6411321222067385E-32
   0.4948655147251085E+00
  -0.1147920612430759E-31
   0.4925635063702915E+00
  -0.1435119503847404E-31
   0.4913991900249155E+00
   0.2158144090328093E-32
   0.5162611695003690E+00
  -0.9256046737126545E-31
   0.5363589033177282E+00
  -0.9258750026543116E-31
   0.4951213321916804E+00
   0.2900737275151974E-30
   0.4520530906952886E+00
   0.4842445435068430E-30
   0.5129024674373748E+00
  -0.8252548711676134E-31
   0.5117689585929970E+00
  -0.7245998448600563E-31
   0.4786251080144868E+00
   0.4594988270742587E-30
   0.4931155032717225E+00
   0.4371876304299816E-30
   0.4600307072775602E+00
   0.6828192712855419E-30
   0.5242629370830014E+00
   0.1557620129253994E-30
   0.5299866682237538E+00
  -0.3236896844899089E-31
   0.5129711501659696E+00
  -0.8878512915542376E-31
   0.5328938806119680E+00
  -0.1513513933877413E-30
   0.5309772254532497E+00
  -0.1281425876216588E-30
   0.5309770734744929E+00
  -0.1482030271073910E-30
   0.5063650905287767E+00
  -0.6587266966379138E-31
   0.5279605851071681E+00
   0.4300520231337203E-31
   0.5409254522572436E+00
  -0.1268978732275061E-30
   0.5363677132636360E+00
   0.5140846374709385E-31
   0.5374194418538937E+00
  -0.1016895357038220E-30
   0.4965359106538437E+00
   0.5804566084423884E-31
   0.4975361580934912E+00
   0.5383190944224583E-31
   0.4963807468542588E+00
   0.5819096643961188E-31
   0.4955144803326536E+00
   0.6224600443790964E-31
   0.4904151603391415E+00
   0.1101913619704246E-30
   0.4902491398134019E+00
   0.1164948774481640E-30
   0.4861626479310197E+00
   0.8528103091265242E-31
   0.4854040949289433E+00
   0.7347134621451729E-31
   0.4931941440642159E+00
   0.9091364445229872E-31
   0.4910329433616101E+00
   0.9730705730150416E-31
   0.4831698634017018E+00
   0.7457733753528785E-31
   0.4872471163407025E+00
   0.6267519268969062E-31
   0.4880013562835717E+00
   0.5248305478104481E-31
   0.4872295459855526E+00
   0.1049903170956553E-30
   0.4882160184007550E+00
   0.1149038139373903E-30
   0.4952567469768216E+00
   0.7898143267781208E-31
   0.4900705902950581E+00
   0.1213464012780016E-30
   0.4903581116439241E+00
   0.1197897524674042E-30
   0.4944347036333838E+00
   0.8675702722854050E-31
   0.4868164670253710E+00
   0.1056453386084019E-30
   0.4892721040233131E+00
   0.1154437567357117E-30
   0.4881455769312488E+00
   0.1227731490500126E-30
   0.4878245868431447E+00
   0.1118308414956778E-30
   0.4449021779866821E+00
   0.1404855235388445E-30
   0.4700099712838356E+00
   0.1830408876132289E-30
   0.4891756227467038E+00
   0.9803518881596521E-31
   0.4885980757340756E+00
   0.9448835594400024E-31
   0.4510286591519966E+00
   0.3697681636345166E-30
   0.4681799592129934E+00
   0.1200703339733278E-30
   0.4876648889228710E+00
   0.9987592909922009E-31
   0.4868253717066335E+00
   0.1004706522465526E-30
   0.4909267416601976E+00
   0.8142265171917672E-31
   0.4793946355145380E+00
   0.1541763448600900E-30
   0.4657884775270192E+00
   0.1784105467321342E-30
   0.3794302329533863E+00
   0.5850307329962712E-30
   0.4903697372518239E+00
   0.4976474306480810E-31
   0.4487929215762929E+00
   0.2266978192509171E-30
   0.4432385363249808E+00
   0.4348986511338974E-30
   0.4845729200642486E+00
   0.1264163125332286E-30
   0.4621884506577983E+00
   0.1945524576902224E-30
   0.4663602379799284E+00
   0.1858949977934308E-30
   0.4747774342239275E+00
   0.1717971451709077E-30
   0.4893613119161305E+00
  -0.1582421310045018E-30
   0.5085682716981098E+00
  -0.2597514857923610E-32
   0.4304904362718445E+00
   0.3582090668142855E-30
   0.4927280795689350E+00
   0.8994859113242658E-31
   0.5320316305399299E+00
  -0.8724434779140148E-34
   0.4913826596262287E+00
   0.9521986414676015E-31
   0.5209404381159692E+00
   0.3481007490840412E-31
   0.5061319991793367E+00
   0.5784445149833016E-31
   0.5690636268206772E+00
  -0.4732793439546009E-31
   0.5275040250813491E+00
  -0.2581198535476023E-32
   0.5015048228683231E+00
   0.5735660461960801E-31
   0.5821373614538010E+00
   0.6478767015049079E-31
   0.5691503539016497E+00
   0.1035676343696488E-30
   0.3402452515373601E+00
   0.4511677288954450E-31
   0.3785432664400460E+00
   0.1839711328110906E-30
   0.5753091303961738E+00
  -0.5264052989856191E-31
   0.5668547322656514E+00
  -0.3677683281360544E-31
   0.5703055472116438E+00
  -0.1227400847951049E-31
   0.5291879676935886E+00
   0.1309968474277284E-31
   0.5449833878219544E+00
   0.1417712756200215E-31
   0.5719094023099456E+00
  -0.1536484303521808E-31
   0.5385694619157894E+00
   0.5555655315530037E-31
   0.5475896931003069E+00
   0.5157290467476554E-31
   0.5821565654200189E+00
  -0.3646249510005477E-31
   0.4925313058755040E+00
   0.7994479632046415E-31
   0.5041557086457773E+00
   0.6757683068358765E-31
   0.4961299824056490E+00
   0.8951795655969898E-31
   0.5562803730248845E+00
  -0.4525734523389608E-31
   0.4757814609663950E+00
  -0.3143700164166637E-30
   0.4950174949771192E+00
   0.9086130951308841E-31
   0.5496174631448616E+00
   0.1226054210329648E-32
   0.5889519082115606E+00
   0.4384947766442552E-31
   0.5839568677712911E+00
  -0.1998353925949747E-31
   0.5468163307253012E+00
  -0.1347520227439471E-31
   0.5803877168802953E+00
  -0.2163947152372499E-31
   0.5106055651678165E+00
   0.4864979603109940E-31
   0.5029532148302472E+00
   0.7140689233546472E-31
   0.5033085551059655E+00
   0.4649616266767702E-31
   0.5676231829350655E+00
  -0.5847958321223170E-31
   0.5564629511619481E+00
  -0.1224047160039815E-31
   0.4947135417301525E+00
   0.8285069404917197E-31
   0.5506799490526847E+00
  -0.2235580762119738E-31
   0.5513545696068798E+00