# vtk DataFile Version 2.0
FUN3D:global_image_vtk
ASCII
DATASET UNSTRUCTURED_GRID
POINTS 213 double
   -0.5474685438220378E-02    0.2526196503001817E-35    0.2504941971165485E+01
   -0.1707332278918769E-35    0.8038139422967926E-04    0.4453410262194179E-35
    0.1245419105186371E+01    0.1985212383137753E-35    0.2504941971165485E+01
   -0.1707332278918769E-35    0.1039425138665958E-03    0.4316054766772176E-35
    0.2497696093130313E+01    0.6944822823266200E-36    0.2504941971165485E+01
   -0.1707332278918769E-35    0.1101298243385123E-03    0.4173119628945132E-35
    0.3750590968915477E+01   -0.1060143394667308E-35    0.2504941971165485E+01
   -0.1707332278918769E-35    0.1356499081138886E-03    0.3988674685409220E-35
    0.5003221331740107E+01   -0.2625378968896844E-35    0.2504941971165485E+01
   -0.1707332278918769E-35    0.9668873779401495E-04    0.3848681458673360E-35
    0.5004676687976413E+01   -0.2972644883515694E-35    0.1281291202155759E+01
   -0.1021394551019248E-34    0.1638053072896629E-03    0.2750027396011610E-35
    0.5004772673775726E+01   -0.2495855483013058E-35    0.2775079905532251E-01
   -0.8577826448180839E-35    0.1903478042354962E-03    0.1720611098177475E-35
    0.5003581183339734E+01   -0.1486261858382173E-35   -0.1225853508891395E+01
   -0.7059984311944326E-35    0.1607765219616719E-03    0.7495919839957731E-36
    0.5001952533741638E+01   -0.4919850535450508E-36   -0.2496589036642705E+01
   -0.1009107393124911E-35    0.1082258886781479E-03   -0.2216145653185679E-36
    0.3750348111606489E+01   -0.1504744710841300E-37   -0.2496589036642705E+01
   -0.1009107393124911E-35    0.1458753694180133E-03   -0.1647407355328636E-36
    0.2498611462995409E+01    0.5153641850926217E-36   -0.2496589036642705E+01
   -0.1009107393124911E-35    0.1008933262505726E-03   -0.9832336919224308E-37
    0.1247175269334220E+01    0.9830676410538390E-36   -0.2496589036642705E+01
   -0.1009107393124911E-35    0.1108587618248167E-03   -0.3744653248586989E-37
   -0.3383959864651230E-02    0.1123053963272098E-35   -0.2496589036642705E+01
   -0.1009107393124911E-35    0.8107259628281624E-04    0.5081602556554617E-37
   -0.4257768977922624E-02    0.1686861088179691E-35   -0.1225734811649804E+01
   -0.7187465872256995E-35    0.3415458946343391E-04    0.1137887611434696E-35
   -0.5251592445770110E-02    0.2332984122742417E-35    0.2619486023614125E-01
   -0.8045049193764272E-35    0.1038724427961439E-03    0.2221107149945769E-35
   -0.5676060309057979E-02    0.2689385448069673E-35    0.1278221569056601E+01
   -0.9076659452255513E-35    0.8224602319007804E-04    0.3347852732144183E-35
    0.9003209617986518E+00    0.2636572401829369E-35    0.1608979112269835E+01
   -0.1006788075446519E-34    0.8704141386701581E-04    0.3544977476478586E-35
    0.3983172210691884E+01   -0.4343465881174531E-36   -0.1561211904847755E+01
   -0.6823962751686113E-35    0.1757116731322411E-03    0.5416400446988005E-36
    0.4035602039223490E+01   -0.1426106034661719E-35    0.1486760030402969E+01
   -0.1156062897930388E-34    0.1713312920528318E-03    0.3031792031980967E-35
    0.1036613723304492E+01    0.1478013583209007E-35   -0.1455626429924350E+01
   -0.7266767120610704E-35    0.1047189316918962E-03    0.8365140038237021E-36
    0.1094353480633342E+01    0.2200221445503529E-35   -0.2964622010757078E+00
   -0.8265105672231165E-35    0.1260590270859612E-03    0.1822071657237623E-35
    0.7298400267511735E+00    0.2619499637468922E-35    0.6874684746626459E+00
   -0.9075914845475680E-35    0.1044598691311090E-03    0.2737605880668887E-35
    0.1617018659311988E+01    0.2462751558711954E-35    0.8553208024835457E+00
   -0.9979238882933806E-35    0.1529810957003406E-03    0.2767231869254568E-35
    0.2143199662876900E+01    0.1025237673570413E-35   -0.1627128509224141E+01
   -0.6988516548934964E-35    0.1606170436690996E-03    0.5966545420689385E-36
    0.4088840445399776E+01   -0.1231965045824807E-35   -0.4351047826026347E+00
   -0.8243749459784890E-35    0.2719933321616060E-03    0.1386120064083069E-35
    0.2977916511249719E+01    0.6304848447190736E-36   -0.8334991483176311E+00
   -0.7610856853010237E-35    0.2245596954619267E-03    0.1168190547152684E-35
    0.3044093241383834E+01    0.3769447847081416E-36   -0.1814361225115967E+01
   -0.6842873130475021E-35    0.1617000120313084E-03    0.3951394432872261E-36
    0.3427866614805438E+01   -0.8582493595057541E-37    0.3813904839861595E+00
   -0.1030130032292312E-34    0.2936955524500189E-03    0.2111934972664054E-35
    0.4313225355349884E+01   -0.2083821104323469E-35    0.5489133376232667E+00
   -0.1004983275217656E-34    0.2313009616367663E-03    0.2191781695389213E-35
    0.1823032737599954E+01    0.1857971930644621E-35    0.1771265193532498E+01
   -0.1125200167408326E-34    0.1836202953985997E-03    0.3545927261570694E-35
    0.2806311152169731E+01    0.7857148490079824E-36    0.1358629373588292E+01
   -0.1164798501756745E-34    0.1943492222290596E-03    0.3057235661994267E-35
    0.1891860875938631E+01    0.1695456849285142E-35   -0.8481310365690164E+00
   -0.7858469016003407E-35    0.1670645525760385E-03    0.1263337100035961E-35
    0.2268769200169219E+01    0.1923082885391737E-35    0.7723691818209745E-01
   -0.9339538780686661E-35    0.2072307821289810E-03    0.2004330042124218E-35
    0.5000000000000000E+01   -0.1051753676216237-155    0.2504941971165485E+01
   -0.1707332278918769E-35    0.1250000000000000E+01   -0.1051753676216237-155
    0.5000000000000000E+01   -0.1051753676216237-155    0.2504941971165485E+01
   -0.1707332278918769E-35    0.2500000000000000E+01   -0.1051753676216237-155
    0.5000000000000000E+01   -0.1051753676216237-155    0.2504941971165485E+01
   -0.1707332278918769E-35    0.3750000000000000E+01   -0.1051753676216237-155
    0.5000000000000000E+01   -0.1051753676216237-155    0.2504941971165485E+01
   -0.1707332278918769E-35    0.5000000000000000E+01   -0.1051753676216237-155
    0.3750000000000000E+01   -0.1051753676216237-155    0.2504941971165485E+01
   -0.1707332278918769E-35    0.5000000000000000E+01   -0.1051753676216237-155
    0.2500000000000000E+01   -0.1051753676216237-155    0.2504941971165485E+01
   -0.1707332278918769E-35    0.5000000000000000E+01   -0.1051753676216237-155
    0.1250000000000000E+01   -0.1051753676216237-155    0.2504941971165485E+01
   -0.1707332278918769E-35    0.5000000000000000E+01   -0.1051753676216237-155
    0.1657656244332350-127   -0.1051753676216237-155    0.2504941971165485E+01
   -0.1707332278918769E-35    0.5000000000000000E+01   -0.1051753676216237-155
    0.1657656244332350-127   -0.1051753676216237-155    0.2504941971165485E+01
   -0.1707332278918769E-35    0.3750000000000000E+01   -0.1051753676216237-155
    0.1657656244332350-127   -0.1051753676216237-155    0.2504941971165485E+01
   -0.1707332278918769E-35    0.2500000000000000E+01   -0.1051753676216237-155
    0.1657656244332350-127   -0.1051753676216237-155    0.2504941971165485E+01
   -0.1707332278918769E-35    0.1250000000000000E+01   -0.1051753676216237-155
    0.9588956434896695E+00    0.1886324485954668E-35    0.2504941971165485E+01
   -0.1707332278918769E-35    0.9696525519578332E+00    0.5863590699881722E-36
    0.3981953078951595E+01    0.6147138742429510E-37    0.2504941971165485E+01
   -0.1707332278918769E-35    0.4070563854751879E+01    0.2059141277057783E-36
    0.4036122187252053E+01   -0.6794241742286189E-36    0.2504941971165485E+01
   -0.1707332278918769E-35    0.1017567520098704E+01    0.1354333173280838E-35
    0.9637572773153283E+00    0.1524824236937859E-37    0.2504941971165485E+01
   -0.1707332278918769E-35    0.3973598203142784E+01    0.1392007931264692E-36
    0.1546540136992696E+01    0.2880222032385967E-36    0.2504941971165485E+01
   -0.1707332278918769E-35    0.2931570169317361E+01    0.4615785684840374E-36
    0.6973799521245156E+00    0.1881916656014041E-36    0.2504941971165485E+01
   -0.1707332278918769E-35    0.3070319952454722E+01    0.2276287961913099E-36
    0.8903742148364541E+00    0.7663494937189212E-36    0.2504941971165485E+01
   -0.1707332278918769E-35    0.2056562238189727E+01    0.4670235037597378E-36
    0.2183041995146080E+01    0.5179760255420826E-37    0.2504941971165485E+01
   -0.1707332278918769E-35    0.3960694449828992E+01    0.2956945974286618E-36
    0.3855844872710175E+01    0.4748045518528038E-37    0.2504941971165485E+01
   -0.1707332278918769E-35    0.2933250588120182E+01    0.5270898971395006E-36
    0.3152611367438256E+01    0.7617805807273442E-37    0.2504941971165485E+01
   -0.1707332278918769E-35    0.3637668388417448E+01    0.4101579411641980E-36
    0.3103307385242002E+01    0.5086274334970021E-37    0.2504941971165485E+01
   -0.1707332278918769E-35    0.4332607813100358E+01    0.2039444057867271E-36
    0.3266711045518477E+01    0.1358623044058333E-36    0.2504941971165485E+01
   -0.1707332278918769E-35    0.1889656617467324E+01    0.1403304661977119E-35
    0.4232537554485033E+01   -0.1138449230323393E-36    0.2504941971165485E+01
   -0.1707332278918769E-35    0.1918626969804105E+01    0.5196365646614076E-36
    0.1905522374039041E+01    0.1714507586606587E-35    0.2504941971165485E+01
   -0.1707332278918769E-35    0.7226290832187847E+00    0.1984454736741876E-35
    0.2879767723646653E+01    0.1870116426018879E-36    0.2504941971165485E+01
   -0.1707332278918769E-35    0.9080945892241993E+00    0.2690891296127302E-35
    0.2012711365065439E+01    0.5672051152385018E-36    0.2504941971165485E+01
   -0.1707332278918769E-35    0.1767082390981646E+01    0.1412292433838211E-35
    0.2669681472994992E+01    0.1668555714407575E-36    0.2504941971165485E+01
   -0.1707332278918769E-35    0.2853394335013179E+01    0.8673451468053994E-36
    0.5000000000000000E+01   -0.1051753676216237-155    0.1250000000000000E+01
   -0.1051753676216237-155    0.5000000000000000E+01   -0.1051753676216237-155
    0.5000000000000000E+01   -0.1051753676216237-155    0.1657656244332350-127
[...]
POINT_DATA 213
SCALARS rho double 1
LOOKUP_TABLE default
   0.1346125454348765E+01
  -0.2990662416690530E-29
   0.9572079204764192E+00
  -0.9000241603539617E-30
   0.9461014735063685E+00
  -0.9196344962665872E-30
   0.9421827734980949E+00
  -0.1155046280628386E-29
   0.8436099990784788E+00
  -0.1607447514074392E-29
   0.7742020246832400E+00
  -0.1648208151316379E-29
   0.7627627010242950E+00
  -0.1686382267986637E-29
   0.7661484592263930E+00
  -0.1673510513211199E-29
   0.8310478320508803E+00
  -0.1630808245175781E-29
   0.9353607033366557E+00
  -0.1165781603314270E-29
   0.9344031119341570E+00
  -0.9153324404851811E-30
   0.9615892381727081E+00
  -0.9253574014925948E-30
   0.1448479787031607E+01
  -0.3498526855015820E-29
   0.1495421336027678E+01
  -0.3486126172542005E-29
   0.1646754521596489E+01
  -0.4495606411782480E-29
   0.1426607839843572E+01
  -0.3287548379147329E-29
   0.1009807573745856E+01
  -0.1186686672743268E-29
   0.9511452824616453E+00
  -0.1177196240939513E-29
   0.9438288710223778E+00
  -0.1182564743344735E-29
   0.9574484738724853E+00
  -0.8216301624014180E-30
   0.9414827254634800E+00
  -0.7275521954212883E-30
   0.1037117790803531E+01
  -0.1233213791102958E-29
   0.9258141539545569E+00
  -0.7439268220242179E-30
   0.9322491002390936E+00
  -0.8337814645005742E-30
   0.9538138718259603E+00
  -0.1194225995603397E-29
   0.9520435503895949E+00
  -0.1036316129621484E-29
   0.9350967943805873E+00
  -0.1037481952635577E-29
   0.9565535530928668E+00
  -0.1112898163778723E-29
   0.9378698048239016E+00
  -0.1210741379495893E-29
   0.9303313050016881E+00
  -0.7520664473442770E-30
   0.9446511008940803E+00
  -0.9792062489127854E-30
   0.8862346329182290E+00
  -0.6356447574502163E-30
   0.9424042956442817E+00
  -0.8899152562756234E-30
   0.9637263019127275E+00
  -0.3619232909690832E-30
   0.1008361093204636E+01
  -0.7253154751941717E-32
   0.1006714602051671E+01
   0.7265157995356725E-32
   0.1001957226680181E+01
  -0.4790823138766150E-31
   0.1003216266944464E+01
  -0.7466552647520225E-31
   0.1004119991815538E+01
  -0.8423487407714076E-31
   0.1005207394718596E+01
  -0.7401666465596412E-31
   0.1004249481234555E+01
  -0.5996401107568676E-31
   0.1008267466074943E+01
  -0.8963339110052594E-31
   0.1023866978432771E+01
  -0.1811813220042593E-30
   0.1063751299093604E+01
  -0.1307577434983765E-30
   0.1019385864981020E+01
  -0.3785865404833551E-30
   0.1001779990666032E+01
  -0.4759403293162709E-31
   0.9646034864522381E+00
  -0.5029618676753911E-30
   0.1005262616981761E+01
  -0.8609104269488832E-31
   0.1000745002589285E+01
  -0.6849121438099940E-31
   0.1008694639432434E+01
  -0.1111623214646260E-30
   0.1008032001920797E+01
  -0.7639396977720034E-31
   0.1002353916995332E+01
  -0.8167672817302488E-31
   0.9980214295785954E+00
  -0.1444651543248107E-31
   0.1000593677670955E+01
  -0.4966765698765126E-31
   0.1001621102737944E+01
  -0.7634639965581450E-31
   0.9828102828116829E+00
  -0.1431534735449253E-30
   0.9844015539496382E+00
  -0.1426085545451971E-30
   0.9834287592849690E+00
  -0.5258626166639522E-30
   0.9790444718283611E+00
  -0.5045248937781360E-30
   0.9904791730042682E+00
  -0.1145007728558091E-30
   0.9935219552963841E+00
  -0.4223004002415649E-31
   0.1002005911795154E+01
  -0.4308502413030423E-31
   0.1002129762524864E+01
  -0.4048404179476853E-31
   0.1002270576425702E+01
  -0.3955771368279211E-31
   0.1001791040851519E+01
  -0.5061083040321641E-31
   0.1009816718846010E+01
  -0.6169326590417794E-33
   0.1006498992990320E+01
   0.2181642236833107E-32
   0.9560848435047625E+00
  -0.3244827403591343E-30
   0.9253012017335409E+00
  -0.5909978692068490E-30
   0.1007054178032296E+01
  -0.3114369059425244E-33
   0.1004493323427179E+01
  -0.7421713467908470E-32
   0.9144889449635926E+00
  -0.4963928277227780E-30
   0.9091483226007950E+00
  -0.4567408049622136E-30
   0.8752503710171763E+00
  -0.7547676757410559E-30
   0.9768030240801376E+00
  -0.1834824479584229E-30
   0.1000529478075664E+01
  -0.3178340310506370E-31
   0.1005827574423054E+01
   0.7649584949389876E-32
   0.1012895348514070E+01
   0.6245684807141703E-31
   0.1011677619131653E+01
   0.2731177399800701E-31
   0.1010416996736694E+01
   0.5991411140240548E-31
   0.1005458122669266E+01
  -0.7150735286393052E-32
   0.9909254956314401E+00
  -0.1398459130502918E-30
   0.1005151469565961E+01
   0.2747207083477977E-31
   0.9860797649160182E+00
  -0.5832454834227780E-31
   0.1005591647191826E+01
   0.4287164904414400E-31
   0.1004239622563996E+01
  -0.6075549703651185E-31
   0.1002886063190680E+01
  -0.5570734714920488E-31
   0.1003350589896082E+01
  -0.5469633471816135E-31
   0.1003999119728311E+01
  -0.5711610474972040E-31
   0.1005116222716063E+01
  -0.7527592687358765E-31
   0.1003223768909388E+01
  -0.8074035487403548E-31
   0.1002666993707256E+01
  -0.6919544061224414E-31
   0.1002586367386159E+01
  -0.7681218671547330E-31
   0.1004069607200345E+01
  -0.6264033141477047E-31
   0.1004304329747298E+01
  -0.6496975114900408E-31
   0.1001640907715758E+01
  -0.8110215363949121E-31
   0.1002276135520264E+01
  -0.7401441702110433E-31
   0.1002543450048420E+01
  -0.7069960208382339E-31
   0.1003470977544191E+01
  -0.8797684663546369E-31
   0.1003380028816544E+01
  -0.7980849780354204E-31
   0.1003233377605899E+01
  -0.5850604449069467E-31
   0.1004430341068947E+01
  -0.8067225209072308E-31
   0.1004325066753823E+01
  -0.8139584007526208E-31
   0.1003653095022136E+01
  -0.5756456119342437E-31
   0.1003718521274996E+01
  -0.7809550987421225E-31
   0.1004318494861516E+01
  -0.8059805588670953E-31
   0.1004462313827807E+01
  -0.9046139055476235E-31
   0.1003628845815121E+01
  -0.8344964670611306E-31
   0.1064490587959969E+01
  -0.1009176814886508E-30
   0.1028445288913376E+01
  -0.1985417234883830E-30
   0.1009607275635733E+01
  -0.9533462237350516E-31
   0.1006626410039412E+01
  -0.8389785714518222E-31
   0.1163978993437301E+01
  -0.5829222762298831E-30
   0.1086025648634967E+01
  -0.8543006486755511E-31
   0.1007907990569687E+01
  -0.9244731083033207E-31
   0.1007252228609054E+01
  -0.8875319700810476E-31
   0.1006796438312544E+01
  -0.7935004200010949E-31
   0.1013053148515506E+01
  -0.1623496915825744E-30
   0.1019342089470088E+01
  -0.1758344477481890E-30
   0.1235143522456892E+01
  -0.1086733986597433E-29
   0.1032535975411808E+01
  -0.9026362915622393E-31
   0.1046567126692644E+01
  -0.2794800966987905E-30
   0.1201702752248816E+01
  -0.8353441575595139E-30
   0.1014670679288157E+01
  -0.1237222879618970E-30
   0.1032294773932663E+01
  -0.2131320037674561E-30
   0.1028221590850743E+01
  -0.2591257130450450E-30
   0.1014640927037102E+01
  -0.1733486735090962E-30
   0.1029001810616833E+01
  -0.4098597724990166E-30
   0.1002003312205366E+01
  -0.5135531621035430E-31
   0.9607837305534909E+00
  -0.4525508543930760E-30
   0.1006859117146347E+01
  -0.8888999726649466E-31
   0.1001326474766385E+01
  -0.6697762935517833E-31
   0.1010800235371746E+01
  -0.1140570000024156E-30
   0.1012236850207486E+01
  -0.8473904095794425E-31
   0.1000939943791764E+01
  -0.8008985215240790E-31
   0.9979314617869642E+00
  -0.1552345288737915E-31
   0.9980677398910869E+00
  -0.5353659348841553E-31
   0.1001191213505615E+01
  -0.7138908483963198E-31
   0.9841980829630913E+00
  -0.1124184336291895E-30
   0.9815067511149239E+00
  -0.1156470601044645E-30
   0.9648652454840385E+00
  -0.4677906156849872E-30
   0.9680709021217957E+00
  -0.4779747725673857E-30
   0.9914146138371689E+00
  -0.1182645404968859E-30
   0.9910913331179103E+00
  -0.4125392032696426E-31
   0.9925593322941065E+00
  -0.1300730225648418E-31
   0.1001727918470854E+01
  -0.5347643152171185E-31
   0.9993245279143076E+00
  -0.2591524408973233E-31
   0.9941439641930883E+00
  -0.7421503600323540E-32
   0.1006980890343841E+01
  -0.1135425229664404E-31
   0.1022611230350319E+01
  -0.6398693523240620E-31
   0.1001121384814954E+01
  -0.1089957825198099E-30
   0.1008783719543438E+01
  -0.1044767040391789E-30
   0.1004774503454828E+01
  -0.8931756701030982E-31
   0.1009028955286369E+01
  -0.1083737610133905E-30
   0.9967193981069543E+00
  -0.5480765125894831E-31
   0.1005567262160149E+01
  -0.5408939273225746E-30
   0.1003325198825987E+01
  -0.8308858743281454E-31
   0.9949860507413212E+00
  -0.3647576577005432E-31
   0.9833519218687968E+00
  -0.6097746458412195E-31
   0.9944515318439970E+00
  -0.1717408144524826E-31
   0.9973477161471445E+00
  -0.1867577148908065E-31
   0.9932512208444694E+00
  -0.6886760634008804E-32
   0.1001311805345084E+01
  -0.6993565107911234E-31
   0.1003000816859417E+01
  -0.7912355206037620E-31
   0.1002188605788515E+01
  -0.6705910009001197E-31
   0.9947117922336733E+00
   0.1606456058447864E-31
   0.9937835385180300E+00
  -0.1967043588169873E-31
   0.1004861553962239E+01
  -0.9258016932896379E-31
   0.1020102516243174E+01
  -0.5206655520097771E-31
   0.1005340863868806E+01
  -0.7753563178864958E-31
   0.9817060330969212E+00
  -0.5874756704602300E-31
   0.1004974968458247E+01
  -0.8294136240399330E-31
   0.1012375958141484E+01
  -0.1079670101174847E-30
   0.9873744378617693E+00
  -0.4721359361098937E-30
   0.9551278205331488E+00
  -0.3482206038672157E-30
   0.9865276069660689E+00
  -0.7983204402238492E-31
   0.9865949036964600E+00
  -0.7622177039284190E-31
   0.9920079412056200E+00
  -0.4497271177411881E-30
   0.9934467302783740E+00
  -0.9429806272752400E-31
   0.9960652824593039E+00
  -0.4989242375468102E-30
   0.1037405376006204E+01
  -0.9722862989503766E-31
   0.1033165378538725E+01
  -0.3283780753758384E-30
   0.1001443753531407E+01
  -0.3863455260315323E-31
   0.1001928899987721E+01
  -0.7325300499044211E-31
   0.9912281114382339E+00
  -0.3882564805751764E-32
   0.9911116183629660E+00
  -0.2743251691617956E-31
   0.9649294083350809E+00
  -0.2244554421525887E-30
   0.9933725172560121E+00
  -0.2625618737887254E-31
   0.1006089122359150E+01
   0.7670059014865130E-34
   0.1001962016708302E+01
  -0.2970443801662164E-32
   0.9908622924512936E+00
  -0.4228693234898796E-31
   0.9742274017324818E+00
  -0.2550680833773378E-30
   0.9420783511796136E+00
  -0.5831940256985383E-30
   0.9821600015386585E+00
  -0.2774291307955948E-30
   0.9794772573420022E+00
  -0.5876670904592342E-31
   0.9704349918902458E+00
  -0.4067915042695394E-30
   0.9720836519055412E+00
  -0.2975268496146435E-30
   0.9557866598328936E+00
  -0.2043879173689767E-30
   0.9497982862629090E+00
  -0.3653590386817722E-30
   0.9529849105871826E+00
  -0.6016481267760559E-30
   0.1002636652463897E+01
  -0.8840692734466595E-31
   0.1002475606829146E+01
  -0.8033616031137059E-31
   0.1000512975289537E+01
  -0.4708526899236230E-31
   0.1001675829463251E+01
   0.3904804340789442E-32
   0.9610102006186967E+00
  -0.5831168148590277E-30
   0.9492478701555045E+00
  -0.6704441065012913E-30
   0.9586434399943105E+00
  -0.6015815955917604E-30
   0.1001121233860518E+01
  -0.7278278310803571E-31
   0.1000500337297501E+01
  -0.5864349373286213E-31
   0.1001160655510122E+01
  -0.2234838499517842E-31
   0.9807426278906999E+00
  -0.5792787373531383E-31
   0.9805603110907870E+00
  -0.2767529061794490E-30
   0.9629216562075074E+00
  -0.4945544613619799E-30
SCALARS u double 1
LOOKUP_TABLE default
   0.0000000000000000E+00
   0.0000000000000000E+00
   0.0000000000000000E+00
   0.0000000000000000E+00
   0.0000000000000000E+00
   0.0000000000000000E+00
   0.0000000000000000E+00
   0.0000000000000000E+00
   0.0000000000000000E+00
   0.0000000000000000E+00
   0.0000000000000000E+00
   0.0000000000000000E+00
   0.0000000000000000E+00
   0.0000000000000000E+00
   0.0000000000000000E+00
   0.0000000000000000E+00
   0.0000000000000000E+00
   0.0000000000000000E+00
   0.0000000000000000E+00
   0.0000000000000000E+00
   0.0000000000000000E+00
   0.0000000000000000E+00
   0.0000000000000000E+00
   0.0000000000000000E+00
   0.0000000000000000E+00
   0.0000000000000000E+00
   0.0000000000000000E+00
   0.0000000000000000E+00
   0.0000000000000000E+00
   0.0000000000000000E+00
   0.0000000000000000E+00
   0.0000000000000000E+00
   0.0000000000000000E+00
   0.0000000000000000E+00
   0.0000000000000000E+00
   0.0000000000000000E+00
   0.0000000000000000E+00
   0.0000000000000000E+00
   0.0000000000000000E+00
   0.0000000000000000E+00
   0.0000000000000000E+00
   0.0000000000000000E+00
   0.0000000000000000E+00
   0.0000000000000000E+00
   0.0000000000000000E+00
   0.0000000000000000E+00
   0.0000000000000000E+00
   0.0000000000000000E+00
   0.0000000000000000E+00
   0.0000000000000000E+00
   0.0000000000000000E+00
   0.0000000000000000E+00
   0.0000000000000000E+00
   0.0000000000000000E+00
   0.0000000000000000E+00
   0.0000000000000000E+00
   0.0000000000000000E+00
   0.0000000000000000E+00
   0.0000000000000000E+00
   0.0000000000000000E+00
   0.0000000000000000E+00
   0.0000000000000000E+00
   0.0000000000000000E+00
   0.0000000000000000E+00
   0.0000000000000000E+00
   0.0000000000000000E+00
   0.4946017741476853E+00
   0.2835073714544980E-30
   0.5336300222001534E+00
  -0.1014756097601669E-30
   0.5182740148996180E+00
  -0.9675513848293656E-31
   0.4930716032662801E+00
   0.8233378866260792E-33
   0.4847755559380181E+00
   0.8790918540599931E-31
   0.4868150823148449E+00
   0.1169073145475066E-30
   0.4891447055581856E+00
   0.1080054301780137E-30
   0.4958017867189548E+00
   0.6401226453307419E-31
   0.4899022601522977E+00
   0.9607660092606445E-31
   0.4718101885163522E+00
   0.1764282336115020E-30
   0.4448932811317343E+00
   0.1645237738625375E-30
   0.4844428678786060E+00
  -0.1805496626083194E-30
   0.5097723009275438E+00
   0.5955304775234230E-32
   0.4402132742153642E+00
   0.3068516342051742E-30
   0.4949587351773467E+00
   0.8495619118673809E-31
   0.5222987907539233E+00
   0.3671792545698795E-31
   0.4962767433195548E+00
   0.8894093607025933E-31
   0.5223883219215959E+00
   0.5359939532696577E-31
   0.5038142330576362E+00
   0.6864212582903051E-31
   0.5644352579615622E+00
  -0.3953970173788513E-31
   0.5245870134325569E+00
   0.1277023493333075E-31
   0.4990984325857969E+00
   0.6522246311327171E-31
   0.5729385770148629E+00
   0.2134339786879502E-31
   0.5693702143643186E+00
   0.6541943689063803E-31
   0.3752129691558920E+00
  -0.9456038364493549E-31
   0.4003925757087325E+00
   0.9269693001097920E-31
   0.5599629540384434E+00
  -0.6611265336141436E-31
   0.5562281246929349E+00
  -0.1106595946424811E-31
   0.4942649993308780E+00
  -0.6484387600886108E-32
   0.4948664228957625E+00
  -0.1153553972543573E-31
   0.4925621460001393E+00
  -0.1437277696912160E-31
   0.4913981197981131E+00
   0.2150047257926460E-32
   0.5162622771319537E+00
  -0.9255118382156207E-31
   0.5363589847017426E+00
  -0.9258851602135852E-31
   0.4951204295437486E+00
   0.2900871026383521E-30
   0.4520507647827809E+00
   0.4842609206833034E-30
   0.5129031967815771E+00
  -0.8251831093149918E-31
   0.5117692768813282E+00
  -0.7243479425114545E-31
   0.4786240593185465E+00
   0.4595115953241587E-30
   0.4931144712560807E+00
   0.4372069091004466E-30
   0.4600300682108051E+00
   0.6828359040734035E-30
   0.5242629478398635E+00
   0.1557716148178829E-30
   0.5299868132763702E+00
  -0.3236964251456933E-31
   0.5129709910327626E+00
  -0.8876647987853580E-31
   0.5328937510725628E+00
  -0.1513467465769017E-30
   0.5309776575060035E+00
  -0.1281414595751062E-30
   0.5309766037388791E+00
  -0.1481822338264911E-30
   0.5063651529029153E+00
  -0.6586330326921222E-31
   0.5279597697697981E+00
   0.4301827179077110E-31
   0.5409256382715513E+00
  -0.1268950867730863E-30
   0.5363674847342261E+00
   0.5141421103262843E-31
   0.5374195374434306E+00
  -0.1016888237509398E-30
   0.4965362520057938E+00
   0.5804851377134504E-31
   0.4975364164263453E+00
   0.5383463618154256E-31
   0.4963808204024963E+00
   0.5819066616112729E-31
   0.4955145690878976E+00
   0.6225120577709799E-31
   0.4904158134277688E+00
   0.1101795611901017E-30
   0.4902504877265377E+00
   0.1164602806452368E-30
   0.4861601584017391E+00
   0.8525007385626777E-31
   0.4854060768390307E+00
   0.7333642023367693E-31
   0.4931949372500393E+00
   0.9090152428740817E-31
   0.4910340586530673E+00
   0.9728836615332315E-31
   0.4831668239525789E+00
   0.7454112487394678E-31
   0.4872472610427596E+00
   0.6258310898143334E-31
   0.4880033981802339E+00
   0.5236645842052357E-31
   0.4872325302574476E+00
   0.1048773205290305E-30
   0.4882153516317228E+00
   0.1148649936816878E-30
   0.4952572356803392E+00
   0.7897284866659698E-31
   0.4900714822552135E+00
   0.1213124352960800E-30
   0.4903590138349026E+00
   0.1197666906668396E-30
   0.4944353767256923E+00
   0.8674068384112024E-31
   0.4868208055593621E+00
   0.1055301547711757E-30
   0.4892743962416824E+00
   0.1153898520621125E-30
   0.4881467582655523E+00
   0.1227181801735796E-30
   0.4878251395108735E+00
   0.1117547149754932E-30
   0.4449019461185858E+00
   0.1404765144683560E-30
   0.4700104886643244E+00
   0.1830378038080352E-30
   0.4891759378377738E+00
   0.9803316033137350E-31
   0.4885977144064512E+00
   0.9449221036915003E-31
   0.4510295747085473E+00
   0.3697700845142677E-30
   0.4681798598881620E+00
   0.1200723086376732E-30
   0.4876649586317749E+00
   0.9987615778127494E-31
   0.4868255677566454E+00
   0.1004745213990652E-30
   0.4909266652023547E+00
   0.8143054130572345E-31
   0.4793951933932539E+00
   0.1541687773120405E-30
   0.4657891938416517E+00
   0.1784066799834514E-30
   0.3794306028799656E+00
   0.5850256375784235E-30
   0.4903698368292063E+00
   0.4976243202651435E-31
   0.4487934993756503E+00
   0.2266933047718309E-30
   0.4432390141619825E+00
   0.4348922797031608E-30
   0.4845733878059536E+00
   0.1264117512826166E-30
   0.4621891189380636E+00
   0.1945481784344836E-30
   0.4663609785968455E+00
   0.1858883268547947E-30
   0.4747781349282985E+00
   0.1717899325465741E-30
   0.4893616481380725E+00
  -0.1582453799841413E-30
   0.5085734434821345E+00
  -0.2625506735633674E-32
   0.4304902615860123E+00
   0.3582093933203008E-30
   0.4927287826934564E+00
   0.8994101279420054E-31
   0.5320323083629083E+00
  -0.9643159385661537E-34
   0.4913833265343857E+00
   0.9521290712976262E-31
   0.5209407689647835E+00
   0.3480578721601648E-31
   0.5061343898883254E+00
   0.5783115824792298E-31
   0.5690645181390723E+00
  -0.4732677627220057E-31
   0.5275066302685356E+00
  -0.2593206037066818E-32
   0.5015080559215478E+00
   0.5732864884339472E-31
   0.5821370902690739E+00
   0.6478246904069777E-31
   0.5691494473674554E+00
   0.1035721987296304E-30
   0.3402454700426509E+00
   0.4511645932884387E-31
   0.3785430795343411E+00
   0.1839720034486437E-30
   0.5753094270944755E+00
  -0.5264792898742485E-31
   0.5668552171038664E+00
  -0.3678468064991278E-31
   0.5703054436587687E+00
  -0.1226938626329490E-31
   0.5291885194524211E+00
   0.1309740018464708E-31
   0.5449838314782434E+00
   0.1417451203160397E-31
   0.5719097767253843E+00
  -0.1536981310029847E-31
   0.5385699899881595E+00
   0.5555215785298573E-31
   0.5475900477727856E+00
   0.5156874584418976E-31
   0.5821570619286971E+00
  -0.3646941304840606E-31
   0.4925317736133753E+00
   0.7994285658018008E-31
   0.5041560890581005E+00
   0.6758023353015490E-31
   0.4961304809407548E+00
   0.8951333967586731E-31
   0.5562808675023834E+00
  -0.4526294423919454E-31
   0.4757818112673802E+00
  -0.3143740078211914E-30
   0.4950189457971356E+00
   0.9084515029549031E-31
   0.5496176227992506E+00
   0.1231498238837570E-32
   0.5889518016836129E+00
   0.4384720377600233E-31
   0.5839568525155479E+00
  -0.1997915696775770E-31
   0.5468166759338928E+00
  -0.1346582776769921E-31
   0.5803873813283904E+00
  -0.2163521122054151E-31
   0.5106069689301970E+00
   0.4863630381583629E-31
   0.5029545557249592E+00
   0.7139369764198038E-31
   0.5033123604735120E+00
   0.4644645553955838E-31
   0.5676224098653567E+00
  -0.5846075704034915E-31
   0.5564635326322369E+00
  -0.1223809796158143E-31
   0.4947140374075428E+00
   0.8284930281371027E-31
   0.5506804156009080E+00
  -0.2236087493726362E-31
   0.5513548836460858E+00