# vtk DataFile Version 2.0
FUN3D:global_image_vtk
ASCII
DATASET UNSTRUCTURED_GRID
POINTS 213 double
    0.0000000000000000E+00    0.2500000000000000E+01    0.0000000000000000E+00
    0.1250000000000000E+01    0.2500000000000000E+01    0.0000000000000000E+00
    0.2500000000000000E+01    0.2500000000000000E+01    0.0000000000000000E+00
    0.3750000000000000E+01    0.2500000000000000E+01    0.0000000000000000E+00
    0.5000000000000000E+01    0.2500000000000000E+01    0.0000000000000000E+00
    0.5000000000000000E+01    0.1250000000000000E+01    0.0000000000000000E+00
    0.5000000000000000E+01    0.0000000000000000E+00    0.0000000000000000E+00
    0.5000000000000000E+01   -0.1250000000000000E+01    0.0000000000000000E+00
    0.5000000000000000E+01   -0.2500000000000000E+01    0.0000000000000000E+00
    0.3750000000000000E+01   -0.2500000000000000E+01    0.0000000000000000E+00
    0.2500000000000000E+01   -0.2500000000000000E+01    0.0000000000000000E+00
    0.1250000000000000E+01   -0.2500000000000000E+01    0.0000000000000000E+00
    0.0000000000000000E+00   -0.2500000000000000E+01    0.0000000000000000E+00
    0.0000000000000000E+00   -0.1250000000000000E+01    0.0000000000000000E+00
    0.0000000000000000E+00    0.0000000000000000E+00    0.0000000000000000E+00
    0.0000000000000000E+00    0.1250000000000000E+01    0.0000000000000000E+00
    0.9058375365086910E+00    0.1578994732800803E+01    0.0000000000000000E+00
    0.3982050490726493E+01   -0.1583989954232354E+01    0.0000000000000000E+00
    0.4033849428301197E+01    0.1453322699199022E+01    0.0000000000000000E+00
    0.1040505887381675E+01   -0.1479596339503735E+01    0.0000000000000000E+00
    0.1099454400140349E+01   -0.3227322616384110E+00    0.0000000000000000E+00
    0.7354504170366591E+00    0.6593508822075582E+00    0.0000000000000000E+00
    0.1622302608453282E+01    0.8256214013940779E+00    0.0000000000000000E+00
    0.2145871574390382E+01   -0.1650070333782557E+01    0.0000000000000000E+00
    0.4086422318222992E+01   -0.4612828702537229E+00    0.0000000000000000E+00
    0.2979540174134984E+01   -0.8579242121530853E+00    0.0000000000000000E+00
    0.3045064261640043E+01   -0.1836846154397680E+01    0.0000000000000000E+00
    0.3428197553792836E+01    0.3508002863614053E+00    0.0000000000000000E+00
    0.4309693860063405E+01    0.5185680230613409E+00    0.0000000000000000E+00
    0.1827272193562204E+01    0.1738996113203182E+01    0.0000000000000000E+00
    0.2808563282768077E+01    0.1325493893339706E+01    0.0000000000000000E+00
    0.1895995683864404E+01   -0.8731419609589618E+00    0.0000000000000000E+00
    0.2273179336307740E+01    0.4906150219227333E-01    0.0000000000000000E+00
    0.5000000000000000E+01    0.2500000000000000E+01    0.1250000000000000E+01
    0.5000000000000000E+01    0.2500000000000000E+01    0.2500000000000000E+01
    0.5000000000000000E+01    0.2500000000000000E+01    0.3750000000000000E+01
    0.5000000000000000E+01    0.2500000000000000E+01    0.5000000000000000E+01
    0.3750000000000000E+01    0.2500000000000000E+01    0.5000000000000000E+01
    0.2500000000000000E+01    0.2500000000000000E+01    0.5000000000000000E+01
    0.1250000000000000E+01    0.2500000000000000E+01    0.5000000000000000E+01
    0.0000000000000000E+00    0.2500000000000000E+01    0.5000000000000000E+01
    0.0000000000000000E+00    0.2500000000000000E+01    0.3750000000000000E+01
    0.0000000000000000E+00    0.2500000000000000E+01    0.2500000000000000E+01
    0.0000000000000000E+00    0.2500000000000000E+01    0.1250000000000000E+01
    0.9631080833812172E+00    0.2500000000000000E+01    0.9613285771248219E+00
    0.3981732467264904E+01    0.2500000000000000E+01    0.4069753913607991E+01
    0.4035525118777670E+01    0.2500000000000000E+01    0.1012015867579395E+01
    0.9641717640894248E+00    0.2500000000000000E+01    0.3972455192261839E+01
    0.1547743040396780E+01    0.2500000000000000E+01    0.2928177746738678E+01
    0.6985170616192014E+00    0.2500000000000000E+01    0.3068281976055466E+01
    0.8931277594515110E+00    0.2500000000000000E+01    0.2052465503257726E+01
    0.2183293750162785E+01    0.2500000000000000E+01    0.3959073795658649E+01
    0.3855333506014705E+01    0.2500000000000000E+01    0.2931218481500625E+01
    0.3152495579421047E+01    0.2500000000000000E+01    0.3635850502723324E+01
    0.3103247580566054E+01    0.2500000000000000E+01    0.4331682712472464E+01
    0.3266837581688852E+01    0.2500000000000000E+01    0.1886092433583972E+01
    0.4231539241296245E+01    0.2500000000000000E+01    0.1915865356532799E+01
    0.1909741006522088E+01    0.2500000000000000E+01    0.7170024419130505E+00
    0.2880784107213163E+01    0.2500000000000000E+01    0.9046598906449592E+00
    0.2014316024535771E+01    0.2500000000000000E+01    0.1762464314805728E+01
    0.2670003247036656E+01    0.2500000000000000E+01    0.2850479545835163E+01
    0.5000000000000000E+01    0.1250000000000000E+01    0.5000000000000000E+01
    0.5000000000000000E+01    0.0000000000000000E+00    0.5000000000000000E+01
    0.5000000000000000E+01   -0.1250000000000000E+01    0.5000000000000000E+01
    0.5000000000000000E+01   -0.2500000000000000E+01    0.5000000000000000E+01
    0.5000000000000000E+01   -0.2500000000000000E+01    0.3750000000000000E+01
    0.5000000000000000E+01   -0.2500000000000000E+01    0.2500000000000000E+01
    0.5000000000000000E+01   -0.2500000000000000E+01    0.1250000000000000E+01
    0.5000000000000000E+01    0.1578994732800803E+01    0.9058375365086910E+00
    0.5000000000000000E+01   -0.1583989954232354E+01    0.3982050490726493E+01
    0.5000000000000000E+01    0.1453322699199022E+01    0.4033849428301197E+01
    0.5000000000000000E+01   -0.1479596339503735E+01    0.1040505887381675E+01
    0.5000000000000000E+01   -0.3227322616384110E+00    0.1099454400140349E+01
    0.5000000000000000E+01    0.6593508822075582E+00    0.7354504170366591E+00
    0.5000000000000000E+01    0.8256214013940779E+00    0.1622302608453282E+01
    0.5000000000000000E+01   -0.1650070333782557E+01    0.2145871574390382E+01
    0.5000000000000000E+01   -0.4612828702537229E+00    0.4086422318222992E+01
    0.5000000000000000E+01   -0.8579242121530853E+00    0.2979540174134984E+01
    0.5000000000000000E+01   -0.1836846154397680E+01    0.3045064261640043E+01
    0.5000000000000000E+01    0.3508002863614053E+00    0.3428197553792836E+01
    0.5000000000000000E+01    0.5185680230613409E+00    0.4309693860063405E+01
    0.5000000000000000E+01    0.1738996113203182E+01    0.1827272193562204E+01
    0.5000000000000000E+01    0.1325493893339706E+01    0.2808563282768077E+01
    0.5000000000000000E+01   -0.8731419609589618E+00    0.1895995683864404E+01
    0.5000000000000000E+01    0.4906150219227333E-01    0.2273179336307740E+01
    0.0000000000000000E+00    0.1250000000000000E+01    0.5000000000000000E+01
    0.0000000000000000E+00    0.0000000000000000E+00    0.5000000000000000E+01
    0.0000000000000000E+00   -0.1250000000000000E+01    0.5000000000000000E+01
    0.0000000000000000E+00   -0.2500000000000000E+01    0.5000000000000000E+01
    0.1250000000000000E+01   -0.2500000000000000E+01    0.5000000000000000E+01
    0.2500000000000000E+01   -0.2500000000000000E+01    0.5000000000000000E+01
    0.3750000000000000E+01   -0.2500000000000000E+01    0.5000000000000000E+01
    0.4042003247744892E+01    0.1558308132739014E+01    0.5000000000000000E+01
    0.9304122287900499E+00   -0.1548001304379777E+01    0.5000000000000000E+01
    0.1037243024609388E+01    0.1462892710085612E+01    0.5000000000000000E+01
    0.3946240828834967E+01   -0.1445243809615570E+01    0.5000000000000000E+01
    0.4092527262848217E+01   -0.3455338993778935E+00    0.5000000000000000E+01
    0.4293103109154542E+01    0.6277660831404320E+00    0.5000000000000000E+01
    0.3241512314643519E+01    0.7429886854239611E+00    0.5000000000000000E+01
    0.2844289952419609E+01   -0.1588117879734118E+01    0.5000000000000000E+01
    0.7159905765450471E+00   -0.6002320124191652E+00    0.5000000000000000E+01
    0.1754341919796891E+01   -0.7398147869923652E+00    0.5000000000000000E+01
    0.1870296826774691E+01   -0.1788622905643739E+01    0.5000000000000000E+01
    0.9220614901912976E+00    0.3083720183248586E+00    0.5000000000000000E+01
    0.3101523624086016E+01    0.1777901774806180E+01    0.5000000000000000E+01
    0.2192512063922564E+01    0.1576861561598471E+01    0.5000000000000000E+01
    0.2024793420196460E+01    0.4773861992750707E+00    0.5000000000000000E+01
    0.2990627757741975E+01   -0.4878110785814084E+00    0.5000000000000000E+01
    0.0000000000000000E+00   -0.2500000000000000E+01    0.1250000000000000E+01
    0.0000000000000000E+00   -0.2500000000000000E+01    0.2500000000000000E+01
    0.0000000000000000E+00   -0.2500000000000000E+01    0.3750000000000000E+01
    0.0000000000000000E+00    0.1558308132739014E+01    0.4042003247744892E+01
    0.0000000000000000E+00   -0.1548001304379777E+01    0.9304122287900499E+00
    0.0000000000000000E+00    0.1462892710085612E+01    0.1037243024609388E+01
    0.0000000000000000E+00   -0.1445243809615570E+01    0.3946240828834967E+01
    0.0000000000000000E+00   -0.3455338993778935E+00    0.4092527262848217E+01
    0.0000000000000000E+00    0.6277660831404320E+00    0.4293103109154542E+01
    0.0000000000000000E+00    0.7429886854239611E+00    0.3241512314643519E+01
    0.0000000000000000E+00   -0.1588117879734118E+01    0.2844289952419609E+01
    0.0000000000000000E+00   -0.6002320124191652E+00    0.7159905765450471E+00
    0.0000000000000000E+00   -0.7398147869923652E+00    0.1754341919796891E+01
    0.0000000000000000E+00   -0.1788622905643739E+01    0.1870296826774691E+01
    0.0000000000000000E+00    0.3083720183248586E+00    0.9220614901912976E+00
    0.0000000000000000E+00    0.1777901774806180E+01    0.3101523624086016E+01
    0.0000000000000000E+00    0.1576861561598471E+01    0.2192512063922564E+01
[...]
POINT_DATA 213
SCALARS rho double 1
LOOKUP_TABLE default
   0.1344272810275885E+01
   0.9569772463894004E+00
   0.9462966715509628E+00
   0.9418613047582385E+00
   0.8437299591767251E+00
   0.7737999244304317E+00
   0.7629813681950819E+00
   0.7664572286450285E+00
   0.8307867954989420E+00
   0.9352970731457068E+00
   0.9342222716280096E+00
   0.9617204293845316E+00
   0.1449458943336742E+01
   0.1494092874031749E+01
   0.1644670095413061E+01
   0.1425834388944295E+01
   0.1009016268098031E+01
   0.9508812167271689E+00
   0.9436507240745827E+00
   0.9581570684561955E+00
   0.9415857206928664E+00
   0.1036378580584428E+01
   0.9256167559903814E+00
   0.9322353906131177E+00
   0.9537480351382925E+00
   0.9518769504878970E+00
   0.9348582766894027E+00
   0.9564026712859458E+00
   0.9376096792130814E+00
   0.9300667861593621E+00
   0.9445157927297583E+00
   0.8863506381819461E+00
   0.9423579138980895E+00
   0.9634990525066086E+00
   0.1008298347556656E+01
   0.1006735389474052E+01
   0.1001964884589431E+01
   0.1003219556185182E+01
   0.1004132111322253E+01
   0.1005228918148490E+01
   0.1004260519077594E+01
   0.1008308848912023E+01
   0.1023893451647718E+01
   0.1063555156355027E+01
   0.1019183408552564E+01
   0.1001780561263815E+01
   0.9643306014874022E+00
   0.1005283956179060E+01
   0.1000721195293434E+01
   0.1008742491816025E+01
   0.1008078906868050E+01
   0.1002349644924815E+01
   0.9979984879970639E+00
   0.1000583265258637E+01
   0.1001619884545387E+01
   0.9826891908111796E+00
   0.9842433354301309E+00
   0.9833311077352298E+00
   0.9788206848220889E+00
   0.9902641379547308E+00
   0.9934560863969381E+00
   0.1002012053877628E+01
   0.1002134732565996E+01
   0.1002276573298667E+01
   0.1001794955225366E+01
   0.1009778482827055E+01
   0.1006427940215504E+01
   0.9558772078341072E+00
   0.9249386591071900E+00
   0.1007036849003678E+01
   0.1004504989539696E+01
   0.9143630992433848E+00
   0.9089657050822574E+00
   0.8751678173492899E+00
   0.9767259413836595E+00
   0.1000451196155250E+01
   0.1005831243691938E+01
   0.1012882071678519E+01
   0.1011618337612242E+01
   0.1010438310621335E+01
   0.1005468517401655E+01
   0.9907599887360060E+00
   0.1005139766856290E+01
   0.9860554686233600E+00
   0.1005608566528994E+01
   0.1004248108841828E+01
   0.1002888724806501E+01
   0.1003345763381579E+01
   0.1003993095627056E+01
   0.1005102015405358E+01
   0.1003211733600511E+01
   0.1002663151406239E+01
   0.1002586114678082E+01
   0.1004061122441245E+01
   0.1004320581951785E+01
   0.1001641720820193E+01
   0.1002272854367411E+01
   0.1002543253811923E+01
   0.1003469207948741E+01
   0.1003372620878273E+01
   0.1003232299760071E+01
   0.1004423987560207E+01
   0.1004313258390011E+01
   0.1003660050810340E+01
   0.1003723076393508E+01
   0.1004329748696013E+01
   0.1004464939551908E+01
   0.1003623206170375E+01
   0.1064425970971191E+01
   0.1028473707513522E+01
   0.1009587225599118E+01
   0.1006639366193093E+01
   0.1163938467079058E+01
   0.1086091426433331E+01
   0.1007893793126901E+01
   0.1007245951315607E+01
   0.1006798604014061E+01
   0.1013018393619147E+01
   0.1019384215924326E+01
   0.1235208930659141E+01
   0.1032531509916928E+01
   0.1046680120429713E+01
   0.1200956725348708E+01
   0.1014719540893476E+01
   0.1032290856976152E+01
   0.1028095015201199E+01
   0.1014628462741793E+01
   0.1029217563987129E+01
   0.1001994534329514E+01
   0.9606924712566020E+00
   0.1006852800095834E+01
   0.1001327570455359E+01
   0.1010821941620127E+01
   0.1012247345658574E+01
   0.1000945843709573E+01
   0.9979116926355107E+00
   0.9980628721525978E+00
   0.1001183961427834E+01
   0.9841359123138906E+00
   0.9814872036337375E+00
   0.9648481187730122E+00
   0.9680874234004674E+00
   0.9914126327546273E+00
   0.9910856638460926E+00
   0.9925546319620825E+00
   0.1001727665731524E+01
   0.9993411693250539E+00
   0.9941415402549220E+00
   0.1007039857005622E+01
   0.1022540992254299E+01
   0.1001088335753674E+01
   0.1008798759084087E+01
   0.1004773779103903E+01
   0.1009050472311962E+01
   0.9966476384536640E+00
   0.1004988846196968E+01
   0.1003325514826605E+01
   0.9949431082773744E+00
   0.9832679437596603E+00
   0.9943957350706694E+00
   0.9973419814325910E+00
   0.9932184527925658E+00
   0.1001306230542077E+01
   0.1003001445324559E+01
   0.1002183336691615E+01
   0.9947074633845204E+00
   0.9937965302051199E+00
   0.1004867804325729E+01
   0.1020078624446464E+01
   0.1005365194769806E+01
   0.9816998528998598E+00
   0.1004973156241210E+01
   0.1012382658917389E+01
   0.9871418896860246E+00
   0.9551509043864542E+00
   0.9865075698229639E+00
   0.9864534425899734E+00
   0.9918944851036161E+00
   0.9933508166990782E+00
   0.9954409568008549E+00
   0.1037338866023633E+01
   0.1033537543961989E+01
   0.1001443097547111E+01
   0.1001930324207934E+01
   0.9912473208659647E+00
   0.9910918873579492E+00
   0.9648483824659911E+00
   0.9933274689428635E+00
   0.1006058241547470E+01
   0.1001953761848678E+01
   0.9908735341815063E+00
   0.9740939650004092E+00
   0.9418794300411278E+00
   0.9819377120793005E+00
   0.9794801796350872E+00
   0.9704169607689400E+00
   0.9720476404030119E+00
   0.9557345509183519E+00
   0.9496725722473274E+00
   0.9528671540698619E+00
   0.1002659424385306E+01
   0.1002471440765819E+01
   0.1000509096262769E+01
   0.1001677129907654E+01
   0.9607926673247197E+00
   0.9491621864654193E+00
   0.9584500813656301E+00
   0.1001120970780653E+01
   0.1000495871625094E+01
   0.1001156478653415E+01
   0.9807376519953664E+00
   0.9805999776187398E+00
   0.9628472673053727E+00
SCALARS u double 1
LOOKUP_TABLE default
   0.0000000000000000E+00
   0.0000000000000000E+00
   0.0000000000000000E+00
   0.0000000000000000E+00
   0.0000000000000000E+00
   0.0000000000000000E+00
   0.0000000000000000E+00
   0.0000000000000000E+00
   0.0000000000000000E+00
   0.0000000000000000E+00
   0.0000000000000000E+00
   0.0000000000000000E+00
   0.0000000000000000E+00
   0.0000000000000000E+00
   0.0000000000000000E+00
   0.0000000000000000E+00
   0.0000000000000000E+00
   0.0000000000000000E+00
   0.0000000000000000E+00
   0.0000000000000000E+00
   0.0000000000000000E+00
   0.0000000000000000E+00
   0.0000000000000000E+00
   0.0000000000000000E+00
   0.0000000000000000E+00
   0.0000000000000000E+00
   0.0000000000000000E+00
   0.0000000000000000E+00
   0.0000000000000000E+00
   0.0000000000000000E+00
   0.0000000000000000E+00
   0.0000000000000000E+00
   0.0000000000000000E+00
   0.4950172645849377E+00
   0.5338214872389094E+00
   0.5183274433586561E+00
   0.4930669694872505E+00
   0.4847607848191445E+00
   0.4867679925951486E+00
   0.4890760650085528E+00
   0.4957843059070365E+00
   0.4898292904620699E+00
   0.4717392025328193E+00
   0.4454815919040278E+00
   0.4833883766695877E+00
   0.5098415390592004E+00
   0.4390715541271734E+00
   0.4949404455845735E+00
   0.5225340664809148E+00
   0.4962459885724613E+00
   0.5226153789890999E+00
   0.5038894193396380E+00
   0.5646876751710547E+00
   0.5247523452066007E+00
   0.4991485489215772E+00
   0.5730543343974518E+00
   0.5696028012972467E+00
   0.3737938032447762E+00
   0.3998659297734644E+00
   0.5599309808981277E+00
   0.5564588854343570E+00
   0.4942645997025282E+00
   0.4948679589918590E+00
   0.4925754560722741E+00
   0.4914291242388047E+00
   0.5162364428990873E+00
   0.5361791980276156E+00
   0.4947407574361841E+00
   0.4524112376161811E+00
   0.5128786545536863E+00
   0.5117951370374455E+00
   0.4783515091923382E+00
   0.4931694119360479E+00
   0.4603173856365101E+00
   0.5244884769470430E+00
   0.5297427415319216E+00
   0.5129587310775968E+00
   0.5328355430649946E+00
   0.5308939084382820E+00
   0.5309854262805583E+00
   0.5063665955358290E+00
   0.5282452681561364E+00
   0.5410305708174141E+00
   0.5361251401304645E+00
   0.5374096187597599E+00
   0.4965361397543576E+00
   0.4975336638540614E+00
   0.4963836826347887E+00
   0.4955213516052843E+00
   0.4904578426532159E+00
   0.4903056243990787E+00
   0.4862209723678179E+00
   0.4854081538038936E+00
   0.4932158814335421E+00
   0.4909829242359983E+00
   0.4832226939248401E+00
   0.4872657711220555E+00
   0.4880162513350189E+00
   0.4872472492039815E+00
   0.4882713602649390E+00
   0.4952591364430776E+00
   0.4900968939847375E+00
   0.4904002777520327E+00
   0.4944226494080635E+00
   0.4868023900988457E+00
   0.4892394676384515E+00
   0.4881402140740805E+00
   0.4878479989136323E+00
   0.4446853085611228E+00
   0.4700034788149181E+00
   0.4891993977975152E+00
   0.4885239338917279E+00
   0.4506504407166778E+00
   0.4687346792333425E+00
   0.4877005817914785E+00
   0.4868348629685008E+00
   0.4908987765653602E+00
   0.4793553517627280E+00
   0.4658086282521781E+00
   0.3792686787908280E+00
   0.4901595180515027E+00
   0.4486716849867247E+00
   0.4436109453297377E+00
   0.4845141314961673E+00
   0.4621842312602377E+00
   0.4665773179808656E+00
   0.4748147389673844E+00
   0.4894472314772822E+00
   0.5085578696232841E+00
   0.4315070797972134E+00
   0.4927351821877233E+00
   0.5318295802849343E+00
   0.4913405960928826E+00
   0.5207017367005777E+00
   0.5060978344773808E+00
   0.5688787374724354E+00
   0.5274006911144329E+00
   0.5015064044804223E+00
   0.5821765619325434E+00
   0.5689594312045437E+00
   0.3406394936780872E+00
   0.3789867218300446E+00
   0.5751937778741790E+00
   0.5666480028006947E+00
   0.5704101010588302E+00
   0.5291064426909196E+00
   0.5451904136981608E+00
   0.5718792454742416E+00
   0.5389072946455773E+00
   0.5475484003342380E+00
   0.5821688356693242E+00
   0.4925609250122484E+00
   0.5042166019600587E+00
   0.4961741597718690E+00
   0.5565198904737646E+00
   0.4758833182282946E+00
   0.4950276858057385E+00
   0.5498528648792259E+00
   0.5891181955428166E+00
   0.5841943466737727E+00
   0.5469098039495024E+00
   0.5805396041271247E+00
   0.5106265446577637E+00
   0.5030211472694041E+00
   0.5033643335251572E+00
   0.5676433679678800E+00
   0.5563942522261635E+00
   0.4947263461590750E+00
   0.5505235076425702E+00
   0.5510849916788335E+00
   0.5657330509256324E+00
   0.4920073448791116E+00
   0.4927307509757901E+00
   0.3865134542317641E+00
   0.3687749350847687E+00
   0.5574899167702587E+00
   0.5763741951422077E+00
   0.4194299772938044E+00
   0.5824824200079400E+00
   0.4265198113098113E+00
   0.5392780304399678E+00
   0.5012004078176034E+00
   0.5119527506702288E+00
   0.5049133725068902E+00
   0.5751953382907360E+00
   0.5876354243325934E+00
   0.5379890277254095E+00
   0.5677452593095629E+00
   0.5351251845986519E+00
   0.5338062102123498E+00
   0.5580316873768897E+00
   0.5512691866395494E+00
   0.4261854611750312E+00
   0.5273341539176956E+00
   0.5795693049238759E+00
   0.3318681543520331E+00
   0.4760270107934853E+00
   0.5446181492673072E+00
   0.4798326883504243E+00
   0.3005293013005255E+00
   0.5031068083530533E+00
   0.5017129508674595E+00
   0.5129049593744703E+00
   0.5414836820722457E+00
   0.3437602907510698E+00
   0.3397709244921938E+00
   0.3189930704719192E+00
   0.5065951681784031E+00
   0.5123502380072409E+00
   0.5330322781120009E+00
   0.5879287047360481E+00
   0.4644166841175677E+00
   0.3531264979789375E+00
SCALARS v double 1
LOOKUP_TABLE default
   0.0000000000000000E+00
   0.0000000000000000E+00
   0.0000000000000000E+00
   0.0000000000000000E+00
   0.0000000000000000E+00
   0.0000000000000000E+00
   0.0000000000000000E+00
   0.0000000000000000E+00
   0.0000000000000000E+00
   0.0000000000000000E+00
   0.0000000000000000E+00
   0.0000000000000000E+00
   0.0000000000000000E+00
   0.0000000000000000E+00
   0.0000000000000000E+00
   0.0000000000000000E+00
   0.0000000000000000E+00
   0.0000000000000000E+00
   0.0000000000000000E+00
   0.0000000000000000E+00
   0.0000000000000000E+00
   0.0000000000000000E+00
   0.0000000000000000E+00
   0.0000000000000000E+00
   0.0000000000000000E+00
   0.0000000000000000E+00
   0.0000000000000000E+00
   0.0000000000000000E+00
   0.0000000000000000E+00
   0.0000000000000000E+00
   0.0000000000000000E+00
   0.0000000000000000E+00
   0.0000000000000000E+00
   0.0000000000000000E+00
   0.0000000000000000E+00
   0.0000000000000000E+00
   0.0000000000000000E+00
   0.0000000000000000E+00
   0.0000000000000000E+00
   0.0000000000000000E+00
   0.0000000000000000E+00
   0.0000000000000000E+00
   0.0000000000000000E+00
   0.0000000000000000E+00
   0.0000000000000000E+00
   0.0000000000000000E+00
   0.0000000000000000E+00
   0.0000000000000000E+00
   0.0000000000000000E+00
   0.0000000000000000E+00
   0.0000000000000000E+00
   0.0000000000000000E+00
   0.0000000000000000E+00
   0.0000000000000000E+00
   0.0000000000000000E+00
   0.0000000000000000E+00
   0.0000000000000000E+00
   0.0000000000000000E+00
   0.0000000000000000E+00
   0.0000000000000000E+00
   0.0000000000000000E+00
   0.7970881004202156E-03
  -0.1328927659532745E-02
  -0.1332248580122606E-02
   0.0000000000000000E+00
   0.0000000000000000E+00
   0.0000000000000000E+00
   0.0000000000000000E+00
  -0.1922546395991502E-01
   0.4772090052061943E-03
   0.2183093806131303E-02
   0.1427315735510917E-01
  -0.6488275660198218E-02
  -0.7821528600279714E-02
  -0.1327712523671733E-01
   0.4914229328109141E-02
   0.6907853173692708E-03
   0.3434193486914155E-02
   0.1920807890369990E-02
   0.3147691827107502E-02
   0.1704743151102813E-02
  -0.7316055858285371E-02
  -0.7723741456156831E-04
   0.4468475582375986E-02
  -0.4389389174901649E-03
  -0.6396446211968652E-04
  -0.1964343036728042E-03
   0.8071705479463812E-03
   0.0000000000000000E+00
   0.0000000000000000E+00
   0.0000000000000000E+00
   0.0000000000000000E+00
   0.4255932383221237E-03
   0.1616311634644486E-02
  -0.1297392942355729E-02
  -0.1022426332931817E-02
  -0.2133740816936634E-02
  -0.1063724428820647E-02
  -0.8197728579558188E-03
  -0.7614664751881563E-03
   0.5207094170275014E-04
  -0.6241781955706369E-03
   0.7916143814607466E-03
  -0.1745176499314072E-02
   0.2746728668277909E-03
  -0.8927954398803624E-04
  -0.9421610610231751E-03
  -0.1099828776359460E-02
   0.0000000000000000E+00
   0.0000000000000000E+00
   0.0000000000000000E+00
  -0.1061587691477620E-02
  -0.7641221298194921E-02
   0.1860808950122023E-01
  -0.2827077072727135E-04
  -0.1382997215240679E-02
  -0.2034978211726891E-02
  -0.5665981037605487E-02
  -0.1585356469615981E-02
  -0.5946813275627739E-02
  -0.4160208694878601E-02
   0.1565443287331239E-02
   0.3329502023672810E-01
   0.3056942268109429E-04
  -0.2766290656906524E-02
   0.3566767143500581E-02
   0.3599197779244321E-03
   0.0000000000000000E+00
   0.0000000000000000E+00
   0.0000000000000000E+00
   0.0000000000000000E+00
   0.0000000000000000E+00
   0.0000000000000000E+00
   0.0000000000000000E+00
   0.0000000000000000E+00
   0.0000000000000000E+00
   0.0000000000000000E+00
   0.0000000000000000E+00
   0.0000000000000000E+00
   0.0000000000000000E+00
   0.0000000000000000E+00
   0.0000000000000000E+00
   0.0000000000000000E+00
   0.0000000000000000E+00
   0.5046826149196576E-02
   0.3230744431826742E-02
   0.8149021122076277E-02
   0.6168163383993699E-02
   0.1122922196212999E-01
   0.1429255258167062E-01
  -0.2038895583996141E-03
   0.5118214837323306E-02
   0.2914946533642217E-02
   0.3373721583342302E-02
   0.3728376523610931E-02
  -0.1465691919774073E-01
  -0.6158413561798853E-03
   0.6651403680253172E-02
   0.1541894446574512E-02
   0.1969622115212575E-02
   0.4266038459847853E-02
  -0.2790971110894994E-02
   0.1227001849999967E-02
   0.2819145034290186E-02
   0.1497381274782226E-02
   0.2575091008397301E-02
   0.2030543083306213E-02
   0.2118137933369880E-02
   0.8700317539056458E-02
  -0.3733277868843775E-02
   0.6240987862835582E-02
   0.2523901198368506E-04
  -0.3854047418873542E-03
  -0.1674661578751760E-01
  -0.4882013598018336E-02
  -0.4719999291362285E-02
   0.3445195837709524E-02
  -0.6135439337234020E-02
   0.9938181895577279E-04
  -0.3291342486348877E-01
  -0.3046237473575903E-02
   0.4722560536681629E-02
   0.9228296054912686E-03
   0.2112087485237131E-02
   0.4518512987752164E-02
   0.2720383133282003E-02
   0.3212526037652325E-02
   0.5200535340875785E-02
   0.1941867740976258E-02
   0.7316978428906206E-03
  -0.2541803890305450E-04
  -0.5374563843307969E-02
  -0.6959621227507532E-02
  -0.9443285002730291E-03
   0.1105174391320858E-02
  -0.2080518916481531E-02
  -0.3199978990379374E-02
  -0.2527843619170903E-02
  -0.4115133720988536E-02
  -0.7593905687476642E-02
  -0.1985514827337291E-02
   0.6241824735862108E-03
  -0.2237520644972290E-03
   0.1216768902459179E-02
  -0.3483907423351036E-02
   0.5229195057811994E-02
  -0.8487500583675244E-02
   0.2324416580542583E-04
  -0.3393964980269237E-03
   0.2542438043394330E-02
   0.1663427338490775E-02
   0.2021369475574559E-02
  -0.5620759620918991E-02
SCALARS w double 1
LOOKUP_TABLE default
   0.0000000000000000E+00
   0.0000000000000000E+00
   0.0000000000000000E+00
   0.0000000000000000E+00
   0.0000000000000000E+00
   0.0000000000000000E+00
   0.0000000000000000E+00
   0.0000000000000000E+00
   0.0000000000000000E+00
   0.0000000000000000E+00
   0.0000000000000000E+00
   0.0000000000000000E+00
   0.0000000000000000E+00
   0.0000000000000000E+00
   0.0000000000000000E+00
   0.0000000000000000E+00
   0.0000000000000000E+00
   0.0000000000000000E+00
   0.0000000000000000E+00
   0.0000000000000000E+00
   0.0000000000000000E+00
   0.0000000000000000E+00
   0.0000000000000000E+00
   0.0000000000000000E+00
   0.0000000000000000E+00
   0.0000000000000000E+00
   0.0000000000000000E+00
   0.0000000000000000E+00
   0.0000000000000000E+00
   0.0000000000000000E+00
   0.0000000000000000E+00
   0.0000000000000000E+00
   0.0000000000000000E+00
  -0.1007606539287133E+00
  -0.4249295275684507E-01
   0.7368149563686026E-03
   0.5726242716733759E-02
   0.5700161484152264E-03
   0.1609731608513337E-02
   0.3375008946731867E-02
   0.2372031437128808E-02
   0.4590271167071639E-03
   0.3519827314587548E-02
   0.4522187396939445E-01
   0.6522883757359645E-01
   0.8693007860970539E-03
  -0.2261154845782437E-01
   0.4317187890253413E-02
   0.1358874952632944E-01
   0.1039564304038275E-01
   0.4900638268241304E-01
   0.2438312143924857E-02
  -0.6509589566193198E-02
  -0.7001779850394167E-03
   0.3417602077073414E-03
   0.3903953531810888E-02
  -0.3893229375925621E-01
   0.1798161190408565E-01
   0.1119618830656505E-01
   0.3403760796384306E-01
   0.8439704669789608E-02
   0.4937976946674309E-02
   0.4971160186028637E-02
   0.4872108352919820E-02
   0.6027660476590297E-02
   0.2598781179141048E-02
  -0.4144439538865117E-01
  -0.9954209764986453E-01
  -0.1121673760296792E+00
   0.5070523790068663E-02
   0.4230416438982959E-02
  -0.1004728859867478E+00
  -0.9895249299355777E-01
  -0.9875437549023658E-01
  -0.9462473548379859E-01
  -0.6807110553762891E-01
   0.5154593252060054E-02
  -0.1935392533893498E-01
  -0.1575855836664646E-01
  -0.6003518023493226E-02
   0.6818872085745838E-02
  -0.8010017186921983E-01
  -0.2781134284935493E-01
  -0.8096441890272064E-01
  -0.5873296641842510E-01
   0.3084004920570223E-02
   0.2685422907719892E-02
   0.2640547412480526E-02
   0.3450230303423531E-02
   0.4007024872599571E-02
   0.1201196327407464E-02
  -0.1438535182892653E-03
   0.2040301175194647E-02
   0.4895693815541022E-02
   0.3857469112728568E-02
   0.1114652707615594E-02
   0.1183284425013159E-02
   0.1466073941378709E-02
  -0.1607437220439194E-04
   0.9002563926690263E-04
   0.4386925085185296E-02
   0.2715852199436407E-02
   0.2322825757519747E-02
   0.5010683401112245E-02
   0.1071677050231428E-02
   0.2712257739272037E-02
   0.2014268444194930E-02
   0.2906363082090506E-04
   0.8374885195550866E-01
   0.2795300447405799E-02
  -0.8344489564042564E-03
  -0.1490795254302006E-03
   0.1409549998698114E+00
   0.1239334106264753E+00
  -0.1218694344608444E-02
  -0.4381668766839063E-02
  -0.3041272364904771E-03
  -0.6511227426667690E-02
  -0.1947611047146280E-02
   0.1557642501311028E+00
   0.7490247827235023E-01
   0.2550559405875032E-01
   0.1656450904016746E+00