# vtk DataFile Version 2.0
FUN3D:global_image_vtk
ASCII
DATASET UNSTRUCTURED_GRID
POINTS 213 double
    0.0000000000000000E+00    0.2500000000000000E+01    0.0000000000000000E+00
    0.1250000000000000E+01    0.2500000000000000E+01    0.0000000000000000E+00
    0.2500000000000000E+01    0.2500000000000000E+01    0.0000000000000000E+00
    0.3750000000000000E+01    0.2500000000000000E+01    0.0000000000000000E+00
    0.5000000000000000E+01    0.2500000000000000E+01    0.0000000000000000E+00
    0.5000000000000000E+01    0.1250000000000000E+01    0.0000000000000000E+00
    0.5000000000000000E+01    0.0000000000000000E+00    0.0000000000000000E+00
    0.5000000000000000E+01   -0.1250000000000000E+01    0.0000000000000000E+00
    0.5000000000000000E+01   -0.2500000000000000E+01    0.0000000000000000E+00
    0.3750000000000000E+01   -0.2500000000000000E+01    0.0000000000000000E+00
    0.2500000000000000E+01   -0.2500000000000000E+01    0.0000000000000000E+00
    0.1250000000000000E+01   -0.2500000000000000E+01    0.0000000000000000E+00
    0.0000000000000000E+00   -0.2500000000000000E+01    0.0000000000000000E+00
    0.0000000000000000E+00   -0.1250000000000000E+01    0.0000000000000000E+00
    0.0000000000000000E+00    0.0000000000000000E+00    0.0000000000000000E+00
    0.0000000000000000E+00    0.1250000000000000E+01    0.0000000000000000E+00
    0.9058375365086910E+00    0.1578994732800803E+01    0.0000000000000000E+00
    0.3982050490726493E+01   -0.1583989954232354E+01    0.0000000000000000E+00
    0.4033849428301197E+01    0.1453322699199022E+01    0.0000000000000000E+00
    0.1040505887381675E+01   -0.1479596339503735E+01    0.0000000000000000E+00
    0.1099454400140349E+01   -0.3227322616384110E+00    0.0000000000000000E+00
    0.7354504170366591E+00    0.6593508822075582E+00    0.0000000000000000E+00
    0.1622302608453282E+01    0.8256214013940779E+00    0.0000000000000000E+00
    0.2145871574390382E+01   -0.1650070333782557E+01    0.0000000000000000E+00
    0.4086422318222992E+01   -0.4612828702537229E+00    0.0000000000000000E+00
    0.2979540174134984E+01   -0.8579242121530853E+00    0.0000000000000000E+00
    0.3045064261640043E+01   -0.1836846154397680E+01    0.0000000000000000E+00
    0.3428197553792836E+01    0.3508002863614053E+00    0.0000000000000000E+00
    0.4309693860063405E+01    0.5185680230613409E+00    0.0000000000000000E+00
    0.1827272193562204E+01    0.1738996113203182E+01    0.0000000000000000E+00
    0.2808563282768077E+01    0.1325493893339706E+01    0.0000000000000000E+00
    0.1895995683864404E+01   -0.8731419609589618E+00    0.0000000000000000E+00
    0.2273179336307740E+01    0.4906150219227333E-01    0.0000000000000000E+00
    0.5000000000000000E+01    0.2500000000000000E+01    0.1250000000000000E+01
    0.5000000000000000E+01    0.2500000000000000E+01    0.2500000000000000E+01
    0.5000000000000000E+01    0.2500000000000000E+01    0.3750000000000000E+01
    0.5000000000000000E+01    0.2500000000000000E+01    0.5000000000000000E+01
    0.3750000000000000E+01    0.2500000000000000E+01    0.5000000000000000E+01
    0.2500000000000000E+01    0.2500000000000000E+01    0.5000000000000000E+01
    0.1250000000000000E+01    0.2500000000000000E+01    0.5000000000000000E+01
    0.0000000000000000E+00    0.2500000000000000E+01    0.5000000000000000E+01
    0.0000000000000000E+00    0.2500000000000000E+01    0.3750000000000000E+01
    0.0000000000000000E+00    0.2500000000000000E+01    0.2500000000000000E+01
    0.0000000000000000E+00    0.2500000000000000E+01    0.1250000000000000E+01
    0.9631080833812172E+00    0.2500000000000000E+01    0.9613285771248219E+00
    0.3981732467264904E+01    0.2500000000000000E+01    0.4069753913607991E+01
    0.4035525118777670E+01    0.2500000000000000E+01    0.1012015867579395E+01
    0.9641717640894248E+00    0.2500000000000000E+01    0.3972455192261839E+01
    0.1547743040396780E+01    0.2500000000000000E+01    0.2928177746738678E+01
    0.6985170616192014E+00    0.2500000000000000E+01    0.3068281976055466E+01
    0.8931277594515110E+00    0.2500000000000000E+01    0.2052465503257726E+01
    0.2183293750162785E+01    0.2500000000000000E+01    0.3959073795658649E+01
    0.3855333506014705E+01    0.2500000000000000E+01    0.2931218481500625E+01
    0.3152495579421047E+01    0.2500000000000000E+01    0.3635850502723324E+01
    0.3103247580566054E+01    0.2500000000000000E+01    0.4331682712472464E+01
    0.3266837581688852E+01    0.2500000000000000E+01    0.1886092433583972E+01
    0.4231539241296245E+01    0.2500000000000000E+01    0.1915865356532799E+01
    0.1909741006522088E+01    0.2500000000000000E+01    0.7170024419130505E+00
    0.2880784107213163E+01    0.2500000000000000E+01    0.9046598906449592E+00
    0.2014316024535771E+01    0.2500000000000000E+01    0.1762464314805728E+01
    0.2670003247036656E+01    0.2500000000000000E+01    0.2850479545835163E+01
    0.5000000000000000E+01    0.1250000000000000E+01    0.5000000000000000E+01
    0.5000000000000000E+01    0.0000000000000000E+00    0.5000000000000000E+01
    0.5000000000000000E+01   -0.1250000000000000E+01    0.5000000000000000E+01
    0.5000000000000000E+01   -0.2500000000000000E+01    0.5000000000000000E+01
    0.5000000000000000E+01   -0.2500000000000000E+01    0.3750000000000000E+01
    0.5000000000000000E+01   -0.2500000000000000E+01    0.2500000000000000E+01
    0.5000000000000000E+01   -0.2500000000000000E+01    0.1250000000000000E+01
    0.5000000000000000E+01    0.1578994732800803E+01    0.9058375365086910E+00
    0.5000000000000000E+01   -0.1583989954232354E+01    0.3982050490726493E+01
    0.5000000000000000E+01    0.1453322699199022E+01    0.4033849428301197E+01
    0.5000000000000000E+01   -0.1479596339503735E+01    0.1040505887381675E+01
    0.5000000000000000E+01   -0.3227322616384110E+00    0.1099454400140349E+01
    0.5000000000000000E+01    0.6593508822075582E+00    0.7354504170366591E+00
    0.5000000000000000E+01    0.8256214013940779E+00    0.1622302608453282E+01
    0.5000000000000000E+01   -0.1650070333782557E+01    0.2145871574390382E+01
    0.5000000000000000E+01   -0.4612828702537229E+00    0.4086422318222992E+01
    0.5000000000000000E+01   -0.8579242121530853E+00    0.2979540174134984E+01
    0.5000000000000000E+01   -0.1836846154397680E+01    0.3045064261640043E+01
    0.5000000000000000E+01    0.3508002863614053E+00    0.3428197553792836E+01
    0.5000000000000000E+01    0.5185680230613409E+00    0.4309693860063405E+01
    0.5000000000000000E+01    0.1738996113203182E+01    0.1827272193562204E+01
    0.5000000000000000E+01    0.1325493893339706E+01    0.2808563282768077E+01
    0.5000000000000000E+01   -0.8731419609589618E+00    0.1895995683864404E+01
    0.5000000000000000E+01    0.4906150219227333E-01    0.2273179336307740E+01
    0.0000000000000000E+00    0.1250000000000000E+01    0.5000000000000000E+01
    0.0000000000000000E+00    0.0000000000000000E+00    0.5000000000000000E+01
    0.0000000000000000E+00   -0.1250000000000000E+01    0.5000000000000000E+01
    0.0000000000000000E+00   -0.2500000000000000E+01    0.5000000000000000E+01
    0.1250000000000000E+01   -0.2500000000000000E+01    0.5000000000000000E+01
    0.2500000000000000E+01   -0.2500000000000000E+01    0.5000000000000000E+01
    0.3750000000000000E+01   -0.2500000000000000E+01    0.5000000000000000E+01
    0.4042003247744892E+01    0.1558308132739014E+01    0.5000000000000000E+01
    0.9304122287900499E+00   -0.1548001304379777E+01    0.5000000000000000E+01
    0.1037243024609388E+01    0.1462892710085612E+01    0.5000000000000000E+01
    0.3946240828834967E+01   -0.1445243809615570E+01    0.5000000000000000E+01
    0.4092527262848217E+01   -0.3455338993778935E+00    0.5000000000000000E+01
    0.4293103109154542E+01    0.6277660831404320E+00    0.5000000000000000E+01
    0.3241512314643519E+01    0.7429886854239611E+00    0.5000000000000000E+01
    0.2844289952419609E+01   -0.1588117879734118E+01    0.5000000000000000E+01
    0.7159905765450471E+00   -0.6002320124191652E+00    0.5000000000000000E+01
    0.1754341919796891E+01   -0.7398147869923652E+00    0.5000000000000000E+01
    0.1870296826774691E+01   -0.1788622905643739E+01    0.5000000000000000E+01
    0.9220614901912976E+00    0.3083720183248586E+00    0.5000000000000000E+01
    0.3101523624086016E+01    0.1777901774806180E+01    0.5000000000000000E+01
    0.2192512063922564E+01    0.1576861561598471E+01    0.5000000000000000E+01
    0.2024793420196460E+01    0.4773861992750707E+00    0.5000000000000000E+01
    0.2990627757741975E+01   -0.4878110785814084E+00    0.5000000000000000E+01
    0.0000000000000000E+00   -0.2500000000000000E+01    0.1250000000000000E+01
    0.0000000000000000E+00   -0.2500000000000000E+01    0.2500000000000000E+01
    0.0000000000000000E+00   -0.2500000000000000E+01    0.3750000000000000E+01
    0.0000000000000000E+00    0.1558308132739014E+01    0.4042003247744892E+01
    0.0000000000000000E+00   -0.1548001304379777E+01    0.9304122287900499E+00
    0.0000000000000000E+00    0.1462892710085612E+01    0.1037243024609388E+01
    0.0000000000000000E+00   -0.1445243809615570E+01    0.3946240828834967E+01
    0.0000000000000000E+00   -0.3455338993778935E+00    0.4092527262848217E+01
    0.0000000000000000E+00    0.6277660831404320E+00    0.4293103109154542E+01
    0.0000000000000000E+00    0.7429886854239611E+00    0.3241512314643519E+01
    0.0000000000000000E+00   -0.1588117879734118E+01    0.2844289952419609E+01
    0.0000000000000000E+00   -0.6002320124191652E+00    0.7159905765450471E+00
    0.0000000000000000E+00   -0.7398147869923652E+00    0.1754341919796891E+01
    0.0000000000000000E+00   -0.1788622905643739E+01    0.1870296826774691E+01
    0.0000000000000000E+00    0.3083720183248586E+00    0.9220614901912976E+00
    0.0000000000000000E+00    0.1777901774806180E+01    0.3101523624086016E+01
    0.0000000000000000E+00    0.1576861561598471E+01    0.2192512063922564E+01
[...]
POINT_DATA 213
SCALARS rho double 1
LOOKUP_TABLE default
   0.1344272810275890E+01
   0.9569772463894024E+00
   0.9462966715509432E+00
   0.9418613047581622E+00
   0.8437299591766310E+00
   0.7737999244304291E+00
   0.7629813681950810E+00
   0.7664572286450220E+00
   0.8307867954989402E+00
   0.9352970731457039E+00
   0.9342222716280068E+00
   0.9617204293845228E+00
   0.1449458943336731E+01
   0.1494092874031747E+01
   0.1644670095413055E+01
   0.1425834388944297E+01
   0.1009016268098031E+01
   0.9508812167271680E+00
   0.9436507240745310E+00
   0.9581570684561858E+00
   0.9415857206928654E+00
   0.1036378580584429E+01
   0.9256167559903775E+00
   0.9322353906131149E+00
   0.9537480351382941E+00
   0.9518769504878950E+00
   0.9348582766893994E+00
   0.9564026712859405E+00
   0.9376096792130905E+00
   0.9300667861593581E+00
   0.9445157927297302E+00
   0.8863506381819434E+00
   0.9423579138980891E+00
   0.9634990525064351E+00
   0.1008298347556654E+01
   0.1006735389474060E+01
   0.1001964884589441E+01
   0.1003219556185173E+01
   0.1004132111322240E+01
   0.1005228918148487E+01
   0.1004260519077596E+01
   0.1008308848912023E+01
   0.1023893451647717E+01
   0.1063555156355023E+01
   0.1019183408552567E+01
   0.1001780561263828E+01
   0.9643306014871387E+00
   0.1005283956179057E+01
   0.1000721195293430E+01
   0.1008742491816025E+01
   0.1008078906868049E+01
   0.1002349644924807E+01
   0.9979984879970532E+00
   0.1000583265258634E+01
   0.1001619884545378E+01
   0.9826891908111922E+00
   0.9842433354301147E+00
   0.9833311077352298E+00
   0.9788206848221684E+00
   0.9902641379547215E+00
   0.9934560863969305E+00
   0.1002012053877609E+01
   0.1002134732565962E+01
   0.1002276573298664E+01
   0.1001794955225368E+01
   0.1009778482827058E+01
   0.1006427940215489E+01
   0.9558772078340724E+00
   0.9249386591071680E+00
   0.1007036849003686E+01
   0.1004504989539719E+01
   0.9143630992434086E+00
   0.9089657050822605E+00
   0.8751678173493271E+00
   0.9767259413836721E+00
   0.1000451196155244E+01
   0.1005831243691958E+01
   0.1012882071678521E+01
   0.1011618337612238E+01
   0.1010438310621346E+01
   0.1005468517401689E+01
   0.9907599887360616E+00
   0.1005139766856270E+01
   0.9860554686233658E+00
   0.1005608566528966E+01
   0.1004248108841831E+01
   0.1002888724806500E+01
   0.1003345763381578E+01
   0.1003993095627059E+01
   0.1005102015405355E+01
   0.1003211733600509E+01
   0.1002663151406233E+01
   0.1002586114678060E+01
   0.1004061122441244E+01
   0.1004320581951779E+01
   0.1001641720820183E+01
   0.1002272854367375E+01
   0.1002543253811854E+01
   0.1003469207948712E+01
   0.1003372620878263E+01
   0.1003232299760068E+01
   0.1004423987560198E+01
   0.1004313258390008E+01
   0.1003660050810337E+01
   0.1003723076393511E+01
   0.1004329748696005E+01
   0.1004464939551903E+01
   0.1003623206170370E+01
   0.1064425970971165E+01
   0.1028473707513526E+01
   0.1009587225599115E+01
   0.1006639366193088E+01
   0.1163938467079074E+01
   0.1086091426433331E+01
   0.1007893793126897E+01
   0.1007245951315604E+01
   0.1006798604014060E+01
   0.1013018393619145E+01
   0.1019384215924327E+01
   0.1235208930659138E+01
   0.1032531509916921E+01
   0.1046680120429713E+01
   0.1200956725348702E+01
   0.1014719540893475E+01
   0.1032290856976148E+01
   0.1028095015201197E+01
   0.1014628462741791E+01
   0.1029217563987125E+01
   0.1001994534329519E+01
   0.9606924712565725E+00
   0.1006852800095831E+01
   0.1001327570455353E+01
   0.1010821941620126E+01
   0.1012247345658569E+01
   0.1000945843709570E+01
   0.9979116926355041E+00
   0.9980628721525943E+00
   0.1001183961427832E+01
   0.9841359123138819E+00
   0.9814872036337207E+00
   0.9648481187730005E+00
   0.9680874234004506E+00
   0.9914126327546242E+00
   0.9910856638460896E+00
   0.9925546319620798E+00
   0.1001727665731521E+01
   0.9993411693250499E+00
   0.9941415402549175E+00
   0.1007039857005620E+01
   0.1022540992254296E+01
   0.1001088335753672E+01
   0.1008798759084085E+01
   0.1004773779103899E+01
   0.1009050472311959E+01
   0.9966476384536633E+00
   0.1004988846196971E+01
   0.1003325514826600E+01
   0.9949431082773719E+00
   0.9832679437596380E+00
   0.9943957350706414E+00
   0.9973419814325875E+00
   0.9932184527925514E+00
   0.1001306230542069E+01
   0.1003001445324553E+01
   0.1002183336691608E+01
   0.9947074633845187E+00
   0.9937965302051168E+00
   0.1004867804325726E+01
   0.1020078624446461E+01
   0.1005365194769803E+01
   0.9816998528998599E+00
   0.1004973156241208E+01
   0.1012382658917385E+01
   0.9871418896860218E+00
   0.9551509043864526E+00
   0.9865075698229603E+00
   0.9864534425899673E+00
   0.9918944851036133E+00
   0.9933508166990740E+00
   0.9954409568008551E+00
   0.1037338866023634E+01
   0.1033537543961990E+01
   0.1001443097547127E+01
   0.1001930324207930E+01
   0.9912473208659619E+00
   0.9910918873579453E+00
   0.9648483824659926E+00
   0.9933274689428596E+00
   0.1006058241547472E+01
   0.1001953761848680E+01
   0.9908735341815025E+00
   0.9740939650004722E+00
   0.9418794300411274E+00
   0.9819377120792571E+00
   0.9794801796350865E+00
   0.9704169607689436E+00
   0.9720476404030071E+00
   0.9557345509183356E+00
   0.9496725722473396E+00
   0.9528671540698781E+00
   0.1002659424385307E+01
   0.1002471440765815E+01
   0.1000509096262770E+01
   0.1001677129907649E+01
   0.9607926673247074E+00
   0.9491621864654276E+00
   0.9584500813656557E+00
   0.1001120970780648E+01
   0.1000495871625092E+01
   0.1001156478653405E+01
   0.9807376519953649E+00
   0.9805999776187431E+00
   0.9628472673053854E+00
SCALARS u double 1
LOOKUP_TABLE default
   0.0000000000000000E+00
   0.0000000000000000E+00
   0.0000000000000000E+00
   0.0000000000000000E+00
   0.0000000000000000E+00
   0.0000000000000000E+00
   0.0000000000000000E+00
   0.0000000000000000E+00
   0.0000000000000000E+00
   0.0000000000000000E+00
   0.0000000000000000E+00
   0.0000000000000000E+00
   0.0000000000000000E+00
   0.0000000000000000E+00
   0.0000000000000000E+00
   0.0000000000000000E+00
   0.0000000000000000E+00
   0.0000000000000000E+00
   0.0000000000000000E+00
   0.0000000000000000E+00
   0.0000000000000000E+00
   0.0000000000000000E+00
   0.0000000000000000E+00
   0.0000000000000000E+00
   0.0000000000000000E+00
   0.0000000000000000E+00
   0.0000000000000000E+00
   0.0000000000000000E+00
   0.0000000000000000E+00
   0.0000000000000000E+00
   0.0000000000000000E+00
   0.0000000000000000E+00
   0.0000000000000000E+00
   0.4950172645850637E+00
   0.5338214872389030E+00
   0.5183274433586504E+00
   0.4930669694872894E+00
   0.4847607848192469E+00
   0.4867679925951678E+00
   0.4890760650085514E+00
   0.4957843059070263E+00
   0.4898292904620695E+00
   0.4717392025328208E+00
   0.4454815919040324E+00
   0.4833883766695858E+00
   0.5098415390592231E+00
   0.4390715541269851E+00
   0.4949404455845765E+00
   0.5225340664809210E+00
   0.4962459885724633E+00
   0.5226153789891010E+00
   0.5038894193396427E+00
   0.5646876751710777E+00
   0.5247523452066106E+00
   0.4991485489215908E+00
   0.5730543343974553E+00
   0.5696028012972364E+00
   0.3737938032447545E+00
   0.3998659297733214E+00
   0.5599309808981305E+00
   0.5564588854343747E+00
   0.4942645997025726E+00
   0.4948679589918906E+00
   0.4925754560722964E+00
   0.4914291242388206E+00
   0.5162364428990786E+00
   0.5361791980276214E+00
   0.4947407574362180E+00
   0.4524112376161664E+00
   0.5128786545536800E+00
   0.5117951370374213E+00
   0.4783515091923030E+00
   0.4931694119360442E+00
   0.4603173856364736E+00
   0.5244884769470365E+00
   0.5297427415319188E+00
   0.5129587310775849E+00
   0.5328355430649856E+00
   0.5308939084382780E+00
   0.5309854262805475E+00
   0.5063665955358103E+00
   0.5282452681560467E+00
   0.5410305708174334E+00
   0.5361251401304535E+00
   0.5374096187597913E+00
   0.4965361397543541E+00
   0.4975336638540607E+00
   0.4963836826347887E+00
   0.4955213516052812E+00
   0.4904578426532187E+00
   0.4903056243990853E+00
   0.4862209723678459E+00
   0.4854081538039890E+00
   0.4932158814335468E+00
   0.4909829242360018E+00
   0.4832226939248822E+00
   0.4872657711221072E+00
   0.4880162513350580E+00
   0.4872472492040308E+00
   0.4882713602649661E+00
   0.4952591364430808E+00
   0.4900968939847538E+00
   0.4904002777520406E+00
   0.4944226494080748E+00
   0.4868023900988980E+00
   0.4892394676384699E+00
   0.4881402140741013E+00
   0.4878479989136707E+00
   0.4446853085611743E+00
   0.4700034788149130E+00
   0.4891993977975180E+00
   0.4885239338917304E+00
   0.4506504407166469E+00
   0.4687346792333345E+00
   0.4877005817914800E+00
   0.4868348629684951E+00
   0.4908987765653569E+00
   0.4793553517627325E+00
   0.4658086282521743E+00
   0.3792686787908319E+00
   0.4901595180515140E+00
   0.4486716849867257E+00
   0.4436109453297492E+00
   0.4845141314961682E+00
   0.4621842312602438E+00
   0.4665773179808689E+00
   0.4748147389673872E+00
   0.4894472314772860E+00
   0.5085578696232870E+00
   0.4315070797972102E+00
   0.4927351821877267E+00
   0.5318295802849390E+00
   0.4913405960928828E+00
   0.5207017367005871E+00
   0.5060978344773848E+00
   0.5688787374724353E+00
   0.5274006911144367E+00
   0.5015064044804303E+00
   0.5821765619325497E+00
   0.5689594312045485E+00
   0.3406394936780821E+00
   0.3789867218300418E+00
   0.5751937778741890E+00
   0.5666480028007020E+00
   0.5704101010588312E+00
   0.5291064426909208E+00
   0.5451904136981638E+00
   0.5718792454742445E+00
   0.5389072946455790E+00
   0.5475484003342418E+00
   0.5821688356693279E+00
   0.4925609250122489E+00
   0.5042166019600622E+00
   0.4961741597718728E+00
   0.5565198904737662E+00
   0.4758833182282926E+00
   0.4950276858057473E+00
   0.5498528648792348E+00
   0.5891181955428372E+00
   0.5841943466737947E+00
   0.5469098039495052E+00
   0.5805396041271518E+00
   0.5106265446577773E+00
   0.5030211472694133E+00
   0.5033643335251854E+00
   0.5676433679678708E+00
   0.5563942522261648E+00
   0.4947263461590769E+00
   0.5505235076425744E+00
   0.5510849916788377E+00
   0.5657330509256330E+00
   0.4920073448791139E+00
   0.4927307509757904E+00
   0.3865134542317850E+00
   0.3687749350847747E+00
   0.5574899167702618E+00
   0.5763741951422188E+00
   0.4194299772937964E+00
   0.5824824200079487E+00
   0.4265198113098164E+00
   0.5392780304399675E+00
   0.5012004078176022E+00
   0.5119527506702586E+00
   0.5049133725068957E+00
   0.5751953382907316E+00
   0.5876354243325890E+00
   0.5379890277254058E+00
   0.5677452593095574E+00
   0.5351251845986482E+00
   0.5338062102123523E+00
   0.5580316873768868E+00
   0.5512691866395406E+00
   0.4261854611750361E+00
   0.5273341539177023E+00
   0.5795693049238699E+00
   0.3318681543520394E+00
   0.4760270107934857E+00
   0.5446181492673250E+00
   0.4798326883504176E+00
   0.3005293013005237E+00
   0.5031068083530548E+00
   0.5017129508674668E+00
   0.5129049593744940E+00
   0.5414836820722491E+00
   0.3437602907510999E+00
   0.3397709244922066E+00
   0.3189930704719169E+00
   0.5065951681784138E+00
   0.5123502380072475E+00
   0.5330322781119951E+00
   0.5879287047360515E+00
   0.4644166841175666E+00
   0.3531264979789548E+00
SCALARS v double 1
LOOKUP_TABLE default
   0.0000000000000000E+00
   0.0000000000000000E+00
   0.0000000000000000E+00
   0.0000000000000000E+00
   0.0000000000000000E+00
   0.0000000000000000E+00
   0.0000000000000000E+00
   0.0000000000000000E+00
   0.0000000000000000E+00
   0.0000000000000000E+00
   0.0000000000000000E+00
   0.0000000000000000E+00
   0.0000000000000000E+00
   0.0000000000000000E+00
   0.0000000000000000E+00
   0.0000000000000000E+00
   0.0000000000000000E+00
   0.0000000000000000E+00
   0.0000000000000000E+00
   0.0000000000000000E+00
   0.0000000000000000E+00
   0.0000000000000000E+00
   0.0000000000000000E+00
   0.0000000000000000E+00
   0.0000000000000000E+00
   0.0000000000000000E+00
   0.0000000000000000E+00
   0.0000000000000000E+00
   0.0000000000000000E+00
   0.0000000000000000E+00
   0.0000000000000000E+00
   0.0000000000000000E+00
   0.0000000000000000E+00
   0.0000000000000000E+00
   0.0000000000000000E+00
   0.0000000000000000E+00
   0.0000000000000000E+00
   0.0000000000000000E+00
   0.0000000000000000E+00
   0.0000000000000000E+00
   0.0000000000000000E+00
   0.0000000000000000E+00
   0.0000000000000000E+00
   0.0000000000000000E+00
   0.0000000000000000E+00
   0.0000000000000000E+00
   0.0000000000000000E+00
   0.0000000000000000E+00
   0.0000000000000000E+00
   0.0000000000000000E+00
   0.0000000000000000E+00
   0.0000000000000000E+00
   0.0000000000000000E+00
   0.0000000000000000E+00
   0.0000000000000000E+00
   0.0000000000000000E+00
   0.0000000000000000E+00
   0.0000000000000000E+00
   0.0000000000000000E+00
   0.0000000000000000E+00
   0.0000000000000000E+00
   0.7970881003472553E-03
  -0.1328927659532478E-02
  -0.1332248580097955E-02
   0.0000000000000000E+00
   0.0000000000000000E+00
   0.0000000000000000E+00
   0.0000000000000000E+00
  -0.1922546395979567E-01
   0.4772090052163439E-03
   0.2183093806130145E-02
   0.1427315735509469E-01
  -0.6488275660189770E-02
  -0.7821528600206471E-02
  -0.1327712523669668E-01
   0.4914229328097827E-02
   0.6907853173907003E-03
   0.3434193486915891E-02
   0.1920807890371877E-02
   0.3147691827112032E-02
   0.1704743151104327E-02
  -0.7316055858247377E-02
  -0.7723741456940484E-04
   0.4468475582372580E-02
  -0.4389389175028290E-03
  -0.6396446211943762E-04
  -0.1964343036735699E-03
   0.8071705479468141E-03
   0.0000000000000000E+00
   0.0000000000000000E+00
   0.0000000000000000E+00
   0.0000000000000000E+00
   0.4255932382559463E-03
   0.1616311634648107E-02
  -0.1297392942355988E-02
  -0.1022426332929013E-02
  -0.2133740816928982E-02
  -0.1063724428861666E-02
  -0.8197728579759896E-03
  -0.7614664751832898E-03
   0.5207094170372414E-04
  -0.6241781955696312E-03
   0.7916143814706865E-03
  -0.1745176499317251E-02
   0.2746728668148673E-03
  -0.8927954399568668E-04
  -0.9421610610312551E-03
  -0.1099828776370181E-02
   0.0000000000000000E+00
   0.0000000000000000E+00
   0.0000000000000000E+00
  -0.1061587691475755E-02
  -0.7641221298201376E-02
   0.1860808950122280E-01
  -0.2827077072892313E-04
  -0.1382997215240058E-02
  -0.2034978211724271E-02
  -0.5665981037605099E-02
  -0.1585356469611775E-02
  -0.5946813275624949E-02
  -0.4160208694874582E-02
   0.1565443287331153E-02
   0.3329502023672785E-01
   0.3056942268044230E-04
  -0.2766290656905380E-02
   0.3566767143500787E-02
   0.3599197779238460E-03
   0.0000000000000000E+00
   0.0000000000000000E+00
   0.0000000000000000E+00
   0.0000000000000000E+00
   0.0000000000000000E+00
   0.0000000000000000E+00
   0.0000000000000000E+00
   0.0000000000000000E+00
   0.0000000000000000E+00
   0.0000000000000000E+00
   0.0000000000000000E+00
   0.0000000000000000E+00
   0.0000000000000000E+00
   0.0000000000000000E+00
   0.0000000000000000E+00
   0.0000000000000000E+00
   0.0000000000000000E+00
   0.5046826149198516E-02
   0.3230744431826785E-02
   0.8149021122076293E-02
   0.6168163383992822E-02
   0.1122922196212990E-01
   0.1429255258166954E-01
  -0.2038895584003401E-03
   0.5118214837322515E-02
   0.2914946533641417E-02
   0.3373721583341537E-02
   0.3728376523608251E-02
  -0.1465691919774626E-01
  -0.6158413561763872E-03
   0.6651403680253886E-02
   0.1541894446558878E-02
   0.1969622115204074E-02
   0.4266038459852350E-02
  -0.2790971110921696E-02
   0.1227001850001895E-02
   0.2819145034287685E-02
   0.1497381274774455E-02
   0.2575091008395350E-02
   0.2030543083310229E-02
   0.2118137933368631E-02
   0.8700317539056797E-02
  -0.3733277868842258E-02
   0.6240987862834268E-02
   0.2523901198388278E-04
  -0.3854047418868708E-03
  -0.1674661578753648E-01
  -0.4882013598021962E-02
  -0.4719999291363020E-02
   0.3445195837700981E-02
  -0.6135439337254099E-02
   0.9938181894509330E-04
  -0.3291342486349112E-01
  -0.3046237473573961E-02
   0.4722560536679981E-02
   0.9228296054960496E-03
   0.2112087485236428E-02
   0.4518512987747943E-02
   0.2720383133282189E-02
   0.3212526037647398E-02
   0.5200535340873865E-02
   0.1941867740984462E-02
   0.7316978429018626E-03
  -0.2541803890351101E-04
  -0.5374563843316972E-02
  -0.6959621227453840E-02
  -0.9443285003085855E-03
   0.1105174391320257E-02
  -0.2080518916485728E-02
  -0.3199978990380762E-02
  -0.2527843619177566E-02
  -0.4115133720988668E-02
  -0.7593905687472428E-02
  -0.1985514827336442E-02
   0.6241824735885304E-03
  -0.2237520644808196E-03
   0.1216768902465478E-02
  -0.3483907423349976E-02
   0.5229195057821968E-02
  -0.8487500583674781E-02
   0.2324416581355062E-04
  -0.3393964980218857E-03
   0.2542438043394957E-02
   0.1663427338490674E-02
   0.2021369475574270E-02
  -0.5620759620913901E-02
SCALARS w double 1
LOOKUP_TABLE default
   0.0000000000000000E+00
   0.0000000000000000E+00
   0.0000000000000000E+00
   0.0000000000000000E+00
   0.0000000000000000E+00
   0.0000000000000000E+00
   0.0000000000000000E+00
   0.0000000000000000E+00
   0.0000000000000000E+00
   0.0000000000000000E+00
   0.0000000000000000E+00
   0.0000000000000000E+00
   0.0000000000000000E+00
   0.0000000000000000E+00
   0.0000000000000000E+00
   0.0000000000000000E+00
   0.0000000000000000E+00
   0.0000000000000000E+00
   0.0000000000000000E+00
   0.0000000000000000E+00
   0.0000000000000000E+00
   0.0000000000000000E+00
   0.0000000000000000E+00
   0.0000000000000000E+00
   0.0000000000000000E+00
   0.0000000000000000E+00
   0.0000000000000000E+00
   0.0000000000000000E+00
   0.0000000000000000E+00
   0.0000000000000000E+00
   0.0000000000000000E+00
   0.0000000000000000E+00
   0.0000000000000000E+00
  -0.1007606539287898E+00
  -0.4249295275687499E-01
   0.7368149563662018E-03
   0.5726242716745818E-02
   0.5700161483781038E-03
   0.1609731608498095E-02
   0.3375008946724907E-02
   0.2372031437127706E-02
   0.4590271167060608E-03
   0.3519827314588747E-02
   0.4522187396939804E-01
   0.6522883757359849E-01
   0.8693007860994098E-03
  -0.2261154845778888E-01
   0.4317187890251413E-02
   0.1358874952632786E-01
   0.1039564304038196E-01
   0.4900638268241295E-01
   0.2438312143924064E-02
  -0.6509589566186574E-02
  -0.7001779850328367E-03
   0.3417602077147111E-03
   0.3903953531836425E-02
  -0.3893229375926292E-01
   0.1798161190408737E-01
   0.1119618830660382E-01
   0.3403760796386914E-01
   0.8439704669795800E-02
   0.4937976946744561E-02
   0.4971160186118404E-02
   0.4872108352939564E-02
   0.6027660476591502E-02
   0.2598781179141113E-02
  -0.4144439538864823E-01
  -0.9954209764985610E-01
  -0.1121673760297043E+00
   0.5070523790079617E-02
   0.4230416439005499E-02
  -0.1004728859867400E+00
  -0.9895249299355287E-01
  -0.9875437549023870E-01
  -0.9462473548380915E-01
  -0.6807110553762062E-01
   0.5154593252087011E-02
  -0.1935392533892873E-01
  -0.1575855836664244E-01
  -0.6003518023488186E-02
   0.6818872085801433E-02
  -0.8010017186925907E-01
  -0.2781134284935700E-01
  -0.8096441890271215E-01
  -0.5873296641842320E-01
   0.3084004920565790E-02
   0.2685422907719802E-02
   0.2640547412480500E-02
   0.3450230303416628E-02
   0.4007024872591483E-02
   0.1201196327391231E-02
  -0.1438535182964057E-03
   0.2040301175205074E-02
   0.4895693815534964E-02
   0.3857469112724181E-02
   0.1114652707615216E-02
   0.1183284425051824E-02
   0.1466073941474194E-02
  -0.1607437219417618E-04
   0.9002563926107544E-04
   0.4386925085184010E-02
   0.2715852199437122E-02
   0.2322825757508719E-02
   0.5010683401107122E-02
   0.1071677050185862E-02
   0.2712257739262153E-02
   0.2014268444186297E-02
   0.2906363080963834E-04
   0.8374885195553258E-01
   0.2795300447406029E-02
  -0.8344489564054622E-03
  -0.1490795254317322E-03
   0.1409549998698104E+00
   0.1239334106264711E+00
  -0.1218694344607534E-02
  -0.4381668766834166E-02
  -0.3041272364890305E-03
  -0.6511227426667907E-02
  -0.1947611047149666E-02
   0.1557642501311020E+00
   0.7490247827234785E-01
   0.2550559405874929E-01
   0.1656450904016739E+00