# vtk DataFile Version 2.0
FUN3D:global_image_vtk
ASCII
DATASET UNSTRUCTURED_GRID
POINTS 213 double
    0.0000000000000000E+00    0.2500000000000000E+01    0.0000000000000000E+00
    0.1250000000000000E+01    0.2500000000000000E+01    0.0000000000000000E+00
    0.2500000000000000E+01    0.2500000000000000E+01    0.0000000000000000E+00
    0.3750000000000000E+01    0.2500000000000000E+01    0.0000000000000000E+00
    0.5000000000000000E+01    0.2500000000000000E+01    0.0000000000000000E+00
    0.5000000000000000E+01    0.1250000000000000E+01    0.0000000000000000E+00
    0.5000000000000000E+01    0.0000000000000000E+00    0.0000000000000000E+00
    0.5000000000000000E+01   -0.1250000000000000E+01    0.0000000000000000E+00
    0.5000000000000000E+01   -0.2500000000000000E+01    0.0000000000000000E+00
    0.3750000000000000E+01   -0.2500000000000000E+01    0.0000000000000000E+00
    0.2500000000000000E+01   -0.2500000000000000E+01    0.0000000000000000E+00
    0.1250000000000000E+01   -0.2500000000000000E+01    0.0000000000000000E+00
    0.0000000000000000E+00   -0.2500000000000000E+01    0.0000000000000000E+00
    0.0000000000000000E+00   -0.1250000000000000E+01    0.0000000000000000E+00
    0.0000000000000000E+00    0.0000000000000000E+00    0.0000000000000000E+00
    0.0000000000000000E+00    0.1250000000000000E+01    0.0000000000000000E+00
    0.9058375365086910E+00    0.1578994732800803E+01    0.0000000000000000E+00
    0.3982050490726493E+01   -0.1583989954232354E+01    0.0000000000000000E+00
    0.4033849428301197E+01    0.1453322699199022E+01    0.0000000000000000E+00
    0.1040505887381675E+01   -0.1479596339503735E+01    0.0000000000000000E+00
    0.1099454400140349E+01   -0.3227322616384110E+00    0.0000000000000000E+00
    0.7354504170366591E+00    0.6593508822075582E+00    0.0000000000000000E+00
    0.1622302608453282E+01    0.8256214013940779E+00    0.0000000000000000E+00
    0.2145871574390382E+01   -0.1650070333782557E+01    0.0000000000000000E+00
    0.4086422318222992E+01   -0.4612828702537229E+00    0.0000000000000000E+00
    0.2979540174134984E+01   -0.8579242121530853E+00    0.0000000000000000E+00
    0.3045064261640043E+01   -0.1836846154397680E+01    0.0000000000000000E+00
    0.3428197553792836E+01    0.3508002863614053E+00    0.0000000000000000E+00
    0.4309693860063405E+01    0.5185680230613409E+00    0.0000000000000000E+00
    0.1827272193562204E+01    0.1738996113203182E+01    0.0000000000000000E+00
    0.2808563282768077E+01    0.1325493893339706E+01    0.0000000000000000E+00
    0.1895995683864404E+01   -0.8731419609589618E+00    0.0000000000000000E+00
    0.2273179336307740E+01    0.4906150219227333E-01    0.0000000000000000E+00
    0.5000000000000000E+01    0.2500000000000000E+01    0.1250000000000000E+01
    0.5000000000000000E+01    0.2500000000000000E+01    0.2500000000000000E+01
    0.5000000000000000E+01    0.2500000000000000E+01    0.3750000000000000E+01
    0.5000000000000000E+01    0.2500000000000000E+01    0.5000000000000000E+01
    0.3750000000000000E+01    0.2500000000000000E+01    0.5000000000000000E+01
    0.2500000000000000E+01    0.2500000000000000E+01    0.5000000000000000E+01
    0.1250000000000000E+01    0.2500000000000000E+01    0.5000000000000000E+01
    0.0000000000000000E+00    0.2500000000000000E+01    0.5000000000000000E+01
    0.0000000000000000E+00    0.2500000000000000E+01    0.3750000000000000E+01
    0.0000000000000000E+00    0.2500000000000000E+01    0.2500000000000000E+01
    0.0000000000000000E+00    0.2500000000000000E+01    0.1250000000000000E+01
    0.9631080833812172E+00    0.2500000000000000E+01    0.9613285771248219E+00
    0.3981732467264904E+01    0.2500000000000000E+01    0.4069753913607991E+01
    0.4035525118777670E+01    0.2500000000000000E+01    0.1012015867579395E+01
    0.9641717640894248E+00    0.2500000000000000E+01    0.3972455192261839E+01
    0.1547743040396780E+01    0.2500000000000000E+01    0.2928177746738678E+01
    0.6985170616192014E+00    0.2500000000000000E+01    0.3068281976055466E+01
    0.8931277594515110E+00    0.2500000000000000E+01    0.2052465503257726E+01
    0.2183293750162785E+01    0.2500000000000000E+01    0.3959073795658649E+01
    0.3855333506014705E+01    0.2500000000000000E+01    0.2931218481500625E+01
    0.3152495579421047E+01    0.2500000000000000E+01    0.3635850502723324E+01
    0.3103247580566054E+01    0.2500000000000000E+01    0.4331682712472464E+01
    0.3266837581688852E+01    0.2500000000000000E+01    0.1886092433583972E+01
    0.4231539241296245E+01    0.2500000000000000E+01    0.1915865356532799E+01
    0.1909741006522088E+01    0.2500000000000000E+01    0.7170024419130505E+00
    0.2880784107213163E+01    0.2500000000000000E+01    0.9046598906449592E+00
    0.2014316024535771E+01    0.2500000000000000E+01    0.1762464314805728E+01
    0.2670003247036656E+01    0.2500000000000000E+01    0.2850479545835163E+01
    0.5000000000000000E+01    0.1250000000000000E+01    0.5000000000000000E+01
    0.5000000000000000E+01    0.0000000000000000E+00    0.5000000000000000E+01
    0.5000000000000000E+01   -0.1250000000000000E+01    0.5000000000000000E+01
    0.5000000000000000E+01   -0.2500000000000000E+01    0.5000000000000000E+01
    0.5000000000000000E+01   -0.2500000000000000E+01    0.3750000000000000E+01
    0.5000000000000000E+01   -0.2500000000000000E+01    0.2500000000000000E+01
    0.5000000000000000E+01   -0.2500000000000000E+01    0.1250000000000000E+01
    0.5000000000000000E+01    0.1578994732800803E+01    0.9058375365086910E+00
    0.5000000000000000E+01   -0.1583989954232354E+01    0.3982050490726493E+01
    0.5000000000000000E+01    0.1453322699199022E+01    0.4033849428301197E+01
    0.5000000000000000E+01   -0.1479596339503735E+01    0.1040505887381675E+01
    0.5000000000000000E+01   -0.3227322616384110E+00    0.1099454400140349E+01
    0.5000000000000000E+01    0.6593508822075582E+00    0.7354504170366591E+00
    0.5000000000000000E+01    0.8256214013940779E+00    0.1622302608453282E+01
    0.5000000000000000E+01   -0.1650070333782557E+01    0.2145871574390382E+01
    0.5000000000000000E+01   -0.4612828702537229E+00    0.4086422318222992E+01
    0.5000000000000000E+01   -0.8579242121530853E+00    0.2979540174134984E+01
    0.5000000000000000E+01   -0.1836846154397680E+01    0.3045064261640043E+01
    0.5000000000000000E+01    0.3508002863614053E+00    0.3428197553792836E+01
    0.5000000000000000E+01    0.5185680230613409E+00    0.4309693860063405E+01
    0.5000000000000000E+01    0.1738996113203182E+01    0.1827272193562204E+01
    0.5000000000000000E+01    0.1325493893339706E+01    0.2808563282768077E+01
    0.5000000000000000E+01   -0.8731419609589618E+00    0.1895995683864404E+01
    0.5000000000000000E+01    0.4906150219227333E-01    0.2273179336307740E+01
    0.0000000000000000E+00    0.1250000000000000E+01    0.5000000000000000E+01
    0.0000000000000000E+00    0.0000000000000000E+00    0.5000000000000000E+01
    0.0000000000000000E+00   -0.1250000000000000E+01    0.5000000000000000E+01
    0.0000000000000000E+00   -0.2500000000000000E+01    0.5000000000000000E+01
    0.1250000000000000E+01   -0.2500000000000000E+01    0.5000000000000000E+01
    0.2500000000000000E+01   -0.2500000000000000E+01    0.5000000000000000E+01
    0.3750000000000000E+01   -0.2500000000000000E+01    0.5000000000000000E+01
    0.4042003247744892E+01    0.1558308132739014E+01    0.5000000000000000E+01
    0.9304122287900499E+00   -0.1548001304379777E+01    0.5000000000000000E+01
    0.1037243024609388E+01    0.1462892710085612E+01    0.5000000000000000E+01
    0.3946240828834967E+01   -0.1445243809615570E+01    0.5000000000000000E+01
    0.4092527262848217E+01   -0.3455338993778935E+00    0.5000000000000000E+01
    0.4293103109154542E+01    0.6277660831404320E+00    0.5000000000000000E+01
    0.3241512314643519E+01    0.7429886854239611E+00    0.5000000000000000E+01
    0.2844289952419609E+01   -0.1588117879734118E+01    0.5000000000000000E+01
    0.7159905765450471E+00   -0.6002320124191652E+00    0.5000000000000000E+01
    0.1754341919796891E+01   -0.7398147869923652E+00    0.5000000000000000E+01
    0.1870296826774691E+01   -0.1788622905643739E+01    0.5000000000000000E+01
    0.9220614901912976E+00    0.3083720183248586E+00    0.5000000000000000E+01
    0.3101523624086016E+01    0.1777901774806180E+01    0.5000000000000000E+01
    0.2192512063922564E+01    0.1576861561598471E+01    0.5000000000000000E+01
    0.2024793420196460E+01    0.4773861992750707E+00    0.5000000000000000E+01
    0.2990627757741975E+01   -0.4878110785814084E+00    0.5000000000000000E+01
    0.0000000000000000E+00   -0.2500000000000000E+01    0.1250000000000000E+01
    0.0000000000000000E+00   -0.2500000000000000E+01    0.2500000000000000E+01
    0.0000000000000000E+00   -0.2500000000000000E+01    0.3750000000000000E+01
    0.0000000000000000E+00    0.1558308132739014E+01    0.4042003247744892E+01
    0.0000000000000000E+00   -0.1548001304379777E+01    0.9304122287900499E+00
    0.0000000000000000E+00    0.1462892710085612E+01    0.1037243024609388E+01
    0.0000000000000000E+00   -0.1445243809615570E+01    0.3946240828834967E+01
    0.0000000000000000E+00   -0.3455338993778935E+00    0.4092527262848217E+01
    0.0000000000000000E+00    0.6277660831404320E+00    0.4293103109154542E+01
    0.0000000000000000E+00    0.7429886854239611E+00    0.3241512314643519E+01
    0.0000000000000000E+00   -0.1588117879734118E+01    0.2844289952419609E+01
    0.0000000000000000E+00   -0.6002320124191652E+00    0.7159905765450471E+00
    0.0000000000000000E+00   -0.7398147869923652E+00    0.1754341919796891E+01
    0.0000000000000000E+00   -0.1788622905643739E+01    0.1870296826774691E+01
    0.0000000000000000E+00    0.3083720183248586E+00    0.9220614901912976E+00
    0.0000000000000000E+00    0.1777901774806180E+01    0.3101523624086016E+01
    0.0000000000000000E+00    0.1576861561598471E+01    0.2192512063922564E+01
[...]
POINT_DATA 213
SCALARS rho double 1
LOOKUP_TABLE default
   0.1344272810509298E+01
   0.9569772465263562E+00
   0.9462966716830249E+00
   0.9418613054436408E+00
   0.8437299612180462E+00
   0.7737999245896166E+00
   0.7629813683786504E+00
   0.7664572287011083E+00
   0.8307867957223000E+00
   0.9352970733133917E+00
   0.9342222716685578E+00
   0.9617204295512140E+00
   0.1449458943618780E+01
   0.1494092874103583E+01
   0.1644670095565479E+01
   0.1425834389084274E+01
   0.1009016268238313E+01
   0.9508812168232025E+00
   0.9436507248013198E+00
   0.9581570686631155E+00
   0.9415857207975429E+00
   0.1036378580699597E+01
   0.9256167561851347E+00
   0.9322353907039229E+00
   0.9537480352156047E+00
   0.9518769506115177E+00
   0.9348582767327029E+00
   0.9564026715485326E+00
   0.9376096790564793E+00
   0.9300667863514839E+00
   0.9445157930330134E+00
   0.8863506382734496E+00
   0.9423579140387333E+00
   0.9634990617670867E+00
   0.1008298347211454E+01
   0.1006735388736695E+01
   0.1001964886783012E+01
   0.1003219556735031E+01
   0.1004132110979524E+01
   0.1005228918230815E+01
   0.1004260518991525E+01
   0.1008308848992677E+01
   0.1023893451759707E+01
   0.1063555156384003E+01
   0.1019183408736283E+01
   0.1001780560975077E+01
   0.9643306142662332E+00
   0.1005283956221566E+01
   0.1000721195439351E+01
   0.1008742491912925E+01
   0.1008078907011319E+01
   0.1002349645097186E+01
   0.9979984880102519E+00
   0.1000583265706577E+01
   0.1001619884540599E+01
   0.9826891901703817E+00
   0.9842433368008704E+00
   0.9833311075926547E+00
   0.9788206873294807E+00
   0.9902641377707857E+00
   0.9934560864778055E+00
   0.1002012056548087E+01
   0.1002134734227416E+01
   0.1002276573277638E+01
   0.1001794955147350E+01
   0.1009778483759780E+01
   0.1006427940353017E+01
   0.9558772085680103E+00
   0.9249386617118657E+00
   0.1007036849569196E+01
   0.1004504989578219E+01
   0.9143630991478048E+00
   0.9089657054751242E+00
   0.8751678162067924E+00
   0.9767259404886780E+00
   0.1000451196097249E+01
   0.1005831244017553E+01
   0.1012882071456988E+01
   0.1011618337693185E+01
   0.1010438310517472E+01
   0.1005468517967624E+01
   0.9907599877164455E+00
   0.1005139766846216E+01
   0.9860554685906758E+00
   0.1005608566658991E+01
   0.1004248108895353E+01
   0.1002888724738829E+01
   0.1003345763236334E+01
   0.1003993095632806E+01
   0.1005102015392236E+01
   0.1003211733630434E+01
   0.1002663150508014E+01
   0.1002586116477630E+01
   0.1004061122574587E+01
   0.1004320581712795E+01
   0.1001641720119858E+01
   0.1002272855073870E+01
   0.1002543255099603E+01
   0.1003469207917433E+01
   0.1003372620577133E+01
   0.1003232299861454E+01
   0.1004423987250652E+01
   0.1004313258284061E+01
   0.1003660050714572E+01
   0.1003723076265223E+01
   0.1004329748645353E+01
   0.1004464939585363E+01
   0.1003623205877425E+01
   0.1064425971382327E+01
   0.1028473707493421E+01
   0.1009587225636449E+01
   0.1006639366228494E+01
   0.1163938466905196E+01
   0.1086091426270850E+01
   0.1007893793060752E+01
   0.1007245951266583E+01
   0.1006798603993573E+01
   0.1013018393761199E+01
   0.1019384215933133E+01
   0.1235208930742985E+01
   0.1032531510096057E+01
   0.1046680120414238E+01
   0.1200956725498383E+01
   0.1014719540981372E+01
   0.1032290857104146E+01
   0.1028095015389067E+01
   0.1014628462827466E+01
   0.1029217564082069E+01
   0.1001994534778397E+01
   0.9606924719668060E+00
   0.1006852800097967E+01
   0.1001327570517050E+01
   0.1010821941615339E+01
   0.1012247345747247E+01
   0.1000945843664045E+01
   0.9979116927210426E+00
   0.9980628719484987E+00
   0.1001183961221646E+01
   0.9841359124735630E+00
   0.9814872039977116E+00
   0.9648481191967677E+00
   0.9680874237564657E+00
   0.9914126328659632E+00
   0.9910856639212000E+00
   0.9925546320070897E+00
   0.1001727665777780E+01
   0.9993411693699390E+00
   0.9941415403359189E+00
   0.1007039857060708E+01
   0.1022540992338866E+01
   0.1001088335933868E+01
   0.1008798759134577E+01
   0.1004773779210522E+01
   0.1009050472406118E+01
   0.9966476386043079E+00
   0.1004988846373500E+01
   0.1003325514850024E+01
   0.9949431083288556E+00
   0.9832679442213212E+00
   0.9943957354764684E+00
   0.9973419816910292E+00
   0.9932184527361253E+00
   0.1001306230718905E+01
   0.1003001445428641E+01
   0.1002183336754802E+01
   0.9947074634319770E+00
   0.9937965302824041E+00
   0.1004867804383466E+01
   0.1020078624525344E+01
   0.1005365194845439E+01
   0.9816998529937246E+00
   0.1004973156225869E+01
   0.1012382658900545E+01
   0.9871418900554988E+00
   0.9551509045106329E+00
   0.9865075698235338E+00
   0.9864534427945810E+00
   0.9918944849687076E+00
   0.9933508168888678E+00
   0.9954409569392819E+00
   0.1037338866059735E+01
   0.1033537544003039E+01
   0.1001443097979854E+01
   0.1001930324424710E+01
   0.9912473207888679E+00
   0.9910918873831081E+00
   0.9648483823844961E+00
   0.9933274688904914E+00
   0.1006058241653703E+01
   0.1001953762132911E+01
   0.9908735342118272E+00
   0.9740939639249523E+00
   0.9418794304902073E+00
   0.9819377122446796E+00
   0.9794801795709549E+00
   0.9704169607119411E+00
   0.9720476404540727E+00
   0.9557345513609780E+00
   0.9496725723542814E+00
   0.9528671541061299E+00
   0.1002659424298386E+01
   0.1002471440737479E+01
   0.1000509096324464E+01
   0.1001677130156516E+01
   0.9607926670160962E+00
   0.9491621866451405E+00
   0.9584500812462289E+00
   0.1001120970868305E+01
   0.1000495871522527E+01
   0.1001156478948769E+01
   0.9807376520604326E+00
   0.9805999776585477E+00
   0.9628472676031636E+00
SCALARS u double 1
LOOKUP_TABLE default
   0.0000000000000000E+00
   0.0000000000000000E+00
   0.0000000000000000E+00
   0.0000000000000000E+00
   0.0000000000000000E+00
   0.0000000000000000E+00
   0.0000000000000000E+00
   0.0000000000000000E+00
   0.0000000000000000E+00
   0.0000000000000000E+00
   0.0000000000000000E+00
   0.0000000000000000E+00
   0.0000000000000000E+00
   0.0000000000000000E+00
   0.0000000000000000E+00
   0.0000000000000000E+00
   0.0000000000000000E+00
   0.0000000000000000E+00
   0.0000000000000000E+00
   0.0000000000000000E+00
   0.0000000000000000E+00
   0.0000000000000000E+00
   0.0000000000000000E+00
   0.0000000000000000E+00
   0.0000000000000000E+00
   0.0000000000000000E+00
   0.0000000000000000E+00
   0.0000000000000000E+00
   0.0000000000000000E+00
   0.0000000000000000E+00
   0.0000000000000000E+00
   0.0000000000000000E+00
   0.0000000000000000E+00
   0.4950172542806814E+00
   0.5338214883049111E+00
   0.5183274421066048E+00
   0.4930669710753603E+00
   0.4847607882532196E+00
   0.4867679931609548E+00
   0.4890760655582310E+00
   0.4957843054170725E+00
   0.4898292905667218E+00
   0.4717392024007194E+00
   0.4454815919021238E+00
   0.4833883765890893E+00
   0.5098415345041087E+00
   0.4390715532911888E+00
   0.4949404453921470E+00
   0.5225340663189636E+00
   0.4962459885078671E+00
   0.5226153788391096E+00
   0.5038894189637443E+00
   0.5646876755919389E+00
   0.5247523443361030E+00
   0.4991485470973774E+00
   0.5730543341220717E+00
   0.5696028006434235E+00
   0.3737938031948496E+00
   0.3998659301049213E+00
   0.5599309808579722E+00
   0.5564588851502033E+00
   0.4942646028367210E+00
   0.4948679616471704E+00
   0.4925754566620443E+00
   0.4914291238757132E+00
   0.5162364428489518E+00
   0.5361791980648219E+00
   0.4947407567314930E+00
   0.4524112351081674E+00
   0.5128786541861728E+00
   0.5117951345459625E+00
   0.4783515093049890E+00
   0.4931694117144476E+00
   0.4603173866946040E+00
   0.5244884776831888E+00
   0.5297427415802545E+00
   0.5129587298381169E+00
   0.5328355430798258E+00
   0.5308939086142022E+00
   0.5309854252593905E+00
   0.5063665942559313E+00
   0.5282452695428124E+00
   0.5410305711047522E+00
   0.5361251401045625E+00
   0.5374096188590598E+00
   0.4965361396453359E+00
   0.4975336637349340E+00
   0.4963836825595380E+00
   0.4955213515501482E+00
   0.4904578424940059E+00
   0.4903056244971660E+00
   0.4862209715539403E+00
   0.4854081599176954E+00
   0.4932158815794140E+00
   0.4909829248221164E+00
   0.4832226947887163E+00
   0.4872657755451343E+00
   0.4880162578263915E+00
   0.4872472521497159E+00
   0.4882713600299389E+00
   0.4952591365997139E+00
   0.4900968940975155E+00
   0.4904002778394579E+00
   0.4944226499485198E+00
   0.4868023913123884E+00
   0.4892394689897479E+00
   0.4881402152938216E+00
   0.4878480005269352E+00
   0.4446853076740419E+00
   0.4700034788691557E+00
   0.4891993977470150E+00
   0.4885239337510779E+00
   0.4506504411716754E+00
   0.4687346793873195E+00
   0.4877005815311971E+00
   0.4868348628204715E+00
   0.4908987762506146E+00
   0.4793553516781404E+00
   0.4658086284168227E+00
   0.3792686786918405E+00
   0.4901595178172323E+00
   0.4486716849856153E+00
   0.4436109450984818E+00
   0.4845141314030106E+00
   0.4621842310657377E+00
   0.4665773179087837E+00
   0.4748147389556286E+00
   0.4894472313520691E+00
   0.5085578712479243E+00
   0.4315070798936803E+00
   0.4927351821232959E+00
   0.5318295804457654E+00
   0.4913405961571958E+00
   0.5207017365431387E+00
   0.5060978349650520E+00
   0.5688787376254971E+00
   0.5274006918858906E+00
   0.5015064052704051E+00
   0.5821765617498456E+00
   0.5689594310876599E+00
   0.3406394935998529E+00
   0.3789867216080430E+00
   0.5751937775889318E+00
   0.5666480029351232E+00
   0.5704101010308399E+00
   0.5291064425026561E+00
   0.5451904136082452E+00
   0.5718792454205851E+00
   0.5389072945672638E+00
   0.5475484001835238E+00
   0.5821688355235067E+00
   0.4925609248949958E+00
   0.5042166015744248E+00
   0.4961741596454399E+00
   0.5565198904050789E+00
   0.4758833181322790E+00
   0.4950276859594091E+00
   0.5498528646033871E+00
   0.5891181953496668E+00
   0.5841943467892824E+00
   0.5469098031850028E+00
   0.5805396043139349E+00
   0.5106265439419363E+00
   0.5030211468586766E+00
   0.5033643321245945E+00
   0.5676433678093513E+00
   0.5563942518102236E+00
   0.4947263459454771E+00
   0.5505235075806159E+00
   0.5510849915796178E+00
   0.5657330508561289E+00
   0.4920073447903133E+00
   0.4927307509017043E+00
   0.3865134537986525E+00
   0.3687749349858850E+00
   0.5574899166887446E+00
   0.5763741950119493E+00
   0.4194299771660866E+00
   0.5824824198119349E+00
   0.4265198111568029E+00
   0.5392780304418343E+00
   0.5012004078355449E+00
   0.5119527483975592E+00
   0.5049133719936469E+00
   0.5751953378778962E+00
   0.5876354242946847E+00
   0.5379890276100480E+00
   0.5677452591913135E+00
   0.5351251848065417E+00
   0.5338062094352118E+00
   0.5580316872190006E+00
   0.5512691862521522E+00
   0.4261854597100175E+00
   0.5273341536810466E+00
   0.5795693047725570E+00
   0.3318681544238809E+00
   0.4760270107363359E+00
   0.5446181491272927E+00
   0.4798326881944243E+00
   0.3005293013662442E+00
   0.5031068084488393E+00
   0.5017129506270543E+00
   0.5129049589378529E+00
   0.5414836806800228E+00
   0.3437602896533639E+00
   0.3397709245358799E+00
   0.3189930704428262E+00
   0.5065951685389323E+00
   0.5123502389302502E+00
   0.5330322774974804E+00
   0.5879287046269333E+00
   0.4644166840938103E+00
   0.3531264978291846E+00
SCALARS v double 1
LOOKUP_TABLE default
   0.0000000000000000E+00
   0.0000000000000000E+00
   0.0000000000000000E+00
   0.0000000000000000E+00
   0.0000000000000000E+00
   0.0000000000000000E+00
   0.0000000000000000E+00
   0.0000000000000000E+00
   0.0000000000000000E+00
   0.0000000000000000E+00
   0.0000000000000000E+00
   0.0000000000000000E+00
   0.0000000000000000E+00
   0.0000000000000000E+00
   0.0000000000000000E+00
   0.0000000000000000E+00
   0.0000000000000000E+00
   0.0000000000000000E+00
   0.0000000000000000E+00
   0.0000000000000000E+00
   0.0000000000000000E+00
   0.0000000000000000E+00
   0.0000000000000000E+00
   0.0000000000000000E+00
   0.0000000000000000E+00
   0.0000000000000000E+00
   0.0000000000000000E+00
   0.0000000000000000E+00
   0.0000000000000000E+00
   0.0000000000000000E+00
   0.0000000000000000E+00
   0.0000000000000000E+00
   0.0000000000000000E+00
   0.0000000000000000E+00
   0.0000000000000000E+00
   0.0000000000000000E+00
   0.0000000000000000E+00
   0.0000000000000000E+00
   0.0000000000000000E+00
   0.0000000000000000E+00
   0.0000000000000000E+00
   0.0000000000000000E+00
   0.0000000000000000E+00
   0.0000000000000000E+00
   0.0000000000000000E+00
   0.0000000000000000E+00
   0.0000000000000000E+00
   0.0000000000000000E+00
   0.0000000000000000E+00
   0.0000000000000000E+00
   0.0000000000000000E+00
   0.0000000000000000E+00
   0.0000000000000000E+00
   0.0000000000000000E+00
   0.0000000000000000E+00
   0.0000000000000000E+00
   0.0000000000000000E+00
   0.0000000000000000E+00
   0.0000000000000000E+00
   0.0000000000000000E+00
   0.0000000000000000E+00
   0.7970882478884897E-03
  -0.1328924660666597E-02
  -0.1332246333742411E-02
   0.0000000000000000E+00
   0.0000000000000000E+00
   0.0000000000000000E+00
   0.0000000000000000E+00
  -0.1922546743941039E-01
   0.4772087686261171E-03
   0.2183093432589771E-02
   0.1427315754191207E-01
  -0.6488275585137866E-02
  -0.7821530241625119E-02
  -0.1327712625402282E-01
   0.4914229125022740E-02
   0.6907840076227433E-03
   0.3434192468023121E-02
   0.1920807468671013E-02
   0.3147690558631223E-02
   0.1704742391812933E-02
  -0.7316057711652887E-02
  -0.7723786244967794E-04
   0.4468475348214524E-02
  -0.4389392263837553E-03
  -0.6396451407926895E-04
  -0.1964343822377452E-03
   0.8071705074007259E-03
   0.0000000000000000E+00
   0.0000000000000000E+00
   0.0000000000000000E+00
   0.0000000000000000E+00
   0.4255932789645484E-03
   0.1616311745394936E-02
  -0.1297392830697735E-02
  -0.1022424454525430E-02
  -0.2133737017448789E-02
  -0.1063721911348641E-02
  -0.8197711043085977E-03
  -0.7614647517861916E-03
   0.5207100864977084E-04
  -0.6241774792943998E-03
   0.7916147187188314E-03
  -0.1745176461103063E-02
   0.2746734501407969E-03
  -0.8927939314712535E-04
  -0.9421608614479798E-03
  -0.1099826918227461E-02
   0.0000000000000000E+00
   0.0000000000000000E+00
   0.0000000000000000E+00
  -0.1061587771689469E-02
  -0.7641221182592928E-02
   0.1860808958616751E-01
  -0.2827076695869531E-04
  -0.1382997266317338E-02
  -0.2034978303995171E-02
  -0.5665980991450280E-02
  -0.1585356585093738E-02
  -0.5946813322094532E-02
  -0.4160208738371434E-02
   0.1565443277450016E-02
   0.3329502021365393E-01
   0.3056944275792558E-04
  -0.2766290643889806E-02
   0.3566767200138285E-02
   0.3599197760046945E-03
   0.0000000000000000E+00
   0.0000000000000000E+00
   0.0000000000000000E+00
   0.0000000000000000E+00
   0.0000000000000000E+00
   0.0000000000000000E+00
   0.0000000000000000E+00
   0.0000000000000000E+00
   0.0000000000000000E+00
   0.0000000000000000E+00
   0.0000000000000000E+00
   0.0000000000000000E+00
   0.0000000000000000E+00
   0.0000000000000000E+00
   0.0000000000000000E+00
   0.0000000000000000E+00
   0.0000000000000000E+00
   0.5046826101004767E-02
   0.3230744353327203E-02
   0.8149021077236973E-02
   0.6168163391464935E-02
   0.1122922196879026E-01
   0.1429255257363572E-01
  -0.2038896126028638E-03
   0.5118214786485353E-02
   0.2914946459264322E-02
   0.3373721541628603E-02
   0.3728376527542277E-02
  -0.1465691922093463E-01
  -0.6158414541210778E-03
   0.6651403536448611E-02
   0.1541894711606608E-02
   0.1969622198918827E-02
   0.4266037952488668E-02
  -0.2790970882269917E-02
   0.1227001176043888E-02
   0.2819144831158478E-02
   0.1497380973311761E-02
   0.2575090441755359E-02
   0.2030542668097446E-02
   0.2118137896290150E-02
   0.8700317515090306E-02
  -0.3733277895795033E-02
   0.6240987868109737E-02
   0.2523893888554285E-04
  -0.3854048048151908E-03
  -0.1674661584118038E-01
  -0.4882013684542590E-02
  -0.4719999338710921E-02
   0.3445195812772581E-02
  -0.6135439280599526E-02
   0.9938179648368473E-04
  -0.3291342491780395E-01
  -0.3046237501070906E-02
   0.4722560533221600E-02
   0.9228286775073274E-03
   0.2112087252404000E-02
   0.4518512561959296E-02
   0.2720382817630501E-02
   0.3212525990781833E-02
   0.5200535061201683E-02
   0.1941867355801466E-02
   0.7316968606297225E-03
  -0.2541820329201604E-04
  -0.5374564060878183E-02
  -0.6959622456805531E-02
  -0.9443280966030692E-03
   0.1105174359992733E-02
  -0.2080519034943502E-02
  -0.3199979120034467E-02
  -0.2527843371746813E-02
  -0.4115133653571212E-02
  -0.7593905686889936E-02
  -0.1985514907577456E-02
   0.6241819531664759E-03
  -0.2237529158416854E-03
   0.1216768135269195E-02
  -0.3483907708296831E-02
   0.5229194871006710E-02
  -0.8487500675937511E-02
   0.2324354658195948E-04
  -0.3393969234779261E-03
   0.2542437771251505E-02
   0.1663427232642671E-02
   0.2021369437176593E-02
  -0.5620759837295029E-02
SCALARS w double 1
LOOKUP_TABLE default
   0.0000000000000000E+00
   0.0000000000000000E+00
   0.0000000000000000E+00
   0.0000000000000000E+00
   0.0000000000000000E+00
   0.0000000000000000E+00
   0.0000000000000000E+00
   0.0000000000000000E+00
   0.0000000000000000E+00
   0.0000000000000000E+00
   0.0000000000000000E+00
   0.0000000000000000E+00
   0.0000000000000000E+00
   0.0000000000000000E+00
   0.0000000000000000E+00
   0.0000000000000000E+00
   0.0000000000000000E+00
   0.0000000000000000E+00
   0.0000000000000000E+00
   0.0000000000000000E+00
   0.0000000000000000E+00
   0.0000000000000000E+00
   0.0000000000000000E+00
   0.0000000000000000E+00
   0.0000000000000000E+00
   0.0000000000000000E+00
   0.0000000000000000E+00
   0.0000000000000000E+00
   0.0000000000000000E+00
   0.0000000000000000E+00
   0.0000000000000000E+00
   0.0000000000000000E+00
   0.0000000000000000E+00
  -0.1007606511826738E+00
  -0.4249295079149967E-01
   0.7368143715146734E-03
   0.5726240697981100E-02
   0.5700161060049235E-03
   0.1609732674624819E-02
   0.3375008722151784E-02
   0.2372031359363043E-02
   0.4590270593947207E-03
   0.3519827281050493E-02
   0.4522187396682865E-01
   0.6522883759736182E-01
   0.8693014073191260E-03
  -0.2261154928487119E-01
   0.4317188039818143E-02
   0.1358874948945329E-01
   0.1039564302882161E-01
   0.4900638266547275E-01
   0.2438312087054367E-02
  -0.6509589198228948E-02
  -0.7001783531108068E-03
   0.3417608415786938E-03
   0.3903953605739312E-02
  -0.3893229244175041E-01
   0.1798161187709746E-01
   0.1119618791906827E-01
   0.3403760786963295E-01
   0.8439704569301536E-02
   0.4937975600612812E-02
   0.4971160192598292E-02
   0.4872109500344397E-02
   0.6027662071375645E-02
   0.2598782380175118E-02
  -0.4144439521083979E-01
  -0.9954209754382927E-01
  -0.1121673760453716E+00
   0.5070524546561060E-02
   0.4230414869447796E-02
  -0.1004728860205472E+00
  -0.9895249282180600E-01
  -0.9875437548202808E-01
  -0.9462473489901845E-01
  -0.6807110555543962E-01
   0.5154592772493826E-02
  -0.1935392598514212E-01
  -0.1575855837791014E-01
  -0.6003518913566556E-02
   0.6818870746923197E-02
  -0.8010016975345474E-01
  -0.2781134292185307E-01
  -0.8096441898337199E-01
  -0.5873296647804663E-01
   0.3084004689373109E-02
   0.2685422869457327E-02
   0.2640547623175835E-02
   0.3450230402109575E-02
   0.4007024690819756E-02
   0.1201195636996062E-02
  -0.1438531600327114E-03
   0.2040299915975386E-02
   0.4895693559395847E-02
   0.3857469348184153E-02
   0.1114653932612340E-02
   0.1183283982123473E-02
   0.1466074241798256E-02
  -0.1607364830711342E-04
   0.9002567202730153E-04
   0.4386924918499525E-02
   0.2715852557761786E-02
   0.2322825704435164E-02
   0.5010683421160847E-02
   0.1071677719651144E-02
   0.2712258012943318E-02
   0.2014268420015496E-02
   0.2906379142818190E-04
   0.8374885154995040E-01
   0.2795300357891308E-02
  -0.8344489488785545E-03
  -0.1490794518529084E-03
   0.1409549998797452E+00
   0.1239334106213249E+00
  -0.1218694251535047E-02
  -0.4381668778430633E-02
  -0.3041272017461844E-03
  -0.6511227415433679E-02
  -0.1947611099734915E-02
   0.1557642501385270E+00
   0.7490247825269478E-01
   0.2550559403653241E-01
   0.1656450904254530E+00