# vtk DataFile Version 2.0
FUN3D:global_image_vtk
ASCII
DATASET UNSTRUCTURED_GRID
POINTS 213 double
    0.0000000000000000E+00    0.2500000000000000E+01    0.0000000000000000E+00
    0.1250000000000000E+01    0.2500000000000000E+01    0.0000000000000000E+00
    0.2500000000000000E+01    0.2500000000000000E+01    0.0000000000000000E+00
    0.3750000000000000E+01    0.2500000000000000E+01    0.0000000000000000E+00
    0.5000000000000000E+01    0.2500000000000000E+01    0.0000000000000000E+00
    0.5000000000000000E+01    0.1250000000000000E+01    0.0000000000000000E+00
    0.5000000000000000E+01    0.0000000000000000E+00    0.0000000000000000E+00
    0.5000000000000000E+01   -0.1250000000000000E+01    0.0000000000000000E+00
    0.5000000000000000E+01   -0.2500000000000000E+01    0.0000000000000000E+00
    0.3750000000000000E+01   -0.2500000000000000E+01    0.0000000000000000E+00
    0.2500000000000000E+01   -0.2500000000000000E+01    0.0000000000000000E+00
    0.1250000000000000E+01   -0.2500000000000000E+01    0.0000000000000000E+00
    0.0000000000000000E+00   -0.2500000000000000E+01    0.0000000000000000E+00
    0.0000000000000000E+00   -0.1250000000000000E+01    0.0000000000000000E+00
    0.0000000000000000E+00    0.0000000000000000E+00    0.0000000000000000E+00
    0.0000000000000000E+00    0.1250000000000000E+01    0.0000000000000000E+00
    0.9058375365086910E+00    0.1578994732800803E+01    0.0000000000000000E+00
    0.3982050490726493E+01   -0.1583989954232354E+01    0.0000000000000000E+00
    0.4033849428301197E+01    0.1453322699199022E+01    0.0000000000000000E+00
    0.1040505887381675E+01   -0.1479596339503735E+01    0.0000000000000000E+00
    0.1099454400140349E+01   -0.3227322616384110E+00    0.0000000000000000E+00
    0.7354504170366591E+00    0.6593508822075582E+00    0.0000000000000000E+00
    0.1622302608453282E+01    0.8256214013940779E+00    0.0000000000000000E+00
    0.2145871574390382E+01   -0.1650070333782557E+01    0.0000000000000000E+00
    0.4086422318222992E+01   -0.4612828702537229E+00    0.0000000000000000E+00
    0.2979540174134984E+01   -0.8579242121530853E+00    0.0000000000000000E+00
    0.3045064261640043E+01   -0.1836846154397680E+01    0.0000000000000000E+00
    0.3428197553792836E+01    0.3508002863614053E+00    0.0000000000000000E+00
    0.4309693860063405E+01    0.5185680230613409E+00    0.0000000000000000E+00
    0.1827272193562204E+01    0.1738996113203182E+01    0.0000000000000000E+00
    0.2808563282768077E+01    0.1325493893339706E+01    0.0000000000000000E+00
    0.1895995683864404E+01   -0.8731419609589618E+00    0.0000000000000000E+00
    0.2273179336307740E+01    0.4906150219227333E-01    0.0000000000000000E+00
    0.5000000000000000E+01    0.2500000000000000E+01    0.1250000000000000E+01
    0.5000000000000000E+01    0.2500000000000000E+01    0.2500000000000000E+01
    0.5000000000000000E+01    0.2500000000000000E+01    0.3750000000000000E+01
    0.5000000000000000E+01    0.2500000000000000E+01    0.5000000000000000E+01
    0.3750000000000000E+01    0.2500000000000000E+01    0.5000000000000000E+01
    0.2500000000000000E+01    0.2500000000000000E+01    0.5000000000000000E+01
    0.1250000000000000E+01    0.2500000000000000E+01    0.5000000000000000E+01
    0.0000000000000000E+00    0.2500000000000000E+01    0.5000000000000000E+01
    0.0000000000000000E+00    0.2500000000000000E+01    0.3750000000000000E+01
    0.0000000000000000E+00    0.2500000000000000E+01    0.2500000000000000E+01
    0.0000000000000000E+00    0.2500000000000000E+01    0.1250000000000000E+01
    0.9631080833812172E+00    0.2500000000000000E+01    0.9613285771248219E+00
    0.3981732467264904E+01    0.2500000000000000E+01    0.4069753913607991E+01
    0.4035525118777670E+01    0.2500000000000000E+01    0.1012015867579395E+01
    0.9641717640894248E+00    0.2500000000000000E+01    0.3972455192261839E+01
    0.1547743040396780E+01    0.2500000000000000E+01    0.2928177746738678E+01
    0.6985170616192014E+00    0.2500000000000000E+01    0.3068281976055466E+01
    0.8931277594515110E+00    0.2500000000000000E+01    0.2052465503257726E+01
    0.2183293750162785E+01    0.2500000000000000E+01    0.3959073795658649E+01
    0.3855333506014705E+01    0.2500000000000000E+01    0.2931218481500625E+01
    0.3152495579421047E+01    0.2500000000000000E+01    0.3635850502723324E+01
    0.3103247580566054E+01    0.2500000000000000E+01    0.4331682712472464E+01
    0.3266837581688852E+01    0.2500000000000000E+01    0.1886092433583972E+01
    0.4231539241296245E+01    0.2500000000000000E+01    0.1915865356532799E+01
    0.1909741006522088E+01    0.2500000000000000E+01    0.7170024419130505E+00
    0.2880784107213163E+01    0.2500000000000000E+01    0.9046598906449592E+00
    0.2014316024535771E+01    0.2500000000000000E+01    0.1762464314805728E+01
    0.2670003247036656E+01    0.2500000000000000E+01    0.2850479545835163E+01
    0.5000000000000000E+01    0.1250000000000000E+01    0.5000000000000000E+01
    0.5000000000000000E+01    0.0000000000000000E+00    0.5000000000000000E+01
    0.5000000000000000E+01   -0.1250000000000000E+01    0.5000000000000000E+01
    0.5000000000000000E+01   -0.2500000000000000E+01    0.5000000000000000E+01
    0.5000000000000000E+01   -0.2500000000000000E+01    0.3750000000000000E+01
    0.5000000000000000E+01   -0.2500000000000000E+01    0.2500000000000000E+01
    0.5000000000000000E+01   -0.2500000000000000E+01    0.1250000000000000E+01
    0.5000000000000000E+01    0.1578994732800803E+01    0.9058375365086910E+00
    0.5000000000000000E+01   -0.1583989954232354E+01    0.3982050490726493E+01
    0.5000000000000000E+01    0.1453322699199022E+01    0.4033849428301197E+01
    0.5000000000000000E+01   -0.1479596339503735E+01    0.1040505887381675E+01
    0.5000000000000000E+01   -0.3227322616384110E+00    0.1099454400140349E+01
    0.5000000000000000E+01    0.6593508822075582E+00    0.7354504170366591E+00
    0.5000000000000000E+01    0.8256214013940779E+00    0.1622302608453282E+01
    0.5000000000000000E+01   -0.1650070333782557E+01    0.2145871574390382E+01
    0.5000000000000000E+01   -0.4612828702537229E+00    0.4086422318222992E+01
    0.5000000000000000E+01   -0.8579242121530853E+00    0.2979540174134984E+01
    0.5000000000000000E+01   -0.1836846154397680E+01    0.3045064261640043E+01
    0.5000000000000000E+01    0.3508002863614053E+00    0.3428197553792836E+01
    0.5000000000000000E+01    0.5185680230613409E+00    0.4309693860063405E+01
    0.5000000000000000E+01    0.1738996113203182E+01    0.1827272193562204E+01
    0.5000000000000000E+01    0.1325493893339706E+01    0.2808563282768077E+01
    0.5000000000000000E+01   -0.8731419609589618E+00    0.1895995683864404E+01
    0.5000000000000000E+01    0.4906150219227333E-01    0.2273179336307740E+01
    0.0000000000000000E+00    0.1250000000000000E+01    0.5000000000000000E+01
    0.0000000000000000E+00    0.0000000000000000E+00    0.5000000000000000E+01
    0.0000000000000000E+00   -0.1250000000000000E+01    0.5000000000000000E+01
    0.0000000000000000E+00   -0.2500000000000000E+01    0.5000000000000000E+01
    0.1250000000000000E+01   -0.2500000000000000E+01    0.5000000000000000E+01
    0.2500000000000000E+01   -0.2500000000000000E+01    0.5000000000000000E+01
    0.3750000000000000E+01   -0.2500000000000000E+01    0.5000000000000000E+01
    0.4042003247744892E+01    0.1558308132739014E+01    0.5000000000000000E+01
    0.9304122287900499E+00   -0.1548001304379777E+01    0.5000000000000000E+01
    0.1037243024609388E+01    0.1462892710085612E+01    0.5000000000000000E+01
    0.3946240828834967E+01   -0.1445243809615570E+01    0.5000000000000000E+01
    0.4092527262848217E+01   -0.3455338993778935E+00    0.5000000000000000E+01
    0.4293103109154542E+01    0.6277660831404320E+00    0.5000000000000000E+01
    0.3241512314643519E+01    0.7429886854239611E+00    0.5000000000000000E+01
    0.2844289952419609E+01   -0.1588117879734118E+01    0.5000000000000000E+01
    0.7159905765450471E+00   -0.6002320124191652E+00    0.5000000000000000E+01
    0.1754341919796891E+01   -0.7398147869923652E+00    0.5000000000000000E+01
    0.1870296826774691E+01   -0.1788622905643739E+01    0.5000000000000000E+01
    0.9220614901912976E+00    0.3083720183248586E+00    0.5000000000000000E+01
    0.3101523624086016E+01    0.1777901774806180E+01    0.5000000000000000E+01
    0.2192512063922564E+01    0.1576861561598471E+01    0.5000000000000000E+01
    0.2024793420196460E+01    0.4773861992750707E+00    0.5000000000000000E+01
    0.2990627757741975E+01   -0.4878110785814084E+00    0.5000000000000000E+01
    0.0000000000000000E+00   -0.2500000000000000E+01    0.1250000000000000E+01
    0.0000000000000000E+00   -0.2500000000000000E+01    0.2500000000000000E+01
    0.0000000000000000E+00   -0.2500000000000000E+01    0.3750000000000000E+01
    0.0000000000000000E+00    0.1558308132739014E+01    0.4042003247744892E+01
    0.0000000000000000E+00   -0.1548001304379777E+01    0.9304122287900499E+00
    0.0000000000000000E+00    0.1462892710085612E+01    0.1037243024609388E+01
    0.0000000000000000E+00   -0.1445243809615570E+01    0.3946240828834967E+01
    0.0000000000000000E+00   -0.3455338993778935E+00    0.4092527262848217E+01
    0.0000000000000000E+00    0.6277660831404320E+00    0.4293103109154542E+01
    0.0000000000000000E+00    0.7429886854239611E+00    0.3241512314643519E+01
    0.0000000000000000E+00   -0.1588117879734118E+01    0.2844289952419609E+01
    0.0000000000000000E+00   -0.6002320124191652E+00    0.7159905765450471E+00
    0.0000000000000000E+00   -0.7398147869923652E+00    0.1754341919796891E+01
    0.0000000000000000E+00   -0.1788622905643739E+01    0.1870296826774691E+01
    0.0000000000000000E+00    0.3083720183248586E+00    0.9220614901912976E+00
    0.0000000000000000E+00    0.1777901774806180E+01    0.3101523624086016E+01
    0.0000000000000000E+00    0.1576861561598471E+01    0.2192512063922564E+01
[...]
POINT_DATA 213
SCALARS rho double 1
LOOKUP_TABLE default
   0.1343967317572824E+01
   0.9576985935361955E+00
   0.9477450154704227E+00
   0.9438130169213543E+00
   0.8441003415591866E+00
   0.7733571696370095E+00
   0.7630123563526853E+00
   0.7656181387192010E+00
   0.8316607942899417E+00
   0.9369661188291434E+00
   0.9354401436909534E+00
   0.9614832787625559E+00
   0.1447870547319218E+01
   0.1492321498954671E+01
   0.1642812481229776E+01
   0.1425674289407431E+01
   0.1009388105843311E+01
   0.9522698367742620E+00
   0.9451724666973476E+00
   0.9577569119212498E+00
   0.9405683631353834E+00
   0.1035491285764017E+01
   0.9260518117579941E+00
   0.9335255037942470E+00
   0.9552381793236983E+00
   0.9537149045645750E+00
   0.9360593816033181E+00
   0.9578781126236784E+00
   0.9386199994748440E+00
   0.9312271603745060E+00
   0.9460891378978538E+00
   0.8867073604772182E+00
   0.9437959221079113E+00
   0.9641205862181285E+00
   0.1007295913385551E+01
   0.1006185094439433E+01
   0.1004574739096250E+01
   0.1005750889803114E+01
   0.1004610575771712E+01
   0.1005285371567719E+01
   0.1003004960793508E+01
   0.1008152152241877E+01
   0.1023749235026179E+01
   0.1062886984768992E+01
   0.1019114190350583E+01
   0.1001827724030752E+01
   0.9658912635614382E+00
   0.1005410168252517E+01
   0.1000775340765544E+01
   0.1008827673429896E+01
   0.1007919282786438E+01
   0.1002494027804524E+01
   0.9976013542842074E+00
   0.1000593285746691E+01
   0.1001865029633922E+01
   0.9828370993177216E+00
   0.9840872382987704E+00
   0.9841377029540530E+00
   0.9802125986046056E+00
   0.9905525186877188E+00
   0.9934997833427902E+00
   0.1004778038264968E+01
   0.1004766962168008E+01
   0.1005114106062393E+01
   0.1004849968290020E+01
   0.1009544114454814E+01
   0.1004698788346012E+01
   0.9559604374667362E+00
   0.9257169388514884E+00
   0.1007687847160794E+01
   0.1004500016938906E+01
   0.9151312756688640E+00
   0.9096281294021396E+00
   0.8762711082771979E+00
   0.9757618333172772E+00
   0.9987117062048815E+00
   0.1006335734112446E+01
   0.1010818456666452E+01
   0.1010128856223181E+01
   0.1009074490887897E+01
   0.1005937406375342E+01
   0.9900064549019639E+00
   0.1003829631736722E+01
   0.9846215629420245E+00
   0.1002836380015174E+01
   0.1003882987005738E+01
   0.1003215572618265E+01
   0.1003424409773898E+01
   0.1003738889140064E+01
   0.1005282009545137E+01
   0.1003265340527008E+01
   0.1004580201226245E+01
   0.1005195763576087E+01
   0.1004061003442825E+01
   0.1004546801658290E+01
   0.1003385356112381E+01
   0.1004518692659883E+01
   0.1005790731392425E+01
   0.1004685932304023E+01
   0.1003955312657778E+01
   0.1003136028178138E+01
   0.1004407045986055E+01
   0.1004218088139100E+01
   0.1003536516334532E+01
   0.1005309479139129E+01
   0.1004812186146732E+01
   0.1004741699064852E+01
   0.1004669443644624E+01
   0.1064931104105903E+01
   0.1028650849774150E+01
   0.1009538521770353E+01
   0.1006519861324232E+01
   0.1163384024668848E+01
   0.1086058829765421E+01
   0.1007820522527880E+01
   0.1007302928801973E+01
   0.1006712061955551E+01
   0.1012985115554423E+01
   0.1019259126954548E+01
   0.1234915840628714E+01
   0.1032982175488735E+01
   0.1046582616658283E+01
   0.1200464235007490E+01
   0.1014505074672678E+01
   0.1031892204831754E+01
   0.1028374937323477E+01
   0.1014845647718028E+01
   0.1029073998391345E+01
   0.1002080233024924E+01
   0.9621395505807900E+00
   0.1006807356965598E+01
   0.1001538319386473E+01
   0.1010605515005393E+01
   0.1012250179982907E+01
   0.1001047774356479E+01
   0.9972869474779643E+00
   0.9978246731159865E+00
   0.1001116407276236E+01
   0.9838201638416666E+00
   0.9808400349247752E+00
   0.9653611407313156E+00
   0.9688899163562941E+00
   0.9913869349182283E+00
   0.9913031804015420E+00
   0.9924501113855837E+00
   0.1001939633506804E+01
   0.9994947065366830E+00
   0.9940526998981740E+00
   0.1006989200329340E+01
   0.1022222750679991E+01
   0.1000742928449077E+01
   0.1008918949682140E+01
   0.1004949720094691E+01
   0.1009093786485659E+01
   0.9967239126244072E+00
   0.1004971913887317E+01
   0.1003543318811594E+01
   0.9949818723021484E+00
   0.9827941956833255E+00
   0.9939983988900107E+00
   0.9970549685651855E+00
   0.9919134762288437E+00
   0.1001240768163107E+01
   0.1003192235448818E+01
   0.1002174353994494E+01
   0.9936098738324474E+00
   0.9937194708158864E+00
   0.1005130266962564E+01
   0.1019814477909467E+01
   0.1005421915366548E+01
   0.9816990196325293E+00
   0.1005148211108290E+01
   0.1012367066717953E+01
   0.9872330119418448E+00
   0.9550242245080859E+00
   0.9860587521665054E+00
   0.9866044613823618E+00
   0.9925190856739020E+00
   0.9931308702717935E+00
   0.9948956144065615E+00
   0.1037298143817375E+01
   0.1033016529375810E+01
   0.1001454765574886E+01
   0.1002005006978386E+01
   0.9897993241029662E+00
   0.9907249930365435E+00
   0.9646449831985079E+00
   0.9920842280769712E+00
   0.1005418649612132E+01
   0.1001496500171943E+01
   0.9910386209609604E+00
   0.9741291879064712E+00
   0.9424051997095293E+00
   0.9820099657870297E+00
   0.9791542959484316E+00
   0.9713813313064912E+00
   0.9720528007131437E+00
   0.9554273378910314E+00
   0.9502408274955062E+00
   0.9545734953031453E+00
   0.1002932316934550E+01
   0.1002562063481769E+01
   0.1000541148685668E+01
   0.1001108782302496E+01
   0.9616587133088066E+00
   0.9512260378055100E+00
   0.9602847845512620E+00
   0.1000865526554540E+01
   0.1000324157535045E+01
   0.1000906408641664E+01
   0.9809417657065409E+00
   0.9805260841843048E+00
   0.9640833638693195E+00
SCALARS u double 1
LOOKUP_TABLE default
   0.0000000000000000E+00
   0.0000000000000000E+00
   0.0000000000000000E+00
   0.0000000000000000E+00
   0.0000000000000000E+00
   0.0000000000000000E+00
   0.0000000000000000E+00
   0.0000000000000000E+00
   0.0000000000000000E+00
   0.0000000000000000E+00
   0.0000000000000000E+00
   0.0000000000000000E+00
   0.0000000000000000E+00
   0.0000000000000000E+00
   0.0000000000000000E+00
   0.0000000000000000E+00
   0.0000000000000000E+00
   0.0000000000000000E+00
   0.0000000000000000E+00
   0.0000000000000000E+00
   0.0000000000000000E+00
   0.0000000000000000E+00
   0.0000000000000000E+00
   0.0000000000000000E+00
   0.0000000000000000E+00
   0.0000000000000000E+00
   0.0000000000000000E+00
   0.0000000000000000E+00
   0.0000000000000000E+00
   0.0000000000000000E+00
   0.0000000000000000E+00
   0.0000000000000000E+00
   0.0000000000000000E+00
   0.4956083414558144E+00
   0.5336021350725286E+00
   0.5184455152016403E+00
   0.4933156422058079E+00
   0.4842015837581993E+00
   0.4837191313012381E+00
   0.4863898594857352E+00
   0.4963070696376579E+00
   0.4896558212311135E+00
   0.4720675614012139E+00
   0.4463580672267868E+00
   0.4827626371518908E+00
   0.5089261459690568E+00
   0.4407507690883991E+00
   0.4944060055241559E+00
   0.5229424260780475E+00
   0.4962118835556664E+00
   0.5227251313144849E+00
   0.5032097913476705E+00
   0.5640216203759377E+00
   0.5252413168343160E+00
   0.4980227028656684E+00
   0.5719608356535343E+00
   0.5688042613068729E+00
   0.3730022096723443E+00
   0.4007151204774810E+00
   0.5587972078298217E+00
   0.5564437009555152E+00
   0.4946090537651279E+00
   0.4954041742312302E+00
   0.4937906749676680E+00
   0.4918977159939881E+00
   0.5164141944142876E+00
   0.5359185045638213E+00
   0.4957083130529095E+00
   0.4530920519805942E+00
   0.5123887550364880E+00
   0.5107443418732730E+00
   0.4790287975237073E+00
   0.4944621907333369E+00
   0.4614926656582813E+00
   0.5257649189490285E+00
   0.5298660885766987E+00
   0.5123515384317459E+00
   0.5330007939611644E+00
   0.5309370603208317E+00
   0.5300689277619202E+00
   0.5056180523011561E+00
   0.5285413080790536E+00
   0.5403381958234286E+00
   0.5368081896018122E+00
   0.5377901075189564E+00
   0.4974918892932914E+00
   0.4981157052605030E+00
   0.4967926241292542E+00
   0.4957433284580385E+00
   0.4878915672437731E+00
   0.4876204774948872E+00
   0.4855777803254491E+00
   0.4864414707040365E+00
   0.4916979105861617E+00
   0.4891552316916272E+00
   0.4852604815204073E+00
   0.4886342036645721E+00
   0.4891629580481641E+00
   0.4864850759440030E+00
   0.4864908887811133E+00
   0.4945742381705986E+00
   0.4872891016415652E+00
   0.4875781305110838E+00
   0.4930328958243791E+00
   0.4847518214532770E+00
   0.4867517731682166E+00
   0.4860755484471055E+00
   0.4863501253547807E+00
   0.4453011876804239E+00
   0.4698453851471859E+00
   0.4891579691055775E+00
   0.4880226293420208E+00
   0.4508512869625843E+00
   0.4675605185898364E+00
   0.4875632764391443E+00
   0.4867841266804328E+00
   0.4910062917342158E+00
   0.4794304729638446E+00
   0.4668022436767518E+00
   0.3794145049530991E+00
   0.4896736166419196E+00
   0.4493570938459389E+00
   0.4441301990608205E+00
   0.4845038197704790E+00
   0.4634886325542570E+00
   0.4670701162849296E+00
   0.4748196818527520E+00
   0.4893595726669824E+00
   0.5086618978880866E+00
   0.4339257134799656E+00
   0.4926477026187807E+00
   0.5329865997919833E+00
   0.4918413893280610E+00
   0.5207221939321581E+00
   0.5065018482043934E+00
   0.5670288099489750E+00
   0.5283180948412292E+00
   0.5014230122829935E+00
   0.5802751024388908E+00
   0.5677841750792603E+00
   0.3413713400742025E+00
   0.3799188732787014E+00
   0.5737472086267962E+00
   0.5664335669833956E+00
   0.5693340699968475E+00
   0.5290198644736639E+00
   0.5447942890121602E+00
   0.5714544695276446E+00
   0.5388195401411405E+00
   0.5474898831291821E+00
   0.5819823514297737E+00
   0.4927294443789751E+00
   0.5038090556573207E+00
   0.4963783432946021E+00
   0.5560542767534479E+00
   0.4759476577440850E+00
   0.4944713601415103E+00
   0.5492273508727024E+00
   0.5873492381083122E+00
   0.5827104558377005E+00
   0.5459121769637439E+00
   0.5779694142597573E+00
   0.5101719552334206E+00
   0.5024530925334307E+00
   0.5028229515164959E+00
   0.5662356760139740E+00
   0.5559264924806250E+00
   0.4944853268489327E+00
   0.5501264926387845E+00
   0.5508107002068474E+00
   0.5651727196143211E+00
   0.4913645772676414E+00
   0.4930976644944726E+00
   0.3887831524456989E+00
   0.3712664783867165E+00
   0.5569974128672543E+00
   0.5753855516129528E+00
   0.4190736918038782E+00
   0.5815010695997790E+00
   0.4282077534442174E+00
   0.5390652758293716E+00
   0.5018155594119328E+00
   0.5109991608656758E+00
   0.5042155186242533E+00
   0.5729346463204268E+00
   0.5854491862622110E+00
   0.5376987309798061E+00
   0.5657912257894451E+00
   0.5353594892424446E+00
   0.5338434040676378E+00
   0.5573231584652000E+00
   0.5505125335494446E+00
   0.4278589174071212E+00
   0.5263766669576235E+00
   0.5780449773133398E+00
   0.3349055599027599E+00
   0.4756025032411070E+00
   0.5450178478646105E+00
   0.4812873332174358E+00
   0.3028622061729689E+00
   0.5042239202739809E+00
   0.5010727905221055E+00
   0.5127469571299678E+00
   0.5402570333453187E+00
   0.3462527871931815E+00
   0.3437553756271184E+00
   0.3211895351229443E+00
   0.5065083658760567E+00
   0.5132499052726929E+00
   0.5328484337168606E+00
   0.5867028597701153E+00
   0.4641279198437842E+00
   0.3573052327445266E+00
SCALARS v double 1
LOOKUP_TABLE default
   0.0000000000000000E+00
   0.0000000000000000E+00
   0.0000000000000000E+00
   0.0000000000000000E+00
   0.0000000000000000E+00
   0.0000000000000000E+00
   0.0000000000000000E+00
   0.0000000000000000E+00
   0.0000000000000000E+00
   0.0000000000000000E+00
   0.0000000000000000E+00
   0.0000000000000000E+00
   0.0000000000000000E+00
   0.0000000000000000E+00
   0.0000000000000000E+00
   0.0000000000000000E+00
   0.0000000000000000E+00
   0.0000000000000000E+00
   0.0000000000000000E+00
   0.0000000000000000E+00
   0.0000000000000000E+00
   0.0000000000000000E+00
   0.0000000000000000E+00
   0.0000000000000000E+00
   0.0000000000000000E+00
   0.0000000000000000E+00
   0.0000000000000000E+00
   0.0000000000000000E+00
   0.0000000000000000E+00
   0.0000000000000000E+00
   0.0000000000000000E+00
   0.0000000000000000E+00
   0.0000000000000000E+00
   0.0000000000000000E+00
   0.0000000000000000E+00
   0.0000000000000000E+00
   0.0000000000000000E+00
   0.0000000000000000E+00
   0.0000000000000000E+00
   0.0000000000000000E+00
   0.0000000000000000E+00
   0.0000000000000000E+00
   0.0000000000000000E+00
   0.0000000000000000E+00
   0.0000000000000000E+00
   0.0000000000000000E+00
   0.0000000000000000E+00
   0.0000000000000000E+00
   0.0000000000000000E+00
   0.0000000000000000E+00
   0.0000000000000000E+00
   0.0000000000000000E+00
   0.0000000000000000E+00
   0.0000000000000000E+00
   0.0000000000000000E+00
   0.0000000000000000E+00
   0.0000000000000000E+00
   0.0000000000000000E+00
   0.0000000000000000E+00
   0.0000000000000000E+00
   0.0000000000000000E+00
   0.1110963207974319E-02
   0.8909503502687432E-04
  -0.2254506165736100E-03
   0.0000000000000000E+00
   0.0000000000000000E+00
   0.0000000000000000E+00
   0.0000000000000000E+00
  -0.1826582406321897E-01
   0.5205125943770135E-03
   0.1878272859447476E-02
   0.1416239347330174E-01
  -0.6501920092051252E-02
  -0.6389511132452864E-02
  -0.1279753227423906E-01
   0.4369881213649064E-02
   0.8688117171104047E-03
   0.2912490104528964E-02
   0.1721143845409321E-02
   0.2389885212567462E-02
   0.1806258003138226E-02
  -0.7239009154591389E-02
  -0.7924948981451656E-03
   0.3834987776493784E-02
  -0.1118430457424802E-02
  -0.4336811753033566E-03
  -0.4123216268298092E-03
   0.8238345162850106E-03
   0.0000000000000000E+00
   0.0000000000000000E+00
   0.0000000000000000E+00
   0.0000000000000000E+00
   0.7712114862959562E-03
   0.1446874541865023E-02
  -0.1432253628150660E-02
  -0.1828588091515308E-03
  -0.6364527492094478E-03
   0.2846681340168895E-06
   0.1572117136304350E-03
  -0.1280001796073627E-03
  -0.1980124126753646E-03
  -0.5810437278182416E-03
   0.8186840666104293E-03
  -0.2009697140318497E-02
   0.6576908585404392E-03
   0.2671318561619795E-03
  -0.4119515605211559E-03
  -0.4038592703373978E-03
   0.0000000000000000E+00
   0.0000000000000000E+00
   0.0000000000000000E+00
  -0.8244129449172815E-03
  -0.7841065595829474E-02
   0.1754739585580788E-01
  -0.2302199867028251E-03
  -0.1391944614347122E-02
  -0.2132107258138859E-02
  -0.5225085605393913E-02
  -0.1867658371902593E-02
  -0.6503067521621174E-02
  -0.4080315606131300E-02
   0.1637631763316256E-02
   0.3279771659744601E-01
   0.3407786923069937E-04
  -0.2136804654477553E-02
   0.4117510583577995E-02
   0.3978402470736761E-03
   0.0000000000000000E+00
   0.0000000000000000E+00
   0.0000000000000000E+00
   0.0000000000000000E+00
   0.0000000000000000E+00
   0.0000000000000000E+00
   0.0000000000000000E+00
   0.0000000000000000E+00
   0.0000000000000000E+00
   0.0000000000000000E+00
   0.0000000000000000E+00
   0.0000000000000000E+00
   0.0000000000000000E+00
   0.0000000000000000E+00
   0.0000000000000000E+00
   0.0000000000000000E+00
   0.0000000000000000E+00
   0.4616789708633020E-02
   0.3357782132074535E-02
   0.8115444346516022E-02
   0.5759046270322705E-02
   0.1133083488211835E-01
   0.1381873031817922E-01
  -0.1135087051918930E-02
   0.5476358501007189E-02
   0.3081258132715757E-02
   0.3702063904723646E-02
   0.3533112986166680E-02
  -0.1539710732782829E-01
  -0.6071011248544322E-03
   0.6600538052674106E-02
   0.1225857817128013E-02
   0.2048747189099047E-02
   0.4111385089622573E-02
  -0.2954741124752515E-02
   0.1551328292517055E-02
   0.3141999193016141E-02
   0.1844069876569484E-02
   0.1980160630111170E-02
   0.1905325029012194E-02
   0.2340377925566337E-02
   0.8854411375215018E-02
  -0.3596566751253519E-02
   0.6173237021083695E-02
  -0.2530439329274770E-04
  -0.5216859629846131E-03
  -0.1694674145733701E-01
  -0.5238576608684643E-02
  -0.5401886773321532E-02
   0.3390586951433531E-02
  -0.6456009958860295E-02
  -0.2496449028449442E-03
  -0.3423340637584637E-01
  -0.2795018224518343E-02
   0.4829057868733352E-02
   0.1165727744047110E-02
   0.2409547222790678E-02
   0.3800307563434106E-02
   0.2521404677229527E-02
   0.2786985490558878E-02
   0.4652059780267514E-02
   0.1860321231272969E-02
   0.5599315721055083E-03
   0.1110496523223087E-03
  -0.5015244213586970E-02
  -0.6123269583856623E-02
  -0.7179473125645231E-03
   0.7533813941476114E-03
  -0.1629163553999543E-02
  -0.3315541398564029E-02
  -0.2686663583197806E-02
  -0.4637775738172030E-02
  -0.7870399363599305E-02
  -0.1984428245144276E-02
   0.7344207621862574E-03
  -0.4804759427452740E-04
   0.8016136594679380E-03
  -0.3054366618674120E-02
   0.5726128003455463E-02
  -0.8604686239513491E-02
   0.1214895358758161E-03
  -0.2437000088622688E-03
   0.2381471848112165E-02
   0.1773369228547694E-02
   0.2220153786549590E-02
  -0.5478996978046867E-02
SCALARS w double 1
LOOKUP_TABLE default
   0.0000000000000000E+00
   0.0000000000000000E+00
   0.0000000000000000E+00
   0.0000000000000000E+00
   0.0000000000000000E+00
   0.0000000000000000E+00
   0.0000000000000000E+00
   0.0000000000000000E+00
   0.0000000000000000E+00
   0.0000000000000000E+00
   0.0000000000000000E+00
   0.0000000000000000E+00
   0.0000000000000000E+00
   0.0000000000000000E+00
   0.0000000000000000E+00
   0.0000000000000000E+00
   0.0000000000000000E+00
   0.0000000000000000E+00
   0.0000000000000000E+00
   0.0000000000000000E+00
   0.0000000000000000E+00
   0.0000000000000000E+00
   0.0000000000000000E+00
   0.0000000000000000E+00
   0.0000000000000000E+00
   0.0000000000000000E+00
   0.0000000000000000E+00
   0.0000000000000000E+00
   0.0000000000000000E+00
   0.0000000000000000E+00
   0.0000000000000000E+00
   0.0000000000000000E+00
   0.0000000000000000E+00
  -0.9793361654381505E-01
  -0.4158662993493498E-01
  -0.2645133103951085E-03
   0.4777755804131641E-02
   0.2336423046564623E-02
   0.2066656461217412E-02
   0.3697733371564791E-02
   0.4497506591555266E-02
   0.8751699545934716E-03
   0.3712050380255641E-02
   0.4556142687537541E-01
   0.6454464020627300E-01
   0.1418282364491163E-02
  -0.2246874125763480E-01
   0.4384006779521553E-02
   0.1307103957497206E-01
   0.1014835871260030E-01
   0.4836416544053856E-01
   0.2042978720271302E-02
  -0.5983260438208668E-02
  -0.3661921477057102E-03
   0.6872087833206864E-03
   0.3705218129783834E-02
  -0.3772524666459732E-01
   0.1772877261127117E-01
   0.1080252672056915E-01
   0.3306513397990717E-01
   0.8295941193623580E-02
   0.4266438782483574E-02
   0.4618365493730569E-02
   0.4885443094576006E-02
   0.5664660073726027E-02
   0.1690845013897772E-02
  -0.4052127242311603E-01
  -0.9691527693551222E-01
  -0.1096888627491722E+00
   0.4373511466380930E-02
   0.2875207751044175E-02
  -0.9736382097768087E-01
  -0.9617785957542710E-01
  -0.9618044707248839E-01
  -0.9224863877132414E-01
  -0.6624933616818669E-01
   0.3937858405566446E-02
  -0.1958167141542579E-01
  -0.1613606099217626E-01
  -0.7364111986563623E-02
   0.5393862836725975E-02
  -0.7799392200074334E-01
  -0.2811912766335187E-01
  -0.7850885199717175E-01
  -0.5795396576986690E-01
   0.4480468989597063E-02
   0.3182918391753536E-02
   0.3181778221155086E-02
   0.4452897215273935E-02
   0.3707446869204374E-02
   0.9144392241825701E-03
   0.1024278812375281E-02
   0.3497825987841983E-02
   0.5421027431532736E-02
   0.4199384714565825E-02
   0.3488166081533748E-02
   0.1480438984367396E-02
   0.3869404708281338E-02
   0.1323693261686460E-02
   0.4044004820006857E-03
   0.5468689011498421E-02
   0.2804134676025282E-02
   0.2554584962728081E-02
   0.5857454613829975E-02
   0.1779022746223227E-02
   0.2308671613268927E-02
   0.2015697518069763E-02
   0.8913962388792095E-03
   0.8439984253852131E-01
   0.2690713739460410E-02
  -0.8530024831419754E-03
   0.2966524323540652E-03
   0.1406950340768984E+00
   0.1228217915598742E+00
  -0.1103449557066546E-02
  -0.4226587872822271E-02
   0.1939962366199910E-03
  -0.6071654924489349E-02
  -0.1404709678059580E-02
   0.1562308197745848E+00
   0.7533280368321404E-01
   0.2579080129031261E-01
   0.1655563704052353E+00