title="tecplot geometry and solution file"
variables = x y z rho u v w p mach temperature
zone t="boundary 1 bc-1", solutiontime= 0.4000000E+02, strandid=1001, i=32, j=46, f=feblock
  0.000000000000E+00  0.000000000000E+00  0.000000000000E+00  0.000000000000E+00  0.000000000000E+00  0.000000000000E+00  0.000000000000E+00
  0.000000000000E+00  0.000000000000E+00  0.000000000000E+00  0.000000000000E+00  0.000000000000E+00  0.000000000000E+00  0.000000000000E+00
  0.000000000000E+00  0.000000000000E+00  0.000000000000E+00  0.000000000000E+00  0.000000000000E+00  0.000000000000E+00  0.000000000000E+00
  0.000000000000E+00  0.000000000000E+00  0.000000000000E+00  0.000000000000E+00  0.000000000000E+00  0.000000000000E+00  0.000000000000E+00
  0.000000000000E+00  0.000000000000E+00  0.000000000000E+00  0.000000000000E+00
  0.250000000000E+01  0.250000000000E+01  0.125000000000E+01  0.146289271009E+01  0.157686156160E+01  0.308372018325E+00  0.000000000000E+00
 -0.125000000000E+01 -0.600232012419E+00  0.250000000000E+01  0.477386199275E+00  0.742988685424E+00 -0.739814786992E+00  0.177790177481E+01
  0.155830813274E+01  0.250000000000E+01 -0.250000000000E+01 -0.154800130438E+01 -0.487811078581E+00  0.250000000000E+01  0.627766083140E+00
 -0.345533899378E+00 -0.178862290564E+01 -0.158811787973E+01  0.125000000000E+01 -0.250000000000E+01 -0.144524380962E+01  0.000000000000E+00
 -0.125000000000E+01 -0.250000000000E+01 -0.250000000000E+01 -0.250000000000E+01
  0.000000000000E+00  0.125000000000E+01  0.000000000000E+00  0.103724302461E+01  0.219251206392E+01  0.922061490191E+00  0.000000000000E+00
  0.000000000000E+00  0.715990576545E+00  0.250000000000E+01  0.202479342020E+01  0.324151231464E+01  0.175434191980E+01  0.310152362409E+01
  0.404200324774E+01  0.375000000000E+01  0.000000000000E+00  0.930412228790E+00  0.299062775774E+01  0.500000000000E+01  0.429310310915E+01
  0.409252726285E+01  0.187029682677E+01  0.284428995242E+01  0.500000000000E+01  0.125000000000E+01  0.394624082883E+01  0.500000000000E+01
  0.500000000000E+01  0.250000000000E+01  0.375000000000E+01  0.500000000000E+01
  0.134427281422E+01  0.106355515312E+01  0.142583438933E+01  0.108609142276E+01  0.103229085392E+01  0.120095672759E+01  0.164467009370E+01
  0.149409287105E+01  0.123520893019E+01  0.102389345105E+01  0.102809501202E+01  0.101301839243E+01  0.103253151038E+01  0.101471953872E+01
  0.100663936600E+01  0.100830884555E+01  0.144945894625E+01  0.116393846209E+01  0.101462845940E+01  0.100426051813E+01  0.100679860558E+01
  0.100724595174E+01  0.104668011635E+01  0.101938421075E+01  0.100424810857E+01  0.106442598109E+01  0.100789379048E+01  0.100288872953E+01
  0.100334576480E+01  0.102847370412E+01  0.100958722427E+01  0.100399310238E+01
  0.000000000000E+00  0.445481596382E+00  0.000000000000E+00  0.468734676967E+00  0.462184233979E+00  0.443610946238E+00  0.000000000000E+00
  0.000000000000E+00  0.379268680201E+00  0.471739201911E+00  0.466577325777E+00  0.479355355189E+00  0.490159513417E+00  0.484514133542E+00
  0.488523922907E+00  0.489829302049E+00  0.000000000000E+00  0.450650458177E+00  0.474814746061E+00  0.495784293898E+00  0.490898765166E+00
  0.486834859113E+00  0.448671688910E+00  0.465808640142E+00  0.496536141110E+00  0.444685284269E+00  0.487700573234E+00  0.497533659889E+00
  0.496383678494E+00  0.470003483540E+00  0.489199400251E+00  0.495521354509E+00
  0.000000000000E+00  0.000000000000E+00  0.000000000000E+00  0.186080946916E-01 -0.276628872375E-02  0.332950186790E-01  0.000000000000E+00
  0.000000000000E+00 -0.594681473109E-02  0.000000000000E+00  0.356676836931E-02 -0.566597776215E-02 -0.416021033888E-02  0.305714937660E-04
 -0.106159375524E-02  0.000000000000E+00  0.000000000000E+00 -0.764121996046E-02  0.359920551490E-03  0.000000000000E+00 -0.203498375139E-02
 -0.138300050368E-02  0.156544408354E-02 -0.158535943779E-02 -0.639666313596E-04  0.000000000000E+00 -0.282703279583E-04 -0.196436359950E-03
  0.807170870427E-03  0.000000000000E+00  0.000000000000E+00  0.000000000000E+00
  0.000000000000E+00  0.452218780243E-01  0.000000000000E+00  0.123933408793E+00  0.247673641599E-01  0.165645090081E+00  0.000000000000E+00
  0.000000000000E+00  0.155764249498E+00  0.351982804659E-02  0.259815020963E-01 -0.651122904355E-02  0.749024758686E-01  0.371888268889E-02
 -0.149076989666E-03  0.459023513121E-03  0.000000000000E+00  0.140954998874E+00 -0.808395899205E-02  0.237202675819E-02 -0.304120282013E-03
 -0.438166967974E-02  0.255055955081E-01 -0.194761262345E-02  0.308400183128E-02  0.837488438231E-01 -0.121869392497E-02  0.268541565981E-02
  0.264054757675E-02  0.279529940767E-02 -0.834451218026E-03  0.345022395056E-02
  0.960185587699E+00  0.782341531456E+00  0.101844376521E+01  0.808728068264E+00  0.746126317882E+00  0.879448607976E+00  0.117475431502E+01
  0.106720087426E+01  0.916623173916E+00  0.737395649391E+00  0.743554363362E+00  0.725759456476E+00  0.757456621885E+00  0.729188787428E+00
  0.720785419559E+00  0.722782114522E+00  0.103532031711E+01  0.858318916529E+00  0.728065212500E+00  0.718615494360E+00  0.721013841513E+00
  0.721151942344E+00  0.760018590304E+00  0.732628725933E+00  0.718531377637E+00  0.791044791804E+00  0.722108336921E+00  0.717199748496E+00
  0.717637249179E+00  0.741799796355E+00  0.724056987981E+00  0.718401014077E+00
  0.000000000000E+00  0.441238869305E+00  0.000000000000E+00  0.475212330920E+00  0.460125603206E+00  0.468825461300E+00  0.000000000000E+00
  0.000000000000E+00  0.402299649009E+00  0.469815278470E+00  0.464413488305E+00  0.478714156952E+00  0.489298543739E+00  0.483067974151E+00
  0.487929214737E+00  0.488960778759E+00  0.000000000000E+00  0.464773424659E+00  0.473796250408E+00  0.495345957657E+00  0.490265393145E+00
  0.486285553824E+00  0.445720652955E+00  0.464383534972E+00  0.496127007662E+00  0.443623496702E+00  0.486963948422E+00  0.497245796699E+00
  0.496058640422E+00  0.467732966722E+00  0.488211582241E+00  0.495097554030E+00
  0.999990335710E+00  0.102982731157E+01  0.999990799743E+00  0.104247144563E+01  0.101190167584E+01  0.102520600692E+01  0.999991455627E+00
  0.999992204577E+00  0.103891124175E+01  0.100826302590E+01  0.101252909170E+01  0.100300571703E+01  0.102702848289E+01  0.100605562764E+01
  0.100244399480E+01  0.100355656384E+01  0.999992754332E+00  0.103239691984E+01  0.100459561139E+01  0.100179353259E+01  0.100260307525E+01
  0.100234974143E+01  0.101657231259E+01  0.100617628318E+01  0.100168864657E+01  0.104043186488E+01  0.100303393198E+01  0.100118748803E+01
  0.100134189439E+01  0.100976788296E+01  0.100405369522E+01  0.100176128434E+01
        12        19        11        11
        11         5        12        12
        10        14         5         5
        19        13        11        11
        19        24        13        13
        30        23        24        24
        19        12        22        22
        28        22        21        21
        11        13         6         6
         7         6         9         9
        15        12        14        14
        18        13        23        23
        15        25        21        21
        27        19        22        22
        18         8         9         9
        27        31        24        24
         4        11         6         6
         5        14        12        12
         4         2         5         5
        21        12        15        15
        14        16        15        15
        24        19        27        27
        22        29        27        27
        23        26        18        18
        17         8        18        18
         5        11         4         4
         6         3         4         4
        26        23        30        30
         5         2        10        10
        16        14        10        10
         3         6         7         7
        21        25        28        28
        29        22        28        28
         6        13         9         9
         2         4         1         1
        31        27        32        32
        25        15        20        20
        24        23        13        13
         8         7         9         9
        13        18         9         9
        31        30        24        24
        12        21        22        22
        29        32        27        27
         3         1         4         4
        26        17        18        18
        16        20        15        15
zone t="boundary 2 bc-2", solutiontime= 0.4000000E+02, strandid=1002, i=33, j=48, f=feblock
  0.500000000000E+01  0.375000000000E+01  0.250000000000E+01  0.288078410721E+01  0.125000000000E+01  0.190974100652E+01  0.326683758169E+01
  0.201431602454E+01  0.000000000000E+00  0.963108083381E+00  0.500000000000E+01  0.403552511878E+01  0.423153924130E+01  0.500000000000E+01
  0.385533350601E+01  0.500000000000E+01  0.398173246726E+01  0.315249557942E+01  0.267000324704E+01  0.154774304040E+01  0.218329375016E+01
  0.893127759452E+00  0.000000000000E+00  0.698517061619E+00  0.964171764089E+00  0.310324758057E+01  0.000000000000E+00  0.000000000000E+00
  0.125000000000E+01  0.500000000000E+01  0.375000000000E+01  0.250000000000E+01  0.000000000000E+00
 -0.250000000000E+01 -0.250000000000E+01 -0.250000000000E+01 -0.250000000000E+01 -0.250000000000E+01 -0.250000000000E+01 -0.250000000000E+01
 -0.250000000000E+01 -0.250000000000E+01 -0.250000000000E+01 -0.250000000000E+01 -0.250000000000E+01 -0.250000000000E+01 -0.250000000000E+01
 -0.250000000000E+01 -0.250000000000E+01 -0.250000000000E+01 -0.250000000000E+01 -0.250000000000E+01 -0.250000000000E+01 -0.250000000000E+01
 -0.250000000000E+01 -0.250000000000E+01 -0.250000000000E+01 -0.250000000000E+01 -0.250000000000E+01 -0.250000000000E+01 -0.250000000000E+01
 -0.250000000000E+01 -0.250000000000E+01 -0.250000000000E+01 -0.250000000000E+01 -0.250000000000E+01
  0.000000000000E+00  0.000000000000E+00  0.000000000000E+00  0.904659890645E+00  0.000000000000E+00  0.717002441913E+00  0.188609243358E+01
  0.176246431481E+01  0.000000000000E+00  0.961328577125E+00  0.125000000000E+01  0.101201586758E+01  0.191586535653E+01  0.250000000000E+01
  0.293121848150E+01  0.375000000000E+01  0.406975391361E+01  0.363585050272E+01  0.285047954584E+01  0.292817774674E+01  0.395907379566E+01
  0.205246550326E+01  0.125000000000E+01  0.306828197606E+01  0.397245519226E+01  0.433168271247E+01  0.250000000000E+01  0.375000000000E+01
  0.500000000000E+01  0.500000000000E+01  0.500000000000E+01  0.500000000000E+01  0.500000000000E+01
  0.830786800652E+00  0.935297078097E+00  0.934222269275E+00  0.968087425574E+00  0.961720427407E+00  0.964848126132E+00  0.984135916754E+00
  0.991412632860E+00  0.144945894625E+01  0.102921756174E+01  0.955877228386E+00  0.960692500494E+00  0.981487208443E+00  0.100642792052E+01
  0.997911684044E+00  0.100977853220E+01  0.100199456612E+01  0.998062853998E+00  0.991085666051E+00  0.100132757009E+01  0.100094583673E+01
  0.101224734424E+01  0.106442598109E+01  0.101082193612E+01  0.100685279538E+01  0.100118394647E+01  0.102847370412E+01  0.100958722427E+01
  0.100510201110E+01  0.100179494772E+01  0.100266311045E+01  0.100321173333E+01  0.100399310238E+01
  0.000000000000E+00  0.000000000000E+00  0.000000000000E+00  0.378986719271E+00  0.000000000000E+00  0.340639495723E+00  0.582176561391E+00
  0.575193779590E+00  0.000000000000E+00  0.489447231915E+00  0.494740729470E+00  0.431507087023E+00  0.568959415563E+00  0.536179208361E+00
  0.568878732147E+00  0.516236449232E+00  0.508557991380E+00  0.527400723651E+00  0.566648010233E+00  0.531829591961E+00  0.506097850362E+00
  0.520701734254E+00  0.444685284269E+00  0.491340605209E+00  0.492735186167E+00  0.501506446672E+00  0.470003483540E+00  0.489199400251E+00
  0.490457814404E+00  0.491429135513E+00  0.486220970309E+00  0.490305615777E+00  0.495521354509E+00
  0.000000000000E+00  0.000000000000E+00  0.000000000000E+00  0.000000000000E+00  0.000000000000E+00  0.000000000000E+00  0.000000000000E+00
  0.000000000000E+00  0.000000000000E+00  0.000000000000E+00  0.000000000000E+00  0.000000000000E+00  0.000000000000E+00  0.000000000000E+00
  0.000000000000E+00  0.000000000000E+00  0.000000000000E+00  0.000000000000E+00  0.000000000000E+00  0.000000000000E+00  0.000000000000E+00
  0.000000000000E+00  0.000000000000E+00  0.000000000000E+00  0.000000000000E+00  0.000000000000E+00  0.000000000000E+00  0.000000000000E+00
  0.000000000000E+00  0.000000000000E+00  0.000000000000E+00  0.000000000000E+00  0.000000000000E+00
  0.000000000000E+00  0.000000000000E+00  0.000000000000E+00 -0.229668481080E-02  0.000000000000E+00  0.183564275456E-01  0.121119088536E-01
  0.454984082889E-01  0.000000000000E+00  0.870784185694E-01 -0.995420825025E-01 -0.211864960249E-01 -0.306440440974E-01 -0.414443962327E-01
 -0.137848157822E-02  0.259881239731E-02  0.610033930681E-03  0.504777009827E-03  0.150975743115E-01  0.284039993266E-01  0.564261845152E-02
  0.553436632287E-01  0.837488438231E-01  0.110456264110E-01  0.679236616268E-02 -0.757349252746E-03  0.279529940767E-02 -0.834451218026E-03
  0.400701541532E-02  0.602772284419E-02 -0.143865322563E-03  0.120115328724E-02  0.345022395056E-02
  0.593415294581E+00  0.668065144905E+00  0.667297332594E+00  0.684257399539E+00  0.686938468678E+00  0.679201274064E+00  0.695811391852E+00
  0.702343800145E+00  0.103532031711E+01  0.723695199657E+00  0.672590450167E+00  0.675702455280E+00  0.694092610640E+00  0.720958727218E+00
  0.712690844903E+00  0.724770695426E+00  0.716580480628E+00  0.713298692199E+00  0.706429399956E+00  0.717737466022E+00  0.715376626234E+00
  0.730938399229E+00  0.791044791804E+00  0.724373345648E+00  0.721010938960E+00  0.715457497965E+00  0.741799796355E+00  0.724056987981E+00
  0.719313183571E+00  0.715893185305E+00  0.716608852580E+00  0.717367952517E+00  0.718401014077E+00
  0.000000000000E+00  0.000000000000E+00  0.000000000000E+00  0.380991675187E+00  0.000000000000E+00  0.343629850434E+00  0.585283713837E+00
  0.579371277763E+00  0.000000000000E+00  0.501053781637E+00  0.508459736013E+00  0.435372719654E+00  0.572637636344E+00  0.537001630152E+00
  0.568921594713E+00  0.514994871509E+00  0.508249516198E+00  0.527254305336E+00  0.567446157991E+00  0.531657902273E+00  0.505982366048E+00
  0.520795556205E+00  0.443623496702E+00  0.490664288575E+00  0.492156110480E+00  0.501392711315E+00  0.467732966722E+00  0.488211582241E+00
  0.490002386533E+00  0.491354405610E+00  0.486078174126E+00  0.490037672825E+00  0.495097554030E+00
  0.999993514295E+00  0.999993718328E+00  0.999993573646E+00  0.989539099515E+00  0.999993167185E+00  0.985524828143E+00  0.989838834259E+00
  0.991798255956E+00  0.999992754332E+00  0.984411184942E+00  0.985091602009E+00  0.984689103856E+00  0.990058399679E+00  0.100289568436E+01
  0.999855196425E+00  0.100485298632E+01  0.100121568201E+01  0.100055639289E+01  0.997896744768E+00  0.100350023553E+01  0.100058089057E+01
  0.101093252034E+01  0.104043186488E+01  0.100326540973E+01  0.100254507826E+01  0.100045601078E+01  0.100976788296E+01  0.100405369522E+01
  0.100192661628E+01  0.100045469555E+01  0.100058771801E+01  0.100109986771E+01  0.100176128434E+01
        15         7        19        19
         8        20        19        19
        18        19        21        21
         7         4         8         8
         3         6         4         4
        19         7         8         8
        19        18        15        15
        14        13        15        15
         8        22        20        20
        27        24        22        22
        19        20        21        21
        32        26        21        21
        17        18        26        26
        17        16        15        15
        25        29        21        21
        12         7        13        13
        10         8         6         6
        25        20        24        24
         4         6         8         8
        12         2         4         4
        10        23        22        22
        26        31        17        17
        30        16        17        17
         4         7        12        12
        13        11        12        12
        21        20        25        25
        24        28        25        25
        22         8        10        10
         6         5        10        10
        31        26        32        32
         4         2         3         3
         5         6         3         3
        11        13        14        14
        22        23        27        27
        28        24        27        27
        15        13         7         7
         2        12         1         1
        29        25        33        33
        23        10         9         9
        21        26        18        18
        16        14        15        15
        18        17        15        15
        29        32        21        21
        22        24        20        20
        28        33        25        25
        11         1        12        12
        31        30        17        17
         5         9        10        10
zone t="boundary 3 bc-3", solutiontime= 0.4000000E+02, strandid=1003, i=33, j=48, f=feblock
  0.375000000000E+01  0.250000000000E+01  0.500000000000E+01  0.403552511878E+01  0.288078410721E+01  0.125000000000E+01  0.190974100652E+01
  0.500000000000E+01  0.326683758169E+01  0.423153924130E+01  0.201431602454E+01  0.000000000000E+00  0.963108083381E+00  0.500000000000E+01
  0.267000324704E+01  0.385533350601E+01  0.893127759452E+00  0.154774304040E+01  0.000000000000E+00  0.500000000000E+01  0.315249557942E+01
  0.218329375016E+01  0.398173246726E+01  0.000000000000E+00  0.698517061619E+00  0.964171764089E+00  0.125000000000E+01  0.000000000000E+00
  0.500000000000E+01  0.310324758057E+01  0.250000000000E+01  0.375000000000E+01  0.000000000000E+00
  0.250000000000E+01  0.250000000000E+01  0.250000000000E+01  0.250000000000E+01  0.250000000000E+01  0.250000000000E+01  0.250000000000E+01
  0.250000000000E+01  0.250000000000E+01  0.250000000000E+01  0.250000000000E+01  0.250000000000E+01  0.250000000000E+01  0.250000000000E+01
  0.250000000000E+01  0.250000000000E+01  0.250000000000E+01  0.250000000000E+01  0.250000000000E+01  0.250000000000E+01  0.250000000000E+01
  0.250000000000E+01  0.250000000000E+01  0.250000000000E+01  0.250000000000E+01  0.250000000000E+01  0.250000000000E+01  0.250000000000E+01
  0.250000000000E+01  0.250000000000E+01  0.250000000000E+01  0.250000000000E+01  0.250000000000E+01
  0.000000000000E+00  0.000000000000E+00  0.000000000000E+00  0.101201586758E+01  0.904659890645E+00  0.000000000000E+00  0.717002441913E+00
  0.125000000000E+01  0.188609243358E+01  0.191586535653E+01  0.176246431481E+01  0.000000000000E+00  0.961328577125E+00  0.250000000000E+01
  0.285047954584E+01  0.293121848150E+01  0.205246550326E+01  0.292817774674E+01  0.125000000000E+01  0.375000000000E+01  0.363585050272E+01
  0.395907379566E+01  0.406975391361E+01  0.250000000000E+01  0.306828197606E+01  0.397245519226E+01  0.500000000000E+01  0.375000000000E+01
  0.500000000000E+01  0.433168271247E+01  0.500000000000E+01  0.500000000000E+01  0.500000000000E+01
  0.941861314290E+00  0.946296666175E+00  0.843730002254E+00  0.964330909021E+00  0.978820764151E+00  0.956977243948E+00  0.983331101150E+00
  0.963499291475E+00  0.982689172384E+00  0.984243378522E+00  0.990264127293E+00  0.134427281422E+01  0.101918341168E+01  0.100829832493E+01
  0.993456083263E+00  0.997998478232E+00  0.100807890603E+01  0.100072119279E+01  0.106355515312E+01  0.100673538410E+01  0.100058326470E+01
  0.100234964206E+01  0.100178057868E+01  0.102389345105E+01  0.100874249009E+01  0.100528395442E+01  0.100522891025E+01  0.100830884555E+01
  0.100196493586E+01  0.100161987228E+01  0.100413208901E+01  0.100321955978E+01  0.100426051813E+01
  0.000000000000E+00  0.000000000000E+00  0.000000000000E+00  0.439071503294E+00  0.399865913751E+00  0.000000000000E+00  0.373793797690E+00
  0.495016989642E+00  0.573054338535E+00  0.569602776282E+00  0.559930989074E+00  0.000000000000E+00  0.483388374836E+00  0.533821508767E+00
  0.556458891207E+00  0.564687662027E+00  0.522615381713E+00  0.522534073730E+00  0.445481596382E+00  0.518327387626E+00  0.524752323364E+00
  0.503889400796E+00  0.509841483927E+00  0.471739201911E+00  0.496245994519E+00  0.494940442082E+00  0.489076071861E+00  0.489829302049E+00
  0.493067098745E+00  0.499148515320E+00  0.486768037279E+00  0.484761046858E+00  0.495784293898E+00
  0.000000000000E+00  0.000000000000E+00  0.000000000000E+00  0.000000000000E+00  0.000000000000E+00  0.000000000000E+00  0.000000000000E+00
  0.000000000000E+00  0.000000000000E+00  0.000000000000E+00  0.000000000000E+00  0.000000000000E+00  0.000000000000E+00  0.000000000000E+00
  0.000000000000E+00  0.000000000000E+00  0.000000000000E+00  0.000000000000E+00  0.000000000000E+00  0.000000000000E+00  0.000000000000E+00
  0.000000000000E+00  0.000000000000E+00  0.000000000000E+00  0.000000000000E+00  0.000000000000E+00  0.000000000000E+00  0.000000000000E+00
  0.000000000000E+00  0.000000000000E+00  0.000000000000E+00  0.000000000000E+00  0.000000000000E+00
  0.000000000000E+00  0.000000000000E+00  0.000000000000E+00 -0.226115691151E-01  0.111961848625E-01  0.000000000000E+00  0.179816121470E-01
 -0.100760591116E+00  0.390395583924E-02 -0.389322605908E-01  0.340376103240E-01  0.000000000000E+00  0.652288404759E-01 -0.424929076680E-01
  0.843970154622E-02 -0.650957359845E-02  0.490063850016E-01  0.135887413940E-01  0.452218780243E-01  0.736804267211E-03 -0.700164602567E-03
  0.243831042422E-02  0.869323899041E-03  0.351982804659E-02  0.103956407909E-01  0.431718622948E-02  0.337500690095E-02  0.459023513121E-03
  0.572625571231E-02  0.341793354696E-03  0.160973723840E-02  0.569954812893E-03  0.237202675819E-02
  0.672750939160E+00  0.675919061631E+00  0.602658059907E+00  0.676093438133E+00  0.691308856021E+00  0.683548249735E+00  0.690066300310E+00
  0.677273936188E+00  0.695201603767E+00  0.696250323726E+00  0.703344029570E+00  0.960185587699E+00  0.719726727104E+00  0.722865638511E+00
  0.709447594728E+00  0.713700515030E+00  0.726067906863E+00  0.716603025581E+00  0.782341531456E+00  0.722284495083E+00  0.716128356837E+00
  0.716551639751E+00  0.716546505476E+00  0.737395649391E+00  0.722683428484E+00  0.719441503889E+00  0.719566299500E+00  0.722782114522E+00
  0.716030696926E+00  0.715847785260E+00  0.718146762119E+00  0.717062459992E+00  0.718615494360E+00
  0.000000000000E+00  0.000000000000E+00  0.000000000000E+00  0.443768071198E+00  0.402287064666E+00  0.000000000000E+00  0.377550008028E+00
  0.509231393939E+00  0.575830371546E+00  0.573705099429E+00  0.562552489681E+00  0.000000000000E+00  0.490560995913E+00  0.534526656499E+00
  0.556587168132E+00  0.564390987379E+00  0.522730523264E+00  0.522053042399E+00  0.441238869305E+00  0.517182830100E+00  0.524230060542E+00
  0.503688647642E+00  0.509490271499E+00  0.469815278470E+00  0.495614927110E+00  0.494483809273E+00  0.488562147113E+00  0.488960778759E+00
  0.492982761085E+00  0.499007405770E+00  0.486462346023E+00  0.484600099724E+00  0.495345957657E+00
  0.999989383292E+00  0.999989453738E+00  0.999989666855E+00  0.981541506688E+00  0.988773873498E+00  0.999989869854E+00  0.982469505240E+00
  0.984104004075E+00  0.990427362614E+00  0.990355103714E+00  0.994362629382E+00  0.999990335710E+00  0.988651705275E+00  0.100368300620E+01
  0.999769037960E+00  0.100118461384E+01  0.100834871509E+01  0.100252122473E+01  0.102982731157E+01  0.100443305072E+01  0.100199527110E+01
  0.100082072519E+01  0.100138206811E+01  0.100826302590E+01  0.100298818560E+01  0.100192398478E+01  0.100215265302E+01  0.100355656384E+01
  0.100047710236E+01  0.100056611006E+01  0.100126813790E+01  0.100066574081E+01  0.100179353259E+01
        15         9        16        16
        15        18        11        11
        22        15        21        21
        11         5         9         9
         5         7         2         2
        11         9        15        15
        16        21        15        15
        16        10        14        14
        18        17        11        11
        17        25        24        24
        22        18        15        15
        22        30        31        31
        30        21        23        23
        16        20        23        23
        22        27        26        26
        10         9         4         4
         7        11        13        13
        25        18        26        26
        11         7         5         5
         5         1         4         4
        17        19        13        13
        23        32        30        30
        23        20        29        29
         4         9         5         5
         4         8        10        10
        26        18        22        22
        26        28        25        25
        13        11        17        17
        13         6         7         7
        31        30        32        32
         2         1         5         5
         2         7         6         6
        14        10         8         8
        24        19        17        17
        24        25        28        28
         9        10        16        16
         3         4         1         1
        33        26        27        27
        12        13        19        19
        21        30        22        22
        16        14        20        20
        16        23        21        21
        22        31        27        27
        18        25        17        17
        26        33        28        28
         4         3         8         8
        23        29        32        32
        13        12         6         6
zone t="boundary 4 bc-4", solutiontime= 0.4000000E+02, strandid=1004, i=32, j=46, f=feblock
  0.125000000000E+01  0.219251206392E+01  0.103724302461E+01  0.500000000000E+01  0.250000000000E+01  0.375000000000E+01  0.404200324774E+01
  0.500000000000E+01  0.000000000000E+00  0.310152362409E+01  0.202479342020E+01  0.324151231464E+01  0.922061490191E+00  0.000000000000E+00
  0.299062775774E+01  0.394624082883E+01  0.500000000000E+01  0.409252726285E+01  0.500000000000E+01  0.429310310915E+01  0.175434191980E+01
  0.284428995242E+01  0.000000000000E+00  0.000000000000E+00  0.715990576545E+00  0.930412228790E+00  0.125000000000E+01  0.187029682677E+01
  0.500000000000E+01  0.375000000000E+01  0.250000000000E+01  0.000000000000E+00
  0.250000000000E+01  0.157686156160E+01  0.146289271009E+01  0.250000000000E+01  0.250000000000E+01  0.250000000000E+01  0.155830813274E+01
  0.125000000000E+01  0.250000000000E+01  0.177790177481E+01  0.477386199275E+00  0.742988685424E+00  0.308372018325E+00  0.125000000000E+01
 -0.487811078581E+00 -0.144524380962E+01 -0.125000000000E+01 -0.345533899378E+00  0.000000000000E+00  0.627766083140E+00 -0.739814786992E+00
 -0.158811787973E+01  0.000000000000E+00 -0.125000000000E+01 -0.600232012419E+00 -0.154800130438E+01 -0.250000000000E+01 -0.178862290564E+01
 -0.250000000000E+01 -0.250000000000E+01 -0.250000000000E+01 -0.250000000000E+01
  0.500000000000E+01  0.500000000000E+01  0.500000000000E+01  0.500000000000E+01  0.500000000000E+01  0.500000000000E+01  0.500000000000E+01
  0.500000000000E+01  0.500000000000E+01  0.500000000000E+01  0.500000000000E+01  0.500000000000E+01  0.500000000000E+01  0.500000000000E+01
  0.500000000000E+01  0.500000000000E+01  0.500000000000E+01  0.500000000000E+01  0.500000000000E+01  0.500000000000E+01  0.500000000000E+01
  0.500000000000E+01  0.500000000000E+01  0.500000000000E+01  0.500000000000E+01  0.500000000000E+01  0.500000000000E+01  0.500000000000E+01
  0.500000000000E+01  0.500000000000E+01  0.500000000000E+01  0.500000000000E+01
  0.100522891025E+01  0.100432972847E+01  0.100432057159E+01  0.100196493586E+01  0.100413208901E+01  0.100321955978E+01  0.100258609894E+01
  0.100201207162E+01  0.100426051813E+01  0.100372308695E+01  0.100446493251E+01  0.100346917276E+01  0.100366004298E+01  0.100424810857E+01
  0.100362320243E+01  0.100164167690E+01  0.100227653958E+01  0.100227281659E+01  0.100213472788E+01  0.100254320763E+01  0.100442397017E+01
  0.100337260280E+01  0.100288872953E+01  0.100334576480E+01  0.100323229640E+01  0.100406112480E+01  0.100510201110E+01  0.100431325012E+01
  0.100179494772E+01  0.100266311045E+01  0.100321173333E+01  0.100399310238E+01
  0.489076071861E+00  0.489239514758E+00  0.490982943686E+00  0.493067098745E+00  0.486768037279E+00  0.484761046858E+00  0.485408471284E+00
  0.494264775583E+00  0.495784293898E+00  0.486802515264E+00  0.488140251546E+00  0.487247388593E+00  0.494422666553E+00  0.496536141110E+00
  0.487848064996E+00  0.483222725517E+00  0.492575483974E+00  0.487265924146E+00  0.494868068203E+00  0.488016507665E+00  0.490096902524E+00
  0.488271357231E+00  0.497533659889E+00  0.496383678494E+00  0.495259146548E+00  0.493215887190E+00  0.490457814404E+00  0.490400262511E+00
  0.491429135513E+00  0.486220970309E+00  0.490305615777E+00  0.495521354509E+00
  0.000000000000E+00 -0.892664860526E-04 -0.129738550422E-02  0.000000000000E+00  0.000000000000E+00  0.000000000000E+00  0.425541761803E-03
  0.797050346545E-03  0.000000000000E+00  0.274681882651E-03 -0.942139228783E-03 -0.819702058564E-03 -0.174518027569E-02 -0.639666313596E-04
 -0.109975250884E-02 -0.102235999949E-02 -0.133215052985E-02 -0.213360351223E-02 -0.132884565670E-02 -0.106367079237E-02 -0.624152298727E-03
 -0.761416960633E-03 -0.196436359950E-03  0.807170870427E-03  0.520711836537E-04  0.161632124537E-02  0.000000000000E+00  0.791631589944E-03
  0.000000000000E+00  0.000000000000E+00  0.000000000000E+00  0.000000000000E+00