title="tecplot geometry and solution file"
variables = x y z rho u v w p mach temperature
zone t="boundary 1 bc-1", solutiontime= 0.1000000E+02, strandid=1001, i=32, j=46, f=feblock
  0.000000000000E+00  0.000000000000E+00  0.000000000000E+00  0.000000000000E+00  0.000000000000E+00  0.000000000000E+00  0.000000000000E+00
  0.000000000000E+00  0.000000000000E+00  0.000000000000E+00  0.000000000000E+00  0.000000000000E+00  0.000000000000E+00  0.000000000000E+00
  0.000000000000E+00  0.000000000000E+00  0.000000000000E+00  0.000000000000E+00  0.000000000000E+00  0.000000000000E+00  0.000000000000E+00
  0.000000000000E+00  0.000000000000E+00  0.000000000000E+00  0.000000000000E+00  0.000000000000E+00  0.000000000000E+00  0.000000000000E+00
  0.000000000000E+00  0.000000000000E+00  0.000000000000E+00  0.000000000000E+00
  0.250000000000E+01  0.250000000000E+01  0.125000000000E+01  0.146289271009E+01  0.157686156160E+01  0.308372018325E+00  0.000000000000E+00
 -0.125000000000E+01 -0.600232012419E+00  0.250000000000E+01  0.477386199275E+00  0.742988685424E+00 -0.739814786992E+00  0.177790177481E+01
  0.155830813274E+01  0.250000000000E+01 -0.250000000000E+01 -0.154800130438E+01 -0.487811078581E+00  0.250000000000E+01  0.627766083140E+00
 -0.345533899378E+00 -0.178862290564E+01 -0.158811787973E+01  0.125000000000E+01 -0.250000000000E+01 -0.144524380962E+01  0.000000000000E+00
 -0.125000000000E+01 -0.250000000000E+01 -0.250000000000E+01 -0.250000000000E+01
  0.000000000000E+00  0.125000000000E+01  0.000000000000E+00  0.103724302461E+01  0.219251206392E+01  0.922061490191E+00  0.000000000000E+00
  0.000000000000E+00  0.715990576545E+00  0.250000000000E+01  0.202479342020E+01  0.324151231464E+01  0.175434191980E+01  0.310152362409E+01
  0.404200324774E+01  0.375000000000E+01  0.000000000000E+00  0.930412228790E+00  0.299062775774E+01  0.500000000000E+01  0.429310310915E+01
  0.409252726285E+01  0.187029682677E+01  0.284428995242E+01  0.500000000000E+01  0.125000000000E+01  0.394624082883E+01  0.500000000000E+01
  0.500000000000E+01  0.250000000000E+01  0.375000000000E+01  0.500000000000E+01
  0.134396731757E+01  0.106288698477E+01  0.142567428941E+01  0.108605882977E+01  0.103189220483E+01  0.120046423501E+01  0.164281248123E+01
  0.149232149895E+01  0.123491584063E+01  0.102374923503E+01  0.102837493732E+01  0.101298511555E+01  0.103298217549E+01  0.101450507467E+01
  0.100651986132E+01  0.100815215224E+01  0.144787054732E+01  0.116338402467E+01  0.101484564772E+01  0.100300496079E+01  0.100671206196E+01
  0.100730292880E+01  0.104658261666E+01  0.101925912695E+01  0.100388298701E+01  0.106493110411E+01  0.100782052253E+01  0.100321557262E+01
  0.100342440977E+01  0.102865084977E+01  0.100953852177E+01  0.100373888914E+01
  0.000000000000E+00  0.446358067227E+00  0.000000000000E+00  0.467560518590E+00  0.463488632554E+00  0.444130199061E+00  0.000000000000E+00
  0.000000000000E+00  0.379414504953E+00  0.472067561401E+00  0.467070116285E+00  0.479430472964E+00  0.489673616642E+00  0.484503819770E+00
  0.488022629342E+00  0.489655821231E+00  0.000000000000E+00  0.450851286963E+00  0.474819681853E+00  0.496307069638E+00  0.491006291734E+00
  0.486784126680E+00  0.449357093846E+00  0.466802243677E+00  0.497491889293E+00  0.445301187680E+00  0.487563276439E+00  0.498115705261E+00
  0.496792624129E+00  0.469845385147E+00  0.489157969106E+00  0.495743328458E+00
  0.000000000000E+00  0.000000000000E+00  0.000000000000E+00  0.175473958558E-01 -0.213680465448E-02  0.327977165974E-01  0.000000000000E+00
  0.000000000000E+00 -0.650306752162E-02  0.000000000000E+00  0.411751058358E-02 -0.522508560539E-02 -0.408031560613E-02  0.340778692307E-04
 -0.824412944917E-03  0.000000000000E+00  0.000000000000E+00 -0.784106559583E-02  0.397840247074E-03  0.000000000000E+00 -0.213210725814E-02
 -0.139194461435E-02  0.163763176332E-02 -0.186765837190E-02 -0.433681175303E-03  0.000000000000E+00 -0.230219986703E-03 -0.412321626830E-03
  0.823834516285E-03  0.000000000000E+00  0.000000000000E+00  0.000000000000E+00
  0.000000000000E+00  0.455614268754E-01  0.000000000000E+00  0.122821791560E+00  0.248539471174E-01  0.165556370405E+00  0.000000000000E+00
  0.000000000000E+00  0.156230819775E+00  0.371205038026E-02  0.269635132105E-01 -0.607165492449E-02  0.753328036832E-01  0.395754588840E-02
  0.296652432354E-03  0.875169954593E-03  0.000000000000E+00  0.140695034077E+00 -0.764305508993E-02  0.449750659156E-02  0.193996236620E-03
 -0.422658787282E-02  0.257908012903E-01 -0.140470967806E-02  0.448046898960E-02  0.843998425385E-01 -0.110344955707E-02  0.318291839175E-02
  0.318177822116E-02  0.269071373946E-02 -0.853002483142E-03  0.445289721527E-02
  0.959967377659E+00  0.781903701851E+00  0.101832940660E+01  0.808259391358E+00  0.745948417300E+00  0.879215628616E+00  0.117342745822E+01
  0.106593561595E+01  0.916236436436E+00  0.737246514457E+00  0.743709434581E+00  0.725752482538E+00  0.757529076234E+00  0.729040207917E+00
  0.720574541740E+00  0.722624996343E+00  0.103418575392E+01  0.857888309794E+00  0.728168574211E+00  0.718031635549E+00  0.721005601751E+00
  0.721151366097E+00  0.759976783340E+00  0.732624754973E+00  0.718477507448E+00  0.791196676773E+00  0.722072131409E+00  0.717593794977E+00
  0.717814853780E+00  0.741827166254E+00  0.723983486360E+00  0.718433945968E+00
  0.000000000000E+00  0.442116824339E+00  0.000000000000E+00  0.473915289997E+00  0.461387631956E+00  0.469205975877E+00  0.000000000000E+00
  0.000000000000E+00  0.402651489463E+00  0.470158181790E+00  0.464976977438E+00  0.478772827991E+00  0.488971629863E+00  0.483057742605E+00
  0.487470523710E+00  0.488803321663E+00  0.000000000000E+00  0.464894888419E+00  0.473810995277E+00  0.495774318015E+00  0.490354860305E+00
  0.486247485557E+00  0.446407209494E+00  0.465345875761E+00  0.497020981653E+00  0.444398059198E+00  0.486821148668E+00  0.497774938301E+00
  0.496428533767E+00  0.467606669695E+00  0.488183271243E+00  0.495253248230E+00
  0.999990335442E+00  0.102989800259E+01  0.999990797222E+00  0.104189857574E+01  0.101205123881E+01  0.102535489535E+01  0.999991453848E+00
  0.999992202332E+00  0.103871937569E+01  0.100820111501E+01  0.101246458915E+01  0.100302902772E+01  0.102667861256E+01  0.100606326825E+01
  0.100226969899E+01  0.100349435612E+01  0.999992753610E+00  0.103237074624E+01  0.100452320625E+01  0.100223262004E+01  0.100267780689E+01
  0.100229224364E+01  0.101661109189E+01  0.100629430715E+01  0.100197784348E+01  0.104013803636E+01  0.100305655757E+01  0.100141120253E+01
  0.100151121051E+01  0.100963123978E+01  0.100400020311E+01  0.100206092963E+01
        12        19        11        11
        11         5        12        12
        10        14         5         5
        19        13        11        11
        19        24        13        13
        30        23        24        24
        19        12        22        22
        28        22        21        21
        11        13         6         6
         7         6         9         9
        15        12        14        14
        18        13        23        23
        15        25        21        21
        27        19        22        22
        18         8         9         9
        27        31        24        24
         4        11         6         6
         5        14        12        12
         4         2         5         5
        21        12        15        15
        14        16        15        15
        24        19        27        27
        22        29        27        27
        23        26        18        18
        17         8        18        18
         5        11         4         4
         6         3         4         4
        26        23        30        30
         5         2        10        10
        16        14        10        10
         3         6         7         7
        21        25        28        28
        29        22        28        28
         6        13         9         9
         2         4         1         1
        31        27        32        32
        25        15        20        20
        24        23        13        13
         8         7         9         9
        13        18         9         9
        31        30        24        24
        12        21        22        22
        29        32        27        27
         3         1         4         4
        26        17        18        18
        16        20        15        15
zone t="boundary 2 bc-2", solutiontime= 0.1000000E+02, strandid=1002, i=33, j=48, f=feblock
  0.500000000000E+01  0.375000000000E+01  0.250000000000E+01  0.288078410721E+01  0.125000000000E+01  0.190974100652E+01  0.326683758169E+01
  0.201431602454E+01  0.000000000000E+00  0.963108083381E+00  0.500000000000E+01  0.403552511878E+01  0.423153924130E+01  0.500000000000E+01
  0.385533350601E+01  0.500000000000E+01  0.398173246726E+01  0.315249557942E+01  0.267000324704E+01  0.154774304040E+01  0.218329375016E+01
  0.893127759452E+00  0.000000000000E+00  0.698517061619E+00  0.964171764089E+00  0.310324758057E+01  0.000000000000E+00  0.000000000000E+00
  0.125000000000E+01  0.500000000000E+01  0.375000000000E+01  0.250000000000E+01  0.000000000000E+00
 -0.250000000000E+01 -0.250000000000E+01 -0.250000000000E+01 -0.250000000000E+01 -0.250000000000E+01 -0.250000000000E+01 -0.250000000000E+01
 -0.250000000000E+01 -0.250000000000E+01 -0.250000000000E+01 -0.250000000000E+01 -0.250000000000E+01 -0.250000000000E+01 -0.250000000000E+01
 -0.250000000000E+01 -0.250000000000E+01 -0.250000000000E+01 -0.250000000000E+01 -0.250000000000E+01 -0.250000000000E+01 -0.250000000000E+01
 -0.250000000000E+01 -0.250000000000E+01 -0.250000000000E+01 -0.250000000000E+01 -0.250000000000E+01 -0.250000000000E+01 -0.250000000000E+01
 -0.250000000000E+01 -0.250000000000E+01 -0.250000000000E+01 -0.250000000000E+01 -0.250000000000E+01
  0.000000000000E+00  0.000000000000E+00  0.000000000000E+00  0.904659890645E+00  0.000000000000E+00  0.717002441913E+00  0.188609243358E+01
  0.176246431481E+01  0.000000000000E+00  0.961328577125E+00  0.125000000000E+01  0.101201586758E+01  0.191586535653E+01  0.250000000000E+01
  0.293121848150E+01  0.375000000000E+01  0.406975391361E+01  0.363585050272E+01  0.285047954584E+01  0.292817774674E+01  0.395907379566E+01
  0.205246550326E+01  0.125000000000E+01  0.306828197606E+01  0.397245519226E+01  0.433168271247E+01  0.250000000000E+01  0.375000000000E+01
  0.500000000000E+01  0.500000000000E+01  0.500000000000E+01  0.500000000000E+01  0.500000000000E+01
  0.831660794290E+00  0.936966118829E+00  0.935440143691E+00  0.968889916356E+00  0.961483278763E+00  0.965361140731E+00  0.983820163842E+00
  0.991386934918E+00  0.144787054732E+01  0.102907399839E+01  0.955960437467E+00  0.962139550581E+00  0.980840034925E+00  0.100469878835E+01
  0.997286947478E+00  0.100954411445E+01  0.100208023302E+01  0.997824673116E+00  0.991303180402E+00  0.100153831939E+01  0.100104777436E+01
  0.101225017998E+01  0.106493110411E+01  0.101060551501E+01  0.100680735697E+01  0.100111640728E+01  0.102865084977E+01  0.100953852177E+01
  0.100528200955E+01  0.100484996829E+01  0.100458020123E+01  0.100326534053E+01  0.100373888914E+01
  0.000000000000E+00  0.000000000000E+00  0.000000000000E+00  0.379918873279E+00  0.000000000000E+00  0.341371340074E+00  0.580275102439E+00
  0.573747208627E+00  0.000000000000E+00  0.489359572667E+00  0.495708313053E+00  0.433925713480E+00  0.567784175079E+00  0.535918504564E+00
  0.567028809949E+00  0.516414194414E+00  0.508661897888E+00  0.528318094841E+00  0.566433566983E+00  0.532986599792E+00  0.506501848204E+00
  0.520722193932E+00  0.445301187680E+00  0.491841389328E+00  0.492647702619E+00  0.501423012283E+00  0.469845385147E+00  0.489157969106E+00
  0.487891567244E+00  0.491897715994E+00  0.485577780325E+00  0.487620477495E+00  0.495743328458E+00
  0.000000000000E+00  0.000000000000E+00  0.000000000000E+00  0.000000000000E+00  0.000000000000E+00  0.000000000000E+00  0.000000000000E+00
  0.000000000000E+00  0.000000000000E+00  0.000000000000E+00  0.000000000000E+00  0.000000000000E+00  0.000000000000E+00  0.000000000000E+00
  0.000000000000E+00  0.000000000000E+00  0.000000000000E+00  0.000000000000E+00  0.000000000000E+00  0.000000000000E+00  0.000000000000E+00
  0.000000000000E+00  0.000000000000E+00  0.000000000000E+00  0.000000000000E+00  0.000000000000E+00  0.000000000000E+00  0.000000000000E+00
  0.000000000000E+00  0.000000000000E+00  0.000000000000E+00  0.000000000000E+00  0.000000000000E+00
  0.000000000000E+00  0.000000000000E+00  0.000000000000E+00 -0.228788837729E-02  0.000000000000E+00  0.184381645820E-01  0.114380097888E-01
  0.449167556082E-01  0.000000000000E+00  0.866351305950E-01 -0.969152769355E-01 -0.217476289654E-01 -0.302169494629E-01 -0.405212724231E-01
 -0.573269693330E-03  0.169084501390E-02  0.185201007053E-02  0.180747280456E-02  0.153254875619E-01  0.288080206076E-01  0.614169050844E-02
  0.554086689022E-01  0.843998425385E-01  0.111787572999E-01  0.660746996512E-02  0.143361810428E-04  0.269071373946E-02 -0.853002483142E-03
  0.370744686920E-02  0.566466007373E-02  0.102427881238E-02  0.914439224183E-03  0.445289721527E-02
  0.594039570316E+00  0.669257307315E+00  0.668167235080E+00  0.684521980245E+00  0.686769077917E+00  0.679274429318E+00  0.695948544479E+00
  0.702390489217E+00  0.103418575392E+01  0.723546120773E+00  0.672748684884E+00  0.676345763587E+00  0.693934212324E+00  0.719880878187E+00
  0.712448920325E+00  0.724516370552E+00  0.716380705641E+00  0.713137628524E+00  0.706611711800E+00  0.717767028653E+00  0.715686117867E+00
  0.730919626173E+00  0.791196676773E+00  0.724241676007E+00  0.721036593803E+00  0.715447280821E+00  0.741827166254E+00  0.723983486360E+00
  0.719780985915E+00  0.717936816661E+00  0.717572340103E+00  0.717293732329E+00  0.718433945968E+00
  0.000000000000E+00  0.000000000000E+00  0.000000000000E+00  0.382013089849E+00  0.000000000000E+00  0.344443405260E+00  0.583208126417E+00
  0.577850699045E+00  0.000000000000E+00  0.500905377466E+00  0.508863349837E+00  0.437956293600E+00  0.571312016487E+00  0.536611841810E+00
  0.566988865927E+00  0.515199022352E+00  0.508448974286E+00  0.528170878722E+00  0.567226743692E+00  0.532877961191E+00  0.506308300707E+00
  0.520830045912E+00  0.444398059198E+00  0.491159190935E+00  0.492046377965E+00  0.501295394569E+00  0.467606669695E+00  0.488183271243E+00
  0.487321534130E+00  0.491866316513E+00  0.485573767274E+00  0.487391631137E+00  0.495253248230E+00
  0.999993511960E+00  0.999993715260E+00  0.999993570321E+00  0.989101812460E+00  0.999993167142E+00  0.985107190377E+00  0.990351690359E+00
  0.991889897142E+00  0.999992753610E+00  0.984345703676E+00  0.985237591352E+00  0.984144211149E+00  0.990485566108E+00  0.100311978192E+01
  0.100014192603E+01  0.100473362605E+01  0.100085098463E+01  0.100056924511E+01  0.997935259442E+00  0.100333039751E+01  0.100091183526E+01
  0.101090372408E+01  0.104013803636E+01  0.100329785594E+01  0.100262599825E+01  0.100050921738E+01  0.100963123978E+01  0.100400020311E+01
  0.100239870078E+01  0.100026031253E+01  0.100002097883E+01  0.100094280615E+01  0.100206092963E+01
        15         7        19        19
         8        20        19        19
        18        19        21        21
         7         4         8         8
         3         6         4         4
        19         7         8         8
        19        18        15        15
        14        13        15        15
         8        22        20        20
        27        24        22        22
        19        20        21        21
        32        26        21        21
        17        18        26        26
        17        16        15        15
        25        29        21        21
        12         7        13        13
        10         8         6         6
        25        20        24        24
         4         6         8         8
        12         2         4         4
        10        23        22        22
        26        31        17        17
        30        16        17        17
         4         7        12        12
        13        11        12        12
        21        20        25        25
        24        28        25        25
        22         8        10        10
         6         5        10        10
        31        26        32        32
         4         2         3         3
         5         6         3         3
        11        13        14        14
        22        23        27        27
        28        24        27        27
        15        13         7         7
         2        12         1         1
        29        25        33        33
        23        10         9         9
        21        26        18        18
        16        14        15        15
        18        17        15        15
        29        32        21        21
        22        24        20        20
        28        33        25        25
        11         1        12        12
        31        30        17        17
         5         9        10        10
zone t="boundary 3 bc-3", solutiontime= 0.1000000E+02, strandid=1003, i=33, j=48, f=feblock
  0.375000000000E+01  0.250000000000E+01  0.500000000000E+01  0.403552511878E+01  0.288078410721E+01  0.125000000000E+01  0.190974100652E+01
  0.500000000000E+01  0.326683758169E+01  0.423153924130E+01  0.201431602454E+01  0.000000000000E+00  0.963108083381E+00  0.500000000000E+01
  0.267000324704E+01  0.385533350601E+01  0.893127759452E+00  0.154774304040E+01  0.000000000000E+00  0.500000000000E+01  0.315249557942E+01
  0.218329375016E+01  0.398173246726E+01  0.000000000000E+00  0.698517061619E+00  0.964171764089E+00  0.125000000000E+01  0.000000000000E+00
  0.500000000000E+01  0.310324758057E+01  0.250000000000E+01  0.375000000000E+01  0.000000000000E+00
  0.250000000000E+01  0.250000000000E+01  0.250000000000E+01  0.250000000000E+01  0.250000000000E+01  0.250000000000E+01  0.250000000000E+01
  0.250000000000E+01  0.250000000000E+01  0.250000000000E+01  0.250000000000E+01  0.250000000000E+01  0.250000000000E+01  0.250000000000E+01
  0.250000000000E+01  0.250000000000E+01  0.250000000000E+01  0.250000000000E+01  0.250000000000E+01  0.250000000000E+01  0.250000000000E+01
  0.250000000000E+01  0.250000000000E+01  0.250000000000E+01  0.250000000000E+01  0.250000000000E+01  0.250000000000E+01  0.250000000000E+01
  0.250000000000E+01  0.250000000000E+01  0.250000000000E+01  0.250000000000E+01  0.250000000000E+01
  0.000000000000E+00  0.000000000000E+00  0.000000000000E+00  0.101201586758E+01  0.904659890645E+00  0.000000000000E+00  0.717002441913E+00
  0.125000000000E+01  0.188609243358E+01  0.191586535653E+01  0.176246431481E+01  0.000000000000E+00  0.961328577125E+00  0.250000000000E+01
  0.285047954584E+01  0.293121848150E+01  0.205246550326E+01  0.292817774674E+01  0.125000000000E+01  0.375000000000E+01  0.363585050272E+01
  0.395907379566E+01  0.406975391361E+01  0.250000000000E+01  0.306828197606E+01  0.397245519226E+01  0.500000000000E+01  0.375000000000E+01
  0.500000000000E+01  0.433168271247E+01  0.500000000000E+01  0.500000000000E+01  0.500000000000E+01
  0.943813016921E+00  0.947745015470E+00  0.844100341559E+00  0.965891263561E+00  0.980212598605E+00  0.957698593536E+00  0.984137702954E+00
  0.964120586218E+00  0.982837099318E+00  0.984087238299E+00  0.990552518688E+00  0.134396731757E+01  0.101911419035E+01  0.100729591339E+01
  0.993499783343E+00  0.997601354284E+00  0.100791928279E+01  0.100077534077E+01  0.106288698477E+01  0.100618509444E+01  0.100059328575E+01
  0.100249402780E+01  0.100182772403E+01  0.102374923503E+01  0.100882767343E+01  0.100541016825E+01  0.100528537157E+01  0.100815215224E+01
  0.100457473910E+01  0.100186502963E+01  0.100461057577E+01  0.100575088980E+01  0.100300496079E+01
  0.000000000000E+00  0.000000000000E+00  0.000000000000E+00  0.440750769088E+00  0.400715120477E+00  0.000000000000E+00  0.373002209672E+00
  0.495608341456E+00  0.571960835654E+00  0.568804261307E+00  0.558797207830E+00  0.000000000000E+00  0.482762637152E+00  0.533602135073E+00
  0.556443700956E+00  0.564021620376E+00  0.522725131314E+00  0.522942426078E+00  0.446358067227E+00  0.518445515202E+00  0.525241316834E+00
  0.503209791348E+00  0.508926145969E+00  0.472067561401E+00  0.496211883556E+00  0.494406005524E+00  0.486389859486E+00  0.489655821231E+00
  0.493315642206E+00  0.498022702866E+00  0.483719131301E+00  0.484201583758E+00  0.496307069638E+00
  0.000000000000E+00  0.000000000000E+00  0.000000000000E+00  0.000000000000E+00  0.000000000000E+00  0.000000000000E+00  0.000000000000E+00
  0.000000000000E+00  0.000000000000E+00  0.000000000000E+00  0.000000000000E+00  0.000000000000E+00  0.000000000000E+00  0.000000000000E+00
  0.000000000000E+00  0.000000000000E+00  0.000000000000E+00  0.000000000000E+00  0.000000000000E+00  0.000000000000E+00  0.000000000000E+00
  0.000000000000E+00  0.000000000000E+00  0.000000000000E+00  0.000000000000E+00  0.000000000000E+00  0.000000000000E+00  0.000000000000E+00
  0.000000000000E+00  0.000000000000E+00  0.000000000000E+00  0.000000000000E+00  0.000000000000E+00
  0.000000000000E+00  0.000000000000E+00  0.000000000000E+00 -0.224687412576E-01  0.108025267206E-01  0.000000000000E+00  0.177287726113E-01
 -0.979336165438E-01  0.370521812978E-02 -0.377252466646E-01  0.330651339799E-01  0.000000000000E+00  0.645446402063E-01 -0.415866299349E-01
  0.829594119362E-02 -0.598326043821E-02  0.483641654405E-01  0.130710395750E-01  0.455614268754E-01 -0.264513310395E-03 -0.366192147706E-03
  0.204297872027E-02  0.141828236449E-02  0.371205038026E-02  0.101483587126E-01  0.438400677952E-02  0.369773337156E-02  0.875169954593E-03
  0.477775580413E-02  0.687208783321E-03  0.206665646122E-02  0.233642304656E-02  0.449750659156E-02
  0.674144995576E+00  0.676953584104E+00  0.602922584155E+00  0.676677800238E+00  0.691682170391E+00  0.684063493583E+00  0.690393651980E+00
  0.677702085975E+00  0.695241050040E+00  0.696246156066E+00  0.703454712681E+00  0.959967377659E+00  0.719437200237E+00  0.722256211421E+00
  0.709528002662E+00  0.713538332435E+00  0.725990770682E+00  0.716689767802E+00  0.781903701851E+00  0.721786907161E+00  0.716089060967E+00
  0.716741580342E+00  0.716386869153E+00  0.737246514457E+00  0.722653756106E+00  0.719586322652E+00  0.719926707692E+00  0.722624996343E+00
  0.717630079081E+00  0.715881491551E+00  0.718220929656E+00  0.718281546045E+00  0.718031635549E+00
  0.000000000000E+00  0.000000000000E+00  0.000000000000E+00  0.445621158912E+00  0.403307514932E+00  0.000000000000E+00  0.376805236966E+00
  0.509258666178E+00  0.574757244558E+00  0.572779307633E+00  0.561396713276E+00  0.000000000000E+00  0.489927590842E+00  0.534196932055E+00
  0.556550518549E+00  0.563671438741E+00  0.522766408916E+00  0.522430083962E+00  0.442116824339E+00  0.517337071601E+00  0.524735252370E+00
  0.502977133302E+00  0.508645429358E+00  0.470158181790E+00  0.495606862845E+00  0.493931790635E+00  0.485773235555E+00  0.488803321663E+00
  0.493312415350E+00  0.497931473556E+00  0.483507321356E+00  0.484244951927E+00  0.495774318015E+00
  0.999989380190E+00  0.999989451040E+00  0.999989665041E+00  0.980802866816E+00  0.987903073196E+00  0.999989868921E+00  0.982129949773E+00
  0.984091548223E+00  0.990334482420E+00  0.990506309357E+00  0.994229562969E+00  0.999990335442E+00  0.988321122273E+00  0.100383480421E+01
  0.999838369752E+00  0.100135556264E+01  0.100840126418E+01  0.100258832732E+01  0.102989800259E+01  0.100429004128E+01  0.100193025441E+01
  0.100094183571E+01  0.100111186061E+01  0.100820111501E+01  0.100286231751E+01  0.100199986386E+01  0.100259828629E+01  0.100349435612E+01
  0.100010688266E+01  0.100036837151E+01  0.100089460112E+01  0.999844170816E+00  0.100223262004E+01
        15         9        16        16
        15        18        11        11
        22        15        21        21
        11         5         9         9
         5         7         2         2
        11         9        15        15
        16        21        15        15
        16        10        14        14
        18        17        11        11
        17        25        24        24
        22        18        15        15
        22        30        31        31
        30        21        23        23
        16        20        23        23
        22        27        26        26
        10         9         4         4
         7        11        13        13
        25        18        26        26
        11         7         5         5
         5         1         4         4
        17        19        13        13
        23        32        30        30
        23        20        29        29
         4         9         5         5
         4         8        10        10
        26        18        22        22
        26        28        25        25
        13        11        17        17
        13         6         7         7
        31        30        32        32
         2         1         5         5
         2         7         6         6
        14        10         8         8
        24        19        17        17
        24        25        28        28
         9        10        16        16
         3         4         1         1
        33        26        27        27
        12        13        19        19
        21        30        22        22
        16        14        20        20
        16        23        21        21
        22        31        27        27
        18        25        17        17
        26        33        28        28
         4         3         8         8
        23        29        32        32
        13        12         6         6
zone t="boundary 4 bc-4", solutiontime= 0.1000000E+02, strandid=1004, i=32, j=46, f=feblock
  0.125000000000E+01  0.219251206392E+01  0.103724302461E+01  0.500000000000E+01  0.250000000000E+01  0.375000000000E+01  0.404200324774E+01
  0.500000000000E+01  0.000000000000E+00  0.310152362409E+01  0.202479342020E+01  0.324151231464E+01  0.922061490191E+00  0.000000000000E+00
  0.299062775774E+01  0.394624082883E+01  0.500000000000E+01  0.409252726285E+01  0.500000000000E+01  0.429310310915E+01  0.175434191980E+01
  0.284428995242E+01  0.000000000000E+00  0.000000000000E+00  0.715990576545E+00  0.930412228790E+00  0.125000000000E+01  0.187029682677E+01
  0.500000000000E+01  0.375000000000E+01  0.250000000000E+01  0.000000000000E+00
  0.250000000000E+01  0.157686156160E+01  0.146289271009E+01  0.250000000000E+01  0.250000000000E+01  0.250000000000E+01  0.155830813274E+01
  0.125000000000E+01  0.250000000000E+01  0.177790177481E+01  0.477386199275E+00  0.742988685424E+00  0.308372018325E+00  0.125000000000E+01
 -0.487811078581E+00 -0.144524380962E+01 -0.125000000000E+01 -0.345533899378E+00  0.000000000000E+00  0.627766083140E+00 -0.739814786992E+00
 -0.158811787973E+01  0.000000000000E+00 -0.125000000000E+01 -0.600232012419E+00 -0.154800130438E+01 -0.250000000000E+01 -0.178862290564E+01
 -0.250000000000E+01 -0.250000000000E+01 -0.250000000000E+01 -0.250000000000E+01
  0.500000000000E+01  0.500000000000E+01  0.500000000000E+01  0.500000000000E+01  0.500000000000E+01  0.500000000000E+01  0.500000000000E+01
  0.500000000000E+01  0.500000000000E+01  0.500000000000E+01  0.500000000000E+01  0.500000000000E+01  0.500000000000E+01  0.500000000000E+01
  0.500000000000E+01  0.500000000000E+01  0.500000000000E+01  0.500000000000E+01  0.500000000000E+01  0.500000000000E+01  0.500000000000E+01
  0.500000000000E+01  0.500000000000E+01  0.500000000000E+01  0.500000000000E+01  0.500000000000E+01  0.500000000000E+01  0.500000000000E+01
  0.500000000000E+01  0.500000000000E+01  0.500000000000E+01  0.500000000000E+01
  0.100528537157E+01  0.100481218615E+01  0.100454680166E+01  0.100457473910E+01  0.100461057577E+01  0.100575088980E+01  0.100519576358E+01
  0.100477803826E+01  0.100300496079E+01  0.100530947914E+01  0.100474169906E+01  0.100468593230E+01  0.100353651633E+01  0.100388298701E+01
  0.100466944364E+01  0.100338535611E+01  0.100511410606E+01  0.100451869266E+01  0.100476696217E+01  0.100579073139E+01  0.100440704599E+01
  0.100395531266E+01  0.100321557262E+01  0.100342440977E+01  0.100313602818E+01  0.100406100344E+01  0.100528200955E+01  0.100421808814E+01
  0.100484996829E+01  0.100458020123E+01  0.100326534053E+01  0.100373888914E+01
  0.486389859486E+00  0.486751773168E+00  0.489155231692E+00  0.493315642206E+00  0.483719131301E+00  0.484201583758E+00  0.486441470704E+00
  0.494609053765E+00  0.496307069638E+00  0.484751821453E+00  0.486075548447E+00  0.486485075944E+00  0.493032895824E+00  0.497491889293E+00
  0.486350125355E+00  0.485260481520E+00  0.493790674968E+00  0.488634203665E+00  0.495404174231E+00  0.489162958048E+00  0.487289101642E+00
  0.486490888781E+00  0.498115705261E+00  0.496792624129E+00  0.494574238171E+00  0.491697910586E+00  0.487891567244E+00  0.487578130511E+00
  0.491897715994E+00  0.485577780325E+00  0.487620477495E+00  0.495743328458E+00
  0.000000000000E+00  0.267131856162E-03 -0.143225362815E-02  0.000000000000E+00  0.000000000000E+00  0.000000000000E+00  0.771211486296E-03
  0.111096320797E-02  0.000000000000E+00  0.657690858540E-03 -0.411951560521E-03  0.157211713630E-03 -0.200969714032E-02 -0.433681175303E-03
 -0.403859270337E-03 -0.182858809152E-03 -0.225450616574E-03 -0.636452749209E-03  0.890950350269E-04  0.284668134017E-06 -0.581043727818E-03
 -0.128000179607E-03 -0.412321626830E-03  0.823834516285E-03 -0.198012412675E-03  0.144687454187E-02  0.000000000000E+00  0.818684066610E-03
  0.000000000000E+00  0.000000000000E+00  0.000000000000E+00  0.000000000000E+00