title="tecplot geometry and solution file"
variables = x y z rho u v w p mach temperature
zone t="boundary 1 bc-1", solutiontime= 0.6000000E+02, strandid=1001, i=32, j=46, f=feblock
  0.000000000000E+00  0.000000000000E+00  0.000000000000E+00  0.000000000000E+00  0.000000000000E+00  0.000000000000E+00  0.000000000000E+00
  0.000000000000E+00  0.000000000000E+00  0.000000000000E+00  0.000000000000E+00  0.000000000000E+00  0.000000000000E+00  0.000000000000E+00
  0.000000000000E+00  0.000000000000E+00  0.000000000000E+00  0.000000000000E+00  0.000000000000E+00  0.000000000000E+00  0.000000000000E+00
  0.000000000000E+00  0.000000000000E+00  0.000000000000E+00  0.000000000000E+00  0.000000000000E+00  0.000000000000E+00  0.000000000000E+00
  0.000000000000E+00  0.000000000000E+00  0.000000000000E+00  0.000000000000E+00
  0.250000000000E+01  0.250000000000E+01  0.125000000000E+01  0.146289271009E+01  0.157686156160E+01  0.308372018325E+00  0.000000000000E+00
 -0.125000000000E+01 -0.600232012419E+00  0.250000000000E+01  0.477386199275E+00  0.742988685424E+00 -0.739814786992E+00  0.177790177481E+01
  0.155830813274E+01  0.250000000000E+01 -0.250000000000E+01 -0.154800130438E+01 -0.487811078581E+00  0.250000000000E+01  0.627766083140E+00
 -0.345533899378E+00 -0.178862290564E+01 -0.158811787973E+01  0.125000000000E+01 -0.250000000000E+01 -0.144524380962E+01  0.000000000000E+00
 -0.125000000000E+01 -0.250000000000E+01 -0.250000000000E+01 -0.250000000000E+01
  0.000000000000E+00  0.125000000000E+01  0.000000000000E+00  0.103724302461E+01  0.219251206392E+01  0.922061490191E+00  0.000000000000E+00
  0.000000000000E+00  0.715990576545E+00  0.250000000000E+01  0.202479342020E+01  0.324151231464E+01  0.175434191980E+01  0.310152362409E+01
  0.404200324774E+01  0.375000000000E+01  0.000000000000E+00  0.930412228790E+00  0.299062775774E+01  0.500000000000E+01  0.429310310915E+01
  0.409252726285E+01  0.187029682677E+01  0.284428995242E+01  0.500000000000E+01  0.125000000000E+01  0.394624082883E+01  0.500000000000E+01
  0.500000000000E+01  0.250000000000E+01  0.375000000000E+01  0.500000000000E+01
  0.134427281152E+01  0.106355515665E+01  0.142583439682E+01  0.108609142662E+01  0.103229085734E+01  0.120095672671E+01  0.164467010341E+01
  0.149409288148E+01  0.123520893249E+01  0.102389345192E+01  0.102809501558E+01  0.101301839387E+01  0.103253150994E+01  0.101471954109E+01
  0.100663936633E+01  0.100830884906E+01  0.144945894630E+01  0.116393846830E+01  0.101462846304E+01  0.100426051917E+01  0.100679860414E+01
  0.100724595146E+01  0.104668012084E+01  0.101938421617E+01  0.100424810894E+01  0.106442597127E+01  0.100789379328E+01  0.100288872489E+01
  0.100334576347E+01  0.102847370779E+01  0.100958722575E+01  0.100399309572E+01
  0.000000000000E+00  0.445481591610E+00  0.000000000000E+00  0.468734679037E+00  0.462184230931E+00  0.443610944619E+00  0.000000000000E+00
  0.000000000000E+00  0.379268677789E+00  0.471739202257E+00  0.466577317711E+00  0.479355351519E+00  0.490159518055E+00  0.484514131294E+00
  0.488523933743E+00  0.489829290312E+00  0.000000000000E+00  0.450650439976E+00  0.474814738675E+00  0.495784305790E+00  0.490898776428E+00
  0.486834862796E+00  0.448671684634E+00  0.465808627997E+00  0.496536139658E+00  0.444685308276E+00  0.487700581624E+00  0.497533663765E+00
  0.496383682541E+00  0.470003478548E+00  0.489199397639E+00  0.495521351500E+00
  0.000000000000E+00  0.000000000000E+00  0.000000000000E+00  0.186080898372E-01 -0.276629060837E-02  0.332950203612E-01  0.000000000000E+00
  0.000000000000E+00 -0.594681329182E-02  0.000000000000E+00  0.356676718920E-02 -0.566598106085E-02 -0.416020875764E-02  0.305694313010E-04
 -0.106158769442E-02  0.000000000000E+00  0.000000000000E+00 -0.764122153172E-02  0.359919757964E-03  0.000000000000E+00 -0.203497822984E-02
 -0.138299722863E-02  0.156544327829E-02 -0.158535647715E-02 -0.639644698146E-04  0.000000000000E+00 -0.282707781490E-04 -0.196434305678E-03
  0.807170559090E-03  0.000000000000E+00  0.000000000000E+00  0.000000000000E+00
  0.000000000000E+00  0.452218740507E-01  0.000000000000E+00  0.123933411316E+00  0.247673624843E-01  0.165645091767E+00  0.000000000000E+00
  0.000000000000E+00  0.155764251357E+00  0.351982734120E-02  0.259815034077E-01 -0.651122740892E-02  0.749024787994E-01  0.371888157346E-02
 -0.149079497239E-03  0.459027127590E-03  0.000000000000E+00  0.140955000707E+00 -0.808395481325E-02  0.237203149174E-02 -0.304127216779E-03
 -0.438166876433E-02  0.255055942387E-01 -0.194761101054E-02  0.308400497499E-02  0.837488523919E-01 -0.121869432356E-02  0.268542296280E-02
  0.264054747011E-02  0.279530048318E-02 -0.834448951777E-03  0.345023036074E-02
  0.960185585510E+00  0.782341532370E+00  0.101844376799E+01  0.808728070805E+00  0.746126320566E+00  0.879448609576E+00  0.117475431986E+01
  0.106720087931E+01  0.916623176486E+00  0.737395650863E+00  0.743554366295E+00  0.725759458538E+00  0.757456624335E+00  0.729188789867E+00
  0.720785421903E+00  0.722782116283E+00  0.103532031639E+01  0.858318918483E+00  0.728065216042E+00  0.718615496506E+00  0.721013842275E+00
  0.721151942732E+00  0.760018593512E+00  0.732628729399E+00  0.718531378033E+00  0.791044791618E+00  0.722108339576E+00  0.717199745071E+00
  0.717637247505E+00  0.741799800166E+00  0.724056989774E+00  0.718401008718E+00
  0.000000000000E+00  0.441238864706E+00  0.000000000000E+00  0.475212333426E+00  0.460125600038E+00  0.468825459906E+00  0.000000000000E+00
  0.000000000000E+00  0.402299647304E+00  0.469815278541E+00  0.464413480254E+00  0.478714152966E+00  0.489298547793E+00  0.483067971658E+00
  0.487929224832E+00  0.488960767301E+00  0.000000000000E+00  0.464773408840E+00  0.473796242666E+00  0.495345969078E+00  0.490265403763E+00
  0.486285557288E+00  0.445720648661E+00  0.464383522983E+00  0.496127006184E+00  0.443623519393E+00  0.486963956580E+00  0.497245800648E+00
  0.496058644715E+00  0.467732961393E+00  0.488211579384E+00  0.495097551272E+00
  0.999990335442E+00  0.102982730935E+01  0.999990797222E+00  0.104247144520E+01  0.101190167613E+01  0.102520600953E+01  0.999991453848E+00
  0.999992202332E+00  0.103891124272E+01  0.100826302705E+01  0.101252909219E+01  0.100300571845E+01  0.102702848664E+01  0.100605562865E+01
  0.100244399774E+01  0.100355656280E+01  0.999992753610E+00  0.103239691668E+01  0.100459561267E+01  0.100179353455E+01  0.100260307775E+01
  0.100234974225E+01  0.101657231253E+01  0.100617628259E+01  0.100168864675E+01  0.104043187423E+01  0.100303393289E+01  0.100118748788E+01
  0.100134189338E+01  0.100976788455E+01  0.100405369623E+01  0.100176128351E+01
        12        19        11        11
        11         5        12        12
        10        14         5         5
        19        13        11        11
        19        24        13        13
        30        23        24        24
        19        12        22        22
        28        22        21        21
        11        13         6         6
         7         6         9         9
        15        12        14        14
        18        13        23        23
        15        25        21        21
        27        19        22        22
        18         8         9         9
        27        31        24        24
         4        11         6         6
         5        14        12        12
         4         2         5         5
        21        12        15        15
        14        16        15        15
        24        19        27        27
        22        29        27        27
        23        26        18        18
        17         8        18        18
         5        11         4         4
         6         3         4         4
        26        23        30        30
         5         2        10        10
        16        14        10        10
         3         6         7         7
        21        25        28        28
        29        22        28        28
         6        13         9         9
         2         4         1         1
        31        27        32        32
        25        15        20        20
        24        23        13        13
         8         7         9         9
        13        18         9         9
        31        30        24        24
        12        21        22        22
        29        32        27        27
         3         1         4         4
        26        17        18        18
        16        20        15        15
zone t="boundary 2 bc-2", solutiontime= 0.6000000E+02, strandid=1002, i=33, j=48, f=feblock
  0.500000000000E+01  0.375000000000E+01  0.250000000000E+01  0.288078410721E+01  0.125000000000E+01  0.190974100652E+01  0.326683758169E+01
  0.201431602454E+01  0.000000000000E+00  0.963108083381E+00  0.500000000000E+01  0.403552511878E+01  0.423153924130E+01  0.500000000000E+01
  0.385533350601E+01  0.500000000000E+01  0.398173246726E+01  0.315249557942E+01  0.267000324704E+01  0.154774304040E+01  0.218329375016E+01
  0.893127759452E+00  0.000000000000E+00  0.698517061619E+00  0.964171764089E+00  0.310324758057E+01  0.000000000000E+00  0.000000000000E+00
  0.125000000000E+01  0.500000000000E+01  0.375000000000E+01  0.250000000000E+01  0.000000000000E+00
 -0.250000000000E+01 -0.250000000000E+01 -0.250000000000E+01 -0.250000000000E+01 -0.250000000000E+01 -0.250000000000E+01 -0.250000000000E+01
 -0.250000000000E+01 -0.250000000000E+01 -0.250000000000E+01 -0.250000000000E+01 -0.250000000000E+01 -0.250000000000E+01 -0.250000000000E+01
 -0.250000000000E+01 -0.250000000000E+01 -0.250000000000E+01 -0.250000000000E+01 -0.250000000000E+01 -0.250000000000E+01 -0.250000000000E+01
 -0.250000000000E+01 -0.250000000000E+01 -0.250000000000E+01 -0.250000000000E+01 -0.250000000000E+01 -0.250000000000E+01 -0.250000000000E+01
 -0.250000000000E+01 -0.250000000000E+01 -0.250000000000E+01 -0.250000000000E+01 -0.250000000000E+01
  0.000000000000E+00  0.000000000000E+00  0.000000000000E+00  0.904659890645E+00  0.000000000000E+00  0.717002441913E+00  0.188609243358E+01
  0.176246431481E+01  0.000000000000E+00  0.961328577125E+00  0.125000000000E+01  0.101201586758E+01  0.191586535653E+01  0.250000000000E+01
  0.293121848150E+01  0.375000000000E+01  0.406975391361E+01  0.363585050272E+01  0.285047954584E+01  0.292817774674E+01  0.395907379566E+01
  0.205246550326E+01  0.125000000000E+01  0.306828197606E+01  0.397245519226E+01  0.433168271247E+01  0.250000000000E+01  0.375000000000E+01
  0.500000000000E+01  0.500000000000E+01  0.500000000000E+01  0.500000000000E+01  0.500000000000E+01
  0.830786799085E+00  0.935297076406E+00  0.934222274693E+00  0.968087424071E+00  0.961720429268E+00  0.964848118733E+00  0.984135912364E+00
  0.991412632821E+00  0.144945894630E+01  0.102921756434E+01  0.955877208253E+00  0.960692471990E+00  0.981487203716E+00  0.100642794013E+01
  0.997911692634E+00  0.100977848284E+01  0.100199453442E+01  0.998062872238E+00  0.991085663914E+00  0.100132757060E+01  0.100094584384E+01
  0.101224734582E+01  0.106442597127E+01  0.101082194179E+01  0.100685280024E+01  0.100118396154E+01  0.102847370779E+01  0.100958722575E+01
  0.100510201552E+01  0.100179495532E+01  0.100266315150E+01  0.100321173373E+01  0.100399309572E+01
  0.000000000000E+00  0.000000000000E+00  0.000000000000E+00  0.378986721503E+00  0.000000000000E+00  0.340639493573E+00  0.582176561815E+00
  0.575193777952E+00  0.000000000000E+00  0.489447231662E+00  0.494740757021E+00  0.431507079164E+00  0.568959431051E+00  0.536179198248E+00
  0.568878737567E+00  0.516236443056E+00  0.508557869666E+00  0.527400691142E+00  0.566648002879E+00  0.531829580311E+00  0.506097834395E+00
  0.520701736664E+00  0.444685308276E+00  0.491340595950E+00  0.492735182044E+00  0.501506404410E+00  0.470003478548E+00  0.489199397639E+00
  0.490457842469E+00  0.491429124228E+00  0.486220972235E+00  0.490305624227E+00  0.495521351500E+00
  0.000000000000E+00  0.000000000000E+00  0.000000000000E+00  0.000000000000E+00  0.000000000000E+00  0.000000000000E+00  0.000000000000E+00
  0.000000000000E+00  0.000000000000E+00  0.000000000000E+00  0.000000000000E+00  0.000000000000E+00  0.000000000000E+00  0.000000000000E+00
  0.000000000000E+00  0.000000000000E+00  0.000000000000E+00  0.000000000000E+00  0.000000000000E+00  0.000000000000E+00  0.000000000000E+00
  0.000000000000E+00  0.000000000000E+00  0.000000000000E+00  0.000000000000E+00  0.000000000000E+00  0.000000000000E+00  0.000000000000E+00
  0.000000000000E+00  0.000000000000E+00  0.000000000000E+00  0.000000000000E+00  0.000000000000E+00
  0.000000000000E+00  0.000000000000E+00  0.000000000000E+00 -0.229668653091E-02  0.000000000000E+00  0.183564256494E-01  0.121119076298E-01
  0.454984071027E-01  0.000000000000E+00  0.870784190220E-01 -0.995420970404E-01 -0.211864889345E-01 -0.306440578087E-01 -0.414443950961E-01
 -0.137851465445E-02  0.259878130927E-02  0.609991676368E-03  0.504744880694E-03  0.150975656815E-01  0.284040000903E-01  0.564260578462E-02
  0.553436614637E-01  0.837488523919E-01  0.110456252000E-01  0.679237201490E-02 -0.757362952268E-03  0.279530048318E-02 -0.834448951777E-03
  0.400702498220E-02  0.602766052678E-02 -0.143853438515E-03  0.120119642450E-02  0.345023036074E-02
  0.593415292077E+00  0.668065141648E+00  0.667297334246E+00  0.684257399817E+00  0.686938469978E+00  0.679201276118E+00  0.695811392567E+00
  0.702343802782E+00  0.103532031639E+01  0.723695200836E+00  0.672590441160E+00  0.675702454352E+00  0.694092611782E+00  0.720958736517E+00
  0.712690840870E+00  0.724770664737E+00  0.716580487010E+00  0.713298706374E+00  0.706429403673E+00  0.717737468326E+00  0.715376631356E+00
  0.730938401713E+00  0.791044791618E+00  0.724373350447E+00  0.721010944523E+00  0.715457512993E+00  0.741799800166E+00  0.724056989774E+00
  0.719313184776E+00  0.715893191169E+00  0.716608885212E+00  0.717367963053E+00  0.718401008718E+00
  0.000000000000E+00  0.000000000000E+00  0.000000000000E+00  0.380991677068E+00  0.000000000000E+00  0.343629846332E+00  0.585283712631E+00
  0.579371274930E+00  0.000000000000E+00  0.501053781691E+00  0.508459764165E+00  0.435372705235E+00  0.572637650779E+00  0.537001621764E+00
  0.568921604273E+00  0.514994863509E+00  0.508249384206E+00  0.527254272384E+00  0.567446148297E+00  0.531657889982E+00  0.505982349931E+00
  0.520795557926E+00  0.443623519393E+00  0.490664279057E+00  0.492156105731E+00  0.501392667588E+00  0.467732961393E+00  0.488211579384E+00
  0.490002415316E+00  0.491354393415E+00  0.486078174932E+00  0.490037677873E+00  0.495097551272E+00
  0.999993511960E+00  0.999993715260E+00  0.999993570321E+00  0.989539101454E+00  0.999993167142E+00  0.985524838681E+00  0.989838839693E+00
  0.991798259719E+00  0.999992753610E+00  0.984411184058E+00  0.985091609564E+00  0.984689131718E+00  0.990058406075E+00  0.100289567776E+01
  0.999855182159E+00  0.100485299289E+01  0.100121572259E+01  0.100055639449E+01  0.997896752170E+00  0.100350023825E+01  0.100058089063E+01
  0.101093252219E+01  0.104043187423E+01  0.100326541075E+01  0.100254508116E+01  0.100045601675E+01  0.100976788455E+01  0.100405369623E+01
  0.100192661355E+01  0.100045469616E+01  0.100058772260E+01  0.100109988202E+01  0.100176128351E+01
        15         7        19        19
         8        20        19        19
        18        19        21        21
         7         4         8         8
         3         6         4         4
        19         7         8         8
        19        18        15        15
        14        13        15        15
         8        22        20        20
        27        24        22        22
        19        20        21        21
        32        26        21        21
        17        18        26        26
        17        16        15        15
        25        29        21        21
        12         7        13        13
        10         8         6         6
        25        20        24        24
         4         6         8         8
        12         2         4         4
        10        23        22        22
        26        31        17        17
        30        16        17        17
         4         7        12        12
        13        11        12        12
        21        20        25        25
        24        28        25        25
        22         8        10        10
         6         5        10        10
        31        26        32        32
         4         2         3         3
         5         6         3         3
        11        13        14        14
        22        23        27        27
        28        24        27        27
        15        13         7         7
         2        12         1         1
        29        25        33        33
        23        10         9         9
        21        26        18        18
        16        14        15        15
        18        17        15        15
        29        32        21        21
        22        24        20        20
        28        33        25        25
        11         1        12        12
        31        30        17        17
         5         9        10        10
zone t="boundary 3 bc-3", solutiontime= 0.6000000E+02, strandid=1003, i=33, j=48, f=feblock
  0.375000000000E+01  0.250000000000E+01  0.500000000000E+01  0.403552511878E+01  0.288078410721E+01  0.125000000000E+01  0.190974100652E+01
  0.500000000000E+01  0.326683758169E+01  0.423153924130E+01  0.201431602454E+01  0.000000000000E+00  0.963108083381E+00  0.500000000000E+01
  0.267000324704E+01  0.385533350601E+01  0.893127759452E+00  0.154774304040E+01  0.000000000000E+00  0.500000000000E+01  0.315249557942E+01
  0.218329375016E+01  0.398173246726E+01  0.000000000000E+00  0.698517061619E+00  0.964171764089E+00  0.125000000000E+01  0.000000000000E+00
  0.500000000000E+01  0.310324758057E+01  0.250000000000E+01  0.375000000000E+01  0.000000000000E+00
  0.250000000000E+01  0.250000000000E+01  0.250000000000E+01  0.250000000000E+01  0.250000000000E+01  0.250000000000E+01  0.250000000000E+01
  0.250000000000E+01  0.250000000000E+01  0.250000000000E+01  0.250000000000E+01  0.250000000000E+01  0.250000000000E+01  0.250000000000E+01
  0.250000000000E+01  0.250000000000E+01  0.250000000000E+01  0.250000000000E+01  0.250000000000E+01  0.250000000000E+01  0.250000000000E+01
  0.250000000000E+01  0.250000000000E+01  0.250000000000E+01  0.250000000000E+01  0.250000000000E+01  0.250000000000E+01  0.250000000000E+01
  0.250000000000E+01  0.250000000000E+01  0.250000000000E+01  0.250000000000E+01  0.250000000000E+01
  0.000000000000E+00  0.000000000000E+00  0.000000000000E+00  0.101201586758E+01  0.904659890645E+00  0.000000000000E+00  0.717002441913E+00
  0.125000000000E+01  0.188609243358E+01  0.191586535653E+01  0.176246431481E+01  0.000000000000E+00  0.961328577125E+00  0.250000000000E+01
  0.285047954584E+01  0.293121848150E+01  0.205246550326E+01  0.292817774674E+01  0.125000000000E+01  0.375000000000E+01  0.363585050272E+01
  0.395907379566E+01  0.406975391361E+01  0.250000000000E+01  0.306828197606E+01  0.397245519226E+01  0.500000000000E+01  0.375000000000E+01
  0.500000000000E+01  0.433168271247E+01  0.500000000000E+01  0.500000000000E+01  0.500000000000E+01
  0.941861308099E+00  0.946296674076E+00  0.843729962222E+00  0.964330602738E+00  0.978820685585E+00  0.956977247083E+00  0.983331108237E+00
  0.963499053276E+00  0.982689190936E+00  0.984243335621E+00  0.990264138003E+00  0.134427281152E+01  0.101918340876E+01  0.100829834749E+01
  0.993456086458E+00  0.997998487998E+00  0.100807890702E+01  0.100072119542E+01  0.106355515665E+01  0.100673538945E+01  0.100058326535E+01
  0.100234964506E+01  0.100178056133E+01  0.102389345192E+01  0.100874249199E+01  0.100528395632E+01  0.100522891826E+01  0.100830884906E+01
  0.100196488472E+01  0.100161988467E+01  0.100413211147E+01  0.100321955633E+01  0.100426051917E+01
  0.000000000000E+00  0.000000000000E+00  0.000000000000E+00  0.439071553636E+00  0.399865929666E+00  0.000000000000E+00  0.373793803321E+00
  0.495017263890E+00  0.573054334331E+00  0.569602801167E+00  0.559930980986E+00  0.000000000000E+00  0.483388376839E+00  0.533821487474E+00
  0.556458885434E+00  0.564687675220E+00  0.522615378911E+00  0.522534066429E+00  0.445481591610E+00  0.518327443487E+00  0.524752345159E+00
  0.503889419215E+00  0.509841538959E+00  0.471739202257E+00  0.496245988437E+00  0.494940445448E+00  0.489076064827E+00  0.489829290312E+00
  0.493066969500E+00  0.499148548788E+00  0.486767992435E+00  0.484760784732E+00  0.495784305790E+00
  0.000000000000E+00  0.000000000000E+00  0.000000000000E+00  0.000000000000E+00  0.000000000000E+00  0.000000000000E+00  0.000000000000E+00
  0.000000000000E+00  0.000000000000E+00  0.000000000000E+00  0.000000000000E+00  0.000000000000E+00  0.000000000000E+00  0.000000000000E+00
  0.000000000000E+00  0.000000000000E+00  0.000000000000E+00  0.000000000000E+00  0.000000000000E+00  0.000000000000E+00  0.000000000000E+00
  0.000000000000E+00  0.000000000000E+00  0.000000000000E+00  0.000000000000E+00  0.000000000000E+00  0.000000000000E+00  0.000000000000E+00
  0.000000000000E+00  0.000000000000E+00  0.000000000000E+00  0.000000000000E+00  0.000000000000E+00
  0.000000000000E+00  0.000000000000E+00  0.000000000000E+00 -0.226115482321E-01  0.111961881941E-01  0.000000000000E+00  0.179816118826E-01
 -0.100760653161E+00  0.390395363837E-02 -0.389322934142E-01  0.340376080392E-01  0.000000000000E+00  0.652288377501E-01 -0.424929523640E-01
  0.843970478809E-02 -0.650958939461E-02  0.490063828361E-01  0.135887496282E-01  0.452218740507E-01  0.736815050970E-03 -0.700177868252E-03
  0.243831226518E-02  0.869300892252E-03  0.351982734120E-02  0.103956431359E-01  0.431718798511E-02  0.337500907371E-02  0.459027127590E-03
  0.572624269892E-02  0.341760313832E-03  0.160973171531E-02  0.570016231501E-03  0.237203149174E-02
  0.672750932651E+00  0.675919065450E+00  0.602658030219E+00  0.676093439450E+00  0.691308860333E+00  0.683548251336E+00  0.690066298528E+00
  0.677273839568E+00  0.695201601160E+00  0.696250309794E+00  0.703344028507E+00  0.960185585510E+00  0.719726726872E+00  0.722865650213E+00
  0.709447599305E+00  0.713700514108E+00  0.726067907791E+00  0.716603028214E+00  0.782341532370E+00  0.722284500896E+00  0.716128360058E+00
  0.716551640396E+00  0.716546504852E+00  0.737395650863E+00  0.722683430065E+00  0.719441506729E+00  0.719566307270E+00  0.722782116283E+00
  0.716030644951E+00  0.715847787933E+00  0.718146784055E+00  0.717062472958E+00  0.718615496506E+00
  0.000000000000E+00  0.000000000000E+00  0.000000000000E+00  0.443768049955E+00  0.402287063359E+00  0.000000000000E+00  0.377550015538E+00
  0.509231650690E+00  0.575830373821E+00  0.573705119862E+00  0.562552484913E+00  0.000000000000E+00  0.490560996919E+00  0.534526640506E+00
  0.556587161507E+00  0.564391003871E+00  0.522730520207E+00  0.522053035051E+00  0.441238864706E+00  0.517182885146E+00  0.524230081324E+00
  0.503688666590E+00  0.509490322265E+00  0.469815278541E+00  0.495614921012E+00  0.494483812142E+00  0.488562139411E+00  0.488960767301E+00
  0.492982637040E+00  0.499007441362E+00  0.486462299201E+00  0.484599832542E+00  0.495345969078E+00
  0.999989380190E+00  0.999989451040E+00  0.999989665041E+00  0.981541820350E+00  0.988773959031E+00  0.999989868921E+00  0.982469495621E+00
  0.984104106974E+00  0.990427340202E+00  0.990355127065E+00  0.994362617124E+00  0.999990335442E+00  0.988651707789E+00  0.100368299999E+01
  0.999769041194E+00  0.100118460275E+01  0.100834871539E+01  0.100252122578E+01  0.102982730935E+01  0.100443305346E+01  0.100199527496E+01
  0.100082072308E+01  0.100138208457E+01  0.100826302705E+01  0.100298818591E+01  0.100192398684E+01  0.100215265586E+01  0.100355656280E+01
  0.100047708080E+01  0.100056610141E+01  0.100126814609E+01  0.100066576235E+01  0.100179353455E+01
        15         9        16        16
        15        18        11        11
        22        15        21        21
        11         5         9         9
         5         7         2         2
        11         9        15        15
        16        21        15        15
        16        10        14        14
        18        17        11        11
        17        25        24        24
        22        18        15        15
        22        30        31        31
        30        21        23        23
        16        20        23        23
        22        27        26        26
        10         9         4         4
         7        11        13        13
        25        18        26        26
        11         7         5         5
         5         1         4         4
        17        19        13        13
        23        32        30        30
        23        20        29        29
         4         9         5         5
         4         8        10        10
        26        18        22        22
        26        28        25        25
        13        11        17        17
        13         6         7         7
        31        30        32        32
         2         1         5         5
         2         7         6         6
        14        10         8         8
        24        19        17        17
        24        25        28        28
         9        10        16        16
         3         4         1         1
        33        26        27        27
        12        13        19        19
        21        30        22        22
        16        14        20        20
        16        23        21        21
        22        31        27        27
        18        25        17        17
        26        33        28        28
         4         3         8         8
        23        29        32        32
        13        12         6         6
zone t="boundary 4 bc-4", solutiontime= 0.6000000E+02, strandid=1004, i=32, j=46, f=feblock
  0.125000000000E+01  0.219251206392E+01  0.103724302461E+01  0.500000000000E+01  0.250000000000E+01  0.375000000000E+01  0.404200324774E+01
  0.500000000000E+01  0.000000000000E+00  0.310152362409E+01  0.202479342020E+01  0.324151231464E+01  0.922061490191E+00  0.000000000000E+00
  0.299062775774E+01  0.394624082883E+01  0.500000000000E+01  0.409252726285E+01  0.500000000000E+01  0.429310310915E+01  0.175434191980E+01
  0.284428995242E+01  0.000000000000E+00  0.000000000000E+00  0.715990576545E+00  0.930412228790E+00  0.125000000000E+01  0.187029682677E+01
  0.500000000000E+01  0.375000000000E+01  0.250000000000E+01  0.000000000000E+00
  0.250000000000E+01  0.157686156160E+01  0.146289271009E+01  0.250000000000E+01  0.250000000000E+01  0.250000000000E+01  0.155830813274E+01
  0.125000000000E+01  0.250000000000E+01  0.177790177481E+01  0.477386199275E+00  0.742988685424E+00  0.308372018325E+00  0.125000000000E+01
 -0.487811078581E+00 -0.144524380962E+01 -0.125000000000E+01 -0.345533899378E+00  0.000000000000E+00  0.627766083140E+00 -0.739814786992E+00
 -0.158811787973E+01  0.000000000000E+00 -0.125000000000E+01 -0.600232012419E+00 -0.154800130438E+01 -0.250000000000E+01 -0.178862290564E+01
 -0.250000000000E+01 -0.250000000000E+01 -0.250000000000E+01 -0.250000000000E+01
  0.500000000000E+01  0.500000000000E+01  0.500000000000E+01  0.500000000000E+01  0.500000000000E+01  0.500000000000E+01  0.500000000000E+01
  0.500000000000E+01  0.500000000000E+01  0.500000000000E+01  0.500000000000E+01  0.500000000000E+01  0.500000000000E+01  0.500000000000E+01
  0.500000000000E+01  0.500000000000E+01  0.500000000000E+01  0.500000000000E+01  0.500000000000E+01  0.500000000000E+01  0.500000000000E+01
  0.500000000000E+01  0.500000000000E+01  0.500000000000E+01  0.500000000000E+01  0.500000000000E+01  0.500000000000E+01  0.500000000000E+01
  0.500000000000E+01  0.500000000000E+01  0.500000000000E+01  0.500000000000E+01
  0.100522891826E+01  0.100432974883E+01  0.100432058205E+01  0.100196488472E+01  0.100413211147E+01  0.100321955633E+01  0.100258611485E+01
  0.100201205402E+01  0.100426051917E+01  0.100372307652E+01  0.100446493970E+01  0.100346920811E+01  0.100366005090E+01  0.100424810894E+01
  0.100362320629E+01  0.100164172094E+01  0.100227657336E+01  0.100227285451E+01  0.100213473268E+01  0.100254325399E+01  0.100442398769E+01
  0.100337262100E+01  0.100288872489E+01  0.100334576347E+01  0.100323229985E+01  0.100406112255E+01  0.100510201552E+01  0.100431325851E+01
  0.100179495532E+01  0.100266315150E+01  0.100321173373E+01  0.100399309572E+01
  0.489076064827E+00  0.489239467482E+00  0.490982924087E+00  0.493066969500E+00  0.486767992435E+00  0.484760784732E+00  0.485408153791E+00
  0.494264599758E+00  0.495784305790E+00  0.486802389971E+00  0.488140213919E+00  0.487247249122E+00  0.494422649275E+00  0.496536139658E+00
  0.487847998787E+00  0.483222693836E+00  0.492575456120E+00  0.487265771134E+00  0.494867959074E+00  0.488016251405E+00  0.490096893795E+00
  0.488271360087E+00  0.497533663765E+00  0.496383682541E+00  0.495259136316E+00  0.493215881287E+00  0.490457842469E+00  0.490400277562E+00
  0.491429124228E+00  0.486220972235E+00  0.490305624227E+00  0.495521351500E+00
  0.000000000000E+00 -0.892795351267E-04 -0.129739294531E-02  0.000000000000E+00  0.000000000000E+00  0.000000000000E+00  0.425593293117E-03
  0.797088155183E-03  0.000000000000E+00  0.274672885526E-03 -0.942161055615E-03 -0.819772824893E-03 -0.174517650162E-02 -0.639644698146E-04
 -0.109982874469E-02 -0.102242629795E-02 -0.133224854749E-02 -0.213374076160E-02 -0.132892760617E-02 -0.106372436236E-02 -0.624178181760E-03
 -0.761466441122E-03 -0.196434305678E-03  0.807170559090E-03  0.520709490554E-04  0.161631164315E-02  0.000000000000E+00  0.791614382582E-03
  0.000000000000E+00  0.000000000000E+00  0.000000000000E+00  0.000000000000E+00