# vtk DataFile Version 2.0
FUN3D:global_image_vtk
ASCII
DATASET UNSTRUCTURED_GRID
POINTS 213 double
    0.0000000000000000E+00    0.2500000000000000E+01    0.0000000000000000E+00
    0.1250000000000000E+01    0.2500000000000000E+01    0.0000000000000000E+00
    0.2500000000000000E+01    0.2500000000000000E+01    0.0000000000000000E+00
    0.3750000000000000E+01    0.2500000000000000E+01    0.0000000000000000E+00
    0.5000000000000000E+01    0.2500000000000000E+01    0.0000000000000000E+00
    0.5000000000000000E+01    0.1250000000000000E+01    0.0000000000000000E+00
    0.5000000000000000E+01    0.0000000000000000E+00    0.0000000000000000E+00
    0.5000000000000000E+01   -0.1250000000000000E+01    0.0000000000000000E+00
    0.5000000000000000E+01   -0.2500000000000000E+01    0.0000000000000000E+00
    0.3750000000000000E+01   -0.2500000000000000E+01    0.0000000000000000E+00
    0.2500000000000000E+01   -0.2500000000000000E+01    0.0000000000000000E+00
    0.1250000000000000E+01   -0.2500000000000000E+01    0.0000000000000000E+00
    0.0000000000000000E+00   -0.2500000000000000E+01    0.0000000000000000E+00
    0.0000000000000000E+00   -0.1250000000000000E+01    0.0000000000000000E+00
    0.0000000000000000E+00    0.0000000000000000E+00    0.0000000000000000E+00
    0.0000000000000000E+00    0.1250000000000000E+01    0.0000000000000000E+00
    0.9058375365086910E+00    0.1578994732800803E+01    0.0000000000000000E+00
    0.3982050490726493E+01   -0.1583989954232354E+01    0.0000000000000000E+00
    0.4033849428301197E+01    0.1453322699199022E+01    0.0000000000000000E+00
    0.1040505887381675E+01   -0.1479596339503735E+01    0.0000000000000000E+00
    0.1099454400140349E+01   -0.3227322616384110E+00    0.0000000000000000E+00
    0.7354504170366591E+00    0.6593508822075582E+00    0.0000000000000000E+00
    0.1622302608453282E+01    0.8256214013940779E+00    0.0000000000000000E+00
    0.2145871574390382E+01   -0.1650070333782557E+01    0.0000000000000000E+00
    0.4086422318222992E+01   -0.4612828702537229E+00    0.0000000000000000E+00
    0.2979540174134984E+01   -0.8579242121530853E+00    0.0000000000000000E+00
    0.3045064261640043E+01   -0.1836846154397680E+01    0.0000000000000000E+00
    0.3428197553792836E+01    0.3508002863614053E+00    0.0000000000000000E+00
    0.4309693860063405E+01    0.5185680230613409E+00    0.0000000000000000E+00
    0.1827272193562204E+01    0.1738996113203182E+01    0.0000000000000000E+00
    0.2808563282768077E+01    0.1325493893339706E+01    0.0000000000000000E+00
    0.1895995683864404E+01   -0.8731419609589618E+00    0.0000000000000000E+00
    0.2273179336307740E+01    0.4906150219227333E-01    0.0000000000000000E+00
    0.5000000000000000E+01    0.2500000000000000E+01    0.1250000000000000E+01
    0.5000000000000000E+01    0.2500000000000000E+01    0.2500000000000000E+01
    0.5000000000000000E+01    0.2500000000000000E+01    0.3750000000000000E+01
    0.5000000000000000E+01    0.2500000000000000E+01    0.5000000000000000E+01
    0.3750000000000000E+01    0.2500000000000000E+01    0.5000000000000000E+01
    0.2500000000000000E+01    0.2500000000000000E+01    0.5000000000000000E+01
    0.1250000000000000E+01    0.2500000000000000E+01    0.5000000000000000E+01
    0.0000000000000000E+00    0.2500000000000000E+01    0.5000000000000000E+01
    0.0000000000000000E+00    0.2500000000000000E+01    0.3750000000000000E+01
    0.0000000000000000E+00    0.2500000000000000E+01    0.2500000000000000E+01
    0.0000000000000000E+00    0.2500000000000000E+01    0.1250000000000000E+01
    0.9631080833812172E+00    0.2500000000000000E+01    0.9613285771248219E+00
    0.3981732467264904E+01    0.2500000000000000E+01    0.4069753913607991E+01
    0.4035525118777670E+01    0.2500000000000000E+01    0.1012015867579395E+01
    0.9641717640894248E+00    0.2500000000000000E+01    0.3972455192261839E+01
    0.1547743040396780E+01    0.2500000000000000E+01    0.2928177746738678E+01
    0.6985170616192014E+00    0.2500000000000000E+01    0.3068281976055466E+01
    0.8931277594515110E+00    0.2500000000000000E+01    0.2052465503257726E+01
    0.2183293750162785E+01    0.2500000000000000E+01    0.3959073795658649E+01
    0.3855333506014705E+01    0.2500000000000000E+01    0.2931218481500625E+01
    0.3152495579421047E+01    0.2500000000000000E+01    0.3635850502723324E+01
    0.3103247580566054E+01    0.2500000000000000E+01    0.4331682712472464E+01
    0.3266837581688852E+01    0.2500000000000000E+01    0.1886092433583972E+01
    0.4231539241296245E+01    0.2500000000000000E+01    0.1915865356532799E+01
    0.1909741006522088E+01    0.2500000000000000E+01    0.7170024419130505E+00
    0.2880784107213163E+01    0.2500000000000000E+01    0.9046598906449592E+00
    0.2014316024535771E+01    0.2500000000000000E+01    0.1762464314805728E+01
    0.2670003247036656E+01    0.2500000000000000E+01    0.2850479545835163E+01
    0.5000000000000000E+01    0.1250000000000000E+01    0.5000000000000000E+01
    0.5000000000000000E+01    0.0000000000000000E+00    0.5000000000000000E+01
    0.5000000000000000E+01   -0.1250000000000000E+01    0.5000000000000000E+01
    0.5000000000000000E+01   -0.2500000000000000E+01    0.5000000000000000E+01
    0.5000000000000000E+01   -0.2500000000000000E+01    0.3750000000000000E+01
    0.5000000000000000E+01   -0.2500000000000000E+01    0.2500000000000000E+01
    0.5000000000000000E+01   -0.2500000000000000E+01    0.1250000000000000E+01
    0.5000000000000000E+01    0.1578994732800803E+01    0.9058375365086910E+00
    0.5000000000000000E+01   -0.1583989954232354E+01    0.3982050490726493E+01
    0.5000000000000000E+01    0.1453322699199022E+01    0.4033849428301197E+01
    0.5000000000000000E+01   -0.1479596339503735E+01    0.1040505887381675E+01
    0.5000000000000000E+01   -0.3227322616384110E+00    0.1099454400140349E+01
    0.5000000000000000E+01    0.6593508822075582E+00    0.7354504170366591E+00
    0.5000000000000000E+01    0.8256214013940779E+00    0.1622302608453282E+01
    0.5000000000000000E+01   -0.1650070333782557E+01    0.2145871574390382E+01
    0.5000000000000000E+01   -0.4612828702537229E+00    0.4086422318222992E+01
    0.5000000000000000E+01   -0.8579242121530853E+00    0.2979540174134984E+01
    0.5000000000000000E+01   -0.1836846154397680E+01    0.3045064261640043E+01
    0.5000000000000000E+01    0.3508002863614053E+00    0.3428197553792836E+01
    0.5000000000000000E+01    0.5185680230613409E+00    0.4309693860063405E+01
    0.5000000000000000E+01    0.1738996113203182E+01    0.1827272193562204E+01
    0.5000000000000000E+01    0.1325493893339706E+01    0.2808563282768077E+01
    0.5000000000000000E+01   -0.8731419609589618E+00    0.1895995683864404E+01
    0.5000000000000000E+01    0.4906150219227333E-01    0.2273179336307740E+01
    0.0000000000000000E+00    0.1250000000000000E+01    0.5000000000000000E+01
    0.0000000000000000E+00    0.0000000000000000E+00    0.5000000000000000E+01
    0.0000000000000000E+00   -0.1250000000000000E+01    0.5000000000000000E+01
    0.0000000000000000E+00   -0.2500000000000000E+01    0.5000000000000000E+01
    0.1250000000000000E+01   -0.2500000000000000E+01    0.5000000000000000E+01
    0.2500000000000000E+01   -0.2500000000000000E+01    0.5000000000000000E+01
    0.3750000000000000E+01   -0.2500000000000000E+01    0.5000000000000000E+01
    0.4042003247744892E+01    0.1558308132739014E+01    0.5000000000000000E+01
    0.9304122287900499E+00   -0.1548001304379777E+01    0.5000000000000000E+01
    0.1037243024609388E+01    0.1462892710085612E+01    0.5000000000000000E+01
    0.3946240828834967E+01   -0.1445243809615570E+01    0.5000000000000000E+01
    0.4092527262848217E+01   -0.3455338993778935E+00    0.5000000000000000E+01
    0.4293103109154542E+01    0.6277660831404320E+00    0.5000000000000000E+01
    0.3241512314643519E+01    0.7429886854239611E+00    0.5000000000000000E+01
    0.2844289952419609E+01   -0.1588117879734118E+01    0.5000000000000000E+01
    0.7159905765450471E+00   -0.6002320124191652E+00    0.5000000000000000E+01
    0.1754341919796891E+01   -0.7398147869923652E+00    0.5000000000000000E+01
    0.1870296826774691E+01   -0.1788622905643739E+01    0.5000000000000000E+01
    0.9220614901912976E+00    0.3083720183248586E+00    0.5000000000000000E+01
    0.3101523624086016E+01    0.1777901774806180E+01    0.5000000000000000E+01
    0.2192512063922564E+01    0.1576861561598471E+01    0.5000000000000000E+01
    0.2024793420196460E+01    0.4773861992750707E+00    0.5000000000000000E+01
    0.2990627757741975E+01   -0.4878110785814084E+00    0.5000000000000000E+01
    0.0000000000000000E+00   -0.2500000000000000E+01    0.1250000000000000E+01
    0.0000000000000000E+00   -0.2500000000000000E+01    0.2500000000000000E+01
    0.0000000000000000E+00   -0.2500000000000000E+01    0.3750000000000000E+01
    0.0000000000000000E+00    0.1558308132739014E+01    0.4042003247744892E+01
    0.0000000000000000E+00   -0.1548001304379777E+01    0.9304122287900499E+00
    0.0000000000000000E+00    0.1462892710085612E+01    0.1037243024609388E+01
    0.0000000000000000E+00   -0.1445243809615570E+01    0.3946240828834967E+01
    0.0000000000000000E+00   -0.3455338993778935E+00    0.4092527262848217E+01
    0.0000000000000000E+00    0.6277660831404320E+00    0.4293103109154542E+01
    0.0000000000000000E+00    0.7429886854239611E+00    0.3241512314643519E+01
    0.0000000000000000E+00   -0.1588117879734118E+01    0.2844289952419609E+01
    0.0000000000000000E+00   -0.6002320124191652E+00    0.7159905765450471E+00
    0.0000000000000000E+00   -0.7398147869923652E+00    0.1754341919796891E+01
    0.0000000000000000E+00   -0.1788622905643739E+01    0.1870296826774691E+01
    0.0000000000000000E+00    0.3083720183248586E+00    0.9220614901912976E+00
    0.0000000000000000E+00    0.1777901774806180E+01    0.3101523624086016E+01
    0.0000000000000000E+00    0.1576861561598471E+01    0.2192512063922564E+01
[...]
POINT_DATA 213
SCALARS rho double 1
LOOKUP_TABLE default
   0.1344272811746745E+01
   0.9569772472147785E+00
   0.9462966741946101E+00
   0.9418613087332788E+00
   0.8437299641724924E+00
   0.7737999294781258E+00
   0.7629813709045267E+00
   0.7664572291621732E+00
   0.8307867993064103E+00
   0.9352970765671649E+00
   0.9342222747280687E+00
   0.9617204294265452E+00
   0.1449458946566874E+01
   0.1494092881543479E+01
   0.1644670103557252E+01
   0.1425834396954706E+01
   0.1009016269111543E+01
   0.9508812197377668E+00
   0.9436507262453658E+00
   0.9581570689713913E+00
   0.9415857228430078E+00
   0.1036378582833411E+01
   0.9256167579580795E+00
   0.9322353931231203E+00
   0.9537480363349070E+00
   0.9518769523325898E+00
   0.9348582789327055E+00
   0.9564026734362587E+00
   0.9376096807319214E+00
   0.9300667878118131E+00
   0.9445157940363356E+00
   0.8863506396723797E+00
   0.9423579156433222E+00
   0.9634990622134756E+00
   0.1008298347169355E+01
   0.1006735388729255E+01
   0.1001964886863766E+01
   0.1003219556852867E+01
   0.1004132111111327E+01
   0.1005228918343148E+01
   0.1004260519088245E+01
   0.1008308849132155E+01
   0.1023893452028072E+01
   0.1063555156676853E+01
   0.1019183408937586E+01
   0.1001780561052387E+01
   0.9643306150554665E+00
   0.1005283956353749E+01
   0.1000721195557480E+01
   0.1008742492078178E+01
   0.1008078907161217E+01
   0.1002349645228531E+01
   0.9979984880144726E+00
   0.1000583265789035E+01
   0.1001619884663035E+01
   0.9826891903140202E+00
   0.9842433369531003E+00
   0.9833311081000975E+00
   0.9788206880428130E+00
   0.9902641378219860E+00
   0.9934560865292537E+00
   0.1002012056616749E+01
   0.1002134734287978E+01
   0.1002276573333837E+01
   0.1001794955234970E+01
   0.1009778483751716E+01
   0.1006427940259702E+01
   0.9558772089580159E+00
   0.9249386626128938E+00
   0.1007036849560675E+01
   0.1004504989592285E+01
   0.9143631000558212E+00
   0.9089657062722860E+00
   0.8751678174617222E+00
   0.9767259407765619E+00
   0.1000451196065406E+01
   0.1005831243991804E+01
   0.1012882071344233E+01
   0.1011618337613057E+01
   0.1010438310418001E+01
   0.1005468517975972E+01
   0.9907599878638688E+00
   0.1005139766790099E+01
   0.9860554687647602E+00
   0.1005608566637499E+01
   0.1004248108991988E+01
   0.1002888724825908E+01
   0.1003345763320544E+01
   0.1003993095724515E+01
   0.1005102015508344E+01
   0.1003211733755157E+01
   0.1002663150611881E+01
   0.1002586116599268E+01
   0.1004061122674793E+01
   0.1004320581813335E+01
   0.1001641720251564E+01
   0.1002272855188606E+01
   0.1002543255211468E+01
   0.1003469208058187E+01
   0.1003372620698289E+01
   0.1003232299951912E+01
   0.1004423987379129E+01
   0.1004313258410507E+01
   0.1003660050803853E+01
   0.1003723076387156E+01
   0.1004329748770258E+01
   0.1004464939729349E+01
   0.1003623206009526E+01
   0.1064425971665834E+01
   0.1028473707769410E+01
   0.1009587225786567E+01
   0.1006639366357814E+01
   0.1163938468133612E+01
   0.1086091426464045E+01
   0.1007893793207270E+01
   0.1007245951410092E+01
   0.1006798604117417E+01
   0.1013018394008728E+01
   0.1019384216174956E+01
   0.1235208932575181E+01
   0.1032531510114250E+01
   0.1046680120821238E+01
   0.1200956726856074E+01
   0.1014719541175737E+01
   0.1032290857461246E+01
   0.1028095015761029E+01
   0.1014628463118206E+01
   0.1029217564434991E+01
   0.1001994534861626E+01
   0.9606924726699047E+00
   0.1006852800233746E+01
   0.1001327570650276E+01
   0.1010821941787277E+01
   0.1012247345907045E+01
   0.1000945843789290E+01
   0.9979116927150754E+00
   0.9980628720382191E+00
   0.1001183961330854E+01
   0.9841359125155804E+00
   0.9814872040667434E+00
   0.9648481191433053E+00
   0.9680874244108783E+00
   0.9914126329281558E+00
   0.9910856639850844E+00
   0.9925546320180981E+00
   0.1001727665846386E+01
   0.9993411694111274E+00
   0.9941415403341880E+00
   0.1007039857082105E+01
   0.1022540992426679E+01
   0.1001088336120886E+01
   0.1008798759301240E+01
   0.1004773779347094E+01
   0.1009050472576282E+01
   0.9966476386529119E+00
   0.1004988847060872E+01
   0.1003325514977259E+01
   0.9949431083809230E+00
   0.9832679443553654E+00
   0.9943957354869625E+00
   0.9973419817140318E+00
   0.9932184527585871E+00
   0.1001306230824148E+01
   0.1003001445553460E+01
   0.1002183336860309E+01
   0.9947074634015021E+00
   0.9937965302939304E+00
   0.1004867804529927E+01
   0.1020078624576300E+01
   0.1005365194970485E+01
   0.9816998531066514E+00
   0.1004973156356333E+01
   0.1012382659064663E+01
   0.9871418910533020E+00
   0.9551509053761204E+00
   0.9865075700116988E+00
   0.9864534428687101E+00
   0.9918944856081434E+00
   0.9933508170368301E+00
   0.9954409579830945E+00
   0.1037338866278553E+01
   0.1033537544661438E+01
   0.1001443098035988E+01
   0.1001930324540954E+01
   0.9912473207942328E+00
   0.9910918874060892E+00
   0.9648483827041661E+00
   0.9933274688864779E+00
   0.1006058241636745E+01
   0.1001953762120402E+01
   0.9908735342765176E+00
   0.9740939642613955E+00
   0.9418794313485260E+00
   0.9819377126148248E+00
   0.9794801796668600E+00
   0.9704169615925113E+00
   0.9720476409575468E+00
   0.9557345517850657E+00
   0.9496725730978856E+00
   0.9528671552098839E+00
   0.1002659424431939E+01
   0.1002471440860951E+01
   0.1000509096388449E+01
   0.1001677130147020E+01
   0.9607926679542022E+00
   0.9491621878035438E+00
   0.9584500823683002E+00
   0.1001120970978586E+01
   0.1000495871615669E+01
   0.1001156478983406E+01
   0.9807376521252571E+00
   0.9805999779102391E+00
   0.9628472686107931E+00
SCALARS u double 1
LOOKUP_TABLE default
   0.0000000000000000E+00
   0.0000000000000000E+00
   0.0000000000000000E+00
   0.0000000000000000E+00
   0.0000000000000000E+00
   0.0000000000000000E+00
   0.0000000000000000E+00
   0.0000000000000000E+00
   0.0000000000000000E+00
   0.0000000000000000E+00
   0.0000000000000000E+00
   0.0000000000000000E+00
   0.0000000000000000E+00
   0.0000000000000000E+00
   0.0000000000000000E+00
   0.0000000000000000E+00
   0.0000000000000000E+00
   0.0000000000000000E+00
   0.0000000000000000E+00
   0.0000000000000000E+00
   0.0000000000000000E+00
   0.0000000000000000E+00
   0.0000000000000000E+00
   0.0000000000000000E+00
   0.0000000000000000E+00
   0.0000000000000000E+00
   0.0000000000000000E+00
   0.0000000000000000E+00
   0.0000000000000000E+00
   0.0000000000000000E+00
   0.0000000000000000E+00
   0.0000000000000000E+00
   0.0000000000000000E+00
   0.4950172539279191E+00
   0.5338214885037156E+00
   0.5183274422598210E+00
   0.4930669710712506E+00
   0.4847607881152660E+00
   0.4867679929773080E+00
   0.4890760653892353E+00
   0.4957843053160671E+00
   0.4898292904170257E+00
   0.4717392021292084E+00
   0.4454815916120485E+00
   0.4833883767599674E+00
   0.5098415345013946E+00
   0.4390715527645888E+00
   0.4949404452640566E+00
   0.5225340662747012E+00
   0.4962459883771324E+00
   0.5226153787668694E+00
   0.5038894188628152E+00
   0.5646876756566573E+00
   0.5247523443263410E+00
   0.4991485470013259E+00
   0.5730543340639305E+00
   0.5696028005423395E+00
   0.3737938032619579E+00
   0.3998659299342623E+00
   0.5599309809452337E+00
   0.5564588851716474E+00
   0.4942646028479521E+00
   0.4948679616705412E+00
   0.4925754566917482E+00
   0.4914291238654802E+00
   0.5162364430093793E+00
   0.5361791982850063E+00
   0.4947407563476019E+00
   0.4524112343525912E+00
   0.5128786543304714E+00
   0.5117951346643130E+00
   0.4783515084618958E+00
   0.4931694109396197E+00
   0.4603173855268987E+00
   0.5244884774113662E+00
   0.5297427416875499E+00
   0.5129587299978409E+00
   0.5328355433355360E+00
   0.5308939088524647E+00
   0.5309854255071425E+00
   0.5063665943692865E+00
   0.5282452695313851E+00
   0.5410305713166802E+00
   0.5361251399692759E+00
   0.5374096189781611E+00
   0.4965361395544715E+00
   0.4975336636520743E+00
   0.4963836824694073E+00
   0.4955213514501651E+00
   0.4904578423201761E+00
   0.4903056243151724E+00
   0.4862209714193010E+00
   0.4854081598035049E+00
   0.4932158814349175E+00
   0.4909829246686777E+00
   0.4832226946702128E+00
   0.4872657754501434E+00
   0.4880162577465953E+00
   0.4872472519840713E+00
   0.4882713598492615E+00
   0.4952591364751619E+00
   0.4900968939033964E+00
   0.4904002776510069E+00
   0.4944226498107627E+00
   0.4868023911471140E+00
   0.4892394688085965E+00
   0.4881402150966760E+00
   0.4878480003490348E+00
   0.4446853074232145E+00
   0.4700034786014385E+00
   0.4891993975925529E+00
   0.4885239336014512E+00
   0.4506504404153318E+00
   0.4687346791815279E+00
   0.4877005813711057E+00
   0.4868348626525716E+00
   0.4908987761215245E+00
   0.4793553514393543E+00
   0.4658086281594390E+00
   0.3792686776941300E+00
   0.4901595178302788E+00
   0.4486716846352738E+00
   0.4436109443986552E+00
   0.4845141312041814E+00
   0.4621842307457253E+00
   0.4665773176452532E+00
   0.4748147386658347E+00
   0.4894472315429985E+00
   0.5085578712617460E+00
   0.4315070792650608E+00
   0.4927351819846341E+00
   0.5318295804699493E+00
   0.4913405960144949E+00
   0.5207017365140644E+00
   0.5060978348837403E+00
   0.5688787377184801E+00
   0.5274006919057833E+00
   0.5015064051882380E+00
   0.5821765616390361E+00
   0.5689594309413686E+00
   0.3406394934973331E+00
   0.3789867212856313E+00
   0.5751937776750807E+00
   0.5666480030129371E+00
   0.5704101010765148E+00
   0.5291064425066924E+00
   0.5451904136106419E+00
   0.5718792454845870E+00
   0.5389072945153665E+00
   0.5475484001317763E+00
   0.5821688356171678E+00
   0.4925609247717120E+00
   0.5042166014769029E+00
   0.4961741595140630E+00
   0.5565198904709819E+00
   0.4758833186132987E+00
   0.4950276858189653E+00
   0.5498528646147020E+00
   0.5891181952674563E+00
   0.5841943468182091E+00
   0.5469098032263420E+00
   0.5805396043425417E+00
   0.5106265438770883E+00
   0.5030211467537580E+00
   0.5033643320599820E+00
   0.5676433679170881E+00
   0.5563942518583767E+00
   0.4947263458174259E+00
   0.5505235076626157E+00
   0.5510849916708053E+00
   0.5657330508765959E+00
   0.4920073446402166E+00
   0.4927307507772672E+00
   0.3865134535323289E+00
   0.3687749347673954E+00
   0.5574899166003411E+00
   0.5763741950429451E+00
   0.4194299771463477E+00
   0.5824824197867620E+00
   0.4265198115060443E+00
   0.5392780304586410E+00
   0.5012004078890520E+00
   0.5119527484240725E+00
   0.5049133719046988E+00
   0.5751953379197544E+00
   0.5876354243483797E+00
   0.5379890272838522E+00
   0.5677452592684453E+00
   0.5351251849383135E+00
   0.5338062095542510E+00
   0.5580316872891985E+00
   0.5512691860046088E+00
   0.4261854589899881E+00
   0.5273341535440614E+00
   0.5795693046908503E+00
   0.3318681540395224E+00
   0.4760270104571037E+00
   0.5446181487821258E+00
   0.4798326876567350E+00
   0.3005293009151298E+00
   0.5031068083691331E+00
   0.5017129505171281E+00
   0.5129049589398285E+00
   0.5414836807899323E+00
   0.3437602892268469E+00
   0.3397709238055415E+00
   0.3189930698639389E+00
   0.5065951684623198E+00
   0.5123502389217494E+00
   0.5330322775510915E+00
   0.5879287046768009E+00
   0.4644166840395797E+00
   0.3531264973550964E+00
SCALARS v double 1
LOOKUP_TABLE default
   0.0000000000000000E+00
   0.0000000000000000E+00
   0.0000000000000000E+00
   0.0000000000000000E+00
   0.0000000000000000E+00
   0.0000000000000000E+00
   0.0000000000000000E+00
   0.0000000000000000E+00
   0.0000000000000000E+00
   0.0000000000000000E+00
   0.0000000000000000E+00
   0.0000000000000000E+00
   0.0000000000000000E+00
   0.0000000000000000E+00
   0.0000000000000000E+00
   0.0000000000000000E+00
   0.0000000000000000E+00
   0.0000000000000000E+00
   0.0000000000000000E+00
   0.0000000000000000E+00
   0.0000000000000000E+00
   0.0000000000000000E+00
   0.0000000000000000E+00
   0.0000000000000000E+00
   0.0000000000000000E+00
   0.0000000000000000E+00
   0.0000000000000000E+00
   0.0000000000000000E+00
   0.0000000000000000E+00
   0.0000000000000000E+00
   0.0000000000000000E+00
   0.0000000000000000E+00
   0.0000000000000000E+00
   0.0000000000000000E+00
   0.0000000000000000E+00
   0.0000000000000000E+00
   0.0000000000000000E+00
   0.0000000000000000E+00
   0.0000000000000000E+00
   0.0000000000000000E+00
   0.0000000000000000E+00
   0.0000000000000000E+00
   0.0000000000000000E+00
   0.0000000000000000E+00
   0.0000000000000000E+00
   0.0000000000000000E+00
   0.0000000000000000E+00
   0.0000000000000000E+00
   0.0000000000000000E+00
   0.0000000000000000E+00
   0.0000000000000000E+00
   0.0000000000000000E+00
   0.0000000000000000E+00
   0.0000000000000000E+00
   0.0000000000000000E+00
   0.0000000000000000E+00
   0.0000000000000000E+00
   0.0000000000000000E+00
   0.0000000000000000E+00
   0.0000000000000000E+00
   0.0000000000000000E+00
   0.7970882573786900E-03
  -0.1328924657302776E-02
  -0.1332246331522628E-02
   0.0000000000000000E+00
   0.0000000000000000E+00
   0.0000000000000000E+00
   0.0000000000000000E+00
  -0.1922546741996229E-01
   0.4772087684689844E-03
   0.2183093436785991E-02
   0.1427315759543418E-01
  -0.6488275714213858E-02
  -0.7821530392957757E-02
  -0.1327712630968155E-01
   0.4914229097263596E-02
   0.6907840085842473E-03
   0.3434192455528307E-02
   0.1920807465250404E-02
   0.3147690546425932E-02
   0.1704742393085393E-02
  -0.7316057716856533E-02
  -0.7723787872030201E-04
   0.4468475309942288E-02
  -0.4389392703214888E-03
  -0.6396452016848114E-04
  -0.1964343834947476E-03
   0.8071705168414637E-03
   0.0000000000000000E+00
   0.0000000000000000E+00
   0.0000000000000000E+00
   0.0000000000000000E+00
   0.4255932969109124E-03
   0.1616311753813886E-02
  -0.1297392836113665E-02
  -0.1022424460475670E-02
  -0.2133737016722959E-02
  -0.1063721900952794E-02
  -0.8197710946553554E-03
  -0.7614647575372352E-03
   0.5207101368462394E-04
  -0.6241774818805861E-03
   0.7916147197954145E-03
  -0.1745176466099176E-02
   0.2746734630373005E-03
  -0.8927938692448525E-04
  -0.9421608594496245E-03
  -0.1099826925979917E-02
   0.0000000000000000E+00
   0.0000000000000000E+00
   0.0000000000000000E+00
  -0.1061587771687630E-02
  -0.7641221420355605E-02
   0.1860808991904633E-01
  -0.2827077574330907E-04
  -0.1382997278603233E-02
  -0.2034978319080240E-02
  -0.5665981016069490E-02
  -0.1585356589047491E-02
  -0.5946813336880781E-02
  -0.4160208798660466E-02
   0.1565443269065480E-02
   0.3329502033666876E-01
   0.3056945074015147E-04
  -0.2766290595690145E-02
   0.3566767243779559E-02
   0.3599197556968058E-03
   0.0000000000000000E+00
   0.0000000000000000E+00
   0.0000000000000000E+00
   0.0000000000000000E+00
   0.0000000000000000E+00
   0.0000000000000000E+00
   0.0000000000000000E+00
   0.0000000000000000E+00
   0.0000000000000000E+00
   0.0000000000000000E+00
   0.0000000000000000E+00
   0.0000000000000000E+00
   0.0000000000000000E+00
   0.0000000000000000E+00
   0.0000000000000000E+00
   0.0000000000000000E+00
   0.0000000000000000E+00
   0.5046826119298353E-02
   0.3230744362253218E-02
   0.8149021136578895E-02
   0.6168163411387460E-02
   0.1122922208860696E-01
   0.1429255264208204E-01
  -0.2038896130483116E-03
   0.5118214817638541E-02
   0.2914946483818399E-02
   0.3373721580620981E-02
   0.3728376585809124E-02
  -0.1465691919571748E-01
  -0.6158414619262188E-03
   0.6651403571469092E-02
   0.1541894665795968E-02
   0.1969622195435073E-02
   0.4266037974327424E-02
  -0.2790970903868678E-02
   0.1227001191742281E-02
   0.2819144855585906E-02
   0.1497380993998395E-02
   0.2575090430071928E-02
   0.2030542670442435E-02
   0.2118137912566859E-02
   0.8700317515866514E-02
  -0.3733277939192132E-02
   0.6240987871408542E-02
   0.2523893829435127E-04
  -0.3854048252790351E-03
  -0.1674661598334945E-01
  -0.4882013762439723E-02
  -0.4719999392408314E-02
   0.3445195817717542E-02
  -0.6135439334418924E-02
   0.9938178319321414E-04
  -0.3291342523694421E-01
  -0.3046237571470260E-02
   0.4722560527560692E-02
   0.9228286896411195E-03
   0.2112087269641549E-02
   0.4518512551631318E-02
   0.2720382821879983E-02
   0.3212525979043440E-02
   0.5200535045205070E-02
   0.1941867347926946E-02
   0.7316968567350244E-03
  -0.2541820772057043E-04
  -0.5374564072396691E-02
  -0.6959622517043008E-02
  -0.9443281471546825E-03
   0.1105174352020315E-02
  -0.2080519095491519E-02
  -0.3199979089033995E-02
  -0.2527843433957780E-02
  -0.4115133679208024E-02
  -0.7593905704866110E-02
  -0.1985514927849623E-02
   0.6241819555747378E-03
  -0.2237529126976805E-03
   0.1216768146625725E-02
  -0.3483907795197005E-02
   0.5229194759725607E-02
  -0.8487500598951456E-02
   0.2324354182453640E-04
  -0.3393969268211347E-03
   0.2542437782384071E-02
   0.1663427234163172E-02
   0.2021369450807303E-02
  -0.5620759918413910E-02
SCALARS w double 1
LOOKUP_TABLE default
   0.0000000000000000E+00
   0.0000000000000000E+00
   0.0000000000000000E+00
   0.0000000000000000E+00
   0.0000000000000000E+00
   0.0000000000000000E+00
   0.0000000000000000E+00
   0.0000000000000000E+00
   0.0000000000000000E+00
   0.0000000000000000E+00
   0.0000000000000000E+00
   0.0000000000000000E+00
   0.0000000000000000E+00
   0.0000000000000000E+00
   0.0000000000000000E+00
   0.0000000000000000E+00
   0.0000000000000000E+00
   0.0000000000000000E+00
   0.0000000000000000E+00
   0.0000000000000000E+00
   0.0000000000000000E+00
   0.0000000000000000E+00
   0.0000000000000000E+00
   0.0000000000000000E+00
   0.0000000000000000E+00
   0.0000000000000000E+00
   0.0000000000000000E+00
   0.0000000000000000E+00
   0.0000000000000000E+00
   0.0000000000000000E+00
   0.0000000000000000E+00
   0.0000000000000000E+00
   0.0000000000000000E+00
  -0.1007606505284457E+00
  -0.4249295046050846E-01
   0.7368144930780206E-03
   0.5726240728972646E-02
   0.5700161817868019E-03
   0.1609732787552084E-02
   0.3375008837368053E-02
   0.2372031408628228E-02
   0.4590270694783880E-03
   0.3519827307457890E-02
   0.4522187404953609E-01
   0.6522883777425112E-01
   0.8693015113840069E-03
  -0.2261154902437996E-01
   0.4317188128916310E-02
   0.1358874959534429E-01
   0.1039564312490059E-01
   0.4900638282027264E-01
   0.2438312203700237E-02
  -0.6509589031916545E-02
  -0.7001782280280547E-03
   0.3417609503633356E-03
   0.3903953724386955E-02
  -0.3893229213575335E-01
   0.1798161185711666E-01
   0.1119618783182880E-01
   0.3403760796016548E-01
   0.8439704693220340E-02
   0.4937975631799561E-02
   0.4971160223699735E-02
   0.4872109539736305E-02
   0.6027662091745780E-02
   0.2598782489425913E-02
  -0.4144439492196665E-01
  -0.9954209693827616E-01
  -0.1121673751533918E+00
   0.5070524644902807E-02
   0.4230414972092656E-02
  -0.1004728854696951E+00
  -0.9895249233527111E-01
  -0.9875437467294308E-01
  -0.9462473428315971E-01
  -0.6807110513609071E-01
   0.5154592879536446E-02
  -0.1935392573671599E-01
  -0.1575855818104399E-01
  -0.6003518716434203E-02
   0.6818870826328503E-02
  -0.8010016924164165E-01
  -0.2781134264053872E-01
  -0.8096441851199271E-01
  -0.5873296605599987E-01
   0.3084004742634049E-02
   0.2685422918477992E-02
   0.2640547675756064E-02
   0.3450230456107783E-02
   0.4007024797312693E-02
   0.1201195749500330E-02
  -0.1438530758887202E-03
   0.2040299960765205E-02
   0.4895693667459441E-02
   0.3857469457671790E-02
   0.1114653970343207E-02
   0.1183284021841801E-02
   0.1466074272104821E-02
  -0.1607357585371244E-04
   0.9002577579355713E-04
   0.4386925020986084E-02
   0.2715852669397646E-02
   0.2322825817202927E-02
   0.5010683537362434E-02
   0.1071677825029019E-02
   0.2712258134792175E-02
   0.2014268521407600E-02
   0.2906387901522394E-04
   0.8374885200128061E-01
   0.2795300394008956E-02
  -0.8344489443820291E-03
  -0.1490794267895469E-03
   0.1409550007165245E+00
   0.1239334113081158E+00
  -0.1218694231372607E-02
  -0.4381668780446218E-02
  -0.3041271852212741E-03
  -0.6511227399329032E-02
  -0.1947611063653536E-02
   0.1557642513646336E+00
   0.7490247877944799E-01
   0.2550559421578244E-01
   0.1656450917900126E+00