# vtk DataFile Version 2.0
FUN3D:global_image_vtk
ASCII
DATASET UNSTRUCTURED_GRID
POINTS 213 double
    0.0000000000000000E+00    0.2500000000000000E+01    0.0000000000000000E+00
    0.1250000000000000E+01    0.2500000000000000E+01    0.0000000000000000E+00
    0.2500000000000000E+01    0.2500000000000000E+01    0.0000000000000000E+00
    0.3750000000000000E+01    0.2500000000000000E+01    0.0000000000000000E+00
    0.5000000000000000E+01    0.2500000000000000E+01    0.0000000000000000E+00
    0.5000000000000000E+01    0.1250000000000000E+01    0.0000000000000000E+00
    0.5000000000000000E+01    0.0000000000000000E+00    0.0000000000000000E+00
    0.5000000000000000E+01   -0.1250000000000000E+01    0.0000000000000000E+00
    0.5000000000000000E+01   -0.2500000000000000E+01    0.0000000000000000E+00
    0.3750000000000000E+01   -0.2500000000000000E+01    0.0000000000000000E+00
    0.2500000000000000E+01   -0.2500000000000000E+01    0.0000000000000000E+00
    0.1250000000000000E+01   -0.2500000000000000E+01    0.0000000000000000E+00
    0.0000000000000000E+00   -0.2500000000000000E+01    0.0000000000000000E+00
    0.0000000000000000E+00   -0.1250000000000000E+01    0.0000000000000000E+00
    0.0000000000000000E+00    0.0000000000000000E+00    0.0000000000000000E+00
    0.0000000000000000E+00    0.1250000000000000E+01    0.0000000000000000E+00
    0.9058375365086910E+00    0.1578994732800803E+01    0.0000000000000000E+00
    0.3982050490726493E+01   -0.1583989954232354E+01    0.0000000000000000E+00
    0.4033849428301197E+01    0.1453322699199022E+01    0.0000000000000000E+00
    0.1040505887381675E+01   -0.1479596339503735E+01    0.0000000000000000E+00
    0.1099454400140349E+01   -0.3227322616384110E+00    0.0000000000000000E+00
    0.7354504170366591E+00    0.6593508822075582E+00    0.0000000000000000E+00
    0.1622302608453282E+01    0.8256214013940779E+00    0.0000000000000000E+00
    0.2145871574390382E+01   -0.1650070333782557E+01    0.0000000000000000E+00
    0.4086422318222992E+01   -0.4612828702537229E+00    0.0000000000000000E+00
    0.2979540174134984E+01   -0.8579242121530853E+00    0.0000000000000000E+00
    0.3045064261640043E+01   -0.1836846154397680E+01    0.0000000000000000E+00
    0.3428197553792836E+01    0.3508002863614053E+00    0.0000000000000000E+00
    0.4309693860063405E+01    0.5185680230613409E+00    0.0000000000000000E+00
    0.1827272193562204E+01    0.1738996113203182E+01    0.0000000000000000E+00
    0.2808563282768077E+01    0.1325493893339706E+01    0.0000000000000000E+00
    0.1895995683864404E+01   -0.8731419609589618E+00    0.0000000000000000E+00
    0.2273179336307740E+01    0.4906150219227333E-01    0.0000000000000000E+00
    0.5000000000000000E+01    0.2500000000000000E+01    0.1250000000000000E+01
    0.5000000000000000E+01    0.2500000000000000E+01    0.2500000000000000E+01
    0.5000000000000000E+01    0.2500000000000000E+01    0.3750000000000000E+01
    0.5000000000000000E+01    0.2500000000000000E+01    0.5000000000000000E+01
    0.3750000000000000E+01    0.2500000000000000E+01    0.5000000000000000E+01
    0.2500000000000000E+01    0.2500000000000000E+01    0.5000000000000000E+01
    0.1250000000000000E+01    0.2500000000000000E+01    0.5000000000000000E+01
    0.0000000000000000E+00    0.2500000000000000E+01    0.5000000000000000E+01
    0.0000000000000000E+00    0.2500000000000000E+01    0.3750000000000000E+01
    0.0000000000000000E+00    0.2500000000000000E+01    0.2500000000000000E+01
    0.0000000000000000E+00    0.2500000000000000E+01    0.1250000000000000E+01
    0.9631080833812172E+00    0.2500000000000000E+01    0.9613285771248219E+00
    0.3981732467264904E+01    0.2500000000000000E+01    0.4069753913607991E+01
    0.4035525118777670E+01    0.2500000000000000E+01    0.1012015867579395E+01
    0.9641717640894248E+00    0.2500000000000000E+01    0.3972455192261839E+01
    0.1547743040396780E+01    0.2500000000000000E+01    0.2928177746738678E+01
    0.6985170616192014E+00    0.2500000000000000E+01    0.3068281976055466E+01
    0.8931277594515110E+00    0.2500000000000000E+01    0.2052465503257726E+01
    0.2183293750162785E+01    0.2500000000000000E+01    0.3959073795658649E+01
    0.3855333506014705E+01    0.2500000000000000E+01    0.2931218481500625E+01
    0.3152495579421047E+01    0.2500000000000000E+01    0.3635850502723324E+01
    0.3103247580566054E+01    0.2500000000000000E+01    0.4331682712472464E+01
    0.3266837581688852E+01    0.2500000000000000E+01    0.1886092433583972E+01
    0.4231539241296245E+01    0.2500000000000000E+01    0.1915865356532799E+01
    0.1909741006522088E+01    0.2500000000000000E+01    0.7170024419130505E+00
    0.2880784107213163E+01    0.2500000000000000E+01    0.9046598906449592E+00
    0.2014316024535771E+01    0.2500000000000000E+01    0.1762464314805728E+01
    0.2670003247036656E+01    0.2500000000000000E+01    0.2850479545835163E+01
    0.5000000000000000E+01    0.1250000000000000E+01    0.5000000000000000E+01
    0.5000000000000000E+01    0.0000000000000000E+00    0.5000000000000000E+01
    0.5000000000000000E+01   -0.1250000000000000E+01    0.5000000000000000E+01
    0.5000000000000000E+01   -0.2500000000000000E+01    0.5000000000000000E+01
    0.5000000000000000E+01   -0.2500000000000000E+01    0.3750000000000000E+01
    0.5000000000000000E+01   -0.2500000000000000E+01    0.2500000000000000E+01
    0.5000000000000000E+01   -0.2500000000000000E+01    0.1250000000000000E+01
    0.5000000000000000E+01    0.1578994732800803E+01    0.9058375365086910E+00
    0.5000000000000000E+01   -0.1583989954232354E+01    0.3982050490726493E+01
    0.5000000000000000E+01    0.1453322699199022E+01    0.4033849428301197E+01
    0.5000000000000000E+01   -0.1479596339503735E+01    0.1040505887381675E+01
    0.5000000000000000E+01   -0.3227322616384110E+00    0.1099454400140349E+01
    0.5000000000000000E+01    0.6593508822075582E+00    0.7354504170366591E+00
    0.5000000000000000E+01    0.8256214013940779E+00    0.1622302608453282E+01
    0.5000000000000000E+01   -0.1650070333782557E+01    0.2145871574390382E+01
    0.5000000000000000E+01   -0.4612828702537229E+00    0.4086422318222992E+01
    0.5000000000000000E+01   -0.8579242121530853E+00    0.2979540174134984E+01
    0.5000000000000000E+01   -0.1836846154397680E+01    0.3045064261640043E+01
    0.5000000000000000E+01    0.3508002863614053E+00    0.3428197553792836E+01
    0.5000000000000000E+01    0.5185680230613409E+00    0.4309693860063405E+01
    0.5000000000000000E+01    0.1738996113203182E+01    0.1827272193562204E+01
    0.5000000000000000E+01    0.1325493893339706E+01    0.2808563282768077E+01
    0.5000000000000000E+01   -0.8731419609589618E+00    0.1895995683864404E+01
    0.5000000000000000E+01    0.4906150219227333E-01    0.2273179336307740E+01
    0.0000000000000000E+00    0.1250000000000000E+01    0.5000000000000000E+01
    0.0000000000000000E+00    0.0000000000000000E+00    0.5000000000000000E+01
    0.0000000000000000E+00   -0.1250000000000000E+01    0.5000000000000000E+01
    0.0000000000000000E+00   -0.2500000000000000E+01    0.5000000000000000E+01
    0.1250000000000000E+01   -0.2500000000000000E+01    0.5000000000000000E+01
    0.2500000000000000E+01   -0.2500000000000000E+01    0.5000000000000000E+01
    0.3750000000000000E+01   -0.2500000000000000E+01    0.5000000000000000E+01
    0.4042003247744892E+01    0.1558308132739014E+01    0.5000000000000000E+01
    0.9304122287900499E+00   -0.1548001304379777E+01    0.5000000000000000E+01
    0.1037243024609388E+01    0.1462892710085612E+01    0.5000000000000000E+01
    0.3946240828834967E+01   -0.1445243809615570E+01    0.5000000000000000E+01
    0.4092527262848217E+01   -0.3455338993778935E+00    0.5000000000000000E+01
    0.4293103109154542E+01    0.6277660831404320E+00    0.5000000000000000E+01
    0.3241512314643519E+01    0.7429886854239611E+00    0.5000000000000000E+01
    0.2844289952419609E+01   -0.1588117879734118E+01    0.5000000000000000E+01
    0.7159905765450471E+00   -0.6002320124191652E+00    0.5000000000000000E+01
    0.1754341919796891E+01   -0.7398147869923652E+00    0.5000000000000000E+01
    0.1870296826774691E+01   -0.1788622905643739E+01    0.5000000000000000E+01
    0.9220614901912976E+00    0.3083720183248586E+00    0.5000000000000000E+01
    0.3101523624086016E+01    0.1777901774806180E+01    0.5000000000000000E+01
    0.2192512063922564E+01    0.1576861561598471E+01    0.5000000000000000E+01
    0.2024793420196460E+01    0.4773861992750707E+00    0.5000000000000000E+01
    0.2990627757741975E+01   -0.4878110785814084E+00    0.5000000000000000E+01
    0.0000000000000000E+00   -0.2500000000000000E+01    0.1250000000000000E+01
    0.0000000000000000E+00   -0.2500000000000000E+01    0.2500000000000000E+01
    0.0000000000000000E+00   -0.2500000000000000E+01    0.3750000000000000E+01
    0.0000000000000000E+00    0.1558308132739014E+01    0.4042003247744892E+01
    0.0000000000000000E+00   -0.1548001304379777E+01    0.9304122287900499E+00
    0.0000000000000000E+00    0.1462892710085612E+01    0.1037243024609388E+01
    0.0000000000000000E+00   -0.1445243809615570E+01    0.3946240828834967E+01
    0.0000000000000000E+00   -0.3455338993778935E+00    0.4092527262848217E+01
    0.0000000000000000E+00    0.6277660831404320E+00    0.4293103109154542E+01
    0.0000000000000000E+00    0.7429886854239611E+00    0.3241512314643519E+01
    0.0000000000000000E+00   -0.1588117879734118E+01    0.2844289952419609E+01
    0.0000000000000000E+00   -0.6002320124191652E+00    0.7159905765450471E+00
    0.0000000000000000E+00   -0.7398147869923652E+00    0.1754341919796891E+01
    0.0000000000000000E+00   -0.1788622905643739E+01    0.1870296826774691E+01
    0.0000000000000000E+00    0.3083720183248586E+00    0.9220614901912976E+00
    0.0000000000000000E+00    0.1777901774806180E+01    0.3101523624086016E+01
    0.0000000000000000E+00    0.1576861561598471E+01    0.2192512063922564E+01
[...]
POINT_DATA 213
SCALARS rho double 1
LOOKUP_TABLE default
   0.1343967316327007E+01
   0.9576985928334971E+00
   0.9477450129418702E+00
   0.9438130136278867E+00
   0.8441003386155894E+00
   0.7733571647588150E+00
   0.7630123538324268E+00
   0.7656181382747285E+00
   0.8316607907124897E+00
   0.9369661155604867E+00
   0.9354401406196480E+00
   0.9614832788943591E+00
   0.1447870544384243E+01
   0.1492321491540021E+01
   0.1642812473259174E+01
   0.1425674281530022E+01
   0.1009388104964018E+01
   0.9522698338533073E+00
   0.9451724652552986E+00
   0.9577569116245822E+00
   0.9405683611132705E+00
   0.1035491283645016E+01
   0.9260518099828282E+00
   0.9335255013659598E+00
   0.9552381782041856E+00
   0.9537149028318267E+00
   0.9360593793938498E+00
   0.9578781107294911E+00
   0.9386199978013808E+00
   0.9312271588978133E+00
   0.9460891368875993E+00
   0.8867073590812523E+00
   0.9437959204965594E+00
   0.9641205857660574E+00
   0.1007295913472801E+01
   0.1006185094469024E+01
   0.1004574738924173E+01
   0.1005750889582813E+01
   0.1004610575619113E+01
   0.1005285371463238E+01
   0.1003004960739012E+01
   0.1008152152112717E+01
   0.1023749234760119E+01
   0.1062886984481059E+01
   0.1019114190144295E+01
   0.1001827723957672E+01
   0.9658912627544854E+00
   0.1005410168113501E+01
   0.1000775340636822E+01
   0.1008827673258627E+01
   0.1007919282632155E+01
   0.1002494027660346E+01
   0.9976013543054312E+00
   0.1000593285658626E+01
   0.1001865029498869E+01
   0.9828370991811302E+00
   0.9840872381717090E+00
   0.9841377024314313E+00
   0.9802125978814480E+00
   0.9905525186354956E+00
   0.9934997832899312E+00
   0.1004778038123374E+01
   0.1004766962055258E+01
   0.1005114105940297E+01
   0.1004849968110798E+01
   0.1009544114478364E+01
   0.1004698788491765E+01
   0.9559604370644812E+00
   0.9257169379380784E+00
   0.1007687847167795E+01
   0.1004500016932796E+01
   0.9151312747484003E+00
   0.9096281286177721E+00
   0.8762711070273711E+00
   0.9757618330440772E+00
   0.9987117062828871E+00
   0.1006335734134903E+01
   0.1010818456809587E+01
   0.1010128856344302E+01
   0.1009074491013732E+01
   0.1005937406361813E+01
   0.9900064547860266E+00
   0.1003829631829818E+01
   0.9846215627948285E+00
   0.1002836380059745E+01
   0.1003882986927257E+01
   0.1003215572532481E+01
   0.1003424409687239E+01
   0.1003738889058479E+01
   0.1005282009428208E+01
   0.1003265340398695E+01
   0.1004580201050127E+01
   0.1005195763357823E+01
   0.1004061003345703E+01
   0.1004546801551576E+01
   0.1003385355920249E+01
   0.1004518692483739E+01
   0.1005790731192714E+01
   0.1004685932119019E+01
   0.1003955312508204E+01
   0.1003136028090907E+01
   0.1004407045851591E+01
   0.1004218088014468E+01
   0.1003536516245782E+01
   0.1005309478953134E+01
   0.1004812186003499E+01
   0.1004741698900298E+01
   0.1004669443465991E+01
   0.1064931103812123E+01
   0.1028650849491664E+01
   0.1009538521621815E+01
   0.1006519861195336E+01
   0.1163384023442318E+01
   0.1086058829571780E+01
   0.1007820522382225E+01
   0.1007302928651301E+01
   0.1006712061831093E+01
   0.1012985115300755E+01
   0.1019259126712001E+01
   0.1234915838790905E+01
   0.1032982175460462E+01
   0.1046582616246626E+01
   0.1200464233636112E+01
   0.1014505074486665E+01
   0.1031892204474318E+01
   0.1028374936944709E+01
   0.1014845647419244E+01
   0.1029073998042122E+01
   0.1002080232944475E+01
   0.9621395498429267E+00
   0.1006807356826475E+01
   0.1001538319245335E+01
   0.1010605514831634E+01
   0.1012250179818276E+01
   0.1001047774225468E+01
   0.9972869475059414E+00
   0.9978246730272395E+00
   0.1001116407164374E+01
   0.9838201638163545E+00
   0.9808400348782612E+00
   0.9653611407710864E+00
   0.9688899156827520E+00
   0.9913869348609152E+00
   0.9913031803359812E+00
   0.9924501113832663E+00
   0.1001939633434236E+01
   0.9994947064951094E+00
   0.9940526999038987E+00
   0.1006989200308275E+01
   0.1022222750592400E+01
   0.1000742928268006E+01
   0.1008918949510439E+01
   0.1004949719946778E+01
   0.1009093786307694E+01
   0.9967239125733238E+00
   0.1004971913195397E+01
   0.1003543318677404E+01
   0.9949818722490268E+00
   0.9827941955625388E+00
   0.9939983988920421E+00
   0.9970549685529003E+00
   0.9919134762286795E+00
   0.1001240768062019E+01
   0.1003192235317649E+01
   0.1002174353889749E+01
   0.9936098738843988E+00
   0.9937194708123871E+00
   0.1005130266806283E+01
   0.1019814477857285E+01
   0.1005421915236993E+01
   0.9816990195219737E+00
   0.1005148210971223E+01
   0.1012367066550079E+01
   0.9872330109438497E+00
   0.9550242236490674E+00
   0.9860587519881512E+00
   0.9866044613088201E+00
   0.9925190850289899E+00
   0.9931308701305001E+00
   0.9948956133643383E+00
   0.1037298143596012E+01
   0.1033016528720977E+01
   0.1001454765525698E+01
   0.1002005006854191E+01
   0.9897993241184478E+00
   0.9907249930282491E+00
   0.9646449828989584E+00
   0.9920842281163822E+00
   0.1005418649649823E+01
   0.1001496500198238E+01
   0.9910386208936912E+00
   0.9741291875841562E+00
   0.9424051988541142E+00
   0.9820099654221914E+00
   0.9791542958644808E+00
   0.9713813304284762E+00
   0.9720528002217459E+00
   0.9554273374827469E+00
   0.9502408267653741E+00
   0.9545734942049022E+00
   0.1002932316790298E+01
   0.1002562063355137E+01
   0.1000541148628087E+01
   0.1001108782331176E+01
   0.9616587123734878E+00
   0.9512260366603255E+00
   0.9602847834098850E+00
   0.1000865526448821E+01
   0.1000324157442263E+01
   0.1000906408616198E+01
   0.9809417656420967E+00
   0.9805260839389186E+00
   0.9640833628605927E+00
SCALARS u double 1
LOOKUP_TABLE default
   0.0000000000000000E+00
   0.0000000000000000E+00
   0.0000000000000000E+00
   0.0000000000000000E+00
   0.0000000000000000E+00
   0.0000000000000000E+00
   0.0000000000000000E+00
   0.0000000000000000E+00
   0.0000000000000000E+00
   0.0000000000000000E+00
   0.0000000000000000E+00
   0.0000000000000000E+00
   0.0000000000000000E+00
   0.0000000000000000E+00
   0.0000000000000000E+00
   0.0000000000000000E+00
   0.0000000000000000E+00
   0.0000000000000000E+00
   0.0000000000000000E+00
   0.0000000000000000E+00
   0.0000000000000000E+00
   0.0000000000000000E+00
   0.0000000000000000E+00
   0.0000000000000000E+00
   0.0000000000000000E+00
   0.0000000000000000E+00
   0.0000000000000000E+00
   0.0000000000000000E+00
   0.0000000000000000E+00
   0.0000000000000000E+00
   0.0000000000000000E+00
   0.0000000000000000E+00
   0.0000000000000000E+00
   0.4956083418468453E+00
   0.5336021348381444E+00
   0.5184455150391249E+00
   0.4933156422473453E+00
   0.4842015839227993E+00
   0.4837191315301963E+00
   0.4863898597007474E+00
   0.4963070697229102E+00
   0.4896558213751768E+00
   0.4720675616714639E+00
   0.4463580675105076E+00
   0.4827626369885133E+00
   0.5089261460120335E+00
   0.4407507696454442E+00
   0.4944060056711169E+00
   0.5229424261312753E+00
   0.4962118836910197E+00
   0.5227251313895575E+00
   0.5032097914773253E+00
   0.5640216203100901E+00
   0.5252413168631197E+00
   0.4980227029991082E+00
   0.5719608357228894E+00
   0.5688042614103657E+00
   0.3730022096243315E+00
   0.4007151206759756E+00
   0.5587972077484312E+00
   0.5564437009429070E+00
   0.4946090537708613E+00
   0.4954041742062710E+00
   0.4937906749380814E+00
   0.4918977160319855E+00
   0.5164141942497431E+00
   0.5359185043026836E+00
   0.4957083134677777E+00
   0.4530920527660806E+00
   0.5123887549015149E+00
   0.5107443417737895E+00
   0.4790287983975755E+00
   0.4944621915007004E+00
   0.4614926668208968E+00
   0.5257649192199250E+00
   0.5298660884362926E+00
   0.5123515382795814E+00
   0.5330007936874288E+00
   0.5309370600543571E+00
   0.5300689275077684E+00
   0.5056180522038044E+00
   0.5285413080760881E+00
   0.5403381955846057E+00
   0.5368081897229662E+00
   0.5377901073828945E+00
   0.4974918893668115E+00
   0.4981157053331617E+00
   0.4967926242136442E+00
   0.4957433285532922E+00
   0.4878915674554503E+00
   0.4876204777168684E+00
   0.4855777804769366E+00
   0.4864414708404770E+00
   0.4916979107568603E+00
   0.4891552318798418E+00
   0.4852604816355545E+00
   0.4886342037518515E+00
   0.4891629581328575E+00
   0.4864850761306316E+00
   0.4864908889901307E+00
   0.4945742383116202E+00
   0.4872891018777051E+00
   0.4875781307435968E+00
   0.4930328959878296E+00
   0.4847518216534685E+00
   0.4867517733924023E+00
   0.4860755486813562E+00
   0.4863501255556231E+00
   0.4453011879391895E+00
   0.4698453854203540E+00
   0.4891579692591464E+00
   0.4880226295043588E+00
   0.4508512877176840E+00
   0.4675605188066649E+00
   0.4875632766033295E+00
   0.4867841268559367E+00
   0.4910062918692700E+00
   0.4794304732084186E+00
   0.4668022439269904E+00
   0.3794145059621474E+00
   0.4896736166396690E+00
   0.4493570941948595E+00
   0.4441301997745136E+00
   0.4845038199657504E+00
   0.4634886328669394E+00
   0.4670701165398495E+00
   0.4748196821442215E+00
   0.4893595724735307E+00
   0.5086618978992326E+00
   0.4339257141048827E+00
   0.4926477027668285E+00
   0.5329865997672987E+00
   0.4918413894697550E+00
   0.5207221939650113E+00
   0.5065018483019497E+00
   0.5670288098702182E+00
   0.5283180948289536E+00
   0.5014230123804168E+00
   0.5802751025560038E+00
   0.5677841752238043E+00
   0.3413713401720452E+00
   0.3799188736010345E+00
   0.5737472085466105E+00
   0.5664335669130653E+00
   0.5693340699561559E+00
   0.5290198644795218E+00
   0.5447942890178953E+00
   0.5714544694627766E+00
   0.5388195401938360E+00
   0.5474898831846305E+00
   0.5819823513336299E+00
   0.4927294445094234E+00
   0.5038090557777445E+00
   0.4963783434322275E+00
   0.5560542766923141E+00
   0.4759476572686256E+00
   0.4944713603006685E+00
   0.5492273508755845E+00
   0.5873492381814733E+00
   0.5827104558108608E+00
   0.5459121769364019E+00
   0.5779694142133169E+00
   0.5101719553200024E+00
   0.5024530926661298E+00
   0.5028229516104608E+00
   0.5662356759016471E+00
   0.5559264924425698E+00
   0.4944853269996848E+00
   0.5501264925588583E+00
   0.5508107001184694E+00
   0.5651727195951195E+00
   0.4913645774374734E+00
   0.4930976646210859E+00
   0.3887831527156068E+00
   0.3712664785972454E+00
   0.5569974129463627E+00
   0.5753855515879598E+00
   0.4190736918365901E+00
   0.5815010696259534E+00
   0.4282077530927409E+00
   0.5390652758151492E+00
   0.5018155593567472E+00
   0.5109991608624586E+00
   0.5042155187430912E+00
   0.5729346462689168E+00
   0.5854491862202509E+00
   0.5376987313060565E+00
   0.5657912257029163E+00
   0.5353594891077184E+00
   0.5338434039499750E+00
   0.5573231584056030E+00
   0.5505125338041407E+00
   0.4278589181383942E+00
   0.5263766671043973E+00
   0.5780449773918271E+00
   0.3349055602766272E+00
   0.4756025035207931E+00
   0.5450178481927529E+00
   0.4812873337531529E+00
   0.3028622066201435E+00
   0.5042239203539204E+00
   0.5010727906552692E+00
   0.5127469571432810E+00
   0.5402570332417794E+00
   0.3462527876291422E+00
   0.3437553763441727E+00
   0.3211895357007963E+00
   0.5065083659683459E+00
   0.5132499052889374E+00
   0.5328484336782001E+00
   0.5867028597270774E+00
   0.4641279198981733E+00
   0.3573052332076267E+00
SCALARS v double 1
LOOKUP_TABLE default
   0.0000000000000000E+00
   0.0000000000000000E+00
   0.0000000000000000E+00
   0.0000000000000000E+00
   0.0000000000000000E+00
   0.0000000000000000E+00
   0.0000000000000000E+00
   0.0000000000000000E+00
   0.0000000000000000E+00
   0.0000000000000000E+00
   0.0000000000000000E+00
   0.0000000000000000E+00
   0.0000000000000000E+00
   0.0000000000000000E+00
   0.0000000000000000E+00
   0.0000000000000000E+00
   0.0000000000000000E+00
   0.0000000000000000E+00
   0.0000000000000000E+00
   0.0000000000000000E+00
   0.0000000000000000E+00
   0.0000000000000000E+00
   0.0000000000000000E+00
   0.0000000000000000E+00
   0.0000000000000000E+00
   0.0000000000000000E+00
   0.0000000000000000E+00
   0.0000000000000000E+00
   0.0000000000000000E+00
   0.0000000000000000E+00
   0.0000000000000000E+00
   0.0000000000000000E+00
   0.0000000000000000E+00
   0.0000000000000000E+00
   0.0000000000000000E+00
   0.0000000000000000E+00
   0.0000000000000000E+00
   0.0000000000000000E+00
   0.0000000000000000E+00
   0.0000000000000000E+00
   0.0000000000000000E+00
   0.0000000000000000E+00
   0.0000000000000000E+00
   0.0000000000000000E+00
   0.0000000000000000E+00
   0.0000000000000000E+00
   0.0000000000000000E+00
   0.0000000000000000E+00
   0.0000000000000000E+00
   0.0000000000000000E+00
   0.0000000000000000E+00
   0.0000000000000000E+00
   0.0000000000000000E+00
   0.0000000000000000E+00
   0.0000000000000000E+00
   0.0000000000000000E+00
   0.0000000000000000E+00
   0.0000000000000000E+00
   0.0000000000000000E+00
   0.0000000000000000E+00
   0.0000000000000000E+00
   0.1110963209826414E-02
   0.8909502468243532E-04
  -0.2254506334337471E-03
   0.0000000000000000E+00
   0.0000000000000000E+00
   0.0000000000000000E+00
   0.0000000000000000E+00
  -0.1826582408262241E-01
   0.5205126003569441E-03
   0.1878272856078309E-02
   0.1416239340612514E-01
  -0.6501919971345497E-02
  -0.6389510982132983E-02
  -0.1279753221638536E-01
   0.4369881246302833E-02
   0.8688117174221677E-03
   0.2912490133957779E-02
   0.1721143859293911E-02
   0.2389885232989268E-02
   0.1806258006671726E-02
  -0.7239009149465001E-02
  -0.7924948839300629E-03
   0.3834987818876167E-02
  -0.1118430403928573E-02
  -0.4336811708856287E-03
  -0.4123216274794426E-03
   0.8238345067329109E-03
   0.0000000000000000E+00
   0.0000000000000000E+00
   0.0000000000000000E+00
   0.0000000000000000E+00
   0.7712114775474079E-03
   0.1446874535717633E-02
  -0.1432253622421000E-02
  -0.1828588190054474E-03
  -0.6364527662674059E-03
   0.2846601278053823E-06
   0.1572117003882187E-03
  -0.1280001831427267E-03
  -0.1980124150228582E-03
  -0.5810437223981635E-03
   0.8186840647763386E-03
  -0.2009697132043835E-02
   0.6576908495210355E-03
   0.2671318503232822E-03
  -0.4119515643234087E-03
  -0.4038592745921300E-03
   0.0000000000000000E+00
   0.0000000000000000E+00
   0.0000000000000000E+00
  -0.8244129528256895E-03
  -0.7841065355389308E-02
   0.1754739553355188E-01
  -0.2302199735714767E-03
  -0.1391944602701073E-02
  -0.2132107245601024E-02
  -0.5225085586839680E-02
  -0.1867658364174516E-02
  -0.6503067497131146E-02
  -0.4080315546766340E-02
   0.1637631771963000E-02
   0.3279771648065286E-01
   0.3407785848458726E-04
  -0.2136804711768317E-02
   0.4117510533215678E-02
   0.3978402653857559E-03
   0.0000000000000000E+00
   0.0000000000000000E+00
   0.0000000000000000E+00
   0.0000000000000000E+00
   0.0000000000000000E+00
   0.0000000000000000E+00
   0.0000000000000000E+00
   0.0000000000000000E+00
   0.0000000000000000E+00
   0.0000000000000000E+00
   0.0000000000000000E+00
   0.0000000000000000E+00
   0.0000000000000000E+00
   0.0000000000000000E+00
   0.0000000000000000E+00
   0.0000000000000000E+00
   0.0000000000000000E+00
   0.4616789696200534E-02
   0.3357782122179805E-02
   0.8115444287936360E-02
   0.5759046256397480E-02
   0.1133083476099774E-01
   0.1381873025726819E-01
  -0.1135087039880652E-02
   0.5476358464088843E-02
   0.3081258105807757E-02
   0.3702063860451732E-02
   0.3533112930738218E-02
  -0.1539710734697512E-01
  -0.6071011171691758E-03
   0.6600538019407244E-02
   0.1225857871446562E-02
   0.2048747199617210E-02
   0.4111385072614432E-02
  -0.2954741096306928E-02
   0.1551328276879854E-02
   0.3141999168727502E-02
   0.1844069858883572E-02
   0.1980160653182514E-02
   0.1905325029323495E-02
   0.2340377906678178E-02
   0.8854411375306393E-02
  -0.3596566708224864E-02
   0.6173237020114962E-02
  -0.2530439049474940E-04
  -0.5216859407575951E-03
  -0.1694674131202248E-01
  -0.5238576526413396E-02
  -0.5401886710106212E-02
   0.3390586951294297E-02
  -0.6456009899339772E-02
  -0.2496448812575082E-03
  -0.3423340604689495E-01
  -0.2795018153491284E-02
   0.4829057877668947E-02
   0.1165727734794456E-02
   0.2409547202823544E-02
   0.3800307583220741E-02
   0.2521404672376673E-02
   0.2786985502410155E-02
   0.4652059803937607E-02
   0.1860321243821668E-02
   0.5599315831440376E-03
   0.1110496557888405E-03
  -0.5015244198505676E-02
  -0.6123269524478456E-02
  -0.7179472597705538E-03
   0.7533814071873963E-03
  -0.1629163493248382E-02
  -0.3315541427819068E-02
  -0.2686663518046418E-02
  -0.4637775717921468E-02
  -0.7870399350647012E-02
  -0.1984428224975040E-02
   0.7344207601847269E-03
  -0.4804759774789758E-04
   0.8016136539526447E-03
  -0.3054366534678358E-02
   0.5726128108288428E-02
  -0.8604686313626370E-02
   0.1214895374229144E-03
  -0.2437000084943141E-03
   0.2381471838125126E-02
   0.1773369225712294E-02
   0.2220153772982154E-02
  -0.5478996899445987E-02
SCALARS w double 1
LOOKUP_TABLE default
   0.0000000000000000E+00
   0.0000000000000000E+00
   0.0000000000000000E+00
   0.0000000000000000E+00
   0.0000000000000000E+00
   0.0000000000000000E+00
   0.0000000000000000E+00
   0.0000000000000000E+00
   0.0000000000000000E+00
   0.0000000000000000E+00
   0.0000000000000000E+00
   0.0000000000000000E+00
   0.0000000000000000E+00
   0.0000000000000000E+00
   0.0000000000000000E+00
   0.0000000000000000E+00
   0.0000000000000000E+00
   0.0000000000000000E+00
   0.0000000000000000E+00
   0.0000000000000000E+00
   0.0000000000000000E+00
   0.0000000000000000E+00
   0.0000000000000000E+00
   0.0000000000000000E+00
   0.0000000000000000E+00
   0.0000000000000000E+00
   0.0000000000000000E+00
   0.0000000000000000E+00
   0.0000000000000000E+00
   0.0000000000000000E+00
   0.0000000000000000E+00
   0.0000000000000000E+00
   0.0000000000000000E+00
  -0.9793361721854243E-01
  -0.4158663027284553E-01
  -0.2645134061558722E-03
   0.4777755825172797E-02
   0.2336422912092658E-02
   0.2066656324158421E-02
   0.3697733233698105E-02
   0.4497506481864840E-02
   0.8751699330864892E-03
   0.3712050352936402E-02
   0.4556142679188615E-01
   0.6454464003423026E-01
   0.1418282282956121E-02
  -0.2246874152322688E-01
   0.4384006676658517E-02
   0.1307103947185342E-01
   0.1014835861492461E-01
   0.4836416529253153E-01
   0.2042978600619307E-02
  -0.5983260592657784E-02
  -0.3661922741218068E-03
   0.6872086721413441E-03
   0.3705218000347575E-02
  -0.3772524697193974E-01
   0.1772877263449112E-01
   0.1080252680351062E-01
   0.3306513388642132E-01
   0.8295941060631693E-02
   0.4266438775961886E-02
   0.4618365467929342E-02
   0.4885443062171827E-02
   0.5664660087959127E-02
   0.1690844930980097E-02
  -0.4052127272953179E-01
  -0.9691527757680603E-01
  -0.1096888636454365E+00
   0.4373511379325872E-02
   0.2875207667258863E-02
  -0.9736382154495758E-01
  -0.9617786007425073E-01
  -0.9618044788149840E-01
  -0.9224863940409406E-01
  -0.6624933661939877E-01
   0.3937858309569317E-02
  -0.1958167167230450E-01
  -0.1613606118449177E-01
  -0.7364112182057415E-02
   0.5393862770316049E-02
  -0.7799392253362396E-01
  -0.2811912794769781E-01
  -0.7850885249706256E-01
  -0.5795396621105596E-01
   0.4480468895534727E-02
   0.3182918323488889E-02
   0.3181778158412479E-02
   0.4452897138722841E-02
   0.3707446752752572E-02
   0.9144391054912379E-03
   0.1024278693855493E-02
   0.3497825907572080E-02
   0.5421027302714898E-02
   0.4199384589707342E-02
   0.3488165961305374E-02
   0.1480438937964469E-02
   0.3869404603273443E-02
   0.1323693141894301E-02
   0.4044003619170544E-03
   0.5468688881789939E-02
   0.2804134559550489E-02
   0.2554584833145820E-02
   0.5857454475463604E-02
   0.1779022608567650E-02
   0.2308671496192970E-02
   0.2015697417858290E-02
   0.8913961160680431E-03
   0.8439984208857623E-01
   0.2690713708323039E-02
  -0.8530024854099676E-03
   0.2966523879502155E-03
   0.1406950332380365E+00
   0.1228217908826956E+00
  -0.1103449580682387E-02
  -0.4226587880772891E-02
   0.1939961977690764E-03
  -0.6071654943610567E-02
  -0.1404709712426821E-02
   0.1562308185360678E+00
   0.7533280314856386E-01
   0.2579080111027908E-01
   0.1655563690334966E+00