title="tecplot geometry and solution file"
variables = x y z mach temperature lambda1 lambda2 lambda3 lambda4 lambda5
zone t="boundary 1 bc-1", solutiontime= 0.4000000E+02, strandid=1001, i=32, j=46, f=feblock
  0.000000000000E+00  0.000000000000E+00  0.000000000000E+00  0.000000000000E+00  0.000000000000E+00  0.000000000000E+00  0.000000000000E+00
  0.000000000000E+00  0.000000000000E+00  0.000000000000E+00  0.000000000000E+00  0.000000000000E+00  0.000000000000E+00  0.000000000000E+00
  0.000000000000E+00  0.000000000000E+00  0.000000000000E+00  0.000000000000E+00  0.000000000000E+00  0.000000000000E+00  0.000000000000E+00
  0.000000000000E+00  0.000000000000E+00  0.000000000000E+00  0.000000000000E+00  0.000000000000E+00  0.000000000000E+00  0.000000000000E+00
  0.000000000000E+00  0.000000000000E+00  0.000000000000E+00  0.000000000000E+00
  0.250000000000E+01  0.250000000000E+01  0.125000000000E+01  0.146289271009E+01  0.157686156160E+01  0.308372018325E+00  0.000000000000E+00
 -0.125000000000E+01 -0.600232012419E+00  0.250000000000E+01  0.477386199275E+00  0.742988685424E+00 -0.739814786992E+00  0.177790177481E+01
  0.155830813274E+01  0.250000000000E+01 -0.250000000000E+01 -0.154800130438E+01 -0.487811078581E+00  0.250000000000E+01  0.627766083140E+00
 -0.345533899378E+00 -0.178862290564E+01 -0.158811787973E+01  0.125000000000E+01 -0.250000000000E+01 -0.144524380962E+01  0.000000000000E+00
 -0.125000000000E+01 -0.250000000000E+01 -0.250000000000E+01 -0.250000000000E+01
  0.000000000000E+00  0.125000000000E+01  0.000000000000E+00  0.103724302461E+01  0.219251206392E+01  0.922061490191E+00  0.000000000000E+00
  0.000000000000E+00  0.715990576545E+00  0.250000000000E+01  0.202479342020E+01  0.324151231464E+01  0.175434191980E+01  0.310152362409E+01
  0.404200324774E+01  0.375000000000E+01  0.000000000000E+00  0.930412228790E+00  0.299062775774E+01  0.500000000000E+01  0.429310310915E+01
  0.409252726285E+01  0.187029682677E+01  0.284428995242E+01  0.500000000000E+01  0.125000000000E+01  0.394624082883E+01  0.500000000000E+01
  0.500000000000E+01  0.250000000000E+01  0.375000000000E+01  0.500000000000E+01
  0.000000000000E+00  0.441238348384E+00  0.000000000000E+00  0.475214987021E+00  0.460123708856E+00  0.468827815405E+00  0.000000000000E+00
  0.000000000000E+00  0.402302516798E+00  0.469814974359E+00  0.464411128942E+00  0.478714034184E+00  0.489298241651E+00  0.483068557888E+00
  0.487930073118E+00  0.488961654628E+00  0.000000000000E+00  0.464775721414E+00  0.473795651891E+00  0.495346592024E+00  0.490266103446E+00
  0.486286083902E+00  0.445717618051E+00  0.464382274634E+00  0.496127394917E+00  0.443624103833E+00  0.486964461957E+00  0.497246279768E+00
  0.496059270892E+00  0.467732355362E+00  0.488212087362E+00  0.495098264817E+00
  0.999990295028E+00  0.102982719499E+01  0.999990757903E+00  0.104247294232E+01  0.101190080524E+01  0.102520618293E+01  0.999991416700E+00
  0.999992168096E+00  0.103891223624E+01  0.100826277309E+01  0.101252833877E+01  0.100300548289E+01  0.102702865700E+01  0.100605563290E+01
  0.100244400478E+01  0.100355660048E+01  0.999992721792E+00  0.103239739214E+01  0.100459524090E+01  0.100179336279E+01  0.100260305842E+01
  0.100234966417E+01  0.101657153079E+01  0.100617544692E+01  0.100168844809E+01  0.104043292670E+01  0.100303376377E+01  0.100118726928E+01
  0.100134171022E+01  0.100976788415E+01  0.100405369352E+01  0.100176112495E+01
  0.335357256884E-03  0.185532218944E-02  0.196938136435E-03  0.201209616517E-02  0.382723567973E-03  0.194420485994E-04 -0.451007993434E-04
 -0.980148544145E-04 -0.125090871919E-02  0.888556663800E-04  0.661378991443E-04 -0.733741784573E-04 -0.636694487273E-03 -0.107077044862E-03
 -0.168495911740E-03 -0.261597444551E-03 -0.476066057986E-04 -0.101906905224E-02  0.440495825954E-04 -0.200042303361E-03 -0.998301768042E-04
  0.224110526557E-05 -0.161145210619E-03  0.690527274038E-04 -0.205018677438E-03 -0.570682515606E-03  0.436300148107E-04 -0.170617435976E-03
 -0.109846352786E-03 -0.129634821117E-04  0.631868313459E-04 -0.889048703432E-04
  0.235352356990E-04  0.297084829483E-03  0.539757919681E-05  0.289499378992E-03  0.588422936966E-04 -0.528467146377E-05 -0.213950857417E-04
 -0.155244199024E-04 -0.217651946544E-03  0.816562200846E-05  0.979471292890E-05 -0.175830981866E-04 -0.103721977152E-03 -0.303601257894E-04
 -0.301706287101E-04 -0.544849640251E-04 -0.290256113388E-05 -0.142154774755E-03  0.326028512636E-05 -0.373626348575E-04 -0.168799936645E-04
  0.124259575828E-05 -0.230333200556E-04  0.136933143273E-04 -0.410719382640E-04 -0.800255959570E-04  0.955875015206E-05 -0.348324966573E-04
 -0.221564532192E-04  0.269057862152E-05  0.132251902104E-04 -0.181631555263E-04
  0.364341567572E-04  0.696027842212E-05  0.612714944584E-04  0.570155510935E-04 -0.100438973318E-04 -0.475675665251E-07  0.158884249615E-04
 -0.312855160488E-05 -0.397797398065E-04 -0.234060570696E-06 -0.130177237988E-04 -0.242874030060E-04 -0.158679854371E-04 -0.155100665858E-04
 -0.128530183187E-04  0.566461894800E-06 -0.277894129445E-05  0.566742529376E-05 -0.246917889395E-04  0.571994948348E-06 -0.167226703193E-04
 -0.188130221657E-04 -0.123173340271E-04 -0.138988312382E-04 -0.568967974065E-05 -0.230551070003E-05 -0.107275090775E-04 -0.908658896572E-05
 -0.627297610234E-05  0.398715820864E-07  0.241417174478E-06  0.502851871096E-06
 -0.640413249043E-04 -0.768680834184E-04 -0.361139776197E-04 -0.216402553080E-04  0.370813305097E-04  0.177052277590E-04  0.172959064195E-05
  0.249796730462E-04  0.100711015675E-04  0.489700506201E-04  0.219366702934E-04  0.177138230046E-04 -0.186572118424E-04  0.359918451700E-04
  0.180883146525E-04  0.294102825411E-04  0.856736326865E-05  0.575883055122E-05  0.305920203033E-05  0.240151002743E-05  0.891010661476E-05
  0.316603704537E-05 -0.114327327862E-04 -0.518815999298E-05  0.238437913409E-05 -0.498661201151E-05 -0.254248028738E-05  0.243930042545E-05
  0.185796293882E-05 -0.107978126013E-04 -0.538235051941E-05  0.226948102258E-05
 -0.247592831811E-03 -0.759082872981E-03 -0.184025523728E-03 -0.806080280692E-03 -0.154575806102E-03 -0.231609954442E-04  0.432553675419E-04
  0.777525824053E-04  0.510777168003E-03 -0.336288026474E-04 -0.265292764642E-04  0.287611391247E-04  0.255984619626E-03  0.448010601093E-04
  0.688950858998E-04  0.108588815484E-03  0.216656234574E-04  0.405367016695E-03 -0.173649326899E-04  0.825087137391E-04  0.402139193755E-04
 -0.216508714143E-05  0.652303117829E-04 -0.277169031815E-04  0.848766790320E-04  0.228210169832E-03 -0.191696924355E-04  0.708606781511E-04
  0.455342009582E-04  0.447712885175E-05 -0.274807793683E-04  0.366232206099E-04
        12        19        11        11
        11         5        12        12
        10        14         5         5
        19        13        11        11
        19        24        13        13
        30        23        24        24
        19        12        22        22
        28        22        21        21
        11        13         6         6
         7         6         9         9
        15        12        14        14
        18        13        23        23
        15        25        21        21
        27        19        22        22
        18         8         9         9
        27        31        24        24
         4        11         6         6
         5        14        12        12
         4         2         5         5
        21        12        15        15
        14        16        15        15
        24        19        27        27
        22        29        27        27
        23        26        18        18
        17         8        18        18
         5        11         4         4
         6         3         4         4
        26        23        30        30
         5         2        10        10
        16        14        10        10
         3         6         7         7
        21        25        28        28
        29        22        28        28
         6        13         9         9
         2         4         1         1
        31        27        32        32
        25        15        20        20
        24        23        13        13
         8         7         9         9
        13        18         9         9
        31        30        24        24
        12        21        22        22
        29        32        27        27
         3         1         4         4
        26        17        18        18
        16        20        15        15
zone t="boundary 2 bc-2", solutiontime= 0.4000000E+02, strandid=1002, i=33, j=48, f=feblock
  0.500000000000E+01  0.375000000000E+01  0.250000000000E+01  0.288078410721E+01  0.125000000000E+01  0.190974100652E+01  0.326683758169E+01
  0.201431602454E+01  0.000000000000E+00  0.963108083381E+00  0.500000000000E+01  0.403552511878E+01  0.423153924130E+01  0.500000000000E+01
  0.385533350601E+01  0.500000000000E+01  0.398173246726E+01  0.315249557942E+01  0.267000324704E+01  0.154774304040E+01  0.218329375016E+01
  0.893127759452E+00  0.000000000000E+00  0.698517061619E+00  0.964171764089E+00  0.310324758057E+01  0.000000000000E+00  0.000000000000E+00
  0.125000000000E+01  0.500000000000E+01  0.375000000000E+01  0.250000000000E+01  0.000000000000E+00
 -0.250000000000E+01 -0.250000000000E+01 -0.250000000000E+01 -0.250000000000E+01 -0.250000000000E+01 -0.250000000000E+01 -0.250000000000E+01
 -0.250000000000E+01 -0.250000000000E+01 -0.250000000000E+01 -0.250000000000E+01 -0.250000000000E+01 -0.250000000000E+01 -0.250000000000E+01
 -0.250000000000E+01 -0.250000000000E+01 -0.250000000000E+01 -0.250000000000E+01 -0.250000000000E+01 -0.250000000000E+01 -0.250000000000E+01
 -0.250000000000E+01 -0.250000000000E+01 -0.250000000000E+01 -0.250000000000E+01 -0.250000000000E+01 -0.250000000000E+01 -0.250000000000E+01
 -0.250000000000E+01 -0.250000000000E+01 -0.250000000000E+01 -0.250000000000E+01 -0.250000000000E+01
  0.000000000000E+00  0.000000000000E+00  0.000000000000E+00  0.904659890645E+00  0.000000000000E+00  0.717002441913E+00  0.188609243358E+01
  0.176246431481E+01  0.000000000000E+00  0.961328577125E+00  0.125000000000E+01  0.101201586758E+01  0.191586535653E+01  0.250000000000E+01
  0.293121848150E+01  0.375000000000E+01  0.406975391361E+01  0.363585050272E+01  0.285047954584E+01  0.292817774674E+01  0.395907379566E+01
  0.205246550326E+01  0.125000000000E+01  0.306828197606E+01  0.397245519226E+01  0.433168271247E+01  0.250000000000E+01  0.375000000000E+01
  0.500000000000E+01  0.500000000000E+01  0.500000000000E+01  0.500000000000E+01  0.500000000000E+01
  0.000000000000E+00  0.000000000000E+00  0.000000000000E+00  0.380991906500E+00  0.000000000000E+00  0.343629824950E+00  0.585286157424E+00
  0.579373264282E+00  0.000000000000E+00  0.501056069140E+00  0.508460362676E+00  0.435373026572E+00  0.572640041190E+00  0.537002098944E+00
  0.568922553871E+00  0.514994090651E+00  0.508247257160E+00  0.527252853130E+00  0.567446661127E+00  0.531657143909E+00  0.505981016593E+00
  0.520795579399E+00  0.443624103833E+00  0.490663730453E+00  0.492155873749E+00  0.501390784676E+00  0.467732355362E+00  0.488212087362E+00
  0.490002767114E+00  0.491352304715E+00  0.486075475228E+00  0.490036479234E+00  0.495098264817E+00
  0.999993487379E+00  0.999993690057E+00  0.999993543115E+00  0.989539055875E+00  0.999993137282E+00  0.985524707174E+00  0.989838908967E+00
  0.991798516580E+00  0.999992721792E+00  0.984411112416E+00  0.985091906406E+00  0.984689080896E+00  0.990058464829E+00  0.100289621837E+01
  0.999855369243E+00  0.100485306649E+01  0.100121554699E+01  0.100055642931E+01  0.997896793475E+00  0.100350029570E+01  0.100058068723E+01
  0.101093276247E+01  0.104043292670E+01  0.100326475367E+01  0.100254498742E+01  0.100045587387E+01  0.100976788415E+01  0.100405369352E+01
  0.100192656835E+01  0.100045434508E+01  0.100058774183E+01  0.100109993754E+01  0.100176112495E+01
  0.912423297731E-04  0.176496241821E-05 -0.123811187284E-03 -0.221248976351E-02 -0.408626210319E-04 -0.671500299263E-03  0.497931015052E-04
 -0.456094115568E-03 -0.476066057986E-04 -0.755467650494E-03  0.793995360065E-04  0.260419050150E-03  0.306976706575E-04  0.395086218351E-04
  0.144634420089E-04  0.510530336698E-05  0.199843274274E-05  0.131662505827E-04  0.957305871154E-04  0.113227535524E-03  0.442495938118E-05
 -0.234691186813E-03 -0.570682515606E-03  0.460902010402E-04  0.206073291035E-04  0.458370267518E-06 -0.129634821117E-04  0.631868313459E-04
 -0.662171072448E-04  0.293305939458E-05 -0.137427485220E-04 -0.492553507040E-04 -0.889048703432E-04
 -0.248611693401E-04  0.254905462341E-04  0.281156394704E-05 -0.240391964587E-03 -0.758708894191E-05 -0.586358746057E-06  0.504766979149E-04
 -0.212514207688E-04 -0.290256113388E-05 -0.109213903161E-03 -0.247164895275E-04  0.632298046829E-04  0.675252146177E-05 -0.900118009537E-05
  0.622078557233E-05 -0.109031530671E-05  0.249428365327E-05  0.811166820656E-05  0.342760508713E-04  0.405820622173E-04  0.637161548453E-05
 -0.849553072216E-05 -0.800255959570E-04  0.180872712016E-04  0.834833852914E-05  0.494984154652E-05  0.269057862152E-05  0.132251902104E-04
 -0.819964821230E-05  0.664305177927E-06  0.818961492507E-07 -0.395133432815E-05 -0.181631555263E-04
  0.917514282918E-05  0.165247026581E-06 -0.845061961860E-05 -0.215199550644E-04 -0.403651476507E-05  0.624727401576E-05  0.552664459958E-05
  0.740089326575E-06 -0.277894129445E-05 -0.340193046161E-05  0.447310064025E-05  0.195959292667E-04 -0.162413536586E-05  0.803579281420E-08
 -0.111383731698E-05  0.292370646592E-06 -0.176225916071E-06  0.250388015956E-06 -0.256434479375E-05 -0.115641215338E-05  0.605289258026E-07
 -0.248116924764E-05 -0.230551070003E-05  0.226782443125E-06  0.166689180188E-07  0.130164387421E-06  0.398715820864E-07  0.241417174478E-06
  0.227582353942E-06  0.137354010010E-06  0.133129444330E-06 -0.916812934056E-07  0.502851871096E-06
  0.993450787317E-06  0.174091118634E-04  0.140583303074E-04 -0.412955771103E-05  0.288034051384E-05  0.753958369015E-04 -0.776094049819E-04
 -0.414110402785E-04  0.856736326865E-05 -0.539776312645E-06 -0.291294471216E-04 -0.975150973989E-04 -0.275602175301E-04 -0.755528579241E-05
 -0.124614731438E-04 -0.185364413950E-05 -0.292865496199E-05 -0.509092059056E-05 -0.200074021121E-04 -0.139187361823E-04 -0.381060174141E-05
 -0.199549658816E-04 -0.498661201151E-05 -0.826467392915E-05 -0.150542732155E-05 -0.194991636820E-05 -0.107978126013E-04 -0.538235051941E-05
  0.206498353287E-05 -0.890169044736E-07  0.952354890884E-06  0.211217674741E-05  0.226948102258E-05
 -0.415682336935E-04 -0.160638584128E-03 -0.745885104403E-04  0.915468774234E-03  0.256569355103E-04  0.229268730034E-03 -0.337083519753E-04
  0.172407401487E-03  0.216656234574E-04  0.313272280469E-03 -0.145331800700E-04 -0.112874935332E-03 -0.114239338752E-04 -0.812255993399E-05
 -0.650480129531E-05 -0.115452134671E-05 -0.139696247270E-05 -0.755140568790E-05 -0.438838135633E-04 -0.523103668608E-04 -0.385664152622E-05
  0.887533080766E-04  0.228210169832E-03 -0.212404227172E-04 -0.103197195585E-04 -0.174506315781E-05  0.447712885175E-05 -0.274807793683E-04
  0.258559725711E-04 -0.118603849227E-05  0.475240107087E-05  0.185317057067E-04  0.366232206099E-04
        15         7        19        19
         8        20        19        19
        18        19        21        21
         7         4         8         8
         3         6         4         4
        19         7         8         8
        19        18        15        15
        14        13        15        15
         8        22        20        20
        27        24        22        22
        19        20        21        21
        32        26        21        21
        17        18        26        26
        17        16        15        15
        25        29        21        21
        12         7        13        13
        10         8         6         6
        25        20        24        24
         4         6         8         8
        12         2         4         4
        10        23        22        22
        26        31        17        17
        30        16        17        17
         4         7        12        12
        13        11        12        12
        21        20        25        25
        24        28        25        25
        22         8        10        10
         6         5        10        10
        31        26        32        32
         4         2         3         3
         5         6         3         3
        11        13        14        14
        22        23        27        27
        28        24        27        27
        15        13         7         7
         2        12         1         1
        29        25        33        33
        23        10         9         9
        21        26        18        18
        16        14        15        15
        18        17        15        15
        29        32        21        21
        22        24        20        20
        28        33        25        25
        11         1        12        12
        31        30        17        17
         5         9        10        10
zone t="boundary 3 bc-3", solutiontime= 0.4000000E+02, strandid=1003, i=33, j=48, f=feblock
  0.375000000000E+01  0.250000000000E+01  0.500000000000E+01  0.403552511878E+01  0.288078410721E+01  0.125000000000E+01  0.190974100652E+01
  0.500000000000E+01  0.326683758169E+01  0.423153924130E+01  0.201431602454E+01  0.000000000000E+00  0.963108083381E+00  0.500000000000E+01
  0.267000324704E+01  0.385533350601E+01  0.893127759452E+00  0.154774304040E+01  0.000000000000E+00  0.500000000000E+01  0.315249557942E+01
  0.218329375016E+01  0.398173246726E+01  0.000000000000E+00  0.698517061619E+00  0.964171764089E+00  0.125000000000E+01  0.000000000000E+00
  0.500000000000E+01  0.310324758057E+01  0.250000000000E+01  0.375000000000E+01  0.000000000000E+00
  0.250000000000E+01  0.250000000000E+01  0.250000000000E+01  0.250000000000E+01  0.250000000000E+01  0.250000000000E+01  0.250000000000E+01
  0.250000000000E+01  0.250000000000E+01  0.250000000000E+01  0.250000000000E+01  0.250000000000E+01  0.250000000000E+01  0.250000000000E+01
  0.250000000000E+01  0.250000000000E+01  0.250000000000E+01  0.250000000000E+01  0.250000000000E+01  0.250000000000E+01  0.250000000000E+01
  0.250000000000E+01  0.250000000000E+01  0.250000000000E+01  0.250000000000E+01  0.250000000000E+01  0.250000000000E+01  0.250000000000E+01
  0.250000000000E+01  0.250000000000E+01  0.250000000000E+01  0.250000000000E+01  0.250000000000E+01
  0.000000000000E+00  0.000000000000E+00  0.000000000000E+00  0.101201586758E+01  0.904659890645E+00  0.000000000000E+00  0.717002441913E+00
  0.125000000000E+01  0.188609243358E+01  0.191586535653E+01  0.176246431481E+01  0.000000000000E+00  0.961328577125E+00  0.250000000000E+01
  0.285047954584E+01  0.293121848150E+01  0.205246550326E+01  0.292817774674E+01  0.125000000000E+01  0.375000000000E+01  0.363585050272E+01
  0.395907379566E+01  0.406975391361E+01  0.250000000000E+01  0.306828197606E+01  0.397245519226E+01  0.500000000000E+01  0.375000000000E+01
  0.500000000000E+01  0.433168271247E+01  0.500000000000E+01  0.500000000000E+01  0.500000000000E+01
  0.000000000000E+00  0.000000000000E+00  0.000000000000E+00  0.443767745459E+00  0.402286944574E+00  0.000000000000E+00  0.377550369545E+00
  0.509232128688E+00  0.575832179754E+00  0.573707405285E+00  0.562554064412E+00  0.000000000000E+00  0.490563299840E+00  0.534527096543E+00
  0.556586982170E+00  0.564391577749E+00  0.522730517385E+00  0.522052000170E+00  0.441238348384E+00  0.517182331791E+00  0.524228630763E+00
  0.503687457534E+00  0.509488571178E+00  0.469814974359E+00  0.495614442414E+00  0.494483780212E+00  0.488562428343E+00  0.488961654628E+00
  0.492980744788E+00  0.499005552222E+00  0.486460936507E+00  0.484596927548E+00  0.495346592024E+00
  0.999989339439E+00  0.999989408764E+00  0.999989626853E+00  0.981541895460E+00  0.988773990194E+00  0.999989827144E+00  0.982469462434E+00
  0.984104309047E+00  0.990427545862E+00  0.990355285694E+00  0.994362997073E+00  0.999990295028E+00  0.988652071037E+00  0.100368369414E+01
  0.999769197113E+00  0.100118501219E+01  0.100834885320E+01  0.100252111043E+01  0.102982719499E+01  0.100443319461E+01  0.100199536635E+01
  0.100082056599E+01  0.100138192342E+01  0.100826277309E+01  0.100298787130E+01  0.100192389555E+01  0.100215267510E+01  0.100355660048E+01
  0.100047670023E+01  0.100056591053E+01  0.100126820231E+01  0.100066573360E+01  0.100179336279E+01
 -0.407910162225E-04  0.721690159940E-04 -0.615272720000E-04  0.793279199888E-03  0.309229572867E-02  0.243512129964E-03  0.433355519959E-02
 -0.219315764690E-03 -0.106021274725E-03 -0.978635902050E-04  0.681507953365E-03  0.335357256884E-03  0.287350606609E-02 -0.649904094215E-04
 -0.143611447450E-03 -0.369334651435E-04  0.397069859446E-03 -0.177092423685E-03  0.185532218944E-02 -0.328667190542E-04 -0.101073981382E-04
 -0.414680658221E-04 -0.220277573414E-04  0.888556663800E-04 -0.131120697674E-03 -0.118984765738E-03 -0.175484630267E-03 -0.261597444551E-03
 -0.245499969138E-04 -0.270866403593E-04 -0.172602250326E-03 -0.976200649954E-04 -0.200042303361E-03
 -0.134499336248E-04  0.343560331388E-06  0.186637810936E-04  0.210667598920E-03  0.501049669920E-03 -0.475498427065E-04  0.696273380745E-03
  0.306932562535E-04 -0.288764962886E-04  0.941302467380E-05  0.521048457344E-04  0.235352356990E-04  0.321299842799E-03  0.163758645873E-04
 -0.248413424580E-04  0.329268497755E-05  0.199314006747E-04 -0.321770431278E-04  0.297084829483E-03  0.746911714286E-05  0.278915772847E-05
  0.182659761631E-05  0.400879441966E-05  0.816562200846E-05 -0.361416705261E-04 -0.104662896272E-04 -0.309844699252E-04 -0.544849640251E-04
  0.175300481276E-05  0.881842042478E-06 -0.310124894657E-04 -0.109308763658E-04 -0.373626348575E-04
 -0.590866825362E-05  0.322457318136E-05 -0.804266877433E-08 -0.295428352698E-04 -0.703409075113E-04  0.241232285839E-04 -0.283669568902E-04
 -0.118756554026E-05 -0.341026433154E-05 -0.913570502201E-07 -0.434356304741E-05  0.364341567572E-04  0.186655323187E-04  0.894418858454E-06
 -0.993632530063E-06 -0.517372847268E-06 -0.120775117871E-04 -0.295385928246E-05  0.696027842212E-05  0.535890685312E-06  0.115031640794E-05
  0.112973981584E-05 -0.169781792099E-06 -0.234060570696E-06 -0.134639350158E-05  0.772467910914E-06  0.105203727611E-05  0.566461894800E-06
  0.202669705019E-06 -0.127932506501E-06  0.970121059190E-07 -0.415138426108E-07  0.571994948348E-06
 -0.259632961522E-04 -0.565492475239E-04 -0.285500023201E-05  0.253586663165E-04  0.434077549770E-04 -0.500164666487E-04  0.181528901998E-04
  0.170949851396E-04  0.767279715220E-04  0.304163673747E-04  0.129708124962E-03 -0.640413249043E-04  0.566280746106E-04  0.965713628007E-05
  0.160024663351E-04  0.188867604809E-04  0.103797587472E-03  0.163199639164E-04 -0.768680834184E-04  0.545689931426E-05  0.152580826036E-04
  0.101106285273E-04  0.921051033583E-05  0.489700506201E-04  0.417965909661E-04  0.134946277750E-04  0.529150323690E-05  0.294102825411E-04
  0.292430990070E-05  0.108622885676E-04  0.678671931769E-05  0.634379145748E-05  0.240151002743E-05
  0.334901111453E-03  0.274662290305E-03  0.504675016578E-04 -0.383144665936E-03 -0.133960627726E-02  0.429581841788E-04 -0.186472397952E-02
  0.602280767328E-04  0.484485670801E-04  0.281743148786E-04 -0.256999954818E-03 -0.247592831811E-03 -0.114858462299E-02  0.123590565888E-04
  0.570489940143E-04  0.876252665423E-05 -0.150964028822E-03  0.710546846858E-04 -0.759082872981E-03  0.671969415497E-05  0.958244851167E-06
  0.132356476088E-04  0.462141751301E-05 -0.336288026474E-04  0.511540429825E-04  0.454524530081E-04  0.711385718059E-04  0.108588815484E-03
  0.714745225772E-05  0.754586485647E-05  0.694682537199E-04  0.369335853377E-04  0.825087137391E-04
        15         9        16        16
        15        18        11        11
        22        15        21        21
        11         5         9         9
         5         7         2         2
        11         9        15        15
        16        21        15        15
        16        10        14        14
        18        17        11        11
        17        25        24        24
        22        18        15        15
        22        30        31        31
        30        21        23        23
        16        20        23        23
        22        27        26        26
        10         9         4         4
         7        11        13        13
        25        18        26        26
        11         7         5         5
         5         1         4         4
        17        19        13        13
        23        32        30        30
        23        20        29        29
         4         9         5         5
         4         8        10        10
        26        18        22        22
        26        28        25        25
        13        11        17        17
        13         6         7         7
        31        30        32        32
         2         1         5         5
         2         7         6         6
        14        10         8         8
        24        19        17        17
        24        25        28        28
         9        10        16        16
         3         4         1         1
        33        26        27        27
        12        13        19        19
        21        30        22        22
        16        14        20        20
        16        23        21        21
        22        31        27        27
        18        25        17        17
        26        33        28        28
         4         3         8         8
        23        29        32        32
        13        12         6         6
zone t="boundary 4 bc-4", solutiontime= 0.4000000E+02, strandid=1004, i=32, j=46, f=feblock
  0.125000000000E+01  0.219251206392E+01  0.103724302461E+01  0.500000000000E+01  0.250000000000E+01  0.375000000000E+01  0.404200324774E+01
  0.500000000000E+01  0.000000000000E+00  0.310152362409E+01  0.202479342020E+01  0.324151231464E+01  0.922061490191E+00  0.000000000000E+00
  0.299062775774E+01  0.394624082883E+01  0.500000000000E+01  0.409252726285E+01  0.500000000000E+01  0.429310310915E+01  0.175434191980E+01
  0.284428995242E+01  0.000000000000E+00  0.000000000000E+00  0.715990576545E+00  0.930412228790E+00  0.125000000000E+01  0.187029682677E+01
  0.500000000000E+01  0.375000000000E+01  0.250000000000E+01  0.000000000000E+00
  0.250000000000E+01  0.157686156160E+01  0.146289271009E+01  0.250000000000E+01  0.250000000000E+01  0.250000000000E+01  0.155830813274E+01
  0.125000000000E+01  0.250000000000E+01  0.177790177481E+01  0.477386199275E+00  0.742988685424E+00  0.308372018325E+00  0.125000000000E+01
 -0.487811078581E+00 -0.144524380962E+01 -0.125000000000E+01 -0.345533899378E+00  0.000000000000E+00  0.627766083140E+00 -0.739814786992E+00
 -0.158811787973E+01  0.000000000000E+00 -0.125000000000E+01 -0.600232012419E+00 -0.154800130438E+01 -0.250000000000E+01 -0.178862290564E+01
 -0.250000000000E+01 -0.250000000000E+01 -0.250000000000E+01 -0.250000000000E+01
  0.500000000000E+01  0.500000000000E+01  0.500000000000E+01  0.500000000000E+01  0.500000000000E+01  0.500000000000E+01  0.500000000000E+01
  0.500000000000E+01  0.500000000000E+01  0.500000000000E+01  0.500000000000E+01  0.500000000000E+01  0.500000000000E+01  0.500000000000E+01
  0.500000000000E+01  0.500000000000E+01  0.500000000000E+01  0.500000000000E+01  0.500000000000E+01  0.500000000000E+01  0.500000000000E+01
  0.500000000000E+01  0.500000000000E+01  0.500000000000E+01  0.500000000000E+01  0.500000000000E+01  0.500000000000E+01  0.500000000000E+01
  0.500000000000E+01  0.500000000000E+01  0.500000000000E+01  0.500000000000E+01
  0.488562428343E+00  0.488873127044E+00  0.490562939264E+00  0.492980744788E+00  0.486460936507E+00  0.484596927548E+00  0.485347896276E+00
  0.494163542317E+00  0.495346592024E+00  0.486528232758E+00  0.487819998460E+00  0.487068916091E+00  0.494045904395E+00  0.496127394917E+00
  0.487612357629E+00  0.483219722850E+00  0.492395510969E+00  0.487214141159E+00  0.494738985333E+00  0.487958525499E+00  0.489677249447E+00
  0.488029107105E+00  0.497246279768E+00  0.496059270892E+00  0.494951052257E+00  0.492800373677E+00  0.490002767114E+00  0.490005124553E+00
  0.491352304715E+00  0.486075475228E+00  0.490036479234E+00  0.495098264817E+00
  0.100215267510E+01  0.100152652958E+01  0.100178347660E+01  0.100047670023E+01  0.100126820231E+01  0.100066573360E+01  0.100025357725E+01
  0.100050391679E+01  0.100179336279E+01  0.100112367258E+01  0.100133045248E+01  0.100072432973E+01  0.100164366725E+01  0.100168844809E+01
  0.100096274503E+01  0.100000874853E+01  0.100082864314E+01  0.100022269190E+01  0.100062146074E+01  0.100023497311E+01  0.100174635719E+01
  0.100098855496E+01  0.100118726928E+01  0.100134171022E+01  0.100132635956E+01  0.100179873777E+01  0.100192656835E+01  0.100163748619E+01
  0.100045434508E+01  0.100058774183E+01  0.100109993754E+01  0.100176112495E+01
 -0.175484630267E-03 -0.154564573639E-03 -0.142451343450E-03 -0.245499969138E-04 -0.172602250326E-03 -0.976200649954E-04 -0.643265814316E-04
 -0.233116055199E-04 -0.200042303361E-03 -0.143476140080E-03 -0.126182753629E-03 -0.963211424917E-04 -0.137959229623E-03 -0.205018677438E-03
 -0.694687229657E-04 -0.143012481810E-04 -0.330638679063E-05 -0.367204617591E-04 -0.118218777532E-04 -0.596557660488E-04 -0.107654087862E-03
 -0.390445131808E-04 -0.170617435976E-03 -0.109846352786E-03 -0.141072786777E-03 -0.869302247794E-04 -0.662171072448E-04 -0.698999542112E-04
  0.293305939458E-05 -0.137427485220E-04 -0.492553507040E-04 -0.889048703432E-04