title="tecplot geometry and solution file"
variables = x y z mach temperature lambda1 lambda2 lambda3 lambda4 lambda5
zone t="boundary 1 bc-1", solutiontime= 0.7000000E+02, strandid=1001, i=32, j=46, f=feblock
  0.000000000000E+00  0.000000000000E+00  0.000000000000E+00  0.000000000000E+00  0.000000000000E+00  0.000000000000E+00  0.000000000000E+00
  0.000000000000E+00  0.000000000000E+00  0.000000000000E+00  0.000000000000E+00  0.000000000000E+00  0.000000000000E+00  0.000000000000E+00
  0.000000000000E+00  0.000000000000E+00  0.000000000000E+00  0.000000000000E+00  0.000000000000E+00  0.000000000000E+00  0.000000000000E+00
  0.000000000000E+00  0.000000000000E+00  0.000000000000E+00  0.000000000000E+00  0.000000000000E+00  0.000000000000E+00  0.000000000000E+00
  0.000000000000E+00  0.000000000000E+00  0.000000000000E+00  0.000000000000E+00
  0.250000000000E+01  0.250000000000E+01  0.125000000000E+01  0.146289271009E+01  0.157686156160E+01  0.308372018325E+00  0.000000000000E+00
 -0.125000000000E+01 -0.600232012419E+00  0.250000000000E+01  0.477386199275E+00  0.742988685424E+00 -0.739814786992E+00  0.177790177481E+01
  0.155830813274E+01  0.250000000000E+01 -0.250000000000E+01 -0.154800130438E+01 -0.487811078581E+00  0.250000000000E+01  0.627766083140E+00
 -0.345533899378E+00 -0.178862290564E+01 -0.158811787973E+01  0.125000000000E+01 -0.250000000000E+01 -0.144524380962E+01  0.000000000000E+00
 -0.125000000000E+01 -0.250000000000E+01 -0.250000000000E+01 -0.250000000000E+01
  0.000000000000E+00  0.125000000000E+01  0.000000000000E+00  0.103724302461E+01  0.219251206392E+01  0.922061490191E+00  0.000000000000E+00
  0.000000000000E+00  0.715990576545E+00  0.250000000000E+01  0.202479342020E+01  0.324151231464E+01  0.175434191980E+01  0.310152362409E+01
  0.404200324774E+01  0.375000000000E+01  0.000000000000E+00  0.930412228790E+00  0.299062775774E+01  0.500000000000E+01  0.429310310915E+01
  0.409252726285E+01  0.187029682677E+01  0.284428995242E+01  0.500000000000E+01  0.125000000000E+01  0.394624082883E+01  0.500000000000E+01
  0.500000000000E+01  0.250000000000E+01  0.375000000000E+01  0.500000000000E+01
  0.000000000000E+00  0.441238348384E+00  0.000000000000E+00  0.475214987021E+00  0.460123708856E+00  0.468827815405E+00  0.000000000000E+00
  0.000000000000E+00  0.402302516798E+00  0.469814974359E+00  0.464411128942E+00  0.478714034184E+00  0.489298241651E+00  0.483068557888E+00
  0.487930073118E+00  0.488961654628E+00  0.000000000000E+00  0.464775721414E+00  0.473795651891E+00  0.495346592024E+00  0.490266103446E+00
  0.486286083902E+00  0.445717618051E+00  0.464382274634E+00  0.496127394917E+00  0.443624103833E+00  0.486964461957E+00  0.497246279768E+00
  0.496059270892E+00  0.467732355362E+00  0.488212087362E+00  0.495098264817E+00
  0.999990295028E+00  0.102982719499E+01  0.999990757903E+00  0.104247294232E+01  0.101190080524E+01  0.102520618293E+01  0.999991416700E+00
  0.999992168096E+00  0.103891223624E+01  0.100826277309E+01  0.101252833877E+01  0.100300548289E+01  0.102702865700E+01  0.100605563290E+01
  0.100244400478E+01  0.100355660048E+01  0.999992721792E+00  0.103239739214E+01  0.100459524090E+01  0.100179336279E+01  0.100260305842E+01
  0.100234966417E+01  0.101657153079E+01  0.100617544692E+01  0.100168844809E+01  0.104043292670E+01  0.100303376377E+01  0.100118726928E+01
  0.100134171022E+01  0.100976788415E+01  0.100405369352E+01  0.100176112495E+01
  0.335357530425E-03  0.185532458765E-02  0.196937853909E-03  0.201209671429E-02  0.382722102979E-03  0.194386546383E-04 -0.451012196466E-04
 -0.980147580634E-04 -0.125090927318E-02  0.888547633177E-04  0.661385198525E-04 -0.733744180634E-04 -0.636692309704E-03 -0.107077067034E-03
 -0.168495716509E-03 -0.261596573640E-03 -0.476066041423E-04 -0.101906710243E-02  0.440489764940E-04 -0.200042769081E-03 -0.998300239826E-04
  0.223994030378E-05 -0.161145774079E-03  0.690525155008E-04 -0.205018739164E-03 -0.570685660400E-03  0.436296236429E-04 -0.170616110570E-03
 -0.109845052726E-03 -0.129627351681E-04  0.631871158282E-04 -0.889051655592E-04
  0.235352387235E-04  0.297085364212E-03  0.539760327965E-05  0.289499624672E-03  0.588420031733E-04 -0.528530140980E-05 -0.213950912884E-04
 -0.155243983132E-04 -0.217651891044E-03  0.816545913922E-05  0.979478910131E-05 -0.175831850632E-04 -0.103721506994E-03 -0.303601453721E-04
 -0.301705527350E-04 -0.544847903958E-04 -0.290257161406E-05 -0.142154458019E-03  0.326013978064E-05 -0.373627485114E-04 -0.168799152001E-04
  0.124234942045E-05 -0.230334364017E-04  0.136933037402E-04 -0.410720003994E-04 -0.800262596629E-04  0.955870693812E-05 -0.348322852635E-04
 -0.221561760337E-04  0.269075152245E-05  0.132252813309E-04 -0.181633790193E-04
  0.364341943154E-04  0.696028493474E-05  0.612715747617E-04  0.570159364576E-04 -0.100438851178E-04 -0.472832532367E-07  0.158883901452E-04
 -0.312858164482E-05 -0.397795866119E-04 -0.234059240622E-06 -0.130176899710E-04 -0.242875211994E-04 -0.158679735810E-04 -0.155101137512E-04
 -0.128530143184E-04  0.566460648805E-06 -0.277893685960E-05  0.566727630861E-05 -0.246918604600E-04  0.571995727798E-06 -0.167227408391E-04
 -0.188131236858E-04 -0.123172256545E-04 -0.138987816869E-04 -0.568954991601E-05 -0.230551577172E-05 -0.107275537356E-04 -0.908635745200E-05
 -0.627289292096E-05  0.398774036239E-07  0.241419644529E-06  0.502852374667E-06
 -0.640413662059E-04 -0.768681756285E-04 -0.361139134366E-04 -0.216401734234E-04  0.370814126960E-04  0.177052226742E-04  0.172965539178E-05
  0.249796438071E-04  0.100709951139E-04  0.489700385040E-04  0.219365777712E-04  0.177138325072E-04 -0.186574040710E-04  0.359918098002E-04
  0.180882833926E-04  0.294102049380E-04  0.856736637689E-05  0.575876504944E-05  0.305919589492E-05  0.240152161672E-05  0.891005557782E-05
  0.316601097937E-05 -0.114326902101E-04 -0.518816206660E-05  0.238438446031E-05 -0.498645127077E-05 -0.254247709571E-05  0.243929067462E-05
  0.185795989281E-05 -0.107977679777E-04 -0.538239229308E-05  0.226949769766E-05
 -0.247593089055E-03 -0.759083895584E-03 -0.184025219971E-03 -0.806080532237E-03 -0.154575194043E-03 -0.231596187282E-04  0.432555841989E-04
  0.777524691699E-04  0.510777375513E-03 -0.336284230128E-04 -0.265295296412E-04  0.287612395014E-04  0.255983702648E-03  0.448010642630E-04
  0.688950000890E-04  0.108588451367E-03  0.216656116745E-04  0.405366223442E-03 -0.173646689982E-04  0.825089104679E-04  0.402138536189E-04
 -0.216459039604E-05  0.652305447066E-04 -0.277168111978E-04  0.848767137237E-04  0.228211478045E-03 -0.191695285548E-04  0.708601284910E-04
  0.455336433490E-04  0.447681632835E-05 -0.274808979523E-04  0.366233647869E-04
        12        19        11        11
        11         5        12        12
        10        14         5         5
        19        13        11        11
        19        24        13        13
        30        23        24        24
        19        12        22        22
        28        22        21        21
        11        13         6         6
         7         6         9         9
        15        12        14        14
        18        13        23        23
        15        25        21        21
        27        19        22        22
        18         8         9         9
        27        31        24        24
         4        11         6         6
         5        14        12        12
         4         2         5         5
        21        12        15        15
        14        16        15        15
        24        19        27        27
        22        29        27        27
        23        26        18        18
        17         8        18        18
         5        11         4         4
         6         3         4         4
        26        23        30        30
         5         2        10        10
        16        14        10        10
         3         6         7         7
        21        25        28        28
        29        22        28        28
         6        13         9         9
         2         4         1         1
        31        27        32        32
        25        15        20        20
        24        23        13        13
         8         7         9         9
        13        18         9         9
        31        30        24        24
        12        21        22        22
        29        32        27        27
         3         1         4         4
        26        17        18        18
        16        20        15        15
zone t="boundary 2 bc-2", solutiontime= 0.7000000E+02, strandid=1002, i=33, j=48, f=feblock
  0.500000000000E+01  0.375000000000E+01  0.250000000000E+01  0.288078410721E+01  0.125000000000E+01  0.190974100652E+01  0.326683758169E+01
  0.201431602454E+01  0.000000000000E+00  0.963108083381E+00  0.500000000000E+01  0.403552511878E+01  0.423153924130E+01  0.500000000000E+01
  0.385533350601E+01  0.500000000000E+01  0.398173246726E+01  0.315249557942E+01  0.267000324704E+01  0.154774304040E+01  0.218329375016E+01
  0.893127759452E+00  0.000000000000E+00  0.698517061619E+00  0.964171764089E+00  0.310324758057E+01  0.000000000000E+00  0.000000000000E+00
  0.125000000000E+01  0.500000000000E+01  0.375000000000E+01  0.250000000000E+01  0.000000000000E+00
 -0.250000000000E+01 -0.250000000000E+01 -0.250000000000E+01 -0.250000000000E+01 -0.250000000000E+01 -0.250000000000E+01 -0.250000000000E+01
 -0.250000000000E+01 -0.250000000000E+01 -0.250000000000E+01 -0.250000000000E+01 -0.250000000000E+01 -0.250000000000E+01 -0.250000000000E+01
 -0.250000000000E+01 -0.250000000000E+01 -0.250000000000E+01 -0.250000000000E+01 -0.250000000000E+01 -0.250000000000E+01 -0.250000000000E+01
 -0.250000000000E+01 -0.250000000000E+01 -0.250000000000E+01 -0.250000000000E+01 -0.250000000000E+01 -0.250000000000E+01 -0.250000000000E+01
 -0.250000000000E+01 -0.250000000000E+01 -0.250000000000E+01 -0.250000000000E+01 -0.250000000000E+01
  0.000000000000E+00  0.000000000000E+00  0.000000000000E+00  0.904659890645E+00  0.000000000000E+00  0.717002441913E+00  0.188609243358E+01
  0.176246431481E+01  0.000000000000E+00  0.961328577125E+00  0.125000000000E+01  0.101201586758E+01  0.191586535653E+01  0.250000000000E+01
  0.293121848150E+01  0.375000000000E+01  0.406975391361E+01  0.363585050272E+01  0.285047954584E+01  0.292817774674E+01  0.395907379566E+01
  0.205246550326E+01  0.125000000000E+01  0.306828197606E+01  0.397245519226E+01  0.433168271247E+01  0.250000000000E+01  0.375000000000E+01
  0.500000000000E+01  0.500000000000E+01  0.500000000000E+01  0.500000000000E+01  0.500000000000E+01
  0.000000000000E+00  0.000000000000E+00  0.000000000000E+00  0.380991906500E+00  0.000000000000E+00  0.343629824950E+00  0.585286157424E+00
  0.579373264282E+00  0.000000000000E+00  0.501056069140E+00  0.508460362676E+00  0.435373026572E+00  0.572640041190E+00  0.537002098944E+00
  0.568922553871E+00  0.514994090651E+00  0.508247257160E+00  0.527252853130E+00  0.567446661127E+00  0.531657143909E+00  0.505981016593E+00
  0.520795579399E+00  0.443624103833E+00  0.490663730453E+00  0.492155873749E+00  0.501390784676E+00  0.467732355362E+00  0.488212087362E+00
  0.490002767114E+00  0.491352304715E+00  0.486075475228E+00  0.490036479234E+00  0.495098264817E+00
  0.999993487379E+00  0.999993690057E+00  0.999993543115E+00  0.989539055875E+00  0.999993137282E+00  0.985524707174E+00  0.989838908967E+00
  0.991798516580E+00  0.999992721792E+00  0.984411112416E+00  0.985091906406E+00  0.984689080896E+00  0.990058464829E+00  0.100289621837E+01
  0.999855369243E+00  0.100485306649E+01  0.100121554699E+01  0.100055642931E+01  0.997896793475E+00  0.100350029570E+01  0.100058068723E+01
  0.101093276247E+01  0.104043292670E+01  0.100326475367E+01  0.100254498742E+01  0.100045587387E+01  0.100976788415E+01  0.100405369352E+01
  0.100192656835E+01  0.100045434508E+01  0.100058774183E+01  0.100109993754E+01  0.100176112495E+01
  0.912424051759E-04  0.176497857473E-05 -0.123811195196E-03 -0.221248878469E-02 -0.408625572448E-04 -0.671499282429E-03  0.497938410262E-04
 -0.456094128040E-03 -0.476066041423E-04 -0.755467801205E-03  0.793992382875E-04  0.260421870300E-03  0.306969559329E-04  0.395087564403E-04
  0.144632341656E-04  0.510534036319E-05  0.199841114470E-05  0.131661389848E-04  0.957308408222E-04  0.113227977354E-03  0.442490985249E-05
 -0.234690061172E-03 -0.570685660400E-03  0.460906588434E-04  0.206079738987E-04  0.458500230609E-06 -0.129627351681E-04  0.631871158282E-04
 -0.662166485908E-04  0.293306814162E-05 -0.137427154360E-04 -0.492549493697E-04 -0.889051655592E-04
 -0.248611866212E-04  0.254905708611E-04  0.281155302720E-05 -0.240391865996E-03 -0.758708597296E-05 -0.586419461710E-06  0.504768965796E-04
 -0.212514760133E-04 -0.290257161406E-05 -0.109214043388E-03 -0.247165823377E-04  0.632304061559E-04  0.675230195302E-05 -0.900115036989E-05
  0.622073038201E-05 -0.109030217489E-05  0.249428447135E-05  0.811164584181E-05  0.342761227903E-04  0.405822095899E-04  0.637163150286E-05
 -0.849532948473E-05 -0.800262596629E-04  0.180874055555E-04  0.834855124959E-05  0.494990568400E-05  0.269075152245E-05  0.132252813309E-04
 -0.819972563984E-05  0.664305250086E-06  0.818824975986E-07 -0.395131227392E-05 -0.181633790193E-04
  0.917513849094E-05  0.165239873853E-06 -0.845062975954E-05 -0.215199394917E-04 -0.403652202801E-05  0.624726407039E-05  0.552665781395E-05
  0.740096526152E-06 -0.277893685960E-05 -0.340192019317E-05  0.447309938003E-05  0.195959565147E-04 -0.162414321043E-05  0.803595790163E-08
 -0.111384094529E-05  0.292371466839E-06 -0.176225946823E-06  0.250383663207E-06 -0.256434827566E-05 -0.115640904046E-05  0.605292967325E-07
 -0.248116339133E-05 -0.230551577172E-05  0.226794757347E-06  0.166868186025E-07  0.130164528117E-06  0.398774036239E-07  0.241419644529E-06
  0.227581991673E-06  0.137354184757E-06  0.133130171246E-06 -0.916784213043E-07  0.502852374667E-06
  0.993449689526E-06  0.174091074922E-04  0.140583343920E-04 -0.412955970762E-05  0.288034052351E-05  0.753959188790E-04 -0.776094800918E-04
 -0.414110488004E-04  0.856736637689E-05 -0.539717052229E-06 -0.291294459571E-04 -0.975153261562E-04 -0.275602204521E-04 -0.755529102678E-05
 -0.124614872460E-04 -0.185363778161E-05 -0.292865335574E-05 -0.509092511895E-05 -0.200074077615E-04 -0.139187369655E-04 -0.381057418294E-05
 -0.199549850329E-04 -0.498645127077E-05 -0.826468354766E-05 -0.150542215348E-05 -0.194989733978E-05 -0.107977679777E-04 -0.538239229308E-05
  0.206498504866E-05 -0.890178416424E-07  0.952353772332E-06  0.211216601302E-05  0.226949769766E-05
 -0.415682815510E-04 -0.160638606280E-03 -0.745885053110E-04  0.915468373190E-03  0.256569277971E-04  0.229268348791E-03 -0.337086805311E-04
  0.172407414017E-03  0.216656116745E-04  0.313272367288E-03 -0.145330396813E-04 -0.112876166779E-03 -0.114236037511E-04 -0.812261693970E-05
 -0.650470937501E-05 -0.115453910421E-05 -0.139695460976E-05 -0.755135675745E-05 -0.438839254310E-04 -0.523105613467E-04 -0.385662521783E-05
  0.887528384192E-04  0.228211478045E-03 -0.212406194384E-04 -0.103200071029E-04 -0.174512830909E-05  0.447681632835E-05 -0.274808979523E-04
  0.258558165857E-04 -0.118604137914E-05  0.475239275816E-05  0.185315530989E-04  0.366233647869E-04
        15         7        19        19
         8        20        19        19
        18        19        21        21
         7         4         8         8
         3         6         4         4
        19         7         8         8
        19        18        15        15
        14        13        15        15
         8        22        20        20
        27        24        22        22
        19        20        21        21
        32        26        21        21
        17        18        26        26
        17        16        15        15
        25        29        21        21
        12         7        13        13
        10         8         6         6
        25        20        24        24
         4         6         8         8
        12         2         4         4
        10        23        22        22
        26        31        17        17
        30        16        17        17
         4         7        12        12
        13        11        12        12
        21        20        25        25
        24        28        25        25
        22         8        10        10
         6         5        10        10
        31        26        32        32
         4         2         3         3
         5         6         3         3
        11        13        14        14
        22        23        27        27
        28        24        27        27
        15        13         7         7
         2        12         1         1
        29        25        33        33
        23        10         9         9
        21        26        18        18
        16        14        15        15
        18        17        15        15
        29        32        21        21
        22        24        20        20
        28        33        25        25
        11         1        12        12
        31        30        17        17
         5         9        10        10
zone t="boundary 3 bc-3", solutiontime= 0.7000000E+02, strandid=1003, i=33, j=48, f=feblock
  0.375000000000E+01  0.250000000000E+01  0.500000000000E+01  0.403552511878E+01  0.288078410721E+01  0.125000000000E+01  0.190974100652E+01
  0.500000000000E+01  0.326683758169E+01  0.423153924130E+01  0.201431602454E+01  0.000000000000E+00  0.963108083381E+00  0.500000000000E+01
  0.267000324704E+01  0.385533350601E+01  0.893127759452E+00  0.154774304040E+01  0.000000000000E+00  0.500000000000E+01  0.315249557942E+01
  0.218329375016E+01  0.398173246726E+01  0.000000000000E+00  0.698517061619E+00  0.964171764089E+00  0.125000000000E+01  0.000000000000E+00
  0.500000000000E+01  0.310324758057E+01  0.250000000000E+01  0.375000000000E+01  0.000000000000E+00
  0.250000000000E+01  0.250000000000E+01  0.250000000000E+01  0.250000000000E+01  0.250000000000E+01  0.250000000000E+01  0.250000000000E+01
  0.250000000000E+01  0.250000000000E+01  0.250000000000E+01  0.250000000000E+01  0.250000000000E+01  0.250000000000E+01  0.250000000000E+01
  0.250000000000E+01  0.250000000000E+01  0.250000000000E+01  0.250000000000E+01  0.250000000000E+01  0.250000000000E+01  0.250000000000E+01
  0.250000000000E+01  0.250000000000E+01  0.250000000000E+01  0.250000000000E+01  0.250000000000E+01  0.250000000000E+01  0.250000000000E+01
  0.250000000000E+01  0.250000000000E+01  0.250000000000E+01  0.250000000000E+01  0.250000000000E+01
  0.000000000000E+00  0.000000000000E+00  0.000000000000E+00  0.101201586758E+01  0.904659890645E+00  0.000000000000E+00  0.717002441913E+00
  0.125000000000E+01  0.188609243358E+01  0.191586535653E+01  0.176246431481E+01  0.000000000000E+00  0.961328577125E+00  0.250000000000E+01
  0.285047954584E+01  0.293121848150E+01  0.205246550326E+01  0.292817774674E+01  0.125000000000E+01  0.375000000000E+01  0.363585050272E+01
  0.395907379566E+01  0.406975391361E+01  0.250000000000E+01  0.306828197606E+01  0.397245519226E+01  0.500000000000E+01  0.375000000000E+01
  0.500000000000E+01  0.433168271247E+01  0.500000000000E+01  0.500000000000E+01  0.500000000000E+01
  0.000000000000E+00  0.000000000000E+00  0.000000000000E+00  0.443767745459E+00  0.402286944574E+00  0.000000000000E+00  0.377550369545E+00
  0.509232128688E+00  0.575832179754E+00  0.573707405285E+00  0.562554064412E+00  0.000000000000E+00  0.490563299840E+00  0.534527096543E+00
  0.556586982170E+00  0.564391577749E+00  0.522730517385E+00  0.522052000170E+00  0.441238348384E+00  0.517182331791E+00  0.524228630763E+00
  0.503687457534E+00  0.509488571178E+00  0.469814974359E+00  0.495614442414E+00  0.494483780212E+00  0.488562428343E+00  0.488961654628E+00
  0.492980744788E+00  0.499005552222E+00  0.486460936507E+00  0.484596927548E+00  0.495346592024E+00
  0.999989339439E+00  0.999989408764E+00  0.999989626853E+00  0.981541895460E+00  0.988773990194E+00  0.999989827144E+00  0.982469462434E+00
  0.984104309047E+00  0.990427545862E+00  0.990355285694E+00  0.994362997073E+00  0.999990295028E+00  0.988652071037E+00  0.100368369414E+01
  0.999769197113E+00  0.100118501219E+01  0.100834885320E+01  0.100252111043E+01  0.102982719499E+01  0.100443319461E+01  0.100199536635E+01
  0.100082056599E+01  0.100138192342E+01  0.100826277309E+01  0.100298787130E+01  0.100192389555E+01  0.100215267510E+01  0.100355660048E+01
  0.100047670023E+01  0.100056591053E+01  0.100126820231E+01  0.100066573360E+01  0.100179336279E+01
 -0.407912965288E-04  0.721690872148E-04 -0.615272687956E-04  0.793275435538E-03  0.309230077118E-02  0.243512264457E-03  0.433356004196E-02
 -0.219315118509E-03 -0.106022488480E-03 -0.978628965063E-04  0.681507589898E-03  0.335357530425E-03  0.287351075929E-02 -0.649905133836E-04
 -0.143611215319E-03 -0.369334181629E-04  0.397069988691E-03 -0.177092617619E-03  0.185532458765E-02 -0.328667241394E-04 -0.101073543104E-04
 -0.414679113287E-04 -0.220276538812E-04  0.888547633177E-04 -0.131119965871E-03 -0.118984740129E-03 -0.175484490580E-03 -0.261596573640E-03
 -0.245499927196E-04 -0.270866166443E-04 -0.172602199451E-03 -0.976200893644E-04 -0.200042769081E-03
 -0.134499610349E-04  0.343498673519E-06  0.186638279869E-04  0.210667324459E-03  0.501051041338E-03 -0.475499224531E-04  0.696274734073E-03
  0.306934521944E-04 -0.288767894298E-04  0.941323493066E-05  0.521048955814E-04  0.235352387235E-04  0.321301168434E-03  0.163758398486E-04
 -0.248413169171E-04  0.329269313143E-05  0.199316035906E-04 -0.321771313655E-04  0.297085364212E-03  0.746912159796E-05  0.278915624100E-05
  0.182658622498E-05  0.400882042687E-05  0.816545913922E-05 -0.361414346661E-04 -0.104663675262E-04 -0.309843495000E-04 -0.544847903958E-04
  0.175300052506E-05  0.881837293128E-06 -0.310125079421E-04 -0.109308852480E-04 -0.373627485114E-04
 -0.590867350135E-05  0.322457632305E-05 -0.802721655015E-08 -0.295428454262E-04 -0.703409846315E-04  0.241232339959E-04 -0.283669737941E-04
 -0.118756690179E-05 -0.341024756569E-05 -0.913664113288E-07 -0.434355728440E-05  0.364341943154E-04  0.186654609426E-04  0.894418196277E-06
 -0.993625055593E-06 -0.517371665764E-06 -0.120775830002E-04 -0.295386316018E-05  0.696028493474E-05  0.535891436827E-06  0.115031713174E-05
  0.112974402947E-05 -0.169782153415E-06 -0.234059240622E-06 -0.134639469686E-05  0.772471493352E-06  0.105203509523E-05  0.566460648805E-06
  0.202670210919E-06 -0.127933564642E-06  0.970131394476E-07 -0.415139878155E-07  0.571995727798E-06
 -0.259632559087E-04 -0.565493126622E-04 -0.285502398082E-05  0.253588466076E-04  0.434076612742E-04 -0.500164989257E-04  0.181527110047E-04
  0.170949176939E-04  0.767279809722E-04  0.304163695800E-04  0.129708142631E-03 -0.640413662059E-04  0.566279576767E-04  0.965714650191E-05
  0.160024658087E-04  0.188867818962E-04  0.103797561418E-03  0.163199013265E-04 -0.768681756285E-04  0.545689292113E-05  0.152581065699E-04
  0.101106271819E-04  0.921051208182E-05  0.489700385040E-04  0.417964758693E-04  0.134946225706E-04  0.529149018448E-05  0.294102049380E-04
  0.292430970820E-05  0.108622876753E-04  0.678671891115E-05  0.634378996304E-05  0.240152161672E-05
  0.334901234358E-03  0.274662216779E-03  0.504674101488E-04 -0.383143149615E-03 -0.133960850773E-02  0.429581483203E-04 -0.186472613707E-02
  0.602277638309E-04  0.484491122533E-04  0.281739938132E-04 -0.256999799439E-03 -0.247593089055E-03 -0.114858669747E-02  0.123591013532E-04
  0.570488998855E-04  0.876250659253E-05 -0.150964108661E-03  0.710547796633E-04 -0.759083895584E-03  0.671969341865E-05  0.958229618855E-06
  0.132355944012E-04  0.462137213084E-05 -0.336284230128E-04  0.511537083590E-04  0.454524624173E-04  0.711384939028E-04  0.108588451367E-03
  0.714745265483E-05  0.754585892248E-05  0.694682358101E-04  0.369335970909E-04  0.825089104679E-04
        15         9        16        16
        15        18        11        11
        22        15        21        21
        11         5         9         9
         5         7         2         2
        11         9        15        15
        16        21        15        15
        16        10        14        14
        18        17        11        11
        17        25        24        24
        22        18        15        15
        22        30        31        31
        30        21        23        23
        16        20        23        23
        22        27        26        26
        10         9         4         4
         7        11        13        13
        25        18        26        26
        11         7         5         5
         5         1         4         4
        17        19        13        13
        23        32        30        30
        23        20        29        29
         4         9         5         5
         4         8        10        10
        26        18        22        22
        26        28        25        25
        13        11        17        17
        13         6         7         7
        31        30        32        32
         2         1         5         5
         2         7         6         6
        14        10         8         8
        24        19        17        17
        24        25        28        28
         9        10        16        16
         3         4         1         1
        33        26        27        27
        12        13        19        19
        21        30        22        22
        16        14        20        20
        16        23        21        21
        22        31        27        27
        18        25        17        17
        26        33        28        28
         4         3         8         8
        23        29        32        32
        13        12         6         6
zone t="boundary 4 bc-4", solutiontime= 0.7000000E+02, strandid=1004, i=32, j=46, f=feblock
  0.125000000000E+01  0.219251206392E+01  0.103724302461E+01  0.500000000000E+01  0.250000000000E+01  0.375000000000E+01  0.404200324774E+01
  0.500000000000E+01  0.000000000000E+00  0.310152362409E+01  0.202479342020E+01  0.324151231464E+01  0.922061490191E+00  0.000000000000E+00
  0.299062775774E+01  0.394624082883E+01  0.500000000000E+01  0.409252726285E+01  0.500000000000E+01  0.429310310915E+01  0.175434191980E+01
  0.284428995242E+01  0.000000000000E+00  0.000000000000E+00  0.715990576545E+00  0.930412228790E+00  0.125000000000E+01  0.187029682677E+01
  0.500000000000E+01  0.375000000000E+01  0.250000000000E+01  0.000000000000E+00
  0.250000000000E+01  0.157686156160E+01  0.146289271009E+01  0.250000000000E+01  0.250000000000E+01  0.250000000000E+01  0.155830813274E+01
  0.125000000000E+01  0.250000000000E+01  0.177790177481E+01  0.477386199275E+00  0.742988685424E+00  0.308372018325E+00  0.125000000000E+01
 -0.487811078581E+00 -0.144524380962E+01 -0.125000000000E+01 -0.345533899378E+00  0.000000000000E+00  0.627766083140E+00 -0.739814786992E+00
 -0.158811787973E+01  0.000000000000E+00 -0.125000000000E+01 -0.600232012419E+00 -0.154800130438E+01 -0.250000000000E+01 -0.178862290564E+01
 -0.250000000000E+01 -0.250000000000E+01 -0.250000000000E+01 -0.250000000000E+01
  0.500000000000E+01  0.500000000000E+01  0.500000000000E+01  0.500000000000E+01  0.500000000000E+01  0.500000000000E+01  0.500000000000E+01
  0.500000000000E+01  0.500000000000E+01  0.500000000000E+01  0.500000000000E+01  0.500000000000E+01  0.500000000000E+01  0.500000000000E+01
  0.500000000000E+01  0.500000000000E+01  0.500000000000E+01  0.500000000000E+01  0.500000000000E+01  0.500000000000E+01  0.500000000000E+01
  0.500000000000E+01  0.500000000000E+01  0.500000000000E+01  0.500000000000E+01  0.500000000000E+01  0.500000000000E+01  0.500000000000E+01
  0.500000000000E+01  0.500000000000E+01  0.500000000000E+01  0.500000000000E+01
  0.488562428343E+00  0.488873127044E+00  0.490562939264E+00  0.492980744788E+00  0.486460936507E+00  0.484596927548E+00  0.485347896276E+00
  0.494163542317E+00  0.495346592024E+00  0.486528232758E+00  0.487819998460E+00  0.487068916091E+00  0.494045904395E+00  0.496127394917E+00
  0.487612357629E+00  0.483219722850E+00  0.492395510969E+00  0.487214141159E+00  0.494738985333E+00  0.487958525499E+00  0.489677249447E+00
  0.488029107105E+00  0.497246279768E+00  0.496059270892E+00  0.494951052257E+00  0.492800373677E+00  0.490002767114E+00  0.490005124553E+00
  0.491352304715E+00  0.486075475228E+00  0.490036479234E+00  0.495098264817E+00
  0.100215267510E+01  0.100152652958E+01  0.100178347660E+01  0.100047670023E+01  0.100126820231E+01  0.100066573360E+01  0.100025357725E+01
  0.100050391679E+01  0.100179336279E+01  0.100112367258E+01  0.100133045248E+01  0.100072432973E+01  0.100164366725E+01  0.100168844809E+01
  0.100096274503E+01  0.100000874853E+01  0.100082864314E+01  0.100022269190E+01  0.100062146074E+01  0.100023497311E+01  0.100174635719E+01
  0.100098855496E+01  0.100118726928E+01  0.100134171022E+01  0.100132635956E+01  0.100179873777E+01  0.100192656835E+01  0.100163748619E+01
  0.100045434508E+01  0.100058774183E+01  0.100109993754E+01  0.100176112495E+01
 -0.175484490580E-03 -0.154564753442E-03 -0.142451361135E-03 -0.245499927196E-04 -0.172602199451E-03 -0.976200893644E-04 -0.643266295680E-04
 -0.233116013774E-04 -0.200042769081E-03 -0.143476010406E-03 -0.126182482800E-03 -0.963211789019E-04 -0.137958302027E-03 -0.205018739164E-03
 -0.694685675455E-04 -0.143012260108E-04 -0.330639140854E-05 -0.367204500739E-04 -0.118218875707E-04 -0.596557058814E-04 -0.107654197439E-03
 -0.390446869300E-04 -0.170616110570E-03 -0.109845052726E-03 -0.141071938498E-03 -0.869301096173E-04 -0.662166485908E-04 -0.698999836131E-04
  0.293306814162E-05 -0.137427154360E-04 -0.492549493697E-04 -0.889051655592E-04