# vtk DataFile Version 2.0
FUN3D:global_image_vtk
ASCII
DATASET UNSTRUCTURED_GRID
POINTS 213 double
   -0.5474685441687843E-02    0.2504941971167291E+01    0.8038138598664995E-04
    0.1245419105183472E+01    0.2504941971167291E+01    0.1039425058013135E-03
    0.2497696093128780E+01    0.2504941971167291E+01    0.1101298164665756E-03
    0.3750590968915824E+01    0.2504941971167291E+01    0.1356499004944170E-03
    0.5003221331742151E+01    0.2504941971167291E+01    0.9668873038903866E-04
    0.5004676687979097E+01    0.1281291202167039E+01    0.1638053019383804E-03
    0.5004772673778115E+01    0.2775079906482928E-01    0.1903478008447039E-03
    0.5003581183341212E+01   -0.1225853508883529E+01    0.1607765204486581E-03
    0.5001952533742191E+01   -0.2496589036641631E+01    0.1082258890303114E-03
    0.3750348111606544E+01   -0.2496589036641631E+01    0.1458753696815809E-03
    0.2498611462994928E+01   -0.2496589036641631E+01    0.1008933264248226E-03
    0.1247175269333276E+01   -0.2496589036641631E+01    0.1108587619168546E-03
   -0.3383959865718385E-02   -0.2496589036641631E+01    0.8107259626494183E-04
   -0.4257768979765606E-02   -0.1225734811642591E+01    0.3415458742311867E-04
   -0.5251592448509268E-02    0.2619486024420457E-01    0.1038724387187886E-03
   -0.5676060312426412E-02    0.1278221569065707E+01    0.8224601702144798E-04
    0.9003209617952583E+00    0.1608979112280158E+01    0.8704140727661143E-04
    0.3983172210692289E+01   -0.1561211904840279E+01    0.1757116720370603E-03
    0.4035602039224469E+01    0.1486760030415520E+01    0.1713312862106079E-03
    0.1036613723302902E+01   -0.1455626429916848E+01    0.1047189301534026E-03
    0.1094353480630802E+01   -0.2964622010671852E+00    0.1260590236916717E-03
    0.7298400267479994E+00    0.6874684746719123E+00    0.1044598640544960E-03
    0.1617018659308945E+01    0.8553208024939366E+00    0.1529810904973842E-03
    0.2143199662875790E+01   -0.1627128509216730E+01    0.1606170425226819E-03
    0.4088840445400889E+01   -0.4351047825936263E+00    0.2719933294109140E-03
    0.2977916511248925E+01   -0.8334991483094502E+00    0.2245596931861886E-03
    0.3044093241383418E+01   -0.1814361225108581E+01    0.1617000112420500E-03
    0.3427866614805211E+01    0.3813904839972496E+00    0.2936955483429655E-03
    0.4313225355351749E+01    0.5489133376342497E+00    0.2313009573592377E-03
    0.1823032737597358E+01    0.1771265193544254E+01    0.1836202887151587E-03
    0.2806311152168375E+01    0.1358629373600680E+01    0.1943492163983822E-03
    0.1891860875936711E+01   -0.8481310365607546E+00    0.1670645501816174E-03
    0.2268769200166909E+01    0.7723691819196569E-01    0.2072307783085874E-03
    0.5000000000000000E+01    0.2504941971167291E+01    0.1250000000000000E+01
    0.5000000000000000E+01    0.2504941971167291E+01    0.2500000000000000E+01
    0.5000000000000000E+01    0.2504941971167291E+01    0.3750000000000000E+01
    0.5000000000000000E+01    0.2504941971167291E+01    0.5000000000000000E+01
    0.3750000000000000E+01    0.2504941971167291E+01    0.5000000000000000E+01
    0.2500000000000000E+01    0.2504941971167291E+01    0.5000000000000000E+01
    0.1250000000000000E+01    0.2504941971167291E+01    0.5000000000000000E+01
    0.0000000000000000E+00    0.2504941971167291E+01    0.5000000000000000E+01
    0.0000000000000000E+00    0.2504941971167291E+01    0.3750000000000000E+01
    0.0000000000000000E+00    0.2504941971167291E+01    0.2500000000000000E+01
    0.0000000000000000E+00    0.2504941971167291E+01    0.1250000000000000E+01
    0.9588956434871091E+00    0.2504941971167291E+01    0.9696525519543868E+00
    0.3981953078951401E+01    0.2504941971167291E+01    0.4070563854751270E+01
    0.4036122187252336E+01    0.2504941971167291E+01    0.1017567520094671E+01
    0.9637572773153887E+00    0.2504941971167291E+01    0.3973598203142228E+01
    0.1546540136992395E+01    0.2504941971167291E+01    0.2931570169315600E+01
    0.6973799521244306E+00    0.2504941971167291E+01    0.3070319952453755E+01
    0.8903742148356872E+00    0.2504941971167291E+01    0.2056562238187737E+01
    0.2183041995146012E+01    0.2504941971167291E+01    0.3960694449828018E+01
    0.3855844872709869E+01    0.2504941971167291E+01    0.2933250588118629E+01
    0.3152611367438029E+01    0.2504941971167291E+01    0.3637668388416192E+01
    0.3103307385241870E+01    0.2504941971167291E+01    0.4332607813099730E+01
    0.3266711045517938E+01    0.2504941971167291E+01    0.1889656617463737E+01
    0.4232537554484795E+01    0.2504941971167291E+01    0.1918626969802350E+01
    0.1905522374036519E+01    0.2504941971167291E+01    0.7226290832134605E+00
    0.2879767723645805E+01    0.2504941971167291E+01    0.9080945892181977E+00
    0.2012711365064514E+01    0.2504941971167291E+01    0.1767082390977753E+01
    0.2669681472994636E+01    0.2504941971167291E+01    0.2853394335010790E+01
    0.5000000000000000E+01    0.1250000000000000E+01    0.5000000000000000E+01
    0.5000000000000000E+01    0.0000000000000000E+00    0.5000000000000000E+01
    0.5000000000000000E+01   -0.1250000000000000E+01    0.5000000000000000E+01
    0.5000000000000000E+01   -0.2496589036641631E+01    0.5000000000000000E+01
    0.5000000000000000E+01   -0.2496589036641631E+01    0.3750000000000000E+01
    0.5000000000000000E+01   -0.2496589036641631E+01    0.2500000000000000E+01
    0.5000000000000000E+01   -0.2496589036641631E+01    0.1250000000000000E+01
    0.5000000000000000E+01    0.1578994732800803E+01    0.9058375365086910E+00
    0.5000000000000000E+01   -0.1583989954232354E+01    0.3982050490726493E+01
    0.5000000000000000E+01    0.1453322699199022E+01    0.4033849428301197E+01
    0.5000000000000000E+01   -0.1479596339503735E+01    0.1040505887381675E+01
    0.5000000000000000E+01   -0.3227322616384110E+00    0.1099454400140349E+01
    0.5000000000000000E+01    0.6593508822075582E+00    0.7354504170366591E+00
    0.5000000000000000E+01    0.8256214013940779E+00    0.1622302608453282E+01
    0.5000000000000000E+01   -0.1650070333782557E+01    0.2145871574390382E+01
    0.5000000000000000E+01   -0.4612828702537229E+00    0.4086422318222992E+01
    0.5000000000000000E+01   -0.8579242121530853E+00    0.2979540174134984E+01
    0.5000000000000000E+01   -0.1836846154397680E+01    0.3045064261640043E+01
    0.5000000000000000E+01    0.3508002863614053E+00    0.3428197553792836E+01
    0.5000000000000000E+01    0.5185680230613409E+00    0.4309693860063405E+01
    0.5000000000000000E+01    0.1738996113203182E+01    0.1827272193562204E+01
    0.5000000000000000E+01    0.1325493893339706E+01    0.2808563282768077E+01
    0.5000000000000000E+01   -0.8731419609589618E+00    0.1895995683864404E+01
    0.5000000000000000E+01    0.4906150219227333E-01    0.2273179336307740E+01
    0.0000000000000000E+00    0.1250000000000000E+01    0.5000000000000000E+01
    0.0000000000000000E+00    0.0000000000000000E+00    0.5000000000000000E+01
    0.0000000000000000E+00   -0.1250000000000000E+01    0.5000000000000000E+01
    0.0000000000000000E+00   -0.2496589036641631E+01    0.5000000000000000E+01
    0.1250000000000000E+01   -0.2496589036641631E+01    0.5000000000000000E+01
    0.2500000000000000E+01   -0.2496589036641631E+01    0.5000000000000000E+01
    0.3750000000000000E+01   -0.2496589036641631E+01    0.5000000000000000E+01
    0.4042003247744892E+01    0.1558308132739014E+01    0.5000000000000000E+01
    0.9304122287900499E+00   -0.1548001304379777E+01    0.5000000000000000E+01
    0.1037243024609388E+01    0.1462892710085612E+01    0.5000000000000000E+01
    0.3946240828834967E+01   -0.1445243809615570E+01    0.5000000000000000E+01
    0.4092527262848217E+01   -0.3455338993778935E+00    0.5000000000000000E+01
    0.4293103109154542E+01    0.6277660831404320E+00    0.5000000000000000E+01
    0.3241512314643519E+01    0.7429886854239611E+00    0.5000000000000000E+01
    0.2844289952419609E+01   -0.1588117879734118E+01    0.5000000000000000E+01
    0.7159905765450471E+00   -0.6002320124191652E+00    0.5000000000000000E+01
    0.1754341919796891E+01   -0.7398147869923652E+00    0.5000000000000000E+01
    0.1870296826774691E+01   -0.1788622905643739E+01    0.5000000000000000E+01
    0.9220614901912976E+00    0.3083720183248586E+00    0.5000000000000000E+01
    0.3101523624086016E+01    0.1777901774806180E+01    0.5000000000000000E+01
    0.2192512063922564E+01    0.1576861561598471E+01    0.5000000000000000E+01
    0.2024793420196460E+01    0.4773861992750707E+00    0.5000000000000000E+01
    0.2990627757741975E+01   -0.4878110785814084E+00    0.5000000000000000E+01
    0.0000000000000000E+00   -0.2496589036641631E+01    0.1250000000000000E+01
    0.0000000000000000E+00   -0.2496589036641631E+01    0.2500000000000000E+01
    0.0000000000000000E+00   -0.2496589036641631E+01    0.3750000000000000E+01
    0.0000000000000000E+00    0.1558308132739014E+01    0.4042003247744892E+01
    0.0000000000000000E+00   -0.1548001304379777E+01    0.9304122287900499E+00
    0.0000000000000000E+00    0.1462892710085612E+01    0.1037243024609388E+01
    0.0000000000000000E+00   -0.1445243809615570E+01    0.3946240828834967E+01
    0.0000000000000000E+00   -0.3455338993778935E+00    0.4092527262848217E+01
    0.0000000000000000E+00    0.6277660831404320E+00    0.4293103109154542E+01
    0.0000000000000000E+00    0.7429886854239611E+00    0.3241512314643519E+01
    0.0000000000000000E+00   -0.1588117879734118E+01    0.2844289952419609E+01
    0.0000000000000000E+00   -0.6002320124191652E+00    0.7159905765450471E+00
    0.0000000000000000E+00   -0.7398147869923652E+00    0.1754341919796891E+01
    0.0000000000000000E+00   -0.1788622905643739E+01    0.1870296826774691E+01
    0.0000000000000000E+00    0.3083720183248586E+00    0.9220614901912976E+00
    0.0000000000000000E+00    0.1777901774806180E+01    0.3101523624086016E+01
    0.0000000000000000E+00    0.1576861561598471E+01    0.2192512063922564E+01
[...]
POINT_DATA 213
SCALARS p double 1
LOOKUP_TABLE default
   0.9615090270461888E+00
   0.6837133719730059E+00
   0.6757800352245792E+00
   0.6729809066589122E+00
   0.6025723803857446E+00
   0.5529964077715460E+00
   0.5448262876920038E+00
   0.5472458031527468E+00
   0.5936019706812323E+00
   0.6681106560870144E+00
   0.6674268615085385E+00
   0.6868452073072461E+00
   0.1034621192868642E+01
   0.1068150095134785E+01
   0.1176243428670173E+01
   0.1018996343389530E+01
   0.7212845351350458E+00
   0.6793852943305223E+00
   0.6741566409665809E+00
   0.6838869927926646E+00
   0.6724824126109193E+00
   0.7407920042686243E+00
   0.6612900262973207E+00
   0.6658881007016316E+00
   0.6812904896329014E+00
   0.6800263496102458E+00
   0.6679221965179155E+00
   0.6832461640361832E+00
   0.6699009217732924E+00
   0.6645159936657443E+00
   0.6747441315816378E+00
   0.6330203176627609E+00
   0.6731403010506354E+00
   0.6774107700026147E+00
   0.7228907437039384E+00
   0.7222597021427316E+00
   0.7160256047819441E+00
   0.7170629685783135E+00
   0.7181378238121872E+00
   0.7195479147661402E+00
   0.7186026151201598E+00
   0.7227466829824497E+00
   0.7373732103187317E+00
   0.7824880541051626E+00
   0.7199367094512866E+00
   0.7165435400128811E+00
   0.6761661180696564E+00
   0.7194216583800163E+00
   0.7166145636637208E+00
   0.7226390995287717E+00
   0.7259999477908367E+00
   0.7165546636138919E+00
   0.7137110303090645E+00
   0.7161345987928158E+00
   0.7158487109950781E+00
   0.6952726759187134E+00
   0.6963372788907350E+00
   0.6899963638880704E+00
   0.6913945997339329E+00
   0.7035168684562033E+00
   0.7094989619550168E+00
   0.7160808592936847E+00
   0.7162535295029783E+00
   0.7165050834299852E+00
   0.7158945100947915E+00
   0.7248110606850838E+00
   0.7210300445554240E+00
   0.6727696847463592E+00
   0.6453757690642368E+00
   0.7221259523099646E+00
   0.7196819208005134E+00
   0.6359304262508756E+00
   0.6309666866476045E+00
   0.5996041063119221E+00
   0.6915945307500241E+00
   0.7156066489148184E+00
   0.7212073087543013E+00
   0.7290382459353923E+00
   0.7269565327744705E+00
   0.7265130640623745E+00
   0.7204389504627865E+00
   0.7038443633849203E+00
   0.7205086244515470E+00
   0.7023921856295047E+00
   0.7220871189033827E+00
   0.7185220018676496E+00
   0.7171978020515863E+00
   0.7176427234778043E+00
   0.7184073563353478E+00
   0.7193234409034525E+00
   0.7173776055384516E+00
   0.7166144495505787E+00
   0.7163185779140486E+00
   0.7184836661359481E+00
   0.7186370006603181E+00
   0.7154672477676665E+00
   0.7160740451633973E+00
   0.7162725978847314E+00
   0.7172843919107067E+00
   0.7174103684410557E+00
   0.7175466641816793E+00
   0.7187042652335742E+00
   0.7185503416799747E+00
   0.7180715815601874E+00
   0.7177479884414163E+00
   0.7184641990630987E+00
   0.7184268983503611E+00
   0.7175694881993649E+00
   0.7909545884809420E+00
   0.7417772454775985E+00
   0.7240735121365675E+00
   0.7207773593130556E+00
   0.8581022297679395E+00
   0.8086350761924587E+00
   0.7221194122267190E+00
   0.7211551066761771E+00
   0.7210126470990794E+00
   0.7257924571603874E+00
   0.7326205690047749E+00
   0.9164972239123444E+00
   0.7574803385218036E+00
   0.7599365097419123E+00
   0.8799590534958882E+00
   0.7291434991366367E+00
   0.7461110836441291E+00
   0.7436509191718480E+00
   0.7280735771658277E+00
   0.7234035720786823E+00
   0.7165946600862497E+00
   0.6758544096661866E+00
   0.7210190880481574E+00
   0.7177435949002222E+00
   0.7243684915878167E+00
   0.7309127288730809E+00
   0.7153818920470918E+00
   0.7127069637016915E+00
   0.7133122195205782E+00
   0.7154718288137094E+00
   0.6958561565176943E+00
   0.6941123107772521E+00
   0.6792681254885899E+00
   0.6842858436019330E+00
   0.7022975214911104E+00
   0.7064276550258818E+00
   0.7092639167787061E+00
   0.7176250736162012E+00
   0.7173827341671103E+00
   0.7117399660339808E+00
   0.7287968913839021E+00
   0.7352756192792544E+00
   0.7097316727913138E+00
   0.7230298957884066E+00
   0.7189769496861728E+00
   0.7231309007020784E+00
   0.7128921578945943E+00
   0.6922549659868695E+00
   0.7175444897974501E+00
   0.7113550431662812E+00
   0.6973970278760596E+00
   0.7095833011349674E+00
   0.7134676295851865E+00
   0.7079227498993576E+00
   0.7159287310428729E+00
   0.7175553864453168E+00
   0.7167030177255576E+00
   0.7110825192098523E+00
   0.7103510270400836E+00
   0.7187134444478759E+00
   0.7362440671405500E+00
   0.7209851904120547E+00
   0.6967151938930985E+00
   0.7191760799932684E+00
   0.7279869911864058E+00
   0.6958387148727806E+00
   0.6741066095445463E+00
   0.7021104083599984E+00
   0.7007174984704782E+00
   0.6996471376384797E+00
   0.7043910123687328E+00
   0.6878262404083343E+00
   0.7541078215474842E+00
   0.7254179408273832E+00
   0.7163759580008142E+00
   0.7164924045905384E+00
   0.7072942082244335E+00
   0.7062530203784471E+00
   0.6799096517453613E+00
   0.7081442603666063E+00
   0.7212278436764816E+00
   0.7177576749401494E+00
   0.7069395199174530E+00
   0.6847925063582505E+00
   0.6587353577287399E+00
   0.6908614465278368E+00
   0.6956175770553273E+00
   0.6931679759189796E+00
   0.6874262965941245E+00
   0.6732335082619344E+00
   0.6670674277366049E+00
   0.6794797823673411E+00
   0.7172133908406970E+00
   0.7168144142328010E+00
   0.7154594994097832E+00
   0.7175335913095043E+00
   0.6790224983936629E+00
   0.6691939862981907E+00
   0.6792021820170698E+00
   0.7156331665005867E+00
   0.7153053764628280E+00
   0.7168587799687922E+00
   0.6951014853436933E+00
   0.6910741672166648E+00
   0.6839136771975018E+00
SCALARS mach double 1
LOOKUP_TABLE default
   0.0000000000000000E+00
   0.0000000000000000E+00
   0.0000000000000000E+00
   0.0000000000000000E+00
   0.0000000000000000E+00
   0.0000000000000000E+00
   0.0000000000000000E+00
   0.0000000000000000E+00
   0.0000000000000000E+00
   0.0000000000000000E+00
   0.0000000000000000E+00
   0.0000000000000000E+00
   0.0000000000000000E+00
   0.0000000000000000E+00
   0.0000000000000000E+00
   0.0000000000000000E+00
   0.0000000000000000E+00
   0.0000000000000000E+00
   0.0000000000000000E+00
   0.0000000000000000E+00
   0.0000000000000000E+00
   0.0000000000000000E+00
   0.0000000000000000E+00
   0.0000000000000000E+00
   0.0000000000000000E+00
   0.0000000000000000E+00
   0.0000000000000000E+00
   0.0000000000000000E+00
   0.0000000000000000E+00
   0.0000000000000000E+00
   0.0000000000000000E+00
   0.0000000000000000E+00
   0.0000000000000000E+00
   0.5088278464108560E+00
   0.5343404935530159E+00
   0.5171324809225153E+00
   0.4929854640118683E+00
   0.4846103873054263E+00
   0.4865053149750527E+00
   0.4886300534227888E+00
   0.4953648480644036E+00
   0.4890350172147717E+00
   0.4698867899823706E+00
   0.4406721365121294E+00
   0.4916434743393142E+00
   0.5094166341104857E+00
   0.4449616269282303E+00
   0.4945031019694921E+00
   0.5218153140999753E+00
   0.4956465322454054E+00
   0.5224896390298279E+00
   0.5036126136826860E+00
   0.5641416236745954E+00
   0.5240648202558050E+00
   0.4989536699772528E+00
   0.5757197674679788E+00
   0.5734842319160716E+00
   0.3790290015492673E+00
   0.4028383161899576E+00
   0.5625710910333596E+00
   0.5563535061252535E+00
   0.4941640948263706E+00
   0.4947383412086417E+00
   0.4923847176620774E+00
   0.4913239357977275E+00
   0.5150149701705337E+00
   0.5371602080804575E+00
   0.5087694601479654E+00
   0.4717140518477252E+00
   0.5119324676809517E+00
   0.5110126450077811E+00
   0.4958198681552398E+00
   0.5102768305790424E+00
   0.4804275397729898E+00
   0.5352195379474509E+00
   0.5339912395326830E+00
   0.5120155934121819E+00
   0.5312230768755266E+00
   0.5296265103056198E+00
   0.5292676032538013E+00
   0.5056207345718283E+00
   0.5355371812688728E+00
   0.5406810120999124E+00
   0.5432012090051604E+00
   0.5391817815786391E+00
   0.4961279405777368E+00
   0.4972483668592023E+00
   0.4960550837471197E+00
   0.4950899802440792E+00
   0.4899598209894871E+00
   0.4899809767415730E+00
   0.4860194428405460E+00
   0.4853463464171179E+00
   0.4927778445237843E+00
   0.4906135244542503E+00
   0.4831694951334716E+00
   0.4871983205465288E+00
   0.4879472622812391E+00
   0.4870539444913176E+00
   0.4879750478105394E+00
   0.4949478180771548E+00
   0.4896508362191712E+00
   0.4899631187436380E+00
   0.4940578954982542E+00
   0.4865443018254119E+00
   0.4889072006726339E+00
   0.4878265394971169E+00
   0.4875907397121063E+00
   0.4438919094038581E+00
   0.4677403996897043E+00
   0.4881872281711964E+00
   0.4880029023656233E+00
   0.4652376983306734E+00
   0.4746180258200345E+00
   0.4869281470254978E+00
   0.4862766320932202E+00
   0.4902932571905429E+00
   0.4787497394908664E+00
   0.4643564465190838E+00
   0.4025346239385096E+00
   0.4895557565065476E+00
   0.4458502651906290E+00
   0.4686393201432794E+00
   0.4831300379901467E+00
   0.4601250686009103E+00
   0.4641931073672907E+00
   0.4737591271764279E+00
   0.5009595789132781E+00
   0.5082567650613202E+00
   0.4343124197714699E+00
   0.4921479264117520E+00
   0.5318570690838051E+00
   0.4907030781455427E+00
   0.5210445737391821E+00
   0.5060133911794776E+00
   0.5691056457824789E+00
   0.5273540369883946E+00
   0.5013880003195492E+00
   0.5852444969247544E+00
   0.5728179194514648E+00
   0.3432130811713795E+00
   0.3805349338927159E+00
   0.5794993442053763E+00
   0.5676561824894328E+00
   0.5706562945968469E+00
   0.5289494757109328E+00
   0.5445336084153561E+00
   0.5732968236027054E+00
   0.5380254886501764E+00
   0.5543141514156812E+00
   0.5870710731753261E+00
   0.4918692562138947E+00
   0.5037853464957778E+00
   0.4954667735479116E+00
   0.5579111112015328E+00
   0.4897927034542542E+00
   0.4947289254917209E+00
   0.5495411673176137E+00
   0.5911005052453995E+00
   0.5842749236715961E+00
   0.5464465390886133E+00
   0.5813642346082297E+00
   0.5103733312540402E+00
   0.5025849584044033E+00
   0.5030165217164605E+00
   0.5674949101502214E+00
   0.5563848366145313E+00
   0.4944253866272801E+00
   0.5525179061180319E+00
   0.5531771336237474E+00
   0.5691413112554399E+00
   0.4915523593208707E+00
   0.4914338402902175E+00
   0.3895354644561080E+00
   0.3712062254161552E+00
   0.5592296484395949E+00
   0.5782801809642945E+00
   0.4228152295372891E+00
   0.5853095617089140E+00
   0.4396767593542990E+00
   0.5448891012157654E+00
   0.5173421589228974E+00
   0.5115522101765315E+00
   0.5045595787730456E+00
   0.5758760301231629E+00
   0.5886507965624626E+00
   0.5429648096014518E+00
   0.5689503868685289E+00
   0.5342437468240869E+00
   0.5330765011334705E+00
   0.5587864661079035E+00
   0.5561714398732828E+00
   0.4325507952903629E+00
   0.5315405364833083E+00
   0.5814004397232789E+00
   0.3318453238117218E+00
   0.4787091126554785E+00
   0.5494851328418092E+00
   0.4853296712582519E+00
   0.3009872732473315E+00
   0.5030315721440692E+00
   0.5014772282733307E+00
   0.5126263813764115E+00
   0.5406388648385166E+00
   0.3454450646321577E+00
   0.3423297261694002E+00
   0.3205015388762349E+00
   0.5064303475597782E+00
   0.5121494958194048E+00
   0.5322644503195146E+00
   0.5911324859058052E+00
   0.4690727830938138E+00
   0.3540211941340964E+00
SCALARS temperature double 1
LOOKUP_TABLE default
   0.9999903003623241E+00
   0.9999898329329608E+00
   0.9999894148910743E+00
   0.9999893455669316E+00
   0.9999896325913091E+00
   0.9999902849804330E+00
   0.9999914932303515E+00
   0.9999928226452274E+00
   0.9999934884845499E+00
   0.9999936909423945E+00
   0.9999935442419013E+00
   0.9999931390534121E+00
   0.9999927241863860E+00
   0.9999921710674028E+00
   0.9999914205523118E+00
   0.9999907626120439E+00
   0.9999903748724315E+00
   0.9999933964915851E+00
   0.9999896034316981E+00
   0.9999925208048329E+00
   0.9999916472132105E+00
   0.9999909215273294E+00
   0.9999905846190383E+00
   0.9999931543716691E+00
   0.9999921426075929E+00
   0.9999926904968587E+00
   0.9999934799338209E+00
   0.9999904928902462E+00
   0.9999906871046428E+00
   0.9999898021824374E+00
   0.9999896231600166E+00
   0.9999923196042686E+00
   0.9999912328824417E+00
   0.9840756443026990E+00
   0.1003653907329833E+01
   0.1004420541312633E+01
   0.1000475674185233E+01
   0.1000667690892860E+01
   0.1001267193734726E+01
   0.1002147901765707E+01
   0.1001786256064556E+01
   0.1003548176524078E+01
   0.1008257955105015E+01
   0.1029829701040573E+01
   0.9887434280793108E+00
   0.1001379567744703E+01
   0.9813756953934852E+00
   0.1001917121182474E+01
   0.1002512937220996E+01
   0.1002973777222053E+01
   0.1008300775988011E+01
   0.1000819947488451E+01
   0.1001175298343385E+01
   0.1001992813095939E+01
   0.1000565740434028E+01
   0.9904060527316070E+00
   0.9903200903763915E+00
   0.9822718910947321E+00
   0.9886726532967828E+00
   0.9943903314280560E+00
   0.9997745973000216E+00
   0.1000503088778072E+01
   0.1000621304491119E+01
   0.1000832191620140E+01
   0.1000458272859697E+01
   0.1004872686836797E+01
   0.1002923748279705E+01
   0.9851399818632202E+00
   0.9764686176662746E+00
   0.1003895145346077E+01
   0.1003049453882848E+01
   0.9735520320685740E+00
   0.9716280253757656E+00
   0.9590922597460165E+00
   0.9912248911266401E+00
   0.1001318242730935E+01
   0.1003841297271930E+01
   0.1007659479294186E+01
   0.1005992073401914E+01
   0.1006633209898691E+01
   0.1003140832411382E+01
   0.9944053172190412E+00
   0.1003541284188254E+01
   0.9972301192492250E+00
   0.1005299676597640E+01
   0.1001683695304700E+01
   0.1001187212607655E+01
   0.1001344518781705E+01
   0.1001764331394794E+01
   0.1001926260911127E+01
   0.1001100914944315E+01
   0.1000589472260262E+01
   0.1000255092476481E+01
   0.1001799802725716E+01
   0.1001779203630106E+01
   0.1000011092623649E+01
   0.1000223795796270E+01
   0.1000233792728405E+01
   0.1000722996400312E+01
   0.1000990236814155E+01
   0.1001327261216594E+01
   0.1001747374671041E+01
   0.1001638109865689E+01
   0.1001640840094727E+01
   0.1001123812280719E+01
   0.1001523762605336E+01
   0.1001328572563472E+01
   0.1000963804288595E+01
   0.1040250090629886E+01
   0.1009764600995964E+01
   0.1004056342118533E+01
   0.1002445324323701E+01
   0.1032099919456194E+01
   0.1042414363879340E+01
   0.1003034777911218E+01
   0.1002347459367477E+01
   0.1002603265257331E+01
   0.1003016455747424E+01
   0.1006206109607921E+01
   0.1038823254293928E+01
   0.1027055942547914E+01
   0.1016571679237747E+01
   0.1025164006119377E+01
   0.1006041143091452E+01
   0.1011876633183375E+01
   0.1012535360958752E+01
   0.1004594257710030E+01
   0.9842203875281355E+00
   0.1001227247690020E+01
   0.9848177125661813E+00
   0.1002549527299892E+01
   0.1003509422008665E+01
   0.1003279597331750E+01
   0.1010907074339136E+01
   0.1000593654142201E+01
   0.9998577313998505E+00
   0.1000569838101170E+01
   0.1000468045715515E+01
   0.9898394888474825E+00
   0.9900664770895187E+00
   0.9856040910278620E+00
   0.9895966740848088E+00
   0.9917306176902638E+00
   0.9978882569641402E+00
   0.1000412735867374E+01
   0.1002941508247871E+01
   0.1005014134740591E+01
   0.1002305046947216E+01
   0.1013241818180750E+01
   0.1006624423761834E+01
   0.9925110503682801E+00
   0.1003427480616938E+01
   0.1001784166103759E+01
   0.1003323801584913E+01
   0.1001333600558875E+01
   0.9637909372828023E+00
   0.1001232500932187E+01
   0.1000915135455806E+01
   0.9928852039698020E+00
   0.9989586806695212E+00
   0.1001510463745792E+01
   0.9978252480881546E+00
   0.1000986320558472E+01
   0.1001571375893336E+01
   0.1001192440873004E+01
   0.1000807847210488E+01
   0.1000711890438088E+01
   0.1001330284857578E+01
   0.1010429101715493E+01
   0.1004016578697374E+01
   0.9935774189375867E+00
   0.1001861747535311E+01
   0.1006722023262169E+01
   0.9866306636291249E+00
   0.9880864437595549E+00
   0.9963777349805953E+00
   0.9943332534642476E+00
   0.9873968487682471E+00
   0.9926521811512274E+00
   0.9667602278348473E+00
   0.1017683785059093E+01
   0.9829836806247537E+00
   0.1001480845736916E+01
   0.1001157558358385E+01
   0.9989742245132042E+00
   0.9976209137384122E+00
   0.9864688957988910E+00
   0.9980158233243200E+00
   0.1003607937035723E+01
   0.1002892987828504E+01
   0.9988418966126364E+00
   0.9840715410369236E+00
   0.9789309654535777E+00
   0.9847739220898459E+00
   0.9942692630539910E+00
   0.9999999444783844E+00
   0.9900343801237395E+00
   0.9861266795443303E+00
   0.9832556248356702E+00
   0.9982023841940637E+00
   0.1001457646174384E+01
   0.1001061249979748E+01
   0.1001129477190314E+01
   0.1002866486433531E+01
   0.9891995812935254E+00
   0.9869629634282731E+00
   0.9919050208191417E+00
   0.1000764113607327E+01
   0.1000926472097807E+01
   0.1002438358286915E+01
   0.9922499076972531E+00
   0.9866841567366290E+00
   0.9943481483727159E+00
SCALARS lambda1 double 1
LOOKUP_TABLE default
   0.6101435544971190E-02
   0.3842614372885076E-02
   0.1321638959486941E-02
  -0.1707017751800157E-02
  -0.2823279006070251E-02
  -0.2506363847247409E-02
  -0.3266896758578772E-02
  -0.2128319030618145E-02
  -0.2523277412902057E-02
  -0.1978631298842139E-02
  -0.1214967072454192E-02
   0.2415854790117151E-02
   0.3086178328697865E-02
   0.1706352727830799E-02
   0.5123213392519858E-02
   0.6986233914135979E-02
   0.4209264171115815E-02
  -0.2260769113527505E-02
  -0.2396685614477823E-02
   0.1992714732248933E-02
   0.1473468438415316E-02
   0.3518208901827586E-02
   0.1480054406697732E-02
   0.9909193667141249E-04
  -0.2622099700372394E-02
  -0.2434280557992548E-03
  -0.1955213523655808E-03
  -0.1087309046416185E-02
  -0.2648875406989324E-02
   0.1598924334440172E-02
   0.3062036504882710E-03
   0.1438634274886596E-02
   0.6213627333178752E-03
  -0.9671029745682628E-02
  -0.4628594103462051E-02
  -0.3152278834401733E-02
  -0.2987785213292991E-02
  -0.1300041508462408E-01
  -0.2396028117301784E-01
  -0.2562874122660926E-01
  -0.3398947273907521E-01
  -0.9309355762002548E-02
  -0.1649581980918092E-02
   0.3066867010270541E-01
   0.4116528328401193E-01
  -0.2403866424690898E-02
   0.1561618548701709E-01
  -0.8336623881212837E-02
  -0.5173664893622146E-02
  -0.4510367739121452E-02
   0.1179902661100010E-02
  -0.3153547744429377E-02
  -0.3803736559422470E-02
  -0.2303700903641454E-02
  -0.3674738945040514E-02
  -0.4923797771360079E-02
  -0.6093653687864744E-02
   0.6078765805471330E-01
   0.6108910141622426E-01
   0.1010119388716472E-01
  -0.5353242568133660E-02
  -0.2973727560826658E-02
  -0.2761886231231324E-02
  -0.3368795270879031E-02
  -0.3457204494796480E-02
  -0.2970264796741056E-02
  -0.4425748198332061E-02
  -0.6595966857304242E-02
  -0.1215113193484029E-01
  -0.2426552843399646E-02
  -0.2527985147702136E-02
  -0.4393484177142777E-02
  -0.5489286570294001E-02
  -0.3425324319088470E-02
  -0.6990665652845242E-02
  -0.5106281619399618E-02
  -0.2215935826961459E-02
  -0.3796154980518903E-02
  -0.3704669968686857E-02
  -0.3247896736160963E-02
  -0.2011565103292292E-02
  -0.6197655733900499E-02
  -0.4016841915582771E-02
  -0.5435060432293312E-02
  -0.4873622778243569E-02
  -0.3519241723975033E-01
  -0.3879064306594727E-01
  -0.3423712068352484E-01
  -0.3217422285403462E-01
  -0.2894213487090733E-01
  -0.2542795736010899E-01
  -0.1323292437814368E-01
  -0.9036835544847256E-02
  -0.2892046987929440E-01
  -0.2553430401109933E-01
  -0.8702726517187922E-02
  -0.1108198034929899E-01
  -0.1107017455121116E-01
  -0.1872740203529391E-01
  -0.1986391240319097E-01
  -0.3606850711549593E-01
  -0.3288862160352802E-01
  -0.3060491015238997E-01
  -0.3113131998567008E-01
  -0.1992667307497213E-01
  -0.2486110047015957E-01
  -0.2672477760619528E-01
  -0.2110666795374991E-01
   0.2487714250248766E-01
  -0.3609916579963419E-02
  -0.6971492117869365E-02
  -0.9335989439379206E-02
   0.3856837547199430E-01
   0.4928488508343044E-01
  -0.6331710689441603E-02
  -0.8124007504537912E-02
  -0.1213930212833475E-01
  -0.7017893402589819E-02
  -0.4437895131756602E-02
   0.5828445816895212E-01
   0.3290212962747063E-02
   0.1865806119727724E-02