title="tecplot geometry and solution file"
variables = x y z mach temperature lambda1 lambda2 lambda3 lambda4 lambda5
zone t="boundary 1 bc-1", solutiontime= 0.5000000E+02, strandid=1001, i=32, j=46, f=feblock
 -0.547468544169E-02  0.000000000000E+00 -0.567606031243E-02  0.000000000000E+00  0.000000000000E+00  0.000000000000E+00 -0.525159244851E-02
 -0.425776897977E-02  0.000000000000E+00  0.000000000000E+00  0.000000000000E+00  0.000000000000E+00  0.000000000000E+00  0.000000000000E+00
  0.000000000000E+00  0.000000000000E+00 -0.338395986572E-02  0.000000000000E+00  0.000000000000E+00  0.000000000000E+00  0.000000000000E+00
  0.000000000000E+00  0.000000000000E+00  0.000000000000E+00  0.000000000000E+00  0.000000000000E+00  0.000000000000E+00  0.000000000000E+00
  0.000000000000E+00  0.000000000000E+00  0.000000000000E+00  0.000000000000E+00
  0.250494197117E+01  0.250494197117E+01  0.127822156907E+01  0.146289271009E+01  0.157686156160E+01  0.308372018325E+00  0.261948602442E-01
 -0.122573481164E+01 -0.600232012419E+00  0.250494197117E+01  0.477386199275E+00  0.742988685424E+00 -0.739814786992E+00  0.177790177481E+01
  0.155830813274E+01  0.250494197117E+01 -0.249658903664E+01 -0.154800130438E+01 -0.487811078581E+00  0.250494197117E+01  0.627766083140E+00
 -0.345533899378E+00 -0.178862290564E+01 -0.158811787973E+01  0.125000000000E+01 -0.249658903664E+01 -0.144524380962E+01  0.000000000000E+00
 -0.125000000000E+01 -0.249658903664E+01 -0.249658903664E+01 -0.249658903664E+01
  0.803813859866E-04  0.125000000000E+01  0.822460170214E-04  0.103724302461E+01  0.219251206392E+01  0.922061490191E+00  0.103872438719E-03
  0.341545874231E-04  0.715990576545E+00  0.250000000000E+01  0.202479342020E+01  0.324151231464E+01  0.175434191980E+01  0.310152362409E+01
  0.404200324774E+01  0.375000000000E+01  0.810725962649E-04  0.930412228790E+00  0.299062775774E+01  0.500000000000E+01  0.429310310915E+01
  0.409252726285E+01  0.187029682677E+01  0.284428995242E+01  0.500000000000E+01  0.125000000000E+01  0.394624082883E+01  0.500000000000E+01
  0.500000000000E+01  0.250000000000E+01  0.375000000000E+01  0.500000000000E+01
  0.000000000000E+00  0.440672136512E+00  0.000000000000E+00  0.474618025820E+00  0.460125068601E+00  0.468639320143E+00  0.000000000000E+00
  0.000000000000E+00  0.402534623939E+00  0.469886789982E+00  0.464193107367E+00  0.478749739491E+00  0.489555756507E+00  0.483130037990E+00
  0.488002902366E+00  0.489035017215E+00  0.000000000000E+00  0.465237698331E+00  0.473759127176E+00  0.495364848064E+00  0.490293257191E+00
  0.486276632093E+00  0.445850265191E+00  0.464356446519E+00  0.496127940578E+00  0.443891909404E+00  0.486928147025E+00  0.497248366859E+00
  0.496055083747E+00  0.467740399690E+00  0.488187228171E+00  0.495089980244E+00
  0.999990300362E+00  0.102982970104E+01  0.999990762612E+00  0.104241436388E+01  0.101187663318E+01  0.102516400612E+01  0.999991420552E+00
  0.999992171067E+00  0.103882325429E+01  0.100825795511E+01  0.101253536096E+01  0.100301645575E+01  0.102705594255E+01  0.100604114309E+01
  0.100244532432E+01  0.100354817652E+01  0.999992724186E+00  0.103209991946E+01  0.100459425771E+01  0.100178625606E+01  0.100260326526E+01
  0.100234745937E+01  0.101657167924E+01  0.100620610961E+01  0.100168369530E+01  0.104025009063E+01  0.100303477791E+01  0.100118721261E+01
  0.100134451878E+01  0.100976460100E+01  0.100405634212E+01  0.100176433139E+01
  0.610153359013E-02  0.306711838915E-01  0.698585008180E-02  0.492857757920E-01  0.346805656243E-02  0.587151817274E-01  0.512289245475E-02
  0.170640694747E-02  0.582842787783E-01 -0.165054387846E-02  0.389905920104E-02 -0.702002298899E-02  0.329305261707E-02 -0.389683867828E-02
 -0.933434629568E-02 -0.931170596020E-02  0.308617708217E-02  0.385701396386E-01 -0.515909189350E-02 -0.339889545027E-01 -0.121371153060E-01
 -0.812748514286E-02  0.186500348787E-02 -0.443773561827E-02 -0.351928797189E-01  0.248750036889E-01 -0.633196195072E-02 -0.387897510837E-01
 -0.342339454345E-01 -0.361050632938E-02 -0.697182672673E-02 -0.321740919549E-01
  0.239164118778E-03  0.444680384807E-02  0.331485998158E-03  0.629816425878E-02  0.164997608294E-03  0.888267128840E-02  0.361563005124E-03
  0.321565314624E-03  0.868187155859E-02 -0.782731041280E-03  0.347017186652E-03 -0.148150305640E-02 -0.972024849102E-04 -0.114291682059E-02
 -0.182990666693E-02 -0.204929421184E-02  0.284324362963E-03  0.601356640802E-02 -0.103425475665E-02 -0.697980094777E-02 -0.240657979226E-02
 -0.155620634634E-02 -0.207858497232E-03 -0.851582785214E-03 -0.736818585310E-02  0.306389595103E-02 -0.124812987438E-02 -0.814890361671E-02
 -0.716223049169E-02 -0.904834800672E-03 -0.148505703110E-02 -0.669252908167E-02
  0.405779404563E-03  0.128360287027E-03  0.546845925950E-03  0.125043720596E-02  0.147417926333E-03  0.606822830817E-03  0.467455839265E-03
 -0.174822316786E-03 -0.333562605356E-04 -0.133095065215E-04  0.128401801278E-03  0.133218687103E-03 -0.140700401027E-03  0.251322018936E-04
 -0.495568508472E-04 -0.287387219604E-05 -0.245065372605E-03 -0.794295194953E-03  0.152878356470E-04  0.332338096828E-05 -0.320392686867E-04
 -0.381185898966E-04 -0.165840023900E-04 -0.137116202112E-03  0.897651724383E-04 -0.102528471128E-03 -0.785924873949E-04 -0.171179361073E-04
 -0.755985827410E-04 -0.219885890600E-04 -0.801489479943E-05  0.655033228203E-05
 -0.147377680383E-02 -0.134235161599E-02 -0.160724907326E-02 -0.707134057187E-05  0.142132332683E-02  0.153436093257E-02 -0.900190142768E-03
 -0.786742697811E-03  0.108761937060E-02  0.155250137071E-02  0.289698905853E-02  0.159524330492E-02  0.319791118020E-02  0.148292123678E-02
  0.109570568377E-02  0.128776194179E-02 -0.609691716118E-03  0.917046066158E-03  0.183403610875E-02  0.461713559849E-03  0.101750382418E-02
  0.121229309600E-02  0.217945524028E-02  0.148789798798E-02  0.443252728430E-03  0.112544128453E-02  0.111203976383E-02  0.419579857811E-03
  0.501322225506E-03  0.168657852057E-02  0.113913653905E-02  0.491880276106E-03
 -0.487357640316E-02 -0.126323818099E-01 -0.665721507991E-02 -0.197255432296E-01 -0.144221229983E-02 -0.243725458700E-01  0.325653153549E-03
  0.104281918878E-02 -0.242213099003E-01  0.663952679583E-03 -0.170479072311E-02  0.274455804653E-02 -0.142040861220E-02  0.153552545217E-02
  0.372784995164E-02  0.375553463907E-02 -0.101638810199E-02 -0.161248584244E-01  0.191184923750E-02  0.141100295812E-01  0.490174695982E-02
  0.321433197597E-02 -0.897381069174E-03  0.158968315914E-02  0.146361627857E-01 -0.101408565310E-01  0.246930550358E-02  0.161792936075E-01
  0.142460713549E-01  0.131302152952E-02  0.277003386292E-02  0.133539899924E-01
        12        19        11        11
        11         5        12        12
        10        14         5         5
        19        13        11        11
        19        24        13        13
        30        23        24        24
        19        12        22        22
        28        22        21        21
        11        13         6         6
         7         6         9         9
        15        12        14        14
        18        13        23        23
        15        25        21        21
        27        19        22        22
        18         8         9         9
        27        31        24        24
         4        11         6         6
         5        14        12        12
         4         2         5         5
        21        12        15        15
        14        16        15        15
        24        19        27        27
        22        29        27        27
        23        26        18        18
        17         8        18        18
         5        11         4         4
         6         3         4         4
        26        23        30        30
         5         2        10        10
        16        14        10        10
         3         6         7         7
        21        25        28        28
        29        22        28        28
         6        13         9         9
         2         4         1         1
        31        27        32        32
        25        15        20        20
        24        23        13        13
         8         7         9         9
        13        18         9         9
        31        30        24        24
        12        21        22        22
        29        32        27        27
         3         1         4         4
        26        17        18        18
        16        20        15        15
zone t="boundary 2 bc-2", solutiontime= 0.5000000E+02, strandid=1002, i=33, j=48, f=feblock
  0.500195253374E+01  0.375034811161E+01  0.249861146299E+01  0.288036674177E+01  0.124717526933E+01  0.190856698521E+01  0.326577190273E+01
  0.201394856120E+01 -0.338395986572E-02  0.962374249381E+00  0.500000000000E+01  0.403430190008E+01  0.423029563807E+01  0.500000000000E+01
  0.385439188940E+01  0.500000000000E+01  0.398133433176E+01  0.315200081417E+01  0.266958028869E+01  0.154798029824E+01  0.218327860466E+01
  0.893688440338E+00  0.000000000000E+00  0.699009761768E+00  0.964460899052E+00  0.310303671659E+01  0.000000000000E+00  0.000000000000E+00
  0.125000000000E+01  0.500000000000E+01  0.375000000000E+01  0.250000000000E+01  0.000000000000E+00
 -0.249658903664E+01 -0.249658903664E+01 -0.249658903664E+01 -0.249658903664E+01 -0.249658903664E+01 -0.249658903664E+01 -0.249658903664E+01
 -0.249658903664E+01 -0.249658903664E+01 -0.249658903664E+01 -0.249658903664E+01 -0.249658903664E+01 -0.249658903664E+01 -0.249658903664E+01
 -0.249658903664E+01 -0.249658903664E+01 -0.249658903664E+01 -0.249658903664E+01 -0.249658903664E+01 -0.249658903664E+01 -0.249658903664E+01
 -0.249658903664E+01 -0.249658903664E+01 -0.249658903664E+01 -0.249658903664E+01 -0.249658903664E+01 -0.249658903664E+01 -0.249658903664E+01
 -0.249658903664E+01 -0.249658903664E+01 -0.249658903664E+01 -0.249658903664E+01 -0.249658903664E+01
  0.108225889030E-03  0.145875369682E-03  0.100893326425E-03  0.901663374396E+00  0.110858761917E-03  0.714928318829E+00  0.188140648011E+01
  0.175892165504E+01  0.810725962649E-04  0.957504300331E+00  0.125000000000E+01  0.100596698996E+01  0.191313519089E+01  0.250000000000E+01
  0.292898096716E+01  0.375000000000E+01  0.406883369524E+01  0.363389289944E+01  0.284756860985E+01  0.292582308120E+01  0.395754054931E+01
  0.205027256979E+01  0.125000000000E+01  0.306703272692E+01  0.397155766662E+01  0.433068622168E+01  0.250000000000E+01  0.375000000000E+01
  0.500000000000E+01  0.500000000000E+01  0.500000000000E+01  0.500000000000E+01  0.500000000000E+01
  0.000000000000E+00  0.000000000000E+00  0.000000000000E+00  0.380534933893E+00  0.000000000000E+00  0.343213081171E+00  0.585244496925E+00
  0.579499344205E+00  0.000000000000E+00  0.500959578913E+00  0.508769460148E+00  0.434312419771E+00  0.572817919451E+00  0.537160208080E+00
  0.569105645782E+00  0.515014970171E+00  0.508256765061E+00  0.527354036988E+00  0.567656182489E+00  0.531857069084E+00  0.506013391179E+00
  0.521044573739E+00  0.443891909404E+00  0.490703078146E+00  0.492147926412E+00  0.501388000320E+00  0.467740399690E+00  0.488187228171E+00
  0.489959820989E+00  0.491323935798E+00  0.486019442841E+00  0.489980976742E+00  0.495089980244E+00
  0.999993488485E+00  0.999993690942E+00  0.999993544242E+00  0.989596674085E+00  0.999993139053E+00  0.985604091028E+00  0.989839488847E+00
  0.991730617690E+00  0.999992724186E+00  0.984220387528E+00  0.985139981863E+00  0.984817712566E+00  0.990066477090E+00  0.100292374828E+01
  0.999857731400E+00  0.100487268684E+01  0.100122724769E+01  0.100056983810E+01  0.997888256964E+00  0.100350942201E+01  0.100059365414E+01
  0.101090707434E+01  0.104025009063E+01  0.100327959733E+01  0.100254952730E+01  0.100046804572E+01  0.100976460100E+01  0.100405634212E+01
  0.100192626091E+01  0.100045827286E+01  0.100058947226E+01  0.100110091494E+01  0.100176433139E+01
 -0.252333571154E-02 -0.197864121149E-02 -0.121497331326E-02  0.238853218343E-01  0.241590938762E-02  0.783268174748E-01 -0.513312401116E-02
  0.944454148530E-03  0.308617708217E-02  0.364108360815E-01 -0.659581589745E-02 -0.762597505074E-02 -0.517722137438E-02 -0.442581880541E-02
 -0.325449924112E-02 -0.297029830899E-02 -0.218698757268E-02 -0.253112062850E-02 -0.418854257997E-02 -0.501218206169E-02 -0.329382133569E-02
  0.131127628341E-02  0.248750036889E-01 -0.338765986993E-02 -0.609030454816E-02 -0.396544889496E-02 -0.361050632938E-02 -0.697182672673E-02
 -0.289404545971E-01 -0.345715293220E-02 -0.132328524634E-01 -0.254274543398E-01 -0.321740919549E-01
  0.688028124526E-03 -0.192355281858E-03  0.185874930225E-04  0.410471415684E-02 -0.447498154908E-03  0.973216313709E-02 -0.192653641873E-04
 -0.387640760382E-03  0.284324362963E-03  0.429768780936E-02  0.149337646785E-02  0.513139849513E-04  0.758734148067E-03  0.113154820423E-02
  0.753319972812E-03  0.696469737496E-03  0.834278421832E-03  0.695249678006E-03  0.256066153695E-03 -0.423705754456E-03  0.298550532582E-03
 -0.360596218536E-03  0.306389595103E-02 -0.229989934964E-03 -0.701351004261E-03  0.411857549612E-03 -0.904834800672E-03 -0.148505703110E-02
 -0.520611423955E-02  0.174304443907E-03 -0.132948314952E-02 -0.395289868173E-02 -0.669252908167E-02
 -0.155434512927E-03  0.411055418030E-04  0.241689294820E-03  0.557939784823E-03  0.128343753728E-03  0.973155229062E-03 -0.760837239945E-04
  0.866366899351E-05 -0.245065372605E-03  0.373114326527E-03 -0.884431466660E-04 -0.284831592617E-03  0.530017258320E-05  0.835705598466E-05
  0.687474558574E-05 -0.133553793630E-04  0.162100101602E-05 -0.712191364679E-05  0.115761452582E-04  0.276301516169E-04 -0.169170482153E-04
  0.289621864370E-04 -0.102528471128E-03  0.546299526882E-05 -0.265872799011E-05 -0.591930945027E-05 -0.219885890600E-04 -0.801489479943E-05
 -0.261259773865E-05 -0.238085010775E-05  0.519194516183E-06  0.173591182256E-05  0.655033228203E-05
 -0.198503894024E-03 -0.204912239307E-03 -0.309699053238E-03  0.103434608338E-02 -0.716700917550E-03  0.224471582919E-03  0.156040931969E-02
  0.208733850518E-02 -0.609691716118E-03  0.980935931561E-03  0.298714249950E-03  0.109204315906E-02  0.626926066054E-03  0.283385428328E-03
  0.647064215172E-03  0.236880310550E-03  0.629197922771E-03  0.888685177904E-03  0.105436237595E-02  0.109586390163E-02  0.102609202374E-02
  0.165912958892E-02  0.112544128453E-02  0.116603975320E-02  0.102767844993E-02  0.887067726545E-03  0.168657852057E-02  0.113913653905E-02
  0.691404699354E-03  0.368585265532E-03  0.801811163416E-03  0.869631380975E-03  0.491880276106E-03
  0.718487886283E-03  0.197867301209E-02  0.342998196283E-02 -0.108857989755E-01  0.409124704073E-02 -0.335482579071E-01  0.152395801455E-02
 -0.485250947387E-03 -0.101638810199E-02 -0.150872667022E-01  0.142562784050E-02  0.231553592432E-02  0.127174677336E-02  0.848611110239E-03
  0.635908770494E-03  0.600620140667E-03  0.300602652829E-03  0.460771412783E-03  0.114876283612E-02  0.170371495611E-02  0.880454451674E-03
 -0.598124435302E-03 -0.101408565310E-01  0.109204521356E-02  0.222198787544E-02  0.108191930734E-02  0.131302152952E-02  0.277003386292E-02
  0.117586382334E-01  0.104483188476E-02  0.496567219522E-02  0.101101668619E-01  0.133539899924E-01
        15         7        19        19
         8        20        19        19
        18        19        21        21
         7         4         8         8
         3         6         4         4
        19         7         8         8
        19        18        15        15
        14        13        15        15
         8        22        20        20
        27        24        22        22
        19        20        21        21
        32        26        21        21
        17        18        26        26
        17        16        15        15
        25        29        21        21
        12         7        13        13
        10         8         6         6
        25        20        24        24
         4         6         8         8
        12         2         4         4
        10        23        22        22
        26        31        17        17
        30        16        17        17
         4         7        12        12
        13        11        12        12
        21        20        25        25
        24        28        25        25
        22         8        10        10
         6         5        10        10
        31        26        32        32
         4         2         3         3
         5         6         3         3
        11        13        14        14
        22        23        27        27
        28        24        27        27
        15        13         7         7
         2        12         1         1
        29        25        33        33
        23        10         9         9
        21        26        18        18
        16        14        15        15
        18        17        15        15
        29        32        21        21
        22        24        20        20
        28        33        25        25
        11         1        12        12
        31        30        17        17
         5         9        10        10
zone t="boundary 3 bc-3", solutiontime= 0.5000000E+02, strandid=1003, i=33, j=48, f=feblock
  0.375059096892E+01  0.249769609313E+01  0.500322133174E+01  0.403612218725E+01  0.287976772365E+01  0.124541910518E+01  0.190552237404E+01
  0.500000000000E+01  0.326671104552E+01  0.423253755448E+01  0.201271136506E+01 -0.547468544169E-02  0.958895643487E+00  0.500000000000E+01
  0.266968147299E+01  0.385584487271E+01  0.890374214836E+00  0.154654013699E+01  0.000000000000E+00  0.500000000000E+01  0.315261136744E+01
  0.218304199515E+01  0.398195307895E+01  0.000000000000E+00  0.697379952124E+00  0.963757277315E+00  0.125000000000E+01  0.000000000000E+00
  0.500000000000E+01  0.310330738524E+01  0.250000000000E+01  0.375000000000E+01  0.000000000000E+00
  0.250494197117E+01  0.250494197117E+01  0.250494197117E+01  0.250494197117E+01  0.250494197117E+01  0.250494197117E+01  0.250494197117E+01
  0.250494197117E+01  0.250494197117E+01  0.250494197117E+01  0.250494197117E+01  0.250494197117E+01  0.250494197117E+01  0.250494197117E+01
  0.250494197117E+01  0.250494197117E+01  0.250494197117E+01  0.250494197117E+01  0.250494197117E+01  0.250494197117E+01  0.250494197117E+01
  0.250494197117E+01  0.250494197117E+01  0.250494197117E+01  0.250494197117E+01  0.250494197117E+01  0.250494197117E+01  0.250494197117E+01
  0.250494197117E+01  0.250494197117E+01  0.250494197117E+01  0.250494197117E+01  0.250494197117E+01
  0.135649900494E-03  0.110129816467E-03  0.966887303890E-04  0.101756752009E+01  0.908094589218E+00  0.103942505801E-03  0.722629083213E+00
  0.125000000000E+01  0.188965661746E+01  0.191862696980E+01  0.176708239098E+01  0.803813859866E-04  0.969652551954E+00  0.250000000000E+01
  0.285339433501E+01  0.293325058812E+01  0.205656223819E+01  0.293157016932E+01  0.125000000000E+01  0.375000000000E+01  0.363766838842E+01
  0.396069444983E+01  0.407056385475E+01  0.250000000000E+01  0.307031995245E+01  0.397359820314E+01  0.500000000000E+01  0.375000000000E+01
  0.500000000000E+01  0.433260781310E+01  0.500000000000E+01  0.500000000000E+01  0.500000000000E+01
  0.000000000000E+00  0.000000000000E+00  0.000000000000E+00  0.444961626928E+00  0.402838316190E+00  0.000000000000E+00  0.379029001549E+00
  0.508827846411E+00  0.575719767468E+00  0.573484231916E+00  0.562571091033E+00  0.000000000000E+00  0.491643474339E+00  0.534340493553E+00
  0.556353506125E+00  0.564141623675E+00  0.522489639030E+00  0.521815314100E+00  0.440672136512E+00  0.517132480923E+00  0.524064820256E+00
  0.503612613683E+00  0.509416634110E+00  0.469886789982E+00  0.495646532245E+00  0.494503101969E+00  0.488630053423E+00  0.489035017215E+00
  0.492985464012E+00  0.498953669977E+00  0.486505314975E+00  0.484610387305E+00  0.495364848064E+00
  0.999989345567E+00  0.999989414891E+00  0.999989632591E+00  0.981375695393E+00  0.988672653297E+00  0.999989832933E+00  0.982271891095E+00
  0.984075644303E+00  0.990406052732E+00  0.990320090376E+00  0.994390331428E+00  0.999990300362E+00  0.988743428079E+00  0.100365390733E+01
  0.999774597300E+00  0.100117529834E+01  0.100830077599E+01  0.100251293722E+01  0.102982970104E+01  0.100442054131E+01  0.100199281310E+01
  0.100081994749E+01  0.100137956774E+01  0.100825795511E+01  0.100297377722E+01  0.100191712118E+01  0.100214790177E+01  0.100354817652E+01
  0.100047567419E+01  0.100056574043E+01  0.100126719373E+01  0.100066769089E+01  0.100178625606E+01
 -0.170723200410E-02  0.132172719055E-02 -0.282328331563E-02  0.156134959126E-01  0.610942213120E-01  0.384271062014E-02  0.607930046586E-01
 -0.967055915272E-02 -0.492482148313E-02 -0.609311779636E-02  0.101011563864E-01  0.610153359013E-02  0.411685316926E-01 -0.462869991092E-02
 -0.535323182262E-02 -0.380366905825E-02  0.118000016663E-02 -0.517345874097E-02  0.306711838915E-01 -0.315228445266E-02 -0.230376918631E-02
 -0.315324404614E-02 -0.240376419108E-02 -0.165054387846E-02 -0.450985828806E-02 -0.833746593731E-02 -0.256271874525E-01 -0.931170596020E-02
 -0.298777282552E-02 -0.367491658364E-02 -0.239604564568E-01 -0.130002377580E-01 -0.339889545027E-01
 -0.395669692789E-03 -0.383871359620E-03  0.702898216604E-03  0.442172884815E-02  0.843999970600E-02 -0.799533581787E-03  0.752211130754E-02
  0.158579098412E-02 -0.848298439689E-04  0.835621233636E-03  0.183762999271E-03  0.239164118778E-03  0.310119156826E-02  0.121108718120E-02
 -0.765078440518E-04  0.632467923280E-03 -0.114702246025E-02 -0.543322583515E-03  0.444680384807E-02  0.772815536702E-03  0.668153222614E-03
  0.362375969038E-03  0.780437587281E-03 -0.782731041280E-03 -0.105761240933E-02 -0.104820498541E-02 -0.454572894226E-02 -0.204929421184E-02
  0.271660821232E-03  0.430125676668E-03 -0.371615664596E-02 -0.129195908997E-02 -0.697980094777E-02
 -0.747208545395E-04  0.397366291941E-04  0.956474457966E-04 -0.296423299485E-03 -0.858364550457E-03  0.335333098214E-03 -0.127418023459E-04
  0.190592616232E-05 -0.958258717586E-04  0.160414656332E-04 -0.808026457958E-04  0.405779404563E-03  0.465400224135E-03  0.352454165724E-04
 -0.404174307325E-05  0.485501010055E-05 -0.158969310146E-03 -0.597034313064E-04  0.128360287027E-03  0.197178073716E-04  0.966503143999E-05
  0.428271621552E-04  0.767059860887E-06 -0.133095065215E-04 -0.361642478876E-04  0.121931199340E-04  0.171305157226E-04 -0.287387219604E-05
  0.691969673848E-05 -0.250003300597E-06  0.391657165446E-05 -0.101187702312E-05  0.332338096828E-05
 -0.462461073719E-03 -0.866028471347E-03 -0.242265406119E-03  0.654616539833E-03  0.104388205149E-02 -0.834700803596E-03  0.330816943246E-03
  0.374310592923E-03  0.191563186667E-02  0.929862795076E-03  0.277658807085E-02 -0.147377680383E-02  0.912533760020E-03  0.371746187355E-03
  0.986788462511E-03  0.826393689197E-03  0.233938289782E-02  0.105032397654E-02 -0.134235161599E-02  0.329622546200E-03  0.949439603117E-03
  0.981561206963E-03  0.710110816425E-03  0.155250137071E-02  0.151224838433E-02  0.101246045059E-02  0.727932847358E-03  0.128776194179E-02
  0.350570162000E-03  0.922700434064E-03  0.882455277953E-03  0.804721771993E-03  0.461713559849E-03
  0.706435083863E-02  0.301233077582E-02  0.132758302205E-02 -0.812451865994E-02 -0.264527777306E-01  0.190748016978E-03 -0.255316851150E-01
  0.246327888590E-02  0.152875002108E-02  0.157352702411E-02 -0.394572879682E-02 -0.487357640316E-02 -0.162207476464E-01  0.871185291368E-03
  0.169072079437E-02  0.862167241383E-03 -0.353484459410E-03  0.179120921987E-02 -0.126323818099E-01  0.618641421059E-03  0.381158722012E-03
  0.812882146961E-03  0.391898165894E-03  0.663952679583E-03  0.165153303252E-02  0.313677987340E-02  0.103608080199E-01  0.375553463907E-02
  0.846696611058E-03  0.970907495079E-03  0.950772502846E-02  0.486678824443E-02  0.141100295812E-01
        15         9        16        16
        15        18        11        11
        22        15        21        21
        11         5         9         9
         5         7         2         2
        11         9        15        15
        16        21        15        15
        16        10        14        14
        18        17        11        11
        17        25        24        24
        22        18        15        15
        22        30        31        31
        30        21        23        23
        16        20        23        23
        22        27        26        26
        10         9         4         4
         7        11        13        13
        25        18        26        26
        11         7         5         5
         5         1         4         4
        17        19        13        13
        23        32        30        30
        23        20        29        29
         4         9         5         5
         4         8        10        10
        26        18        22        22
        26        28        25        25
        13        11        17        17
        13         6         7         7
        31        30        32        32
         2         1         5         5
         2         7         6         6
        14        10         8         8
        24        19        17        17
        24        25        28        28
         9        10        16        16
         3         4         1         1
        33        26        27        27
        12        13        19        19
        21        30        22        22
        16        14        20        20
        16        23        21        21
        22        31        27        27
        18        25        17        17
        26        33        28        28
         4         3         8         8
        23        29        32        32
        13        12         6         6
zone t="boundary 4 bc-4", solutiontime= 0.5000000E+02, strandid=1004, i=32, j=46, f=feblock
  0.125000000000E+01  0.219251206392E+01  0.103724302461E+01  0.500000000000E+01  0.250000000000E+01  0.375000000000E+01  0.404200324774E+01
  0.500000000000E+01  0.000000000000E+00  0.310152362409E+01  0.202479342020E+01  0.324151231464E+01  0.922061490191E+00  0.000000000000E+00
  0.299062775774E+01  0.394624082883E+01  0.500000000000E+01  0.409252726285E+01  0.500000000000E+01  0.429310310915E+01  0.175434191980E+01
  0.284428995242E+01  0.000000000000E+00  0.000000000000E+00  0.715990576545E+00  0.930412228790E+00  0.125000000000E+01  0.187029682677E+01
  0.500000000000E+01  0.375000000000E+01  0.250000000000E+01  0.000000000000E+00
  0.250494197117E+01  0.157686156160E+01  0.146289271009E+01  0.250494197117E+01  0.250494197117E+01  0.250494197117E+01  0.155830813274E+01
  0.125000000000E+01  0.250494197117E+01  0.177790177481E+01  0.477386199275E+00  0.742988685424E+00  0.308372018325E+00  0.125000000000E+01
 -0.487811078581E+00 -0.144524380962E+01 -0.125000000000E+01 -0.345533899378E+00  0.000000000000E+00  0.627766083140E+00 -0.739814786992E+00
 -0.158811787973E+01  0.000000000000E+00 -0.125000000000E+01 -0.600232012419E+00 -0.154800130438E+01 -0.249658903664E+01 -0.178862290564E+01
 -0.249658903664E+01 -0.249658903664E+01 -0.249658903664E+01 -0.249658903664E+01
  0.500000000000E+01  0.500000000000E+01  0.500000000000E+01  0.500000000000E+01  0.500000000000E+01  0.500000000000E+01  0.500000000000E+01
  0.500000000000E+01  0.500000000000E+01  0.500000000000E+01  0.500000000000E+01  0.500000000000E+01  0.500000000000E+01  0.500000000000E+01
  0.500000000000E+01  0.500000000000E+01  0.500000000000E+01  0.500000000000E+01  0.500000000000E+01  0.500000000000E+01  0.500000000000E+01
  0.500000000000E+01  0.500000000000E+01  0.500000000000E+01  0.500000000000E+01  0.500000000000E+01  0.500000000000E+01  0.500000000000E+01
  0.500000000000E+01  0.500000000000E+01  0.500000000000E+01  0.500000000000E+01
  0.488630053423E+00  0.488907200673E+00  0.490613524454E+00  0.492985464012E+00  0.486505314975E+00  0.484610387305E+00  0.485346346417E+00
  0.494164094826E+00  0.495364848064E+00  0.486544301825E+00  0.487826539497E+00  0.487053944491E+00  0.494057895498E+00  0.496127940578E+00
  0.487590739712E+00  0.483169495133E+00  0.492384717662E+00  0.487198320547E+00  0.494738341209E+00  0.487947262281E+00  0.489650836219E+00
  0.487975047811E+00  0.497248366859E+00  0.496055083747E+00  0.494947818077E+00  0.492777844524E+00  0.489959820989E+00  0.489963118744E+00
  0.491323935798E+00  0.486019442841E+00  0.489980976742E+00  0.495089980244E+00
  0.100214790177E+01  0.100152376261E+01  0.100177920363E+01  0.100047567419E+01  0.100126719373E+01  0.100066769089E+01  0.100025509248E+01
  0.100050308878E+01  0.100178625606E+01  0.100112381228E+01  0.100132857256E+01  0.100072299640E+01  0.100164084009E+01  0.100168369530E+01
  0.100096380429E+01  0.100001109262E+01  0.100083219162E+01  0.100022379580E+01  0.100062130449E+01  0.100023379273E+01  0.100174737467E+01
  0.100099023681E+01  0.100118721261E+01  0.100134451878E+01  0.100132726122E+01  0.100179980273E+01  0.100192626091E+01  0.100163810987E+01
  0.100045827286E+01  0.100058947226E+01  0.100110091494E+01  0.100176433139E+01
 -0.256271874525E-01 -0.248616934629E-01 -0.255332053978E-01 -0.298777282552E-02 -0.239604564568E-01 -0.130002377580E-01 -0.903692829246E-02
 -0.297370245476E-02 -0.339889545027E-01 -0.199259295281E-01 -0.267230629470E-01 -0.187274053739E-01 -0.311279729718E-01 -0.351928797189E-01
 -0.211067186577E-01 -0.870267539345E-02 -0.336881001379E-02 -0.110817876479E-01 -0.276193311887E-02 -0.110701831827E-01 -0.328886925375E-01
 -0.198636628457E-01 -0.387897510837E-01 -0.342339454345E-01 -0.360620988472E-01 -0.289202105465E-01 -0.289404545971E-01 -0.306042956448E-01
 -0.345715293220E-02 -0.132328524634E-01 -0.254274543398E-01 -0.321740919549E-01