TITLE="Adjoint Convergence History"
VARIABLES="Iteration" "R_1" "R_2" "R_3" "R_4" "R_5" "Simulation_Time"
ZONE I=100 F=POINT
1  0.0000000000E+00  0.0000000000E+00  0.0000000000E+00  0.0000000000E+00  0.0000000000E+00  0.3422200000E+01
2  0.4236523593E-02  0.6769391563E-03  0.2278034356E-04  0.8702759357E-04  0.2442948400E-02  0.9366500000E+01
3  0.2591355834E-02  0.5558518346E-03  0.1608416588E-03  0.3837186622E-03  0.1214438556E-02  0.1426220000E+02
4  0.1963090660E-02  0.3404729476E-03  0.8027673023E-04  0.1882680327E-03  0.9281625390E-03  0.1915510000E+02
5  0.1473614987E-02  0.2666169040E-03  0.5591709764E-04  0.1004295714E-03  0.6896706404E-03  0.2404670000E+02
6  0.1085295140E-02  0.2090808588E-03  0.3614639798E-04  0.8518058883E-04  0.5148320731E-03  0.2894180000E+02
7  0.7908447400E-03  0.1586578776E-03  0.2341028459E-04  0.6311178921E-04  0.3743822418E-03  0.3383440000E+02
8  0.5698744816E-03  0.1198688052E-03  0.1508988060E-04  0.4050687573E-04  0.2717803794E-03  0.3872830000E+02
9  0.4085922139E-03  0.8953355923E-04  0.1048929450E-04  0.2580306442E-04  0.1953270582E-03  0.4372500000E+02
10  0.2939190240E-03  0.6693327218E-04  0.7555180146E-05  0.1714799628E-04  0.1408508553E-03  0.4862050000E+02
11  0.2138928182E-03  0.5034789575E-04  0.5855783240E-05  0.1193545589E-04  0.1024591614E-03  0.5372450000E+02
12  0.1574241991E-03  0.3820353640E-04  0.4543461722E-05  0.8604948830E-05  0.7548854869E-04  0.5861890000E+02
13  0.1164711598E-03  0.2903604442E-04  0.3523592425E-05  0.6250087129E-05  0.5594140196E-04  0.6351440000E+02
14  0.8611493953E-04  0.2199853713E-04  0.2711147196E-05  0.4465822435E-05  0.4145064032E-04  0.6840830000E+02
15  0.6351230949E-04  0.1656052799E-04  0.2082993214E-05  0.3138280252E-05  0.3060758345E-04  0.7330270000E+02
16  0.4679007631E-04  0.1239194816E-04  0.1588223412E-05  0.2209764071E-05  0.2254848244E-04  0.7819560000E+02
17  0.3451903473E-04  0.9237713917E-05  0.1200360514E-05  0.1588238991E-05  0.1661650037E-04  0.8308680000E+02
18  0.2553686271E-04  0.6881135264E-05  0.8980650558E-06  0.1166800479E-05  0.1227665757E-04  0.8798370000E+02
19  0.1892077388E-04  0.5129345232E-05  0.6666409482E-06  0.8636642355E-06  0.9089389037E-05  0.9287750000E+02
20  0.1399146327E-04  0.3822262792E-05  0.4926861183E-06  0.6350235268E-06  0.6723160505E-05  0.9777250000E+02
21  0.1028975160E-04  0.2839241104E-05  0.3640092577E-06  0.4621510513E-06  0.4949759794E-05  0.1028673000E+03
22  0.7513828208E-05  0.2096569849E-05  0.2695824469E-06  0.3355172854E-06  0.3619758586E-05  0.1077633000E+03
23  0.5451137609E-05  0.1536946493E-05  0.2002072120E-06  0.2460530147E-06  0.2629921394E-05  0.1126558000E+03
24  0.3935372470E-05  0.1118694805E-05  0.1488819736E-06  0.1836101612E-06  0.1901126604E-05  0.1175581000E+03
25  0.2830832074E-05  0.8091595887E-06  0.1106519393E-06  0.1390239743E-06  0.1369180437E-05  0.1224508000E+03
26  0.2029747779E-05  0.5820113792E-06  0.8210816944E-07  0.1058956554E-06  0.9828967749E-06  0.1273482000E+03
27  0.1450491013E-05  0.4163776376E-06  0.6083903137E-07  0.8053863831E-07  0.7032414645E-06  0.1322420000E+03
28  0.1033165466E-05  0.2962325545E-06  0.4505042581E-07  0.6091598149E-07  0.5014641101E-06  0.1371395000E+03
29  0.7341026874E-06  0.2095768902E-06  0.3336303343E-07  0.4574974472E-07  0.3566018895E-06  0.1420349000E+03
30  0.5211394924E-06  0.1475128340E-06  0.2471738921E-07  0.3409503550E-07  0.2532453954E-06  0.1469311000E+03
31  0.3703270696E-06  0.1034238605E-06  0.1831570156E-07  0.2520239133E-07  0.1799315687E-06  0.1520470000E+03
32  0.2638425301E-06  0.7236098963E-07  0.1356926296E-07  0.1847403577E-07  0.1281153353E-06  0.1569425000E+03
33  0.1886172436E-06  0.5062566778E-07  0.1004751839E-07  0.1343478678E-07  0.9150407563E-07  0.1618383000E+03
34  0.1352889033E-06  0.3548466248E-07  0.7434661648E-08  0.9704259308E-08  0.6556492032E-07  0.1667368000E+03
35  0.9729554105E-07  0.2495522034E-07  0.5497126001E-08  0.6975041584E-08  0.4710465796E-07  0.1716318000E+03
36  0.7009498992E-07  0.1762703158E-07  0.4061079559E-08  0.4998946681E-08  0.3390555186E-07  0.1765280000E+03
37  0.5054530032E-07  0.1251267278E-07  0.2997002280E-08  0.3578990107E-08  0.2443154708E-07  0.1814224000E+03
38  0.3645583805E-07  0.8927762623E-08  0.2208654845E-08  0.2563189084E-08  0.1761204556E-07  0.1863160000E+03
39  0.2628287742E-07  0.6400623080E-08  0.1624773804E-08  0.1837756287E-08  0.1269352087E-07  0.1912125000E+03
40  0.1892905204E-07  0.4607285819E-08  0.1192668347E-08  0.1319533577E-08  0.9141151305E-08  0.1961095000E+03
41  0.1361019276E-07  0.3325795248E-08  0.8733282371E-09  0.9487030486E-09  0.6573401983E-08  0.2012072000E+03
42  0.9764136567E-08  0.2404205906E-08  0.6377796771E-09  0.6826481594E-09  0.4717274745E-08  0.2061011000E+03
43  0.6986445126E-08  0.1738163943E-08  0.4644363480E-09  0.4911974507E-09  0.3376785526E-08  0.2109917000E+03
44  0.4984704592E-08  0.1255362339E-08  0.3371918597E-09  0.3530727927E-09  0.2410543062E-08  0.2158877000E+03
45  0.3546338936E-08  0.9050137430E-09  0.2440349533E-09  0.2532744271E-09  0.1715949724E-08  0.2207814000E+03
46  0.2516188491E-08  0.6509090191E-09  0.1760253497E-09  0.1811820027E-09  0.1218211824E-08  0.2256766000E+03
47  0.1780865346E-08  0.4669061451E-09  0.1265242278E-09  0.1292061689E-09  0.8627028600E-09  0.2305731000E+03
48  0.1257652500E-08  0.3339752944E-09  0.9061234495E-10  0.9185911723E-10  0.6095744349E-09  0.2354615000E+03
49  0.8864399878E-09  0.2382077647E-09  0.6465128330E-10  0.6513163961E-10  0.4298605170E-09  0.2403527000E+03
50  0.6237549481E-09  0.1694262401E-09  0.4595468604E-10  0.4608013930E-10  0.3026019601E-09  0.2452472000E+03
51  0.4383052064E-09  0.1201874185E-09  0.3254324237E-10  0.3254674823E-10  0.2127028266E-09  0.2503515000E+03
52  0.3076595522E-09  0.8505535155E-10  0.2296240450E-10  0.2295960773E-10  0.1493339525E-09  0.2552495000E+03
53  0.2157950067E-09  0.6006897285E-10  0.1614667977E-10  0.1618282251E-10  0.1047534867E-09  0.2601444000E+03
54  0.1513019101E-09  0.4235099801E-10  0.1131840240E-10  0.1140115291E-10  0.7344361623E-10  0.2650375000E+03
55  0.1060804184E-09  0.2981979097E-10  0.7912197383E-11  0.8032218789E-11  0.5148351071E-10  0.2699305000E+03
56  0.7439820129E-10  0.2097634855E-10  0.5518748556E-11  0.5661205800E-11  0.3609584520E-10  0.2748277000E+03
57  0.5221109885E-10  0.1474641528E-10  0.3843060267E-11  0.3993409472E-11  0.2531956347E-10  0.2797246000E+03
58  0.3667422156E-10  0.1036363982E-10  0.2673578357E-11  0.2820121410E-11  0.1777412323E-10  0.2846192000E+03
59  0.2579117824E-10  0.7283487295E-11  0.1859419215E-11  0.1994124433E-11  0.1249013038E-10  0.2895092000E+03
60  0.1816349810E-10  0.5120304757E-11  0.1293601050E-11  0.1411989642E-11  0.8788189970E-11  0.2944054000E+03
61  0.1281270440E-10  0.3601674122E-11  0.9007301825E-12  0.1001241826E-11  0.6192751547E-11  0.2995047000E+03
62  0.9054697308E-11  0.2535596185E-11  0.6279702557E-12  0.7111412787E-12  0.4371240837E-11  0.3043959000E+03
63  0.6411449747E-11  0.1786997146E-11  0.4384947174E-12  0.5061108705E-12  0.3091210375E-11  0.3092952000E+03
64  0.4549063193E-11  0.1261025609E-11  0.3067263223E-12  0.3611462439E-12  0.2190286109E-11  0.3141898000E+03
65  0.3234346707E-11  0.8911547788E-12  0.2149555930E-12  0.2586265613E-12  0.1555072205E-11  0.3190831000E+03
66  0.2304407879E-11  0.6307854951E-12  0.1509380722E-12  0.1861113679E-12  0.1106365130E-11  0.3239802000E+03
67  0.1645343507E-11  0.4472887615E-12  0.1061993743E-12  0.1348111584E-12  0.7888212295E-12  0.3288756000E+03
68  0.1177376565E-11  0.3178105119E-12  0.7488292503E-13  0.9851057851E-13  0.5636933377E-12  0.3337755000E+03
69  0.8445170251E-12  0.2263459980E-12  0.5292319671E-13  0.7281348608E-13  0.4038186462E-12  0.3386683000E+03
70  0.6073728818E-12  0.1616604673E-12  0.3750216679E-13  0.5460355209E-13  0.2901014652E-12  0.3435627000E+03
71  0.4381652487E-12  0.1158670164E-12  0.2666034901E-13  0.4166197810E-13  0.2090982692E-12  0.3486769000E+03
72  0.3172573561E-12  0.8341893023E-13  0.1902778608E-13  0.3241693485E-13  0.1513163446E-12  0.3535698000E+03
73  0.2307451367E-12  0.6040439727E-13  0.1364811440E-13  0.2574738151E-13  0.1100388094E-12  0.3584603000E+03
74  0.1687623256E-12  0.4406739511E-13  0.9855448083E-14  0.2086087861E-13  0.8051852815E-13  0.3633568000E+03
75  0.1242975747E-12  0.3245610489E-13  0.7178147236E-14  0.1721207501E-13  0.5937140620E-13  0.3682473000E+03
76  0.9235664763E-13  0.2419227655E-13  0.5287579510E-14  0.1441814078E-13  0.4420387324E-13  0.3731443000E+03
77  0.6937730799E-13  0.1829689086E-13  0.3950510090E-14  0.1222495036E-13  0.3330299772E-13  0.3780389000E+03
78  0.5280469628E-13  0.1407128541E-13  0.2998983925E-14  0.1046136428E-13  0.2544655706E-13  0.3829329000E+03
79  0.4080810327E-13  0.1102183830E-13  0.2321211099E-14  0.9013321346E-14  0.1975697575E-13  0.3878250000E+03
80  0.3208110751E-13  0.8800638169E-14  0.1832379539E-14  0.7805705497E-14  0.1561135897E-13  0.3927192000E+03
81  0.2566689322E-13  0.7153746982E-14  0.1474005692E-14  0.6780467094E-14  0.1255678230E-13  0.3978133000E+03
82  0.2089591409E-13  0.5912636963E-14  0.1207871182E-14  0.5905513903E-14  0.1027125217E-13  0.4027052000E+03
83  0.1729072323E-13  0.4957966526E-14  0.1004959845E-14  0.5152624339E-14  0.8536837492E-14  0.4075975000E+03
84  0.1450697503E-13  0.4204134101E-14  0.8484264882E-15  0.4499494385E-14  0.7187834242E-14  0.4124880000E+03
85  0.1230898284E-13  0.3596561349E-14  0.7206642142E-15  0.3933734798E-14  0.6115825535E-14  0.4173793000E+03
86  0.1053887943E-13  0.3098106021E-14  0.6183124244E-15  0.3439698259E-14  0.5246243555E-14  0.4222737000E+03
87  0.9082982778E-14  0.2681990232E-14  0.5323902350E-15  0.3009132511E-14  0.4528774456E-14  0.4271636000E+03
88  0.7866449140E-14  0.2329070656E-14  0.4622944410E-15  0.2634240507E-14  0.3925012867E-14  0.4320571000E+03
89  0.6835276335E-14  0.2027466207E-14  0.3999336737E-15  0.2303889747E-14  0.3412457576E-14  0.4369503000E+03
90  0.5957775076E-14  0.1770332271E-14  0.3486979937E-15  0.2015554722E-14  0.2975802855E-14  0.4418484000E+03
91  0.5199591636E-14  0.1545418543E-14  0.3040042206E-15  0.1764588751E-14  0.2597756321E-14  0.4469344000E+03
92  0.4542399396E-14  0.1351018288E-14  0.2650253702E-15  0.1544966900E-14  0.2269400134E-14  0.4518261000E+03
93  0.3974195034E-14  0.1181474599E-14  0.2314828391E-15  0.1352985765E-14  0.1986299861E-14  0.4567178000E+03
94  0.3475321360E-14  0.1034541160E-14  0.2019882602E-15  0.1182129893E-14  0.1735837582E-14  0.4616131000E+03
95  0.3042841721E-14  0.9055027307E-15  0.1758764033E-15  0.1036106117E-14  0.1521038374E-14  0.4665049000E+03
96  0.2663848157E-14  0.7930444557E-15  0.1552265963E-15  0.9068452274E-15  0.1331576438E-14  0.4713967000E+03
97  0.2333557192E-14  0.6948984488E-15  0.1348899347E-15  0.7936332127E-15  0.1166546429E-14  0.4762830000E+03
98  0.2039388109E-14  0.6070731960E-15  0.1182018760E-15  0.6938732032E-15  0.1019006189E-14  0.4811836000E+03
99  0.1785303327E-14  0.5318366667E-15  0.1030818971E-15  0.6069696194E-15  0.8922268867E-15  0.4860766000E+03
100  0.1561319472E-14  0.4646071114E-15  0.9093988925E-16  0.5316162798E-15  0.7800752795E-15  0.4909658000E+03
