title="tecplot geometry and solution file"
variables = x y z mach temperature lambda1 lambda2 lambda3 lambda4 lambda5
zone t="boundary 1 bc-1", solutiontime= 0.4000000E+02, strandid=1001, i=32, j=46, f=feblock
 -0.547468544169E-02  0.000000000000E+00 -0.567606031243E-02  0.000000000000E+00  0.000000000000E+00  0.000000000000E+00 -0.525159244851E-02
 -0.425776897977E-02  0.000000000000E+00  0.000000000000E+00  0.000000000000E+00  0.000000000000E+00  0.000000000000E+00  0.000000000000E+00
  0.000000000000E+00  0.000000000000E+00 -0.338395986572E-02  0.000000000000E+00  0.000000000000E+00  0.000000000000E+00  0.000000000000E+00
  0.000000000000E+00  0.000000000000E+00  0.000000000000E+00  0.000000000000E+00  0.000000000000E+00  0.000000000000E+00  0.000000000000E+00
  0.000000000000E+00  0.000000000000E+00  0.000000000000E+00  0.000000000000E+00
  0.250494197117E+01  0.250494197117E+01  0.127822156907E+01  0.146289271009E+01  0.157686156160E+01  0.308372018325E+00  0.261948602442E-01
 -0.122573481164E+01 -0.600232012419E+00  0.250494197117E+01  0.477386199275E+00  0.742988685424E+00 -0.739814786992E+00  0.177790177481E+01
  0.155830813274E+01  0.250494197117E+01 -0.249658903664E+01 -0.154800130438E+01 -0.487811078581E+00  0.250494197117E+01  0.627766083140E+00
 -0.345533899378E+00 -0.178862290564E+01 -0.158811787973E+01  0.125000000000E+01 -0.249658903664E+01 -0.144524380962E+01  0.000000000000E+00
 -0.125000000000E+01 -0.249658903664E+01 -0.249658903664E+01 -0.249658903664E+01
  0.803813859866E-04  0.125000000000E+01  0.822460170214E-04  0.103724302461E+01  0.219251206392E+01  0.922061490191E+00  0.103872438719E-03
  0.341545874231E-04  0.715990576545E+00  0.250000000000E+01  0.202479342020E+01  0.324151231464E+01  0.175434191980E+01  0.310152362409E+01
  0.404200324774E+01  0.375000000000E+01  0.810725962649E-04  0.930412228790E+00  0.299062775774E+01  0.500000000000E+01  0.429310310915E+01
  0.409252726285E+01  0.187029682677E+01  0.284428995242E+01  0.500000000000E+01  0.125000000000E+01  0.394624082883E+01  0.500000000000E+01
  0.500000000000E+01  0.250000000000E+01  0.375000000000E+01  0.500000000000E+01
  0.000000000000E+00  0.440672136512E+00  0.000000000000E+00  0.474618025820E+00  0.460125068601E+00  0.468639320143E+00  0.000000000000E+00
  0.000000000000E+00  0.402534623939E+00  0.469886789982E+00  0.464193107367E+00  0.478749739491E+00  0.489555756507E+00  0.483130037990E+00
  0.488002902366E+00  0.489035017215E+00  0.000000000000E+00  0.465237698331E+00  0.473759127176E+00  0.495364848064E+00  0.490293257191E+00
  0.486276632093E+00  0.445850265191E+00  0.464356446519E+00  0.496127940578E+00  0.443891909404E+00  0.486928147025E+00  0.497248366859E+00
  0.496055083747E+00  0.467740399690E+00  0.488187228171E+00  0.495089980244E+00
  0.999990300362E+00  0.102982970104E+01  0.999990762612E+00  0.104241436388E+01  0.101187663318E+01  0.102516400612E+01  0.999991420552E+00
  0.999992171067E+00  0.103882325429E+01  0.100825795511E+01  0.101253536096E+01  0.100301645575E+01  0.102705594255E+01  0.100604114309E+01
  0.100244532432E+01  0.100354817652E+01  0.999992724186E+00  0.103209991946E+01  0.100459425771E+01  0.100178625606E+01  0.100260326526E+01
  0.100234745937E+01  0.101657167924E+01  0.100620610961E+01  0.100168369530E+01  0.104025009063E+01  0.100303477791E+01  0.100118721261E+01
  0.100134451878E+01  0.100976460100E+01  0.100405634212E+01  0.100176433139E+01
  0.610152261066E-02  0.306711227753E-01  0.698585918107E-02  0.492857837372E-01  0.346806980400E-02  0.587153282447E-01  0.512290980171E-02
  0.170640376098E-02  0.582843115332E-01 -0.165052302652E-02  0.389900771358E-02 -0.702001693575E-02  0.329296029756E-02 -0.389683345779E-02
 -0.933432819468E-02 -0.931168627405E-02  0.308617523491E-02  0.385700473928E-01 -0.515909252380E-02 -0.339890167633E-01 -0.121370361454E-01
 -0.812725107978E-02  0.186504525355E-02 -0.443774696735E-02 -0.351930124496E-01  0.248751527237E-01 -0.633193847731E-02 -0.387900762529E-01
 -0.342340848860E-01 -0.361050505334E-02 -0.697183653058E-02 -0.321741090872E-01
  0.239163829641E-03  0.444678909809E-02  0.331484607808E-03  0.629816025002E-02  0.164999418257E-03  0.888269950982E-02  0.361563156150E-03
  0.321564420526E-03  0.868187246769E-02 -0.782727778021E-03  0.347008638101E-03 -0.148149937399E-02 -0.972226412456E-04 -0.114291642751E-02
 -0.182991048430E-02 -0.204929018157E-02  0.284324724387E-03  0.601354882590E-02 -0.103425303759E-02 -0.697980177480E-02 -0.240656878788E-02
 -0.155615516793E-02 -0.207850151224E-03 -0.851587724350E-03 -0.736820243193E-02  0.306392455407E-02 -0.124813091765E-02 -0.814895902297E-02
 -0.716225540837E-02 -0.904834213569E-03 -0.148506216132E-02 -0.669252070269E-02
  0.405778046982E-03  0.128359998702E-03  0.546842929826E-03  0.125042313493E-02  0.147416483492E-03  0.606812658778E-03  0.467456904185E-03
 -0.174820836381E-03 -0.333613187133E-04 -0.133096542316E-04  0.128399952041E-03  0.133224629335E-03 -0.140698840206E-03  0.251331081690E-04
 -0.495568154799E-04 -0.287364880187E-05 -0.245065462608E-03 -0.794287753459E-03  0.152897695574E-04  0.332344957343E-05 -0.320313484779E-04
 -0.381137968311E-04 -0.165854463632E-04 -0.137116701092E-03  0.897601866616E-04 -0.102528285035E-03 -0.785926182010E-04 -0.171309719317E-04
 -0.756059002874E-04 -0.219886870894E-04 -0.801511276958E-05  0.655033124536E-05
 -0.147377533874E-02 -0.134234502412E-02 -0.160725122878E-02 -0.707219821935E-05  0.142132056961E-02  0.153436215448E-02 -0.900192848647E-03
 -0.786741562766E-03  0.108762309458E-02  0.155250261583E-02  0.289699378968E-02  0.159523857971E-02  0.319791796066E-02  0.148292002220E-02
  0.109570825361E-02  0.128776827479E-02 -0.609691522808E-03  0.917050315553E-03  0.183403522655E-02  0.461710704235E-03  0.101751473664E-02
  0.121230218541E-02  0.217945506388E-02  0.148789660103E-02  0.443253716195E-03  0.112543990250E-02  0.111203830785E-02  0.419583800220E-03
  0.501324604513E-03  0.168657778327E-02  0.113913863794E-02  0.491880101448E-03
 -0.487356661193E-02 -0.126323552455E-01 -0.665722527555E-02 -0.197255456577E-01 -0.144221780689E-02 -0.243726054659E-01  0.325643912141E-03
  0.104282328178E-02 -0.242213224747E-01  0.663944069513E-03 -0.170476960343E-02  0.274455550198E-02 -0.142036973473E-02  0.153552360140E-02
  0.372784311450E-02  0.375552570386E-02 -0.101638607489E-02 -0.161248204821E-01  0.191184919996E-02  0.141100548692E-01  0.490171301764E-02
  0.321423081274E-02 -0.897398562444E-03  0.158968815082E-02  0.146362171499E-01 -0.101409181616E-01  0.246929616964E-02  0.161794296497E-01
  0.142461306180E-01  0.131302109191E-02  0.277003776451E-02  0.133539957884E-01
        12        19        11        11
        11         5        12        12
        10        14         5         5
        19        13        11        11
        19        24        13        13
        30        23        24        24
        19        12        22        22
        28        22        21        21
        11        13         6         6
         7         6         9         9
        15        12        14        14
        18        13        23        23
        15        25        21        21
        27        19        22        22
        18         8         9         9
        27        31        24        24
         4        11         6         6
         5        14        12        12
         4         2         5         5
        21        12        15        15
        14        16        15        15
        24        19        27        27
        22        29        27        27
        23        26        18        18
        17         8        18        18
         5        11         4         4
         6         3         4         4
        26        23        30        30
         5         2        10        10
        16        14        10        10
         3         6         7         7
        21        25        28        28
        29        22        28        28
         6        13         9         9
         2         4         1         1
        31        27        32        32
        25        15        20        20
        24        23        13        13
         8         7         9         9
        13        18         9         9
        31        30        24        24
        12        21        22        22
        29        32        27        27
         3         1         4         4
        26        17        18        18
        16        20        15        15
zone t="boundary 2 bc-2", solutiontime= 0.4000000E+02, strandid=1002, i=33, j=48, f=feblock
  0.500195253374E+01  0.375034811161E+01  0.249861146299E+01  0.288036674177E+01  0.124717526933E+01  0.190856698521E+01  0.326577190273E+01
  0.201394856120E+01 -0.338395986572E-02  0.962374249381E+00  0.500000000000E+01  0.403430190008E+01  0.423029563807E+01  0.500000000000E+01
  0.385439188940E+01  0.500000000000E+01  0.398133433176E+01  0.315200081417E+01  0.266958028869E+01  0.154798029824E+01  0.218327860466E+01
  0.893688440338E+00  0.000000000000E+00  0.699009761768E+00  0.964460899052E+00  0.310303671659E+01  0.000000000000E+00  0.000000000000E+00
  0.125000000000E+01  0.500000000000E+01  0.375000000000E+01  0.250000000000E+01  0.000000000000E+00
 -0.249658903664E+01 -0.249658903664E+01 -0.249658903664E+01 -0.249658903664E+01 -0.249658903664E+01 -0.249658903664E+01 -0.249658903664E+01
 -0.249658903664E+01 -0.249658903664E+01 -0.249658903664E+01 -0.249658903664E+01 -0.249658903664E+01 -0.249658903664E+01 -0.249658903664E+01
 -0.249658903664E+01 -0.249658903664E+01 -0.249658903664E+01 -0.249658903664E+01 -0.249658903664E+01 -0.249658903664E+01 -0.249658903664E+01
 -0.249658903664E+01 -0.249658903664E+01 -0.249658903664E+01 -0.249658903664E+01 -0.249658903664E+01 -0.249658903664E+01 -0.249658903664E+01
 -0.249658903664E+01 -0.249658903664E+01 -0.249658903664E+01 -0.249658903664E+01 -0.249658903664E+01
  0.108225889030E-03  0.145875369682E-03  0.100893326425E-03  0.901663374396E+00  0.110858761917E-03  0.714928318829E+00  0.188140648011E+01
  0.175892165504E+01  0.810725962649E-04  0.957504300331E+00  0.125000000000E+01  0.100596698996E+01  0.191313519089E+01  0.250000000000E+01
  0.292898096716E+01  0.375000000000E+01  0.406883369524E+01  0.363389289944E+01  0.284756860985E+01  0.292582308120E+01  0.395754054931E+01
  0.205027256979E+01  0.125000000000E+01  0.306703272692E+01  0.397155766662E+01  0.433068622168E+01  0.250000000000E+01  0.375000000000E+01
  0.500000000000E+01  0.500000000000E+01  0.500000000000E+01  0.500000000000E+01  0.500000000000E+01
  0.000000000000E+00  0.000000000000E+00  0.000000000000E+00  0.380534933893E+00  0.000000000000E+00  0.343213081171E+00  0.585244496925E+00
  0.579499344205E+00  0.000000000000E+00  0.500959578913E+00  0.508769460148E+00  0.434312419771E+00  0.572817919451E+00  0.537160208080E+00
  0.569105645782E+00  0.515014970171E+00  0.508256765061E+00  0.527354036988E+00  0.567656182489E+00  0.531857069084E+00  0.506013391179E+00
  0.521044573739E+00  0.443891909404E+00  0.490703078146E+00  0.492147926412E+00  0.501388000320E+00  0.467740399690E+00  0.488187228171E+00
  0.489959820989E+00  0.491323935798E+00  0.486019442841E+00  0.489980976742E+00  0.495089980244E+00
  0.999993488485E+00  0.999993690942E+00  0.999993544242E+00  0.989596674085E+00  0.999993139053E+00  0.985604091028E+00  0.989839488847E+00
  0.991730617690E+00  0.999992724186E+00  0.984220387528E+00  0.985139981863E+00  0.984817712566E+00  0.990066477090E+00  0.100292374828E+01
  0.999857731400E+00  0.100487268684E+01  0.100122724769E+01  0.100056983810E+01  0.997888256964E+00  0.100350942201E+01  0.100059365414E+01
  0.101090707434E+01  0.104025009063E+01  0.100327959733E+01  0.100254952730E+01  0.100046804572E+01  0.100976460100E+01  0.100405634212E+01
  0.100192626091E+01  0.100045827286E+01  0.100058947226E+01  0.100110091494E+01  0.100176433139E+01
 -0.252333332212E-02 -0.197864148828E-02 -0.121497590837E-02  0.238853332552E-01  0.241590775905E-02  0.783268266251E-01 -0.513311467185E-02
  0.944469938558E-03  0.308617523491E-02  0.364108191765E-01 -0.659582402098E-02 -0.762590302426E-02 -0.517723520803E-02 -0.442581694254E-02
 -0.325450092474E-02 -0.297029826010E-02 -0.218698728756E-02 -0.253111895782E-02 -0.418854693346E-02 -0.501215606137E-02 -0.329380746641E-02
  0.131126815263E-02  0.248751527237E-01 -0.338765626723E-02 -0.609034090178E-02 -0.396544099328E-02 -0.361050505334E-02 -0.697183653058E-02
 -0.289405388051E-01 -0.345715445653E-02 -0.132328577160E-01 -0.254274650840E-01 -0.321741090872E-01
  0.688027743130E-03 -0.192354459051E-03  0.185873649902E-04  0.410471827624E-02 -0.447498079032E-03  0.973216366969E-02 -0.192627676211E-04
 -0.387634225012E-03  0.284324724387E-03  0.429768373113E-02  0.149337439781E-02  0.513303067900E-04  0.758730398504E-03  0.113154857898E-02
  0.753320235637E-03  0.696469638589E-03  0.834278291653E-03  0.695249824668E-03  0.256068158477E-03 -0.423695938848E-03  0.298550355453E-03
 -0.360592109077E-03  0.306392455407E-02 -0.229989410704E-03 -0.701363618927E-03  0.411856779558E-03 -0.904834213569E-03 -0.148506216132E-02
 -0.520612258022E-02  0.174304350193E-03 -0.132948294025E-02 -0.395289420405E-02 -0.669252070269E-02
 -0.155434836557E-03  0.411051970067E-04  0.241689119928E-03  0.557940206165E-03  0.128343806575E-03  0.973155431230E-03 -0.760834640724E-04
  0.866389395093E-05 -0.245065462608E-03  0.373113822736E-03 -0.884431782485E-04 -0.284830923538E-03  0.530001210175E-05  0.835706060235E-05
  0.687469761079E-05 -0.133553476876E-04  0.162098502040E-05 -0.712181377451E-05  0.115761843032E-04  0.276303019604E-04 -0.169167398547E-04
  0.289615931597E-04 -0.102528285035E-03  0.546293515125E-05 -0.265903637624E-05 -0.591929559278E-05 -0.219886870894E-04 -0.801511276958E-05
 -0.261267970496E-05 -0.238084576558E-05  0.519157520683E-06  0.173592597109E-05  0.655033124536E-05
 -0.198504047700E-03 -0.204912121883E-03 -0.309698855636E-03  0.103434519307E-02 -0.716700929540E-03  0.224471908741E-03  0.156040806737E-02
  0.208733748118E-02 -0.609691522808E-03  0.980933686503E-03  0.298713993769E-03  0.109203770372E-02  0.626925885942E-03  0.283385366460E-03
  0.647064317314E-03  0.236880323062E-03  0.629197831023E-03  0.888685639985E-03  0.105436215174E-02  0.109586658658E-02  0.102609086156E-02
  0.165913237501E-02  0.112543990250E-02  0.116604148843E-02  0.102767876318E-02  0.887066365756E-03  0.168657778327E-02  0.113913863794E-02
  0.691404436054E-03  0.368585437429E-03  0.801811475124E-03  0.869632381548E-03  0.491880101448E-03
  0.718485966105E-03  0.197867240613E-02  0.342998199336E-02 -0.108858044840E-01  0.409124696002E-02 -0.335482618423E-01  0.152395378218E-02
 -0.485258738852E-03 -0.101638607489E-02 -0.150872596013E-01  0.142563144929E-02  0.231550408345E-02  0.127175294623E-02  0.848610323057E-03
  0.635909206678E-03  0.600620158768E-03  0.300602543413E-03  0.460770565628E-03  0.114876389230E-02  0.170370250614E-02  0.880449062399E-03
 -0.598122285565E-03 -0.101409181616E-01  0.109204345503E-02  0.222200411891E-02  0.108191651507E-02  0.131302109191E-02  0.277003776451E-02
  0.117586720566E-01  0.104483241109E-02  0.496567398616E-02  0.101101696129E-01  0.133539957884E-01
        15         7        19        19
         8        20        19        19
        18        19        21        21
         7         4         8         8
         3         6         4         4
        19         7         8         8
        19        18        15        15
        14        13        15        15
         8        22        20        20
        27        24        22        22
        19        20        21        21
        32        26        21        21
        17        18        26        26
        17        16        15        15
        25        29        21        21
        12         7        13        13
        10         8         6         6
        25        20        24        24
         4         6         8         8
        12         2         4         4
        10        23        22        22
        26        31        17        17
        30        16        17        17
         4         7        12        12
        13        11        12        12
        21        20        25        25
        24        28        25        25
        22         8        10        10
         6         5        10        10
        31        26        32        32
         4         2         3         3
         5         6         3         3
        11        13        14        14
        22        23        27        27
        28        24        27        27
        15        13         7         7
         2        12         1         1
        29        25        33        33
        23        10         9         9
        21        26        18        18
        16        14        15        15
        18        17        15        15
        29        32        21        21
        22        24        20        20
        28        33        25        25
        11         1        12        12
        31        30        17        17
         5         9        10        10
zone t="boundary 3 bc-3", solutiontime= 0.4000000E+02, strandid=1003, i=33, j=48, f=feblock
  0.375059096892E+01  0.249769609313E+01  0.500322133174E+01  0.403612218725E+01  0.287976772365E+01  0.124541910518E+01  0.190552237404E+01
  0.500000000000E+01  0.326671104552E+01  0.423253755448E+01  0.201271136506E+01 -0.547468544169E-02  0.958895643487E+00  0.500000000000E+01
  0.266968147299E+01  0.385584487271E+01  0.890374214836E+00  0.154654013699E+01  0.000000000000E+00  0.500000000000E+01  0.315261136744E+01
  0.218304199515E+01  0.398195307895E+01  0.000000000000E+00  0.697379952124E+00  0.963757277315E+00  0.125000000000E+01  0.000000000000E+00
  0.500000000000E+01  0.310330738524E+01  0.250000000000E+01  0.375000000000E+01  0.000000000000E+00
  0.250494197117E+01  0.250494197117E+01  0.250494197117E+01  0.250494197117E+01  0.250494197117E+01  0.250494197117E+01  0.250494197117E+01
  0.250494197117E+01  0.250494197117E+01  0.250494197117E+01  0.250494197117E+01  0.250494197117E+01  0.250494197117E+01  0.250494197117E+01
  0.250494197117E+01  0.250494197117E+01  0.250494197117E+01  0.250494197117E+01  0.250494197117E+01  0.250494197117E+01  0.250494197117E+01
  0.250494197117E+01  0.250494197117E+01  0.250494197117E+01  0.250494197117E+01  0.250494197117E+01  0.250494197117E+01  0.250494197117E+01
  0.250494197117E+01  0.250494197117E+01  0.250494197117E+01  0.250494197117E+01  0.250494197117E+01
  0.135649900494E-03  0.110129816467E-03  0.966887303890E-04  0.101756752009E+01  0.908094589218E+00  0.103942505801E-03  0.722629083213E+00
  0.125000000000E+01  0.188965661746E+01  0.191862696980E+01  0.176708239098E+01  0.803813859866E-04  0.969652551954E+00  0.250000000000E+01
  0.285339433501E+01  0.293325058812E+01  0.205656223819E+01  0.293157016932E+01  0.125000000000E+01  0.375000000000E+01  0.363766838842E+01
  0.396069444983E+01  0.407056385475E+01  0.250000000000E+01  0.307031995245E+01  0.397359820314E+01  0.500000000000E+01  0.375000000000E+01
  0.500000000000E+01  0.433260781310E+01  0.500000000000E+01  0.500000000000E+01  0.500000000000E+01
  0.000000000000E+00  0.000000000000E+00  0.000000000000E+00  0.444961626928E+00  0.402838316190E+00  0.000000000000E+00  0.379029001549E+00
  0.508827846411E+00  0.575719767468E+00  0.573484231916E+00  0.562571091033E+00  0.000000000000E+00  0.491643474339E+00  0.534340493553E+00
  0.556353506125E+00  0.564141623675E+00  0.522489639030E+00  0.521815314100E+00  0.440672136512E+00  0.517132480923E+00  0.524064820256E+00
  0.503612613683E+00  0.509416634110E+00  0.469886789982E+00  0.495646532245E+00  0.494503101969E+00  0.488630053423E+00  0.489035017215E+00
  0.492985464012E+00  0.498953669977E+00  0.486505314975E+00  0.484610387305E+00  0.495364848064E+00
  0.999989345567E+00  0.999989414891E+00  0.999989632591E+00  0.981375695393E+00  0.988672653297E+00  0.999989832933E+00  0.982271891095E+00
  0.984075644303E+00  0.990406052732E+00  0.990320090376E+00  0.994390331428E+00  0.999990300362E+00  0.988743428079E+00  0.100365390733E+01
  0.999774597300E+00  0.100117529834E+01  0.100830077599E+01  0.100251293722E+01  0.102982970104E+01  0.100442054131E+01  0.100199281310E+01
  0.100081994749E+01  0.100137956774E+01  0.100825795511E+01  0.100297377722E+01  0.100191712118E+01  0.100214790177E+01  0.100354817652E+01
  0.100047567419E+01  0.100056574043E+01  0.100126719373E+01  0.100066769089E+01  0.100178625606E+01
 -0.170722437584E-02  0.132172534385E-02 -0.282328352829E-02  0.156136004246E-01  0.610940896527E-01  0.384270622495E-02  0.607928695368E-01
 -0.967057775996E-02 -0.492478937507E-02 -0.609313914023E-02  0.101011723974E-01  0.610152261066E-02  0.411683783782E-01 -0.462869755750E-02
 -0.535324007900E-02 -0.380367043698E-02  0.118000384835E-02 -0.517345230422E-02  0.306711227753E-01 -0.315228446105E-02 -0.230377159505E-02
 -0.315324608236E-02 -0.240376935251E-02 -0.165052302652E-02 -0.450987499168E-02 -0.833746678638E-02 -0.256272142564E-01 -0.931168627405E-02
 -0.298777396222E-02 -0.367490864378E-02 -0.239604788432E-01 -0.130002402868E-01 -0.339890167633E-01
 -0.395668873506E-03 -0.383869643546E-03  0.702896953091E-03  0.442173587242E-02  0.843996084806E-02 -0.799530503567E-03  0.752207006220E-02
  0.158578556193E-02 -0.848213253032E-04  0.835614897887E-03  0.183763651432E-03  0.239163829641E-03  0.310114668076E-02  0.121108812372E-02
 -0.765080062303E-04  0.632467994083E-03 -0.114702738163E-02 -0.543319576274E-03  0.444678909809E-02  0.772815646419E-03  0.668153271173E-03
  0.362375279823E-03  0.780436452631E-03 -0.782727778021E-03 -0.105761923121E-02 -0.104820309637E-02 -0.454574069176E-02 -0.204929018157E-02
  0.271661042969E-03  0.430127022682E-03 -0.371615468832E-02 -0.129195902009E-02 -0.697980177480E-02
 -0.747207328949E-04  0.397365215104E-04  0.956469926628E-04 -0.296422964234E-03 -0.858362522022E-03  0.335332887747E-03 -0.127414259416E-04
  0.190595624334E-05 -0.958264256005E-04  0.160417374002E-04 -0.808028975555E-04  0.405778046982E-03  0.465402755879E-03  0.352454279619E-04
 -0.404194437267E-05  0.485497207623E-05 -0.158966464494E-03 -0.597031864369E-04  0.128359998702E-03  0.197177626808E-04  0.966504727132E-05
  0.428270568826E-04  0.767073496463E-06 -0.133096542316E-04 -0.361641631238E-04  0.121933048797E-04  0.171307511668E-04 -0.287364880187E-05
  0.691967809927E-05 -0.249940989493E-06  0.391647367501E-05 -0.101182942440E-05  0.332344957343E-05
 -0.462462120748E-03 -0.866026812155E-03 -0.242264753822E-03  0.654611417553E-03  0.104388455223E-02 -0.834699998929E-03  0.330822205621E-03
  0.374312565648E-03  0.191563138188E-02  0.929862689128E-03  0.277658706586E-02 -0.147377533874E-02  0.912538243692E-03  0.371745889716E-03
  0.986788716848E-03  0.826393161473E-03  0.233938520545E-02  0.105032619229E-02 -0.134234502412E-02  0.329622696998E-03  0.949439162699E-03
  0.981561231758E-03  0.710110923031E-03  0.155250261583E-02  0.151225232314E-02  0.101245994376E-02  0.727934490641E-03  0.128776827479E-02
  0.350570269734E-03  0.922699717550E-03  0.882455322381E-03  0.804722228242E-03  0.461710704235E-03
  0.706434755474E-02  0.301233242365E-02  0.132758563502E-02 -0.812456068204E-02 -0.264527190870E-01  0.190748648006E-03 -0.255316243900E-01
  0.246328777151E-02  0.152873525804E-02  0.157353676052E-02 -0.394573607021E-02 -0.487356661193E-02 -0.162206796175E-01  0.871184106253E-03
  0.169072389077E-02  0.862167653954E-03 -0.353485252846E-03  0.179120593395E-02 -0.126323552455E-01  0.618641375788E-03  0.381159470707E-03
  0.812882886814E-03  0.391900317858E-03  0.663944069513E-03  0.165154125920E-02  0.313677963657E-02  0.103608205188E-01  0.375552570386E-02
  0.846696898694E-03  0.970904025991E-03  0.950773327498E-02  0.486678897441E-02  0.141100548692E-01
        15         9        16        16
        15        18        11        11
        22        15        21        21
        11         5         9         9
         5         7         2         2
        11         9        15        15
        16        21        15        15
        16        10        14        14
        18        17        11        11
        17        25        24        24
        22        18        15        15
        22        30        31        31
        30        21        23        23
        16        20        23        23
        22        27        26        26
        10         9         4         4
         7        11        13        13
        25        18        26        26
        11         7         5         5
         5         1         4         4
        17        19        13        13
        23        32        30        30
        23        20        29        29
         4         9         5         5
         4         8        10        10
        26        18        22        22
        26        28        25        25
        13        11        17        17
        13         6         7         7
        31        30        32        32
         2         1         5         5
         2         7         6         6
        14        10         8         8
        24        19        17        17
        24        25        28        28
         9        10        16        16
         3         4         1         1
        33        26        27        27
        12        13        19        19
        21        30        22        22
        16        14        20        20
        16        23        21        21
        22        31        27        27
        18        25        17        17
        26        33        28        28
         4         3         8         8
        23        29        32        32
        13        12         6         6
zone t="boundary 4 bc-4", solutiontime= 0.4000000E+02, strandid=1004, i=32, j=46, f=feblock
  0.125000000000E+01  0.219251206392E+01  0.103724302461E+01  0.500000000000E+01  0.250000000000E+01  0.375000000000E+01  0.404200324774E+01
  0.500000000000E+01  0.000000000000E+00  0.310152362409E+01  0.202479342020E+01  0.324151231464E+01  0.922061490191E+00  0.000000000000E+00
  0.299062775774E+01  0.394624082883E+01  0.500000000000E+01  0.409252726285E+01  0.500000000000E+01  0.429310310915E+01  0.175434191980E+01
  0.284428995242E+01  0.000000000000E+00  0.000000000000E+00  0.715990576545E+00  0.930412228790E+00  0.125000000000E+01  0.187029682677E+01
  0.500000000000E+01  0.375000000000E+01  0.250000000000E+01  0.000000000000E+00
  0.250494197117E+01  0.157686156160E+01  0.146289271009E+01  0.250494197117E+01  0.250494197117E+01  0.250494197117E+01  0.155830813274E+01
  0.125000000000E+01  0.250494197117E+01  0.177790177481E+01  0.477386199275E+00  0.742988685424E+00  0.308372018325E+00  0.125000000000E+01
 -0.487811078581E+00 -0.144524380962E+01 -0.125000000000E+01 -0.345533899378E+00  0.000000000000E+00  0.627766083140E+00 -0.739814786992E+00
 -0.158811787973E+01  0.000000000000E+00 -0.125000000000E+01 -0.600232012419E+00 -0.154800130438E+01 -0.249658903664E+01 -0.178862290564E+01
 -0.249658903664E+01 -0.249658903664E+01 -0.249658903664E+01 -0.249658903664E+01
  0.500000000000E+01  0.500000000000E+01  0.500000000000E+01  0.500000000000E+01  0.500000000000E+01  0.500000000000E+01  0.500000000000E+01
  0.500000000000E+01  0.500000000000E+01  0.500000000000E+01  0.500000000000E+01  0.500000000000E+01  0.500000000000E+01  0.500000000000E+01
  0.500000000000E+01  0.500000000000E+01  0.500000000000E+01  0.500000000000E+01  0.500000000000E+01  0.500000000000E+01  0.500000000000E+01
  0.500000000000E+01  0.500000000000E+01  0.500000000000E+01  0.500000000000E+01  0.500000000000E+01  0.500000000000E+01  0.500000000000E+01
  0.500000000000E+01  0.500000000000E+01  0.500000000000E+01  0.500000000000E+01
  0.488630053423E+00  0.488907200673E+00  0.490613524454E+00  0.492985464012E+00  0.486505314975E+00  0.484610387305E+00  0.485346346417E+00
  0.494164094826E+00  0.495364848064E+00  0.486544301825E+00  0.487826539497E+00  0.487053944491E+00  0.494057895498E+00  0.496127940578E+00
  0.487590739712E+00  0.483169495133E+00  0.492384717662E+00  0.487198320547E+00  0.494738341209E+00  0.487947262281E+00  0.489650836219E+00
  0.487975047811E+00  0.497248366859E+00  0.496055083747E+00  0.494947818077E+00  0.492777844524E+00  0.489959820989E+00  0.489963118744E+00
  0.491323935798E+00  0.486019442841E+00  0.489980976742E+00  0.495089980244E+00
  0.100214790177E+01  0.100152376261E+01  0.100177920363E+01  0.100047567419E+01  0.100126719373E+01  0.100066769089E+01  0.100025509248E+01
  0.100050308878E+01  0.100178625606E+01  0.100112381228E+01  0.100132857256E+01  0.100072299640E+01  0.100164084009E+01  0.100168369530E+01
  0.100096380429E+01  0.100001109262E+01  0.100083219162E+01  0.100022379580E+01  0.100062130449E+01  0.100023379273E+01  0.100174737467E+01
  0.100099023681E+01  0.100118721261E+01  0.100134451878E+01  0.100132726122E+01  0.100179980273E+01  0.100192626091E+01  0.100163810987E+01
  0.100045827286E+01  0.100058947226E+01  0.100110091494E+01  0.100176433139E+01
 -0.256272142564E-01 -0.248617075196E-01 -0.255332299089E-01 -0.298777396222E-02 -0.239604788432E-01 -0.130002402868E-01 -0.903692640841E-02
 -0.297370349813E-02 -0.339890167633E-01 -0.199259599923E-01 -0.267230774040E-01 -0.187274130772E-01 -0.311281296598E-01 -0.351930124496E-01
 -0.211067365201E-01 -0.870267502962E-02 -0.336880870405E-02 -0.110817954166E-01 -0.276193153412E-02 -0.110701903804E-01 -0.328886666351E-01
 -0.198636869043E-01 -0.387900762529E-01 -0.342340848860E-01 -0.360622025527E-01 -0.289202037206E-01 -0.289405388051E-01 -0.306043369597E-01
 -0.345715445653E-02 -0.132328577160E-01 -0.254274650840E-01 -0.321741090872E-01