title="tecplot geometry and solution file"
variables = x y z rho u v w p mach temperature
zone t="boundary 1 bc-1", solutiontime= 0.5000000E+02, strandid=1001, i=32, j=46, f=feblock
 -0.547423805950E-02  0.000000000000E+00 -0.567511393137E-02  0.000000000000E+00  0.000000000000E+00  0.000000000000E+00 -0.525113715706E-02
 -0.425679957523E-02  0.000000000000E+00  0.000000000000E+00  0.000000000000E+00  0.000000000000E+00  0.000000000000E+00  0.000000000000E+00
  0.000000000000E+00  0.000000000000E+00 -0.338347811579E-02  0.000000000000E+00  0.000000000000E+00  0.000000000000E+00  0.000000000000E+00
  0.000000000000E+00  0.000000000000E+00  0.000000000000E+00  0.000000000000E+00  0.000000000000E+00  0.000000000000E+00  0.000000000000E+00
  0.000000000000E+00  0.000000000000E+00  0.000000000000E+00  0.000000000000E+00
  0.250494212117E+01  0.250494212117E+01  0.127822221177E+01  0.146289271009E+01  0.157686156160E+01  0.308372018325E+00  0.261959834557E-01
 -0.122573420438E+01 -0.600232012419E+00  0.250494212117E+01  0.477386199275E+00  0.742988685424E+00 -0.739814786992E+00  0.177790177481E+01
  0.155830813274E+01  0.250494212117E+01 -0.249658889995E+01 -0.154800130438E+01 -0.487811078581E+00  0.250494212117E+01  0.627766083140E+00
 -0.345533899378E+00 -0.178862290564E+01 -0.158811787973E+01  0.125000000000E+01 -0.249658889995E+01 -0.144524380962E+01  0.000000000000E+00
 -0.125000000000E+01 -0.249658889995E+01 -0.249658889995E+01 -0.249658889995E+01
  0.810555099614E-04  0.125000000000E+01  0.833774297186E-04  0.103724302461E+01  0.219251206392E+01  0.922061490191E+00  0.104461354043E-03
  0.352005475212E-04  0.715990576545E+00  0.250000000000E+01  0.202479342020E+01  0.324151231464E+01  0.175434191980E+01  0.310152362409E+01
  0.404200324774E+01  0.375000000000E+01  0.815770748851E-04  0.930412228790E+00  0.299062775774E+01  0.500000000000E+01  0.429310310915E+01
  0.409252726285E+01  0.187029682677E+01  0.284428995242E+01  0.500000000000E+01  0.125000000000E+01  0.394624082883E+01  0.500000000000E+01
  0.500000000000E+01  0.250000000000E+01  0.375000000000E+01  0.500000000000E+01
  0.121959984729E+01  0.105831357712E+01  0.128671927195E+01  0.108337054610E+01  0.102354615404E+01  0.116941719350E+01  0.145633781180E+01
  0.134804033784E+01  0.119311481150E+01  0.101662522967E+01  0.101712197043E+01  0.100667543393E+01  0.102800079691E+01  0.100987438831E+01
  0.100346383424E+01  0.100488609830E+01  0.130024662574E+01  0.114206740602E+01  0.100787502288E+01  0.100194476540E+01  0.100378960215E+01
  0.100390910387E+01  0.103478539151E+01  0.101224064304E+01  0.100190260679E+01  0.106018061859E+01  0.100437851833E+01  0.100077796301E+01
  0.100130067838E+01  0.102043486040E+01  0.100593736810E+01  0.100184292376E+01
  0.000000000000E+00  0.451834033728E+00  0.000000000000E+00  0.472912020544E+00  0.470158322522E+00  0.459504938165E+00  0.000000000000E+00
  0.000000000000E+00  0.401768547129E+00  0.478881786345E+00  0.474223473173E+00  0.485492993251E+00  0.492581069076E+00  0.489510442654E+00
  0.492201646842E+00  0.493575542525E+00  0.000000000000E+00  0.464516482157E+00  0.481634318164E+00  0.498235961299E+00  0.494015372064E+00
  0.490674197284E+00  0.458608922209E+00  0.473144542745E+00  0.498753315202E+00  0.451330934570E+00  0.491521103986E+00  0.499569337002E+00
  0.498567813906E+00  0.477380953869E+00  0.492957758467E+00  0.497856401455E+00
  0.000000000000E+00  0.000000000000E+00  0.000000000000E+00  0.156898577440E-01 -0.426046527171E-02  0.288060333010E-01  0.000000000000E+00
  0.000000000000E+00 -0.370127975270E-02  0.000000000000E+00  0.249851700637E-02 -0.528108258104E-02 -0.303265633200E-02 -0.172449955659E-03
 -0.109130956971E-02  0.000000000000E+00  0.000000000000E+00 -0.850281554607E-02  0.955099269025E-03  0.000000000000E+00 -0.167361422020E-02
 -0.105339251346E-02  0.212715401670E-02 -0.123596968329E-02  0.695899519127E-04  0.000000000000E+00  0.214869108443E-03 -0.176723446143E-03
  0.608284136559E-03  0.000000000000E+00  0.000000000000E+00  0.000000000000E+00
  0.000000000000E+00  0.388446396210E-01  0.000000000000E+00  0.103917054082E+00  0.224193209527E-01  0.135341947295E+00  0.000000000000E+00
  0.000000000000E+00  0.126992468359E+00  0.342255452773E-02  0.213553777613E-01 -0.708603624317E-02  0.636035165853E-01  0.292766487214E-02
 -0.792040597207E-03  0.244077915507E-03  0.000000000000E+00  0.115618461570E+00 -0.829814725439E-02  0.114480782300E-02 -0.749343410993E-03
 -0.442111305797E-02  0.223713936359E-01 -0.264557056652E-02  0.180779028798E-02  0.687953439268E-01 -0.177101304427E-02  0.155938586766E-02
  0.142678825921E-02  0.233070130021E-02 -0.110520522628E-02  0.211864583976E-02
  0.908102204733E+00  0.774899709163E+00  0.958078676653E+00  0.800622238888E+00  0.737949081512E+00  0.857914941014E+00  0.108437499453E+01
  0.100373774692E+01  0.887196036598E+00  0.730580353644E+00  0.733315362897E+00  0.720299338841E+00  0.748106706715E+00  0.724222069010E+00
  0.717576386804E+00  0.719224738532E+00  0.968151012937E+00  0.840784369966E+00  0.722225759161E+00  0.716319887794E+00  0.717948118093E+00
  0.717912573483E+00  0.749168007116E+00  0.726422701874E+00  0.716249845342E+00  0.782033737969E+00  0.718602111712E+00  0.715132538162E+00
  0.715579064961E+00  0.734165591836E+00  0.720297843841E+00  0.716213118460E+00
  0.000000000000E+00  0.447917875739E+00  0.000000000000E+00  0.476275908684E+00  0.468523750744E+00  0.473519694789E+00  0.000000000000E+00
  0.000000000000E+00  0.412988868540E+00  0.477443340648E+00  0.472504641902E+00  0.485153442050E+00  0.492070505816E+00  0.488543836918E+00
  0.491923383613E+00  0.493078172181E+00  0.000000000000E+00  0.471586665232E+00  0.480934091615E+00  0.498012891427E+00  0.493689911406E+00
  0.490409922225E+00  0.456073440450E+00  0.472047029960E+00  0.498545863668E+00  0.449257974392E+00  0.491117574366E+00  0.499470101902E+00
  0.498443301642E+00  0.475665744153E+00  0.492352551827E+00  0.497648491577E+00
  0.104242640687E+01  0.102508331773E+01  0.104242640687E+01  0.103461473867E+01  0.100936211820E+01  0.102707649938E+01  0.104242640687E+01
  0.104242640687E+01  0.104103514537E+01  0.100608608290E+01  0.100935928817E+01  0.100173207807E+01  0.101882157344E+01  0.100399703998E+01
  0.100113916142E+01  0.100201867222E+01  0.104242640687E+01  0.103067306864E+01  0.100321571610E+01  0.100090132464E+01  0.100133271273E+01
  0.100116394901E+01  0.101357751914E+01  0.100469368585E+01  0.100084556790E+01  0.103269878166E+01  0.100165718207E+01  0.100040727357E+01
  0.100050935006E+01  0.100724883915E+01  0.100246497780E+01  0.100085386847E+01
        12        19        11        11
        11         5        12        12
        10        14         5         5
        19        13        11        11
        19        24        13        13
        30        23        24        24
        19        12        22        22
        28        22        21        21
        11        13         6         6
         7         6         9         9
        15        12        14        14
        18        13        23        23
        15        25        21        21
        27        19        22        22
        18         8         9         9
        27        31        24        24
         4        11         6         6
         5        14        12        12
         4         2         5         5
        21        12        15        15
        14        16        15        15
        24        19        27        27
        22        29        27        27
        23        26        18        18
        17         8        18        18
         5        11         4         4
         6         3         4         4
        26        23        30        30
         5         2        10        10
        16        14        10        10
         3         6         7         7
        21        25        28        28
        29        22        28        28
         6        13         9         9
         2         4         1         1
        31        27        32        32
        25        15        20        20
        24        23        13        13
         8         7         9         9
        13        18         9         9
        31        30        24        24
        12        21        22        22
        29        32        27        27
         3         1         4         4
        26        17        18        18
        16        20        15        15
zone t="boundary 2 bc-2", solutiontime= 0.5000000E+02, strandid=1002, i=33, j=48, f=feblock
  0.500195304569E+01  0.375034911445E+01  0.249861195586E+01  0.288036734524E+01  0.124717625353E+01  0.190856776659E+01  0.326577224702E+01
  0.201394897336E+01 -0.338347811579E-02  0.962374688805E+00  0.500000000000E+01  0.403430242384E+01  0.423029585637E+01  0.500000000000E+01
  0.385439203450E+01  0.500000000000E+01  0.398133439182E+01  0.315200091129E+01  0.266958047393E+01  0.154798040446E+01  0.218327864912E+01
  0.893688570015E+00  0.000000000000E+00  0.699009792613E+00  0.964460908420E+00  0.310303675834E+01  0.000000000000E+00  0.000000000000E+00
  0.125000000000E+01  0.500000000000E+01  0.375000000000E+01  0.250000000000E+01  0.000000000000E+00
 -0.249658889995E+01 -0.249658889995E+01 -0.249658889995E+01 -0.249658889995E+01 -0.249658889995E+01 -0.249658889995E+01 -0.249658889995E+01
 -0.249658889995E+01 -0.249658889995E+01 -0.249658889995E+01 -0.249658889995E+01 -0.249658889995E+01 -0.249658889995E+01 -0.249658889995E+01
 -0.249658889995E+01 -0.249658889995E+01 -0.249658889995E+01 -0.249658889995E+01 -0.249658889995E+01 -0.249658889995E+01 -0.249658889995E+01
 -0.249658889995E+01 -0.249658889995E+01 -0.249658889995E+01 -0.249658889995E+01 -0.249658889995E+01 -0.249658889995E+01 -0.249658889995E+01
 -0.249658889995E+01 -0.249658889995E+01 -0.249658889995E+01 -0.249658889995E+01 -0.249658889995E+01
  0.108718466124E-03  0.146871002877E-03  0.101391403625E-03  0.901663855009E+00  0.111859770246E-03  0.714929122628E+00  0.188140689383E+01
  0.175892220178E+01  0.815770748851E-04  0.957504919455E+00  0.125000000000E+01  0.100596747764E+01  0.191313549558E+01  0.250000000000E+01
  0.292898123450E+01  0.375000000000E+01  0.406883381106E+01  0.363389311423E+01  0.284756896692E+01  0.292582334388E+01  0.395754070573E+01
  0.205027286651E+01  0.125000000000E+01  0.306703285099E+01  0.397155774739E+01  0.433068632756E+01  0.250000000000E+01  0.375000000000E+01
  0.500000000000E+01  0.500000000000E+01  0.500000000000E+01  0.500000000000E+01  0.500000000000E+01
  0.768735500028E+00  0.889523315258E+00  0.898746324221E+00  0.950542376364E+00  0.924960161399E+00  0.947969344882E+00  0.981017521957E+00
  0.987798996008E+00  0.130024662574E+01  0.101390437366E+01  0.944836326060E+00  0.944236742901E+00  0.978087749436E+00  0.100717422610E+01
  0.997784677978E+00  0.100978230047E+01  0.100012041935E+01  0.996167618552E+00  0.989919904914E+00  0.998867621886E+00  0.997941838875E+00
  0.100913681712E+01  0.106018061859E+01  0.100643337929E+01  0.100351221366E+01  0.998477813767E+00  0.102043486040E+01  0.100593736810E+01
  0.100234892529E+01  0.999828411669E+00  0.100019291192E+01  0.100028686908E+01  0.100184292376E+01
  0.000000000000E+00  0.000000000000E+00  0.000000000000E+00  0.385195819652E+00  0.000000000000E+00  0.340886085375E+00  0.583453554615E+00
  0.571759552522E+00  0.000000000000E+00  0.480963210306E+00  0.505185161448E+00  0.443662075812E+00  0.572024070437E+00  0.532003778914E+00
  0.566400180004E+00  0.512620364008E+00  0.508195588679E+00  0.526914232709E+00  0.564509591828E+00  0.531478331446E+00  0.508129388395E+00
  0.521930180969E+00  0.451330934570E+00  0.494980681686E+00  0.496091697253E+00  0.503538726235E+00  0.477380953869E+00  0.492957758467E+00
  0.494536385403E+00  0.491695274956E+00  0.489493219922E+00  0.494635429645E+00  0.497856401455E+00
  0.000000000000E+00  0.000000000000E+00  0.000000000000E+00  0.000000000000E+00  0.000000000000E+00  0.000000000000E+00  0.000000000000E+00
  0.000000000000E+00  0.000000000000E+00  0.000000000000E+00  0.000000000000E+00  0.000000000000E+00  0.000000000000E+00  0.000000000000E+00
  0.000000000000E+00  0.000000000000E+00  0.000000000000E+00  0.000000000000E+00  0.000000000000E+00  0.000000000000E+00  0.000000000000E+00
  0.000000000000E+00  0.000000000000E+00  0.000000000000E+00  0.000000000000E+00  0.000000000000E+00  0.000000000000E+00  0.000000000000E+00
  0.000000000000E+00  0.000000000000E+00  0.000000000000E+00  0.000000000000E+00  0.000000000000E+00
  0.000000000000E+00  0.000000000000E+00  0.000000000000E+00 -0.142936687884E-02  0.000000000000E+00  0.168978289422E-01  0.875994796070E-02
  0.403964193332E-01  0.000000000000E+00  0.730723022433E-01 -0.112216893344E+00 -0.262899303936E-01 -0.368284370110E-01 -0.483402506884E-01
 -0.588594063032E-02 -0.170495925273E-03 -0.195986964078E-02 -0.317075058523E-02  0.106422538603E-01  0.235146932244E-01  0.228804252655E-02
  0.486675003881E-01  0.687953439268E-01  0.868228897138E-02  0.441102079614E-02 -0.351502926748E-02  0.233070130021E-02 -0.110520522628E-02
  0.135829485346E-02  0.546603207495E-02 -0.147516210942E-02 -0.124162256871E-02  0.211864583976E-02
  0.572392989378E+00  0.662330423824E+00  0.669197786747E+00  0.681370823438E+00  0.688716355390E+00  0.681181021414E+00  0.693024434734E+00
  0.700085119766E+00  0.968151012937E+00  0.722087350958E+00  0.666760566805E+00  0.671480385710E+00  0.691232264334E+00  0.720038379143E+00
  0.710709995139E+00  0.723770720791E+00  0.714752637499E+00  0.710894212040E+00  0.704007878013E+00  0.714159222431E+00  0.712429493332E+00
  0.725804161747E+00  0.782033737969E+00  0.720438338984E+00  0.717728355146E+00  0.712837426579E+00  0.734165591836E+00  0.720297843841E+00
  0.716518298665E+00  0.714353111786E+00  0.714323975706E+00  0.714486131352E+00  0.716213118460E+00
  0.000000000000E+00  0.000000000000E+00  0.000000000000E+00  0.384516085588E+00  0.000000000000E+00  0.340285980132E+00  0.586753007564E+00
  0.575426079995E+00  0.000000000000E+00  0.487199446703E+00  0.520641041000E+00  0.445423592246E+00  0.576269239343E+00  0.533962382668E+00
  0.567224547193E+00  0.511735131132E+00  0.508063933745E+00  0.527166125764E+00  0.565842727425E+00  0.531744056484E+00  0.508272214535E+00
  0.522388436998E+00  0.449257974392E+00  0.494521456845E+00  0.495788429171E+00  0.503678488590E+00  0.475665744153E+00  0.492352551827E+00
  0.494346759926E+00  0.491660272028E+00  0.489529544314E+00  0.494638541993E+00  0.497648491577E+00
  0.104242640687E+01  0.104242640687E+01  0.104242640687E+01  0.100355247334E+01  0.104242640687E+01  0.100599606425E+01  0.989008031877E+00
  0.992225312674E+00  0.104242640687E+01  0.997058813041E+00  0.987964547701E+00  0.995589874110E+00  0.989405266170E+00  0.100087323989E+01
  0.997203119225E+00  0.100346283415E+01  0.100053320894E+01  0.999080755408E+00  0.995647248152E+00  0.100095637249E+01  0.999458336960E+00
  0.100692573020E+01  0.103269878166E+01  0.100216635828E+01  0.100130290746E+01  0.999493812933E+00  0.100724883915E+01  0.100246497780E+01
  0.100077487272E+01  0.100026599047E+01  0.999860680948E+00  0.999993716614E+00  0.100085386847E+01
        15         7        19        19
         8        20        19        19
        18        19        21        21
         7         4         8         8
         3         6         4         4
        19         7         8         8
        19        18        15        15
        14        13        15        15
         8        22        20        20
        27        24        22        22
        19        20        21        21
        32        26        21        21
        17        18        26        26
        17        16        15        15
        25        29        21        21
        12         7        13        13
        10         8         6         6
        25        20        24        24
         4         6         8         8
        12         2         4         4
        10        23        22        22
        26        31        17        17
        30        16        17        17
         4         7        12        12
        13        11        12        12
        21        20        25        25
        24        28        25        25
        22         8        10        10
         6         5        10        10
        31        26        32        32
         4         2         3         3
         5         6         3         3
        11        13        14        14
        22        23        27        27
        28        24        27        27
        15        13         7         7
         2        12         1         1
        29        25        33        33
        23        10         9         9
        21        26        18        18
        16        14        15        15
        18        17        15        15
        29        32        21        21
        22        24        20        20
        28        33        25        25
        11         1        12        12
        31        30        17        17
         5         9        10        10
zone t="boundary 3 bc-3", solutiontime= 0.5000000E+02, strandid=1003, i=33, j=48, f=feblock
  0.375059198657E+01  0.249769657633E+01  0.500322188025E+01  0.403612273199E+01  0.287976833115E+01  0.124542006321E+01  0.190552300212E+01
  0.500000000000E+01  0.326671141102E+01  0.423253782985E+01  0.201271171312E+01 -0.547423805950E-02  0.958896023268E+00  0.500000000000E+01
  0.266968165775E+01  0.385584506237E+01  0.890374264101E+00  0.154654020338E+01  0.000000000000E+00  0.500000000000E+01  0.315261148354E+01
  0.218304203027E+01  0.398195315868E+01  0.000000000000E+00  0.697379940195E+00  0.963757261038E+00  0.125000000000E+01  0.000000000000E+00
  0.500000000000E+01  0.310330743988E+01  0.250000000000E+01  0.375000000000E+01  0.000000000000E+00
  0.250494212117E+01  0.250494212117E+01  0.250494212117E+01  0.250494212117E+01  0.250494212117E+01  0.250494212117E+01  0.250494212117E+01
  0.250494212117E+01  0.250494212117E+01  0.250494212117E+01  0.250494212117E+01  0.250494212117E+01  0.250494212117E+01  0.250494212117E+01
  0.250494212117E+01  0.250494212117E+01  0.250494212117E+01  0.250494212117E+01  0.250494212117E+01  0.250494212117E+01  0.250494212117E+01
  0.250494212117E+01  0.250494212117E+01  0.250494212117E+01  0.250494212117E+01  0.250494212117E+01  0.250494212117E+01  0.250494212117E+01
  0.250494212117E+01  0.250494212117E+01  0.250494212117E+01  0.250494212117E+01  0.250494212117E+01
  0.136804630540E-03  0.110791624817E-03  0.973352334446E-04  0.101756848578E+01  0.908095573032E+00  0.105111079957E-03  0.722630164348E+00
  0.125000000000E+01  0.188965736879E+01  0.191862744900E+01  0.176708323463E+01  0.810555099614E-04  0.969653553256E+00  0.250000000000E+01
  0.285339490015E+01  0.293325099966E+01  0.205656276150E+01  0.293157064761E+01  0.125000000000E+01  0.375000000000E+01  0.363766873132E+01
  0.396069471523E+01  0.407056402813E+01  0.250000000000E+01  0.307032020891E+01  0.397359835964E+01  0.500000000000E+01  0.375000000000E+01
  0.500000000000E+01  0.433260798889E+01  0.500000000000E+01  0.500000000000E+01  0.500000000000E+01
  0.896676826189E+00  0.910447602259E+00  0.781948882067E+00  0.945770024495E+00  0.960130113589E+00  0.922179405830E+00  0.963950454827E+00
  0.950682174819E+00  0.978092887245E+00  0.979670613102E+00  0.986799167508E+00  0.121959984729E+01  0.100543681009E+01  0.100849098057E+01
  0.992240050061E+00  0.997800265261E+00  0.100537162033E+01  0.998282947793E+00  0.105831357712E+01  0.100697675937E+01  0.998804014813E+00
  0.999311195762E+00  0.100000736793E+01  0.101662522967E+01  0.100449252194E+01  0.100204227103E+01  0.100246725630E+01  0.100488609830E+01
  0.100014590950E+01  0.998721194360E+00  0.100101036747E+01  0.100049286853E+01  0.100194476540E+01
  0.000000000000E+00  0.000000000000E+00  0.000000000000E+00  0.451193625468E+00  0.403035941698E+00  0.000000000000E+00  0.369780915028E+00
  0.504465680838E+00  0.572441533511E+00  0.570700485245E+00  0.555903950352E+00  0.000000000000E+00  0.475076252667E+00  0.529012493995E+00
  0.555007181756E+00  0.562172006703E+00  0.523997650574E+00  0.523269521098E+00  0.451834033728E+00  0.514483256462E+00  0.524697314707E+00
  0.506246213738E+00  0.509778399688E+00  0.478881786345E+00  0.499519883147E+00  0.498081335957E+00  0.493201216922E+00  0.493575542525E+00
  0.493226504245E+00  0.501441537051E+00  0.491213275955E+00  0.488103506950E+00  0.498235961299E+00
  0.000000000000E+00  0.000000000000E+00  0.000000000000E+00  0.000000000000E+00  0.000000000000E+00  0.000000000000E+00  0.000000000000E+00
  0.000000000000E+00  0.000000000000E+00  0.000000000000E+00  0.000000000000E+00  0.000000000000E+00  0.000000000000E+00  0.000000000000E+00
  0.000000000000E+00  0.000000000000E+00  0.000000000000E+00  0.000000000000E+00  0.000000000000E+00  0.000000000000E+00  0.000000000000E+00
  0.000000000000E+00  0.000000000000E+00  0.000000000000E+00  0.000000000000E+00  0.000000000000E+00  0.000000000000E+00  0.000000000000E+00
  0.000000000000E+00  0.000000000000E+00  0.000000000000E+00  0.000000000000E+00  0.000000000000E+00
  0.000000000000E+00  0.000000000000E+00  0.000000000000E+00 -0.279072850366E-01  0.124067496428E-01  0.000000000000E+00  0.162361819339E-01
 -0.114474063073E+00  0.481975655318E-03 -0.460951436061E-01  0.299462922350E-01  0.000000000000E+00  0.536074573407E-01 -0.502845363344E-01
  0.507334081895E-02 -0.105803121035E-01  0.439389203470E-01  0.105965573254E-01  0.388446396210E-01 -0.221863925785E-02 -0.367150379104E-02
 -0.404342260807E-03 -0.149357047396E-02  0.342255452773E-02  0.804275277563E-02  0.207982773055E-02  0.580599238903E-03  0.244077915507E-03
  0.506601364795E-02 -0.210226270026E-02 -0.607641194541E-03 -0.695779897702E-03  0.114480782300E-02
  0.667656858606E+00  0.677910444762E+00  0.582231545350E+00  0.670520815484E+00  0.688130583213E+00  0.686645831793E+00  0.690430213664E+00
  0.670645805555E+00  0.691903438065E+00  0.692624432358E+00  0.700947317634E+00  0.908102204733E+00  0.717683234980E+00  0.721491980306E+00
  0.706702647119E+00  0.711393847184E+00  0.721305342852E+00  0.713317609620E+00  0.774899709163E+00  0.721207796383E+00  0.713532243922E+00
  0.713575102034E+00  0.714554238496E+00  0.730580353644E+00  0.718615629309E+00  0.716241099775E+00  0.716741918558E+00  0.719224738532E+00
  0.714565182909E+00  0.713128383821E+00  0.715136917861E+00  0.714653005249E+00  0.716319887794E+00
  0.000000000000E+00  0.000000000000E+00  0.000000000000E+00  0.453748006258E+00  0.402545566437E+00  0.000000000000E+00  0.369629110226E+00
  0.520525413395E+00  0.575220795840E+00  0.575502696825E+00  0.558260208680E+00  0.000000000000E+00  0.478253031251E+00  0.530976525855E+00
  0.555830976116E+00  0.562793217914E+00  0.524675226226E+00  0.523282012554E+00  0.447917875739E+00  0.513796075868E+00  0.524673094286E+00
  0.506323915511E+00  0.509686670412E+00  0.477443340648E+00  0.499194823107E+00  0.497912969377E+00  0.492962766473E+00  0.493078172181E+00
  0.493192031554E+00  0.501531686558E+00  0.491169169955E+00  0.488098797725E+00  0.498012891427E+00
  0.104242640687E+01  0.104242640687E+01  0.104242640687E+01  0.992555396517E+00  0.100338777303E+01  0.104242640687E+01  0.100275101722E+01
  0.987610952057E+00  0.990360758087E+00  0.989796154272E+00  0.994453863561E+00  0.104242640687E+01  0.999323397446E+00  0.100158433927E+01
  0.997121317474E+00  0.998147044787E+00  0.100443205236E+01  0.100036232781E+01  0.102508331773E+01  0.100269535076E+01  0.100014129566E+01
  0.999693736130E+00  0.100036856325E+01  0.100608608290E+01  0.100156234025E+01  0.100069385162E+01  0.100096903881E+01  0.100201867222E+01
  0.100024531078E+01  0.999658105774E+00  0.100018113452E+01  0.100002132831E+01  0.100090132464E+01
        15         9        16        16
        15        18        11        11
        22        15        21        21
        11         5         9         9
         5         7         2         2
        11         9        15        15
        16        21        15        15
        16        10        14        14
        18        17        11        11
        17        25        24        24
        22        18        15        15
        22        30        31        31
        30        21        23        23
        16        20        23        23
        22        27        26        26
        10         9         4         4
         7        11        13        13
        25        18        26        26
        11         7         5         5
         5         1         4         4
        17        19        13        13
        23        32        30        30
        23        20        29        29
         4         9         5         5
         4         8        10        10
        26        18        22        22
        26        28        25        25
        13        11        17        17
        13         6         7         7
        31        30        32        32
         2         1         5         5
         2         7         6         6
        14        10         8         8
        24        19        17        17
        24        25        28        28
         9        10        16        16
         3         4         1         1
        33        26        27        27
        12        13        19        19
        21        30        22        22
        16        14        20        20
        16        23        21        21
        22        31        27        27
        18        25        17        17
        26        33        28        28
         4         3         8         8
        23        29        32        32
        13        12         6         6
zone t="boundary 4 bc-4", solutiontime= 0.5000000E+02, strandid=1004, i=32, j=46, f=feblock
  0.125000000000E+01  0.219251206392E+01  0.103724302461E+01  0.500000000000E+01  0.250000000000E+01  0.375000000000E+01  0.404200324774E+01
  0.500000000000E+01  0.000000000000E+00  0.310152362409E+01  0.202479342020E+01  0.324151231464E+01  0.922061490191E+00  0.000000000000E+00
  0.299062775774E+01  0.394624082883E+01  0.500000000000E+01  0.409252726285E+01  0.500000000000E+01  0.429310310915E+01  0.175434191980E+01
  0.284428995242E+01  0.000000000000E+00  0.000000000000E+00  0.715990576545E+00  0.930412228790E+00  0.125000000000E+01  0.187029682677E+01
  0.500000000000E+01  0.375000000000E+01  0.250000000000E+01  0.000000000000E+00
  0.250494212117E+01  0.157686156160E+01  0.146289271009E+01  0.250494212117E+01  0.250494212117E+01  0.250494212117E+01  0.155830813274E+01
  0.125000000000E+01  0.250494212117E+01  0.177790177481E+01  0.477386199275E+00  0.742988685424E+00  0.308372018325E+00  0.125000000000E+01
 -0.487811078581E+00 -0.144524380962E+01 -0.125000000000E+01 -0.345533899378E+00  0.000000000000E+00  0.627766083140E+00 -0.739814786992E+00
 -0.158811787973E+01  0.000000000000E+00 -0.125000000000E+01 -0.600232012419E+00 -0.154800130438E+01 -0.249658889995E+01 -0.178862290564E+01
 -0.249658889995E+01 -0.249658889995E+01 -0.249658889995E+01 -0.249658889995E+01
  0.500000000000E+01  0.500000000000E+01  0.500000000000E+01  0.500000000000E+01  0.500000000000E+01  0.500000000000E+01  0.500000000000E+01
  0.500000000000E+01  0.500000000000E+01  0.500000000000E+01  0.500000000000E+01  0.500000000000E+01  0.500000000000E+01  0.500000000000E+01
  0.500000000000E+01  0.500000000000E+01  0.500000000000E+01  0.500000000000E+01  0.500000000000E+01  0.500000000000E+01  0.500000000000E+01
  0.500000000000E+01  0.500000000000E+01  0.500000000000E+01  0.500000000000E+01  0.500000000000E+01  0.500000000000E+01  0.500000000000E+01
  0.500000000000E+01  0.500000000000E+01  0.500000000000E+01  0.500000000000E+01
  0.100246725630E+01  0.100134430352E+01  0.100190794332E+01  0.100014590950E+01  0.100101036747E+01  0.100049286853E+01  0.999775591239E+00
  0.100034297646E+01  0.100194476540E+01  0.100086117556E+01  0.100110853401E+01  0.100019876466E+01  0.100152581733E+01  0.100190260679E+01
  0.100054385192E+01  0.998652394581E+00  0.100067113021E+01  0.999536487197E+00  0.100054144780E+01  0.999923230721E+00  0.100145779084E+01
  0.100044293953E+01  0.100077796301E+01  0.100130067838E+01  0.100105884097E+01  0.100174639384E+01  0.100234892529E+01  0.100133132697E+01
  0.999828411669E+00  0.100019291192E+01  0.100028686908E+01  0.100184292376E+01
  0.493201216922E+00  0.493601219168E+00  0.494657951961E+00  0.493226504245E+00  0.491213275955E+00  0.488103506950E+00  0.488185423825E+00
  0.494186667312E+00  0.498235961299E+00  0.490793323673E+00  0.492762898429E+00  0.491176778892E+00  0.497637812528E+00  0.498753315202E+00
  0.492051500742E+00  0.486062291997E+00  0.492255086482E+00  0.489681613887E+00  0.494622557061E+00  0.490040126468E+00  0.494628970493E+00
  0.492616666980E+00  0.499569337002E+00  0.498567813906E+00  0.498183510892E+00  0.496570939757E+00  0.494536385403E+00  0.494839504280E+00
  0.491695274956E+00  0.489493219922E+00  0.494635429645E+00  0.497856401455E+00
  0.000000000000E+00 -0.121469578462E-03 -0.110879881808E-02  0.000000000000E+00  0.000000000000E+00  0.000000000000E+00  0.121293519749E-03
  0.633470089656E-03  0.000000000000E+00  0.102566809459E-03 -0.874325669911E-03 -0.898643062740E-03 -0.157079879433E-02  0.695899519127E-04
 -0.888524817781E-03 -0.918891922249E-03 -0.139167992920E-02 -0.210154075922E-02 -0.141209605863E-02 -0.122049474862E-02 -0.534197945981E-03
 -0.644840619401E-03 -0.176723446143E-03  0.608284136559E-03 -0.247269191279E-04  0.142363542948E-02  0.000000000000E+00  0.724012456682E-03
  0.000000000000E+00  0.000000000000E+00  0.000000000000E+00  0.000000000000E+00