# vtk DataFile Version 2.0
FUN3D:global_image_vtk
ASCII
DATASET UNSTRUCTURED_GRID
POINTS 213 double
   -0.5474238059504603E-02    0.2504942121173606E+01    0.8105550996138860E-04
    0.1245420063214956E+01    0.2504942121173606E+01    0.1051110799572809E-03
    0.2497696576329003E+01    0.2504942121173606E+01    0.1107916248165164E-03
    0.3750591986574023E+01    0.2504942121173606E+01    0.1368046305401372E-03
    0.5003221880247612E+01    0.2504942121173606E+01    0.9733523344461431E-04
    0.5004677745410214E+01    0.1281291877273527E+01    0.1649128333390527E-03
    0.5004773223164809E+01    0.2775194235895190E-01    0.1909167401678425E-03
    0.5003582213732991E+01   -0.1225852894964910E+01    0.1618071321506643E-03
    0.5001953045688033E+01   -0.2496588899954337E+01    0.1087184661237440E-03
    0.3750349114452023E+01   -0.2496588899954337E+01    0.1468710028767740E-03
    0.2498611955860786E+01   -0.2496588899954337E+01    0.1013914036254582E-03
    0.1247176253529147E+01   -0.2496588899954337E+01    0.1118597702464409E-03
   -0.3383478115785169E-02   -0.2496588899954337E+01    0.8157707488508309E-04
   -0.4256799575230425E-02   -0.1225734204378883E+01    0.3520054752117929E-04
   -0.5251137157060341E-02    0.2619598345569628E-01    0.1044613540432249E-03
   -0.5675113931366800E-02    0.1278222211771627E+01    0.8337742971856088E-04
    0.9003214086382191E+00    0.1608980275733105E+01    0.8768012080222159E-04
    0.3983173220881041E+01   -0.1561211296856023E+01    0.1767351954316810E-03
    0.4035602566125262E+01    0.1486761229513980E+01    0.1719506678095473E-03
    0.1036614696945808E+01   -0.1455625819023465E+01    0.1057538994854991E-03
    0.1094353938944835E+01   -0.2964610713744223E+00    0.1266326919438921E-03
    0.7298409754953697E+00    0.6874691188446063E+00    0.1055682047596808E-03
    0.1617019110904462E+01    0.8553219657949420E+00    0.1535917835092516E-03
    0.2143200645120234E+01   -0.1627127901290524E+01    0.1616433273473873E-03
    0.4088840970379843E+01   -0.4351036471404206E+00    0.2725522799659064E-03
    0.2977917500432660E+01   -0.8334985271277852E+00    0.2256092970106250E-03
    0.3044093736197656E+01   -0.1814360118269820E+01    0.1622179478026198E-03
    0.3427867617085304E+01    0.3813911574464904E+00    0.2947830712452794E-03
    0.4313225896320023E+01    0.5489145083257441E+00    0.2318893475642814E-03
    0.1823033699632841E+01    0.1771265881755795E+01    0.1847610807679524E-03
    0.2806311635978372E+01    0.1358630571504235E+01    0.1949713312552748E-03
    0.1891861844560957E+01   -0.8481304128925676E+00    0.1681170219251228E-03
    0.2268769663417530E+01    0.7723807075737756E-01    0.2078128221064535E-03
    0.5000000000000000E+01    0.2504942121173606E+01    0.1250000000000000E+01
    0.5000000000000000E+01    0.2504942121173606E+01    0.2500000000000000E+01
    0.5000000000000000E+01    0.2504942121173606E+01    0.3750000000000000E+01
    0.5000000000000000E+01    0.2504942121173606E+01    0.5000000000000000E+01
    0.3750000000000000E+01    0.2504942121173606E+01    0.5000000000000000E+01
    0.2500000000000000E+01    0.2504942121173606E+01    0.5000000000000000E+01
    0.1250000000000000E+01    0.2504942121173606E+01    0.5000000000000000E+01
    0.0000000000000000E+00    0.2504942121173606E+01    0.5000000000000000E+01
    0.0000000000000000E+00    0.2504942121173606E+01    0.3750000000000000E+01
    0.0000000000000000E+00    0.2504942121173606E+01    0.2500000000000000E+01
    0.0000000000000000E+00    0.2504942121173606E+01    0.1250000000000000E+01
    0.9588960232678366E+00    0.2504942121173606E+01    0.9696535532560123E+00
    0.3981953158675399E+01    0.2504942121173606E+01    0.4070564028128235E+01
    0.4036122731989218E+01    0.2504942121173606E+01    0.1017568485776355E+01
    0.9637572610381538E+00    0.2504942121173606E+01    0.3973598359643718E+01
    0.1546540203381565E+01    0.2504942121173606E+01    0.2931570647607446E+01
    0.6973799401951976E+00    0.2504942121173606E+01    0.3070320208910558E+01
    0.8903742641014867E+00    0.2504942121173606E+01    0.2056562761496198E+01
    0.2183042030268336E+01    0.2504942121173606E+01    0.3960694715225206E+01
    0.3855845062374691E+01    0.2504942121173606E+01    0.2933250999658541E+01
    0.3152611483537013E+01    0.2504942121173606E+01    0.3637668731320943E+01
    0.3103307439881851E+01    0.2504942121173606E+01    0.4332607988887994E+01
    0.3266711411018350E+01    0.2504942121173606E+01    0.1889657368794829E+01
    0.4232537829854345E+01    0.2504942121173606E+01    0.1918627448997642E+01
    0.1905523002123984E+01    0.2504942121173606E+01    0.7226301643477123E+00
    0.2879768331147496E+01    0.2504942121173606E+01    0.9080955730319548E+00
    0.2012711713120237E+01    0.2504942121173606E+01    0.1767083234625423E+01
    0.2669681657745519E+01    0.2504942121173606E+01    0.2853394900149152E+01
    0.5000000000000000E+01    0.1250000000000000E+01    0.5000000000000000E+01
    0.5000000000000000E+01    0.0000000000000000E+00    0.5000000000000000E+01
    0.5000000000000000E+01   -0.1250000000000000E+01    0.5000000000000000E+01
    0.5000000000000000E+01   -0.2496588899954337E+01    0.5000000000000000E+01
    0.5000000000000000E+01   -0.2496588899954337E+01    0.3750000000000000E+01
    0.5000000000000000E+01   -0.2496588899954337E+01    0.2500000000000000E+01
    0.5000000000000000E+01   -0.2496588899954337E+01    0.1250000000000000E+01
    0.5000000000000000E+01    0.1578994732800803E+01    0.9058375365086910E+00
    0.5000000000000000E+01   -0.1583989954232354E+01    0.3982050490726493E+01
    0.5000000000000000E+01    0.1453322699199022E+01    0.4033849428301197E+01
    0.5000000000000000E+01   -0.1479596339503735E+01    0.1040505887381675E+01
    0.5000000000000000E+01   -0.3227322616384110E+00    0.1099454400140349E+01
    0.5000000000000000E+01    0.6593508822075582E+00    0.7354504170366591E+00
    0.5000000000000000E+01    0.8256214013940779E+00    0.1622302608453282E+01
    0.5000000000000000E+01   -0.1650070333782557E+01    0.2145871574390382E+01
    0.5000000000000000E+01   -0.4612828702537229E+00    0.4086422318222992E+01
    0.5000000000000000E+01   -0.8579242121530853E+00    0.2979540174134984E+01
    0.5000000000000000E+01   -0.1836846154397680E+01    0.3045064261640043E+01
    0.5000000000000000E+01    0.3508002863614053E+00    0.3428197553792836E+01
    0.5000000000000000E+01    0.5185680230613409E+00    0.4309693860063405E+01
    0.5000000000000000E+01    0.1738996113203182E+01    0.1827272193562204E+01
    0.5000000000000000E+01    0.1325493893339706E+01    0.2808563282768077E+01
    0.5000000000000000E+01   -0.8731419609589618E+00    0.1895995683864404E+01
    0.5000000000000000E+01    0.4906150219227333E-01    0.2273179336307740E+01
    0.0000000000000000E+00    0.1250000000000000E+01    0.5000000000000000E+01
    0.0000000000000000E+00    0.0000000000000000E+00    0.5000000000000000E+01
    0.0000000000000000E+00   -0.1250000000000000E+01    0.5000000000000000E+01
    0.0000000000000000E+00   -0.2496588899954337E+01    0.5000000000000000E+01
    0.1250000000000000E+01   -0.2496588899954337E+01    0.5000000000000000E+01
    0.2500000000000000E+01   -0.2496588899954337E+01    0.5000000000000000E+01
    0.3750000000000000E+01   -0.2496588899954337E+01    0.5000000000000000E+01
    0.4042003247744892E+01    0.1558308132739014E+01    0.5000000000000000E+01
    0.9304122287900499E+00   -0.1548001304379777E+01    0.5000000000000000E+01
    0.1037243024609388E+01    0.1462892710085612E+01    0.5000000000000000E+01
    0.3946240828834967E+01   -0.1445243809615570E+01    0.5000000000000000E+01
    0.4092527262848217E+01   -0.3455338993778935E+00    0.5000000000000000E+01
    0.4293103109154542E+01    0.6277660831404320E+00    0.5000000000000000E+01
    0.3241512314643519E+01    0.7429886854239611E+00    0.5000000000000000E+01
    0.2844289952419609E+01   -0.1588117879734118E+01    0.5000000000000000E+01
    0.7159905765450471E+00   -0.6002320124191652E+00    0.5000000000000000E+01
    0.1754341919796891E+01   -0.7398147869923652E+00    0.5000000000000000E+01
    0.1870296826774691E+01   -0.1788622905643739E+01    0.5000000000000000E+01
    0.9220614901912976E+00    0.3083720183248586E+00    0.5000000000000000E+01
    0.3101523624086016E+01    0.1777901774806180E+01    0.5000000000000000E+01
    0.2192512063922564E+01    0.1576861561598471E+01    0.5000000000000000E+01
    0.2024793420196460E+01    0.4773861992750707E+00    0.5000000000000000E+01
    0.2990627757741975E+01   -0.4878110785814084E+00    0.5000000000000000E+01
    0.0000000000000000E+00   -0.2496588899954337E+01    0.1250000000000000E+01
    0.0000000000000000E+00   -0.2496588899954337E+01    0.2500000000000000E+01
    0.0000000000000000E+00   -0.2496588899954337E+01    0.3750000000000000E+01
    0.0000000000000000E+00    0.1558308132739014E+01    0.4042003247744892E+01
    0.0000000000000000E+00   -0.1548001304379777E+01    0.9304122287900499E+00
    0.0000000000000000E+00    0.1462892710085612E+01    0.1037243024609388E+01
    0.0000000000000000E+00   -0.1445243809615570E+01    0.3946240828834967E+01
    0.0000000000000000E+00   -0.3455338993778935E+00    0.4092527262848217E+01
    0.0000000000000000E+00    0.6277660831404320E+00    0.4293103109154542E+01
    0.0000000000000000E+00    0.7429886854239611E+00    0.3241512314643519E+01
    0.0000000000000000E+00   -0.1588117879734118E+01    0.2844289952419609E+01
    0.0000000000000000E+00   -0.6002320124191652E+00    0.7159905765450471E+00
    0.0000000000000000E+00   -0.7398147869923652E+00    0.1754341919796891E+01
    0.0000000000000000E+00   -0.1788622905643739E+01    0.1870296826774691E+01
    0.0000000000000000E+00    0.3083720183248586E+00    0.9220614901912976E+00
    0.0000000000000000E+00    0.1777901774806180E+01    0.3101523624086016E+01
    0.0000000000000000E+00    0.1576861561598471E+01    0.2192512063922564E+01
[...]
POINT_DATA 213
SCALARS rho double 1
LOOKUP_TABLE default
   0.1219599847328903E+01
   0.9221794058829401E+00
   0.9104476022139115E+00
   0.8966768251003411E+00
   0.7819488797802682E+00
   0.7116573731553837E+00
   0.6990710581390498E+00
   0.7029547332474899E+00
   0.7687354998031894E+00
   0.8895233151692291E+00
   0.8987463242578468E+00
   0.9249601612740749E+00
   0.1300246625474602E+01
   0.1348040337874382E+01
   0.1456337811714448E+01
   0.1286719272032351E+01
   0.9619641717455575E+00
   0.9047653821842060E+00
   0.8972301344693736E+00
   0.9249192643128958E+00
   0.9126331847841166E+00
   0.9866006459574640E+00
   0.8974308226209939E+00
   0.8999717064776888E+00
   0.9067475461200747E+00
   0.9112478018730852E+00
   0.8943866254746886E+00
   0.9125850844681997E+00
   0.8902529732084181E+00
   0.9018652373106018E+00
   0.9063596966337258E+00
   0.8623951208006073E+00
   0.9078065531983005E+00
   0.9506821658267089E+00
   0.1008490981484319E+01
   0.1006976759604763E+01
   0.1000145908106582E+01
   0.1000492867754171E+01
   0.1001010367813752E+01
   0.1002467256251297E+01
   0.1001944765530267E+01
   0.1004886098331367E+01
   0.1016625229737413E+01
   0.1058313577189115E+01
   0.1005436810052716E+01
   0.1000007367967117E+01
   0.9457700116482789E+00
   0.1002042271040481E+01
   0.9982829477745542E+00
   0.1004492521980790E+01
   0.1005371620305453E+01
   0.9993111957381156E+00
   0.9978002655248239E+00
   0.9988040146771366E+00
   0.9987211948646539E+00
   0.9780928879479059E+00
   0.9796706119436170E+00
   0.9639504552785592E+00
   0.9601301107916829E+00
   0.9867991678812837E+00
   0.9922400499720467E+00
   0.1000342976883308E+01
   0.1000541450464350E+01
   0.1000671132693732E+01
   0.9998284136667830E+00
   0.1009782299617131E+01
   0.1007174226433519E+01
   0.9448363251515992E+00
   0.9034576473044612E+00
   0.1007039899884051E+01
   0.1004193124995784E+01
   0.8965165398187800E+00
   0.8926680333475892E+00
   0.8470449578341084E+00
   0.9708428976472007E+00
   0.1000202436724976E+01
   0.1006091578055551E+01
   0.1015639766118202E+01
   0.1012987276012708E+01
   0.1012861698415576E+01
   0.1005118613079330E+01
   0.9863622630584915E+00
   0.1006593490637540E+01
   0.9849764753003148E+00
   0.1008140577021780E+01
   0.1001902606762256E+01
   0.1000777963010889E+01
   0.1001300678501171E+01
   0.1001842923599126E+01
   0.1002348925293705E+01
   0.1000286868720236E+01
   0.1000192913045712E+01
   0.9997755912519177E+00
   0.1001746393751417E+01
   0.1001907943428434E+01
   0.9986523960432259E+00
   0.9995364894064104E+00
   0.9999232338566805E+00
   0.1000198765518608E+01
   0.1000442939592895E+01
   0.1001058840909459E+01
   0.1001457790994873E+01
   0.1001331326784296E+01
   0.1001525817231286E+01
   0.1000861175313631E+01
   0.1001344303716818E+01
   0.1001108533942546E+01
   0.1000543852134771E+01
   0.1060180617753033E+01
   0.1020434860589025E+01
   0.1005937368106080E+01
   0.1003463834302158E+01
   0.1142067406625575E+01
   0.1083370546394333E+01
   0.1004378518375041E+01
   0.1003909103929354E+01
   0.1003789602170082E+01
   0.1006675433928034E+01
   0.1012240643202589E+01
   0.1193114811429222E+01
   0.1028000796710955E+01
   0.1034785391640565E+01
   0.1169417193264156E+01
   0.1009874388389499E+01
   0.1023546154041533E+01
   0.1017121970421462E+01
   0.1007875022970344E+01
   0.1013904373655812E+01
   0.1000120418634506E+01
   0.9442367417325068E+00
   0.1003512213706990E+01
   0.9988676218486450E+00
   0.1006433379429659E+01
   0.1009136817055505E+01
   0.9979418388929138E+00
   0.9977846781476241E+00
   0.9961676187233656E+00
   0.9984778139065530E+00
   0.9810175218275830E+00
   0.9780877491817814E+00
   0.9479693444938616E+00
   0.9505423761057953E+00
   0.9877989959041469E+00
   0.9899199047795231E+00
   0.9925444319445895E+00
   0.9998150142216344E+00
   0.9986044228532067E+00
   0.9946495905347560E+00
   0.1006783296200981E+01
   0.1021195787488547E+01
   0.9979991438160405E+00
   0.1004785936415586E+01
   0.1001443252698214E+01
   0.1004870016025439E+01
   0.9952898755710627E+00
   0.9853957206020303E+00
   0.1000226005432326E+01
   0.9938930093951041E+00
   0.9819631277387537E+00
   0.9943515123259594E+00
   0.9968775124993388E+00
   0.9937161304808099E+00
   0.9987031064089366E+00
   0.1000033242056012E+01
   0.9996686256200328E+00
   0.9958480415126160E+00
   0.9933618021980345E+00
   0.1001379812093504E+01
   0.1018342564314753E+01
   0.1002761159239518E+01
   0.9806466549531760E+00
   0.1001874256719138E+01
   0.1008205820120708E+01
   0.9702345875542792E+00
   0.9431323785609740E+00
   0.9846786244948662E+00
   0.9843645533556413E+00
   0.9754696395261732E+00
   0.9908380286788966E+00
   0.9779133238322891E+00
   0.1033958399193049E+01
   0.1021656809015559E+01
   0.1000033003594631E+01
   0.9991734263248283E+00
   0.9919055309459865E+00
   0.9907248469473960E+00
   0.9574014470120319E+00
   0.9930506894499915E+00
   0.1006289132936873E+01
   0.1002044037296627E+01
   0.9896477851414662E+00
   0.9652799764878159E+00
   0.9203406739367597E+00
   0.9724368585812153E+00
   0.9781836941241168E+00
   0.9559726742709332E+00
   0.9617645522363643E+00
   0.9490309777934361E+00
   0.9366912156301898E+00
   0.9303104428311902E+00
   0.9992919116709996E+00
   0.9994619460587866E+00
   0.9988025026849066E+00
   0.1002017073512447E+01
   0.9391477751829117E+00
   0.9239054545563180E+00
   0.9359217308649110E+00
   0.9984137870392038E+00
   0.9983444517807313E+00
   0.1000450519095271E+01
   0.9793848401498056E+00
   0.9713545770544110E+00
   0.9447096424441328E+00
SCALARS u double 1
LOOKUP_TABLE default
   0.0000000000000000E+00
   0.0000000000000000E+00
   0.0000000000000000E+00
   0.0000000000000000E+00
   0.0000000000000000E+00
   0.0000000000000000E+00
   0.0000000000000000E+00
   0.0000000000000000E+00
   0.0000000000000000E+00
   0.0000000000000000E+00
   0.0000000000000000E+00
   0.0000000000000000E+00
   0.0000000000000000E+00
   0.0000000000000000E+00
   0.0000000000000000E+00
   0.0000000000000000E+00
   0.0000000000000000E+00
   0.0000000000000000E+00
   0.0000000000000000E+00
   0.0000000000000000E+00
   0.0000000000000000E+00
   0.0000000000000000E+00
   0.0000000000000000E+00
   0.0000000000000000E+00
   0.0000000000000000E+00
   0.0000000000000000E+00
   0.0000000000000000E+00
   0.0000000000000000E+00
   0.0000000000000000E+00
   0.0000000000000000E+00
   0.0000000000000000E+00
   0.0000000000000000E+00
   0.0000000000000000E+00
   0.5044656903980075E+00
   0.5290124930419561E+00
   0.5144832572911268E+00
   0.4932265017001853E+00
   0.4881035012766080E+00
   0.4912132747426415E+00
   0.4932012166379401E+00
   0.4982359617728888E+00
   0.4935755422819593E+00
   0.4788817863086183E+00
   0.4518340336700516E+00
   0.4750762525899909E+00
   0.5097784007486391E+00
   0.4511936249293617E+00
   0.4980813360592309E+00
   0.5232695211731192E+00
   0.4995198830535991E+00
   0.5239976506052981E+00
   0.5062462138453453E+00
   0.5621720071315113E+00
   0.5246973149725089E+00
   0.5014415373184055E+00
   0.5724415335638027E+00
   0.5707004861063572E+00
   0.3697809147332763E+00
   0.4030359400031199E+00
   0.5559039502517692E+00
   0.5550071819471145E+00
   0.4941866650667500E+00
   0.4946225565987878E+00
   0.4922550862781557E+00
   0.4916952747437156E+00
   0.5126203631786922E+00
   0.5320037788135048E+00
   0.5051851625304010E+00
   0.4700274067098348E+00
   0.5096958299810463E+00
   0.5089633501799223E+00
   0.4955096564955509E+00
   0.5091188830143588E+00
   0.4859970910602500E+00
   0.5290197060876966E+00
   0.5276939232846826E+00
   0.5095384273638488E+00
   0.5265023598509011E+00
   0.5255836758270978E+00
   0.5249264251172142E+00
   0.5039105664234044E+00
   0.5284460063774143E+00
   0.5353830962954637E+00
   0.5371546784765552E+00
   0.5324039289521866E+00
   0.4987533150743964E+00
   0.4995693369483565E+00
   0.4985678139370176E+00
   0.4978564012346100E+00
   0.4945363857937256E+00
   0.4946354305939680E+00
   0.4894932224021840E+00
   0.4881854190489878E+00
   0.4965709397757615E+00
   0.4946579517673499E+00
   0.4860622945632869E+00
   0.4896816146709722E+00
   0.4900401266289579E+00
   0.4911767803617714E+00
   0.4926166693329253E+00
   0.4981835109475899E+00
   0.4946289712240257E+00
   0.4948395049683926E+00
   0.4976378124739610E+00
   0.4907933211661328E+00
   0.4936012185505569E+00
   0.4927628989755213E+00
   0.4920515022132502E+00
   0.4513309363044196E+00
   0.4773809535964261E+00
   0.4929577584575115E+00
   0.4922016469186528E+00
   0.4645164809368100E+00
   0.4729120201248881E+00
   0.4915211041518262E+00
   0.4906741972585754E+00
   0.4940153722179916E+00
   0.4854929932458491E+00
   0.4731445423363993E+00
   0.4017685471900209E+00
   0.4925810694405458E+00
   0.4586089220905151E+00
   0.4595049385639599E+00
   0.4895104425761141E+00
   0.4701583226224705E+00
   0.4742234730781496E+00
   0.4816343180283407E+00
   0.4809632103271137E+00
   0.5081955858808204E+00
   0.4436620753428325E+00
   0.4960916971667126E+00
   0.5314783312835133E+00
   0.4949806814815990E+00
   0.5219301812088853E+00
   0.5081293875021483E+00
   0.5664001800935874E+00
   0.5269142316678951E+00
   0.5035387254424278E+00
   0.5834535547901130E+00
   0.5720240708532094E+00
   0.3408860850616565E+00
   0.3851958193981301E+00
   0.5717595527736091E+00
   0.5645095919122648E+00
   0.5689243656796373E+00
   0.5291696344229397E+00
   0.5449155646839267E+00
   0.5701880074197736E+00
   0.5404097087771780E+00
   0.5487779277249450E+00
   0.5790108245112181E+00
   0.4955235659400817E+00
   0.5064965485247737E+00
   0.4994484932758288E+00
   0.5533092780491603E+00
   0.4597902255497470E+00
   0.4983751361479096E+00
   0.5489762877903103E+00
   0.5894376704477274E+00
   0.5821700686365049E+00
   0.5457059854081526E+00
   0.5785146415283272E+00
   0.5122043889153064E+00
   0.5055088200029884E+00
   0.5048980713292781E+00
   0.5645297534820294E+00
   0.5552265529361453E+00
   0.4977583770673150E+00
   0.5488209132205898E+00
   0.5486892393525717E+00
   0.5643387883274716E+00
   0.4955121596271482E+00
   0.4958798377285595E+00
   0.3908414082390607E+00
   0.3725910136965419E+00
   0.5584900730672920E+00
   0.5739392830334600E+00
   0.4177439141144655E+00
   0.5813083292471573E+00
   0.4186000555943903E+00
   0.5391903660057191E+00
   0.4993239713524281E+00
   0.5113858610699431E+00
   0.5070195031031162E+00
   0.5732639955685344E+00
   0.5857709372025898E+00
   0.5448206114408463E+00
   0.5657063047774701E+00
   0.5320308531616306E+00
   0.5310303352125227E+00
   0.5561915822945147E+00
   0.5552162283787183E+00
   0.4401002077388908E+00
   0.5282987991566656E+00
   0.5807280150196776E+00
   0.3397138445743806E+00
   0.4812261833272571E+00
   0.5510168073100400E+00
   0.4924432660620170E+00
   0.3108744811394519E+00
   0.5051822071247626E+00
   0.5043571406830258E+00
   0.5129608745714156E+00
   0.5385848727302082E+00
   0.3519685692572481E+00
   0.3560463096689680E+00
   0.3308150954454444E+00
   0.5084554631852485E+00
   0.5125571449068438E+00
   0.5314307725013254E+00
   0.5857979184956156E+00
   0.4640826204498583E+00
   0.3627236060007852E+00
SCALARS v double 1
LOOKUP_TABLE default
   0.0000000000000000E+00
   0.0000000000000000E+00
   0.0000000000000000E+00
   0.0000000000000000E+00
   0.0000000000000000E+00
   0.0000000000000000E+00
   0.0000000000000000E+00
   0.0000000000000000E+00
   0.0000000000000000E+00
   0.0000000000000000E+00
   0.0000000000000000E+00
   0.0000000000000000E+00
   0.0000000000000000E+00
   0.0000000000000000E+00
   0.0000000000000000E+00
   0.0000000000000000E+00
   0.0000000000000000E+00
   0.0000000000000000E+00
   0.0000000000000000E+00
   0.0000000000000000E+00
   0.0000000000000000E+00
   0.0000000000000000E+00
   0.0000000000000000E+00
   0.0000000000000000E+00
   0.0000000000000000E+00
   0.0000000000000000E+00
   0.0000000000000000E+00
   0.0000000000000000E+00
   0.0000000000000000E+00
   0.0000000000000000E+00
   0.0000000000000000E+00
   0.0000000000000000E+00
   0.0000000000000000E+00
   0.0000000000000000E+00
   0.0000000000000000E+00
   0.0000000000000000E+00
   0.0000000000000000E+00
   0.0000000000000000E+00
   0.0000000000000000E+00
   0.0000000000000000E+00
   0.0000000000000000E+00
   0.0000000000000000E+00
   0.0000000000000000E+00
   0.0000000000000000E+00
   0.0000000000000000E+00
   0.0000000000000000E+00
   0.0000000000000000E+00
   0.0000000000000000E+00
   0.0000000000000000E+00
   0.0000000000000000E+00
   0.0000000000000000E+00
   0.0000000000000000E+00
   0.0000000000000000E+00
   0.0000000000000000E+00
   0.0000000000000000E+00
   0.0000000000000000E+00
   0.0000000000000000E+00
   0.0000000000000000E+00
   0.0000000000000000E+00
   0.0000000000000000E+00
   0.0000000000000000E+00
   0.6334718126036035E-03
  -0.1412099382488469E-02
  -0.1391682314109201E-02
   0.0000000000000000E+00
   0.0000000000000000E+00
   0.0000000000000000E+00
   0.0000000000000000E+00
  -0.1867976116618970E-01
   0.2777572206815003E-03
   0.2206620938180986E-02
   0.1490279323356839E-01
  -0.5368581302485558E-02
  -0.6642072487209969E-02
  -0.1142209583504133E-01
   0.4788839761029965E-02
   0.5371999437939822E-03
   0.3195638698890256E-02
   0.1530304081761258E-02
   0.3473816444146448E-02
   0.1704917237432849E-02
  -0.6356075000649537E-02
   0.7681777560960730E-03
   0.4869150637621207E-02
   0.6121851183410406E-03
   0.6959001206116750E-04
  -0.1767234187485645E-03
   0.6082840856409612E-03
   0.0000000000000000E+00
   0.0000000000000000E+00
   0.0000000000000000E+00
   0.0000000000000000E+00
   0.1212938566642100E-03
   0.1423635159646975E-02
  -0.1108799093976598E-02
  -0.9188931830525548E-03
  -0.2101544769976784E-02
  -0.1220496594210949E-02
  -0.8986449882687389E-03
  -0.6448413760848529E-03
  -0.2472688497595819E-04
  -0.5341986127241491E-03
   0.7240122115802255E-03
  -0.1570798846051247E-02
   0.1025651299380132E-03
  -0.1214700842432399E-03
  -0.8743259020220631E-03
  -0.8885258560574599E-03
   0.0000000000000000E+00
   0.0000000000000000E+00
   0.0000000000000000E+00
  -0.1091309526271748E-02
  -0.8502815690759929E-02
   0.1568985767614714E-01
   0.2148691185021385E-03
  -0.1053392362758666E-02
  -0.1673614064195207E-02
  -0.5281082648777359E-02
  -0.1235969565371834E-02
  -0.3701279612764665E-02
  -0.3032656229496110E-02
   0.2127153996399960E-02
   0.2880603328355118E-01
  -0.1724499618936189E-03
  -0.4260465253264578E-02
   0.2498516951898942E-02
   0.9550992355808348E-03
   0.0000000000000000E+00
   0.0000000000000000E+00
   0.0000000000000000E+00
   0.0000000000000000E+00
   0.0000000000000000E+00
   0.0000000000000000E+00
   0.0000000000000000E+00
   0.0000000000000000E+00
   0.0000000000000000E+00
   0.0000000000000000E+00
   0.0000000000000000E+00
   0.0000000000000000E+00
   0.0000000000000000E+00
   0.0000000000000000E+00
   0.0000000000000000E+00
   0.0000000000000000E+00
   0.0000000000000000E+00
   0.4670202132514396E-02
   0.2763278147323721E-02
   0.6893741607908714E-02
   0.5630442559630935E-02
   0.8687055483849140E-02
   0.1244114692315241E-01
   0.4866778793690284E-03
   0.4364182680344214E-02
   0.2406603537270877E-02
   0.2332211071456675E-02
   0.3176373710282891E-02
  -0.1059585764521364E-01
  -0.4893827834839529E-03
   0.6038349871016423E-02
   0.2600382306124790E-02
   0.2269793785604311E-02
   0.3837924333254940E-02
  -0.2020265191336478E-02
   0.9170004728693192E-03
   0.2371044817968162E-02
   0.1154922383706683E-02
   0.2686129643923237E-02
   0.1739854191885394E-02
   0.1798802572295624E-02
   0.8007125038166115E-02
  -0.3375974813871069E-02
   0.5470411164795926E-02
   0.6506742009462683E-04
  -0.3120971972586709E-04
  -0.1328421085528264E-01
  -0.3290558004349093E-02
  -0.3547652338813956E-02
   0.3675146190326304E-02
  -0.3988160131905023E-02
   0.8943884467390831E-03
  -0.2587595523327922E-01
  -0.3070952177366252E-02
   0.4167732909738787E-02
   0.7177101074569148E-03
   0.1825203748987789E-02
   0.4437743653511927E-02
   0.2300336744665189E-02
   0.3389533499077180E-02
   0.5068277793936178E-02
   0.1856652213773298E-02
   0.5820199676330806E-03
  -0.3347065593730274E-03
  -0.4621574814951943E-02
  -0.5498379757877645E-02
   0.4519077247834788E-03
   0.9429294457311550E-03
  -0.7332944365064225E-03
  -0.3869863533811758E-02
  -0.1215987616288595E-02
  -0.3656430657419857E-02
  -0.6898510377278245E-02
  -0.1708647957696550E-02
   0.5357626280145475E-03
  -0.3546521070027320E-03
   0.1111767027605671E-02
  -0.1832587661724094E-02
   0.6956117150428979E-02
  -0.9774614280740487E-02
  -0.1544923425050052E-04
  -0.4080132421739153E-03
   0.2409197586736124E-02
   0.1123359240619289E-02
   0.1298598746475728E-02
  -0.3829000284424710E-02
SCALARS w double 1
LOOKUP_TABLE default
   0.0000000000000000E+00
   0.0000000000000000E+00
   0.0000000000000000E+00
   0.0000000000000000E+00
   0.0000000000000000E+00
   0.0000000000000000E+00
   0.0000000000000000E+00
   0.0000000000000000E+00
   0.0000000000000000E+00
   0.0000000000000000E+00
   0.0000000000000000E+00
   0.0000000000000000E+00
   0.0000000000000000E+00
   0.0000000000000000E+00
   0.0000000000000000E+00
   0.0000000000000000E+00
   0.0000000000000000E+00
   0.0000000000000000E+00
   0.0000000000000000E+00
   0.0000000000000000E+00
   0.0000000000000000E+00
   0.0000000000000000E+00
   0.0000000000000000E+00
   0.0000000000000000E+00
   0.0000000000000000E+00
   0.0000000000000000E+00
   0.0000000000000000E+00
   0.0000000000000000E+00
   0.0000000000000000E+00
   0.0000000000000000E+00
   0.0000000000000000E+00
   0.0000000000000000E+00
   0.0000000000000000E+00
  -0.1144740662581648E+00
  -0.5028453811941974E-01
  -0.2218638980612774E-02
   0.5066013921260945E-02
  -0.6957813342415018E-03
  -0.6076409525181460E-03
   0.5805995234941682E-03
   0.1144807655272479E-02
   0.2440779968653437E-03
   0.3422554557965413E-02
   0.3884463964579584E-01
   0.5360745733950101E-01
  -0.1493570837985287E-02
  -0.2790728420445326E-01
   0.2079827714085897E-02
   0.1059655733438382E-01
   0.8042752794542236E-02
   0.4393892034953759E-01
  -0.4043421978863341E-03
  -0.1058031248855277E-01
  -0.3671503956723980E-02
  -0.2102263040949757E-02
   0.4819758000328097E-03
  -0.4609514486486691E-01
   0.1623618198035327E-01
   0.1240675031024374E-01
   0.2994629252936609E-01
   0.5073340839063605E-02
   0.4321078079394974E-02
   0.4383197544334206E-02
   0.4018273120712227E-02
   0.5466031240762525E-02
  -0.1704969436047905E-03
  -0.4834025067414941E-01
  -0.1122168936446147E+00
  -0.1279822901893081E+00
   0.2784415388415997E-02
   0.1930920250158609E-02
  -0.1150881691337524E+00
  -0.1133080249524634E+00
  -0.1132666420379550E+00
  -0.1072902218400452E+00
  -0.7748709733564156E-01
   0.3027728192086996E-02
  -0.2451875992483898E-01
  -0.2041362445176955E-01
  -0.9927809915660925E-02
   0.5241304084116464E-02
  -0.9129646555943415E-01
  -0.3406073304266464E-01
  -0.9180585731037261E-01
  -0.6776880052058730E-01
   0.1807790374119963E-02
   0.1559385925914563E-02
   0.1426788052980356E-02
   0.2118646043734768E-02
   0.1358295069598445E-02
  -0.1241622773656101E-02
  -0.1475161132486094E-02
   0.1114705429389476E-02
   0.2218159672123887E-02
   0.1202567569911318E-02
  -0.7056145256626935E-04
   0.1919560444930666E-03
   0.8213686028802124E-03
  -0.1576105319651234E-02
  -0.1943018905414402E-02
   0.1965357207847298E-02
  -0.4390927319269352E-04
  -0.4390438444322502E-03
   0.2228746908718635E-02
  -0.1071760766074636E-02
  -0.2024445975798742E-03
  -0.4923311208760794E-03
  -0.1804017664546402E-02
   0.6879534463703982E-01
   0.2330701342495018E-02
  -0.1105205140169901E-02
  -0.7920407575350099E-03
   0.1156184615571060E+00
   0.1039170540398662E+00
  -0.1771013197894109E-02
  -0.4421112934102268E-02
  -0.7493433830650394E-03
  -0.7086036267619923E-02
  -0.2645570610720850E-02
   0.1269924683611044E+00
   0.6360351661475837E-01
   0.2237139358397669E-01
   0.1353419472442086E+00