# vtk DataFile Version 2.0
FUN3D:global_image_vtk
ASCII
DATASET UNSTRUCTURED_GRID
POINTS 213 double
   -0.5474740594603400E-02    0.2504942002468015E+01    0.8038066513704645E-04
    0.1245419060588729E+01    0.2504942002468015E+01    0.1039420355313237E-03
    0.2497696073669951E+01    0.2504942002468015E+01    0.1101293108886625E-03
    0.3750590983903951E+01    0.2504942002468015E+01    0.1356498038757592E-03
    0.5003221377586136E+01    0.2504942002468015E+01    0.9668806236678549E-04
    0.5004676742906220E+01    0.1281291392998363E+01    0.1638058477060333E-03
    0.5004772721058898E+01    0.2775095788685259E-01    0.1903487481412225E-03
    0.5003581212092667E+01   -0.1225853379649929E+01    0.1607772012999775E-03
    0.5001952544222647E+01   -0.2496589018760901E+01    0.1082264471413696E-03
    0.3750348112983221E+01   -0.2496589018760901E+01    0.1458760651341651E-03
    0.2498611454364745E+01   -0.2496589018760901E+01    0.1008938464083786E-03
    0.1247175251993104E+01   -0.2496589018760901E+01    0.1108592957382855E-03
   -0.3383979682904936E-02   -0.2496589018760901E+01    0.8107293234960311E-04
   -0.4257801348440449E-02   -0.1225734687856262E+01    0.3415453547450653E-04
   -0.5251639246461881E-02    0.2619500007965736E-01    0.1038724994493199E-03
   -0.5676116282443466E-02    0.1278221728471008E+01    0.8224550527308216E-04
    0.9003209061970090E+00    0.1608979292482069E+01    0.8704095674000323E-04
    0.3983172219358475E+01   -0.1561211781392466E+01    0.1757125336077081E-03
    0.4035602063492015E+01    0.1486760245757032E+01    0.1713318841104508E-03
    0.1036613695255868E+01   -0.1455626302577312E+01    0.1047193358013065E-03
    0.1094353436962879E+01   -0.2964620547863022E+00    0.1260594408125648E-03
    0.7298399732447656E+00    0.6874686355485903E+00    0.1044597967373440E-03
    0.1617018608574693E+01    0.8553209825042054E+00    0.1529816073164159E-03
    0.2143199643574004E+01   -0.1627128385141894E+01    0.1606178561641691E-03
    0.4088840468516652E+01   -0.4351046315069668E+00    0.2719950835657905E-03
    0.2977916498708485E+01   -0.8334990110939411E+00    0.2245609625897149E-03
    0.3044093234685481E+01   -0.1814361102461422E+01    0.1617007901553169E-03
    0.3427866614749028E+01    0.3813906737475883E+00    0.2936972898189283E-03
    0.4313225393964806E+01    0.5489135241650743E+00    0.2313021604603005E-03
    0.1823032697010121E+01    0.1771265398461594E+01    0.1836207261408082E-03
    0.2806311133387878E+01    0.1358629588153143E+01    0.1943500587783253E-03
    0.1891860842801183E+01   -0.8481308964520624E+00    0.1670653536962595E-03
    0.2268769161311812E+01    0.7723708732351978E-01    0.2072318374131149E-03
    0.5000000000000000E+01    0.2504942002468015E+01    0.1250000000000000E+01
    0.5000000000000000E+01    0.2504942002468015E+01    0.2500000000000000E+01
    0.5000000000000000E+01    0.2504942002468015E+01    0.3750000000000000E+01
    0.5000000000000000E+01    0.2504942002468015E+01    0.5000000000000000E+01
    0.3750000000000000E+01    0.2504942002468015E+01    0.5000000000000000E+01
    0.2500000000000000E+01    0.2504942002468015E+01    0.5000000000000000E+01
    0.1250000000000000E+01    0.2504942002468015E+01    0.5000000000000000E+01
    0.0000000000000000E+00    0.2504942002468015E+01    0.5000000000000000E+01
    0.0000000000000000E+00    0.2504942002468015E+01    0.3750000000000000E+01
    0.0000000000000000E+00    0.2504942002468015E+01    0.2500000000000000E+01
    0.0000000000000000E+00    0.2504942002468015E+01    0.1250000000000000E+01
    0.9588956064218438E+00    0.2504942002468015E+01    0.9696526008694624E+00
    0.3981953079952927E+01    0.2504942002468015E+01    0.4070563859161240E+01
    0.4036122196966514E+01    0.2504942002468015E+01    0.1017567553205741E+01
    0.9637572746747129E+00    0.2504942002468015E+01    0.3973598209858041E+01
    0.1546540127929946E+01    0.2504942002468015E+01    0.2931570189025510E+01
    0.6973799442222215E+00    0.2504942002468015E+01    0.3070319964744884E+01
    0.8903741947279167E+00    0.2504942002468015E+01    0.2056562262665315E+01
    0.2183041993268189E+01    0.2504942002468015E+01    0.3960694458912845E+01
    0.3855844875188856E+01    0.2504942002468015E+01    0.2933250599517386E+01
    0.3152611367489020E+01    0.2504942002468015E+01    0.3637668398431757E+01
    0.3103307385298766E+01    0.2504942002468015E+01    0.4332607818174344E+01
    0.3266711043563175E+01    0.2504942002468015E+01    0.1889656637524574E+01
    0.4232537560766445E+01    0.2504942002468015E+01    0.1918626986171088E+01
    0.1905522338007585E+01    0.2504942002468015E+01    0.7226291174446481E+00
    0.2879767716040244E+01    0.2504942002468015E+01    0.9080946092062980E+00
    0.2012711350767002E+01    0.2504942002468015E+01    0.1767082417726314E+01
    0.2669681469718241E+01    0.2504942002468015E+01    0.2853394351007645E+01
    0.5000000000000000E+01    0.1250000000000000E+01    0.5000000000000000E+01
    0.5000000000000000E+01    0.0000000000000000E+00    0.5000000000000000E+01
    0.5000000000000000E+01   -0.1250000000000000E+01    0.5000000000000000E+01
    0.5000000000000000E+01   -0.2496589018760901E+01    0.5000000000000000E+01
    0.5000000000000000E+01   -0.2496589018760901E+01    0.3750000000000000E+01
    0.5000000000000000E+01   -0.2496589018760901E+01    0.2500000000000000E+01
    0.5000000000000000E+01   -0.2496589018760901E+01    0.1250000000000000E+01
    0.5000000000000000E+01    0.1578994732800803E+01    0.9058375365086910E+00
    0.5000000000000000E+01   -0.1583989954232354E+01    0.3982050490726493E+01
    0.5000000000000000E+01    0.1453322699199022E+01    0.4033849428301197E+01
    0.5000000000000000E+01   -0.1479596339503735E+01    0.1040505887381675E+01
    0.5000000000000000E+01   -0.3227322616384110E+00    0.1099454400140349E+01
    0.5000000000000000E+01    0.6593508822075582E+00    0.7354504170366591E+00
    0.5000000000000000E+01    0.8256214013940779E+00    0.1622302608453282E+01
    0.5000000000000000E+01   -0.1650070333782557E+01    0.2145871574390382E+01
    0.5000000000000000E+01   -0.4612828702537229E+00    0.4086422318222992E+01
    0.5000000000000000E+01   -0.8579242121530853E+00    0.2979540174134984E+01
    0.5000000000000000E+01   -0.1836846154397680E+01    0.3045064261640043E+01
    0.5000000000000000E+01    0.3508002863614053E+00    0.3428197553792836E+01
    0.5000000000000000E+01    0.5185680230613409E+00    0.4309693860063405E+01
    0.5000000000000000E+01    0.1738996113203182E+01    0.1827272193562204E+01
    0.5000000000000000E+01    0.1325493893339706E+01    0.2808563282768077E+01
    0.5000000000000000E+01   -0.8731419609589618E+00    0.1895995683864404E+01
    0.5000000000000000E+01    0.4906150219227333E-01    0.2273179336307740E+01
    0.0000000000000000E+00    0.1250000000000000E+01    0.5000000000000000E+01
    0.0000000000000000E+00    0.0000000000000000E+00    0.5000000000000000E+01
    0.0000000000000000E+00   -0.1250000000000000E+01    0.5000000000000000E+01
    0.0000000000000000E+00   -0.2496589018760901E+01    0.5000000000000000E+01
    0.1250000000000000E+01   -0.2496589018760901E+01    0.5000000000000000E+01
    0.2500000000000000E+01   -0.2496589018760901E+01    0.5000000000000000E+01
    0.3750000000000000E+01   -0.2496589018760901E+01    0.5000000000000000E+01
    0.4042003247744892E+01    0.1558308132739014E+01    0.5000000000000000E+01
    0.9304122287900499E+00   -0.1548001304379777E+01    0.5000000000000000E+01
    0.1037243024609388E+01    0.1462892710085612E+01    0.5000000000000000E+01
    0.3946240828834967E+01   -0.1445243809615570E+01    0.5000000000000000E+01
    0.4092527262848217E+01   -0.3455338993778935E+00    0.5000000000000000E+01
    0.4293103109154542E+01    0.6277660831404320E+00    0.5000000000000000E+01
    0.3241512314643519E+01    0.7429886854239611E+00    0.5000000000000000E+01
    0.2844289952419609E+01   -0.1588117879734118E+01    0.5000000000000000E+01
    0.7159905765450471E+00   -0.6002320124191652E+00    0.5000000000000000E+01
    0.1754341919796891E+01   -0.7398147869923652E+00    0.5000000000000000E+01
    0.1870296826774691E+01   -0.1788622905643739E+01    0.5000000000000000E+01
    0.9220614901912976E+00    0.3083720183248586E+00    0.5000000000000000E+01
    0.3101523624086016E+01    0.1777901774806180E+01    0.5000000000000000E+01
    0.2192512063922564E+01    0.1576861561598471E+01    0.5000000000000000E+01
    0.2024793420196460E+01    0.4773861992750707E+00    0.5000000000000000E+01
    0.2990627757741975E+01   -0.4878110785814084E+00    0.5000000000000000E+01
    0.0000000000000000E+00   -0.2496589018760901E+01    0.1250000000000000E+01
    0.0000000000000000E+00   -0.2496589018760901E+01    0.2500000000000000E+01
    0.0000000000000000E+00   -0.2496589018760901E+01    0.3750000000000000E+01
    0.0000000000000000E+00    0.1558308132739014E+01    0.4042003247744892E+01
    0.0000000000000000E+00   -0.1548001304379777E+01    0.9304122287900499E+00
    0.0000000000000000E+00    0.1462892710085612E+01    0.1037243024609388E+01
    0.0000000000000000E+00   -0.1445243809615570E+01    0.3946240828834967E+01
    0.0000000000000000E+00   -0.3455338993778935E+00    0.4092527262848217E+01
    0.0000000000000000E+00    0.6277660831404320E+00    0.4293103109154542E+01
    0.0000000000000000E+00    0.7429886854239611E+00    0.3241512314643519E+01
    0.0000000000000000E+00   -0.1588117879734118E+01    0.2844289952419609E+01
    0.0000000000000000E+00   -0.6002320124191652E+00    0.7159905765450471E+00
    0.0000000000000000E+00   -0.7398147869923652E+00    0.1754341919796891E+01
    0.0000000000000000E+00   -0.1788622905643739E+01    0.1870296826774691E+01
    0.0000000000000000E+00    0.3083720183248586E+00    0.9220614901912976E+00
    0.0000000000000000E+00    0.1777901774806180E+01    0.3101523624086016E+01
    0.0000000000000000E+00    0.1576861561598471E+01    0.2192512063922564E+01
[...]
POINT_DATA 213
SCALARS rho double 1
LOOKUP_TABLE default
   0.1346097002478947E+01
   0.9571994889248063E+00
   0.9460925261901366E+00
   0.9421713070346843E+00
   0.8435935423098887E+00
   0.7741865188967368E+00
   0.7627490142917634E+00
   0.7661376009685573E+00
   0.8310374387060351E+00
   0.9353532038707021E+00
   0.9343976630977484E+00
   0.9615835736288966E+00
   0.1448454633985335E+01
   0.1495394541028500E+01
   0.1646716569272722E+01
   0.1426577887838221E+01
   0.1009796832605310E+01
   0.9511377810213620E+00
   0.9438170787454021E+00
   0.9574429169051563E+00
   0.9414772716441259E+00
   0.1037107147282737E+01
   0.9258078146677776E+00
   0.9322440337441547E+00
   0.9538047647641333E+00
   0.9520361764660326E+00
   0.9350902082836055E+00
   0.9565433485547254E+00
   0.9378588928043821E+00
   0.9303242951161005E+00
   0.9446416457457235E+00
   0.8862304485916307E+00
   0.9423969620443421E+00
   0.9637181914062950E+00
   0.1008362563342026E+01
   0.1006713483006980E+01
   0.1001958831508889E+01
   0.1003217685900645E+01
   0.1004119832560577E+01
   0.1005207378865249E+01
   0.1004249317700393E+01
   0.1008267099146227E+01
   0.1023865869353571E+01
   0.1063750819197250E+01
   0.1019382678848654E+01
   0.1001778552200212E+01
   0.9645925746355222E+00
   0.1005262393833539E+01
   0.1000745043182689E+01
   0.1008694170620146E+01
   0.1008031885816398E+01
   0.1002353976395716E+01
   0.9980224130524306E+00
   0.1000594057057441E+01
   0.1001620903417796E+01
   0.9828094915630331E+00
   0.9843997828131327E+00
   0.9834242148376743E+00
   0.9790374676871950E+00
   0.9904789004732948E+00
   0.9935221889889536E+00
   0.1002008741378566E+01
   0.1002131973311930E+01
   0.1002272709106100E+01
   0.1001792815450941E+01
   0.1009814936365061E+01
   0.1006499289704803E+01
   0.9560826910392600E+00
   0.9252938246450326E+00
   0.1007053691827092E+01
   0.1004491502337399E+01
   0.9144854568232088E+00
   0.9091439054695680E+00
   0.8752432949072680E+00
   0.9768022173739391E+00
   0.1000530115526133E+01
   0.1005826619907013E+01
   0.1012895784006989E+01
   0.1011677277284389E+01
   0.1010416527967419E+01
   0.1005456511039986E+01
   0.9909247201155303E+00
   0.1005152840644437E+01
   0.9860799641345624E+00
   0.1005593071565184E+01
   0.1004239464915915E+01
   0.1002885827065517E+01
   0.1003350347028720E+01
   0.1003998452160245E+01
   0.1005116094476878E+01
   0.1003223534335738E+01
   0.1002668629149632E+01
   0.1002589605211207E+01
   0.1004069497855099E+01
   0.1004304401151245E+01
   0.1001642390362901E+01
   0.1002278745435326E+01
   0.1002546658382494E+01
   0.1003471913335601E+01
   0.1003380290368016E+01
   0.1003233302781764E+01
   0.1004430203499311E+01
   0.1004324628075482E+01
   0.1003652911926086E+01
   0.1003718541507079E+01
   0.1004318864828697E+01
   0.1004462407984975E+01
   0.1003629299971278E+01
   0.1064489711368733E+01
   0.1028444241800065E+01
   0.1009606837071791E+01
   0.1006626073603121E+01
   0.1163974931030783E+01
   0.1086025349019773E+01
   0.1007907651905544E+01
   0.1007251940098909E+01
   0.1006796091054485E+01
   0.1013052214973933E+01
   0.1019341253350009E+01
   0.1235134881614733E+01
   0.1032535507692943E+01
   0.1046565553996427E+01
   0.1201695800732267E+01
   0.1014670081667901E+01
   0.1032293477716949E+01
   0.1028219928374524E+01
   0.1014640071672412E+01
   0.1028999238986525E+01
   0.1002002403292472E+01
   0.9607798450302741E+00
   0.1006858995115567E+01
   0.1001326399019540E+01
   0.1010799962622223E+01
   0.1012236578134278E+01
   0.1000939793814666E+01
   0.9979315694125803E+00
   0.9980679353392160E+00
   0.1001191382429129E+01
   0.9841977150732087E+00
   0.9815061841901316E+00
   0.9648620667652971E+00
   0.9680679221347041E+00
   0.9914140154490333E+00
   0.9910913031303928E+00
   0.9925597577089760E+00
   0.1001728079097410E+01
   0.9993249299607556E+00
   0.9941443889245396E+00
   0.1006981396693501E+01
   0.1022611157980413E+01
   0.1001120777096230E+01
   0.1008783412248248E+01
   0.1004774305389347E+01
   0.1009028544222689E+01
   0.9967193913371822E+00
   0.1005562614036485E+01
   0.1003325018836344E+01
   0.9949862562380508E+00
   0.9833516922798522E+00
   0.9944520860179118E+00
   0.9973481064840527E+00
   0.9932519211096825E+00
   0.1001312037131949E+01
   0.1003000802855001E+01
   0.1002188622867354E+01
   0.9947121111063881E+00
   0.9937838198818750E+00
   0.1004861304629779E+01
   0.1020102527913111E+01
   0.1005340616877043E+01
   0.9817058992632370E+00
   0.1004974829247043E+01
   0.1012375707520159E+01
   0.9873705188393160E+00
   0.9551253471754769E+00
   0.9865273999948238E+00
   0.9865946514470626E+00
   0.9920042015574525E+00
   0.9934462884316118E+00
   0.9960612755668055E+00
   0.1037404888358468E+01
   0.1033163231357138E+01
   0.1001443049119149E+01
   0.1001928974150659E+01
   0.9912286358246170E+00
   0.9911119327430657E+00
   0.9649284231414866E+00
   0.9933727646828056E+00
   0.1006089045016296E+01
   0.1001962053438907E+01
   0.9908625083774775E+00
   0.9742250538265843E+00
   0.9420725327477845E+00
   0.9821579074357806E+00
   0.9794772730640434E+00
   0.9704319631658079E+00
   0.9720820387487037E+00
   0.9557851894287583E+00
   0.9497953596192303E+00
   0.9529801794547936E+00
   0.1002636554249195E+01
   0.1002475647470082E+01
   0.1000512858391221E+01
   0.1001675819942929E+01
   0.9610053084209010E+00
   0.9492410620685684E+00
   0.9586390072210630E+00
   0.1001120873573721E+01
   0.1000500117942632E+01
   0.1001160957076108E+01
   0.9807424710252868E+00
   0.9805587580810425E+00
   0.9629172832912761E+00
SCALARS u double 1
LOOKUP_TABLE default
   0.0000000000000000E+00
   0.0000000000000000E+00
   0.0000000000000000E+00
   0.0000000000000000E+00
   0.0000000000000000E+00
   0.0000000000000000E+00
   0.0000000000000000E+00
   0.0000000000000000E+00
   0.0000000000000000E+00
   0.0000000000000000E+00
   0.0000000000000000E+00
   0.0000000000000000E+00
   0.0000000000000000E+00
   0.0000000000000000E+00
   0.0000000000000000E+00
   0.0000000000000000E+00
   0.0000000000000000E+00
   0.0000000000000000E+00
   0.0000000000000000E+00
   0.0000000000000000E+00
   0.0000000000000000E+00
   0.0000000000000000E+00
   0.0000000000000000E+00
   0.0000000000000000E+00
   0.0000000000000000E+00
   0.0000000000000000E+00
   0.0000000000000000E+00
   0.0000000000000000E+00
   0.0000000000000000E+00
   0.0000000000000000E+00
   0.0000000000000000E+00
   0.0000000000000000E+00
   0.0000000000000000E+00
   0.4946113853394607E+00
   0.5336287281391694E+00
   0.5182728400048475E+00
   0.4930697038267664E+00
   0.4847725450551081E+00
   0.4868117867264466E+00
   0.4891438077312672E+00
   0.4958019692052371E+00
   0.4899024170043746E+00
   0.4718112866586789E+00
   0.4448940803894984E+00
   0.4844408306710035E+00
   0.5097672283159164E+00
   0.4402188702484288E+00
   0.4949591588555791E+00
   0.5222984365278305E+00
   0.4962768642565894E+00
   0.5223881856508017E+00
   0.5038139623137768E+00
   0.5644348415769618E+00
   0.5245862914638370E+00
   0.4990952225740614E+00
   0.5729387319575312E+00
   0.5693727942288719E+00
   0.3752120943198637E+00
   0.4003945013966396E+00
   0.5599616078760368E+00
   0.5562275313689561E+00
   0.4942630615416462E+00
   0.4948653066755162E+00
   0.4925633566470008E+00
   0.4913991911492227E+00
   0.5162604435578209E+00
   0.5363581789164548E+00
   0.4951233619088521E+00
   0.4520580588996581E+00
   0.5129018213744744E+00
   0.5117684050623715E+00
   0.4786283602984318E+00
   0.4931191834130147E+00
   0.4600370644816115E+00
   0.5242644767104824E+00
   0.5299863823033072E+00
   0.5129704576838084E+00
   0.5328926688738075E+00
   0.5309762144344032E+00
   0.5309758478175384E+00
   0.5063645740883724E+00
   0.5279611042885366E+00
   0.5409243200408880E+00
   0.5363680755567601E+00
   0.5374185616341806E+00
   0.4965363892189860E+00
   0.4975366020432989E+00
   0.4963812222065072E+00
   0.4955149796507703E+00
   0.4904160760725174E+00
   0.4902500837385775E+00
   0.4861633321468393E+00
   0.4854043845596470E+00
   0.4931948727428809E+00
   0.4910337298412262E+00
   0.4831704246278798E+00
   0.4872474696737261E+00
   0.4880015266065333E+00
   0.4872302651889743E+00
   0.4882169452861438E+00
   0.4952573774796726E+00
   0.4900715651494732E+00
   0.4903590910897298E+00
   0.4944353947441660E+00
   0.4868172155367448E+00
   0.4892730124456359E+00
   0.4881465468314120E+00
   0.4878254257210938E+00
   0.4449033425804773E+00
   0.4700113970901872E+00
   0.4891764057086780E+00
   0.4885988784443416E+00
   0.4510314966931209E+00
   0.4681809780905817E+00
   0.4876657028410183E+00
   0.4868261964181585E+00
   0.4909274260452758E+00
   0.4793959423426056E+00
   0.4657898790989012E+00
   0.3794350124282257E+00
   0.4903701231435805E+00
   0.4487947049389910E+00
   0.4432422630721195E+00
   0.4845739867680202E+00
   0.4621901174543430E+00
   0.4663617952259282E+00
   0.4747788230953225E+00
   0.4893601407451391E+00
   0.5085681254135523E+00
   0.4304929255381654E+00
   0.4927287952202996E+00
   0.5320316159556545E+00
   0.4913834087268669E+00
   0.5209407202606787E+00
   0.5061324427342132E+00
   0.5690632522093902E+00
   0.5275039635946416E+00
   0.5015052358704349E+00
   0.5821378400893503E+00
   0.5691510934551767E+00
   0.3402456447973578E+00
   0.3785446623990677E+00
   0.5753087182033170E+00
   0.5668544266419504E+00
   0.5703054187489027E+00
   0.5291880558279239E+00
   0.5449834685486209E+00
   0.5719092630440444E+00
   0.5385699051988599E+00
   0.5475901231292407E+00
   0.5821561986155148E+00
   0.4925319464669089E+00
   0.5041562602433661E+00
   0.4961307160734195E+00
   0.5562798843247850E+00
   0.4757784825011399E+00
   0.4950182070733001E+00
   0.5496174375425257E+00
   0.5889523094566469E+00
   0.5839566670160454E+00
   0.5468162066061854E+00
   0.5803875347583209E+00
   0.5106059524798300E+00
   0.5029538002854663E+00
   0.5033089070360184E+00
   0.5676227057496466E+00
   0.5564628401839049E+00
   0.4947142189576931E+00
   0.5506797379816695E+00
   0.5513542297914666E+00
   0.5658254153873858E+00
   0.4919961147622774E+00
   0.4927858663254188E+00
   0.3865450165342438E+00
   0.3687917700797986E+00
   0.5574386377340980E+00
   0.5761776434753102E+00
   0.4194381255916242E+00
   0.5823000254087767E+00
   0.4268225175387410E+00
   0.5397390810842859E+00
   0.5016173293086609E+00
   0.5119227344324351E+00
   0.5048439104192446E+00
   0.5752766217021362E+00
   0.5878365518830690E+00
   0.5382373233256744E+00
   0.5679642820140097E+00
   0.5352011415242491E+00
   0.5338458640061339E+00
   0.5582290622073547E+00
   0.5511577187429988E+00
   0.4256814374288720E+00
   0.5272992040076243E+00
   0.5796799230113336E+00
   0.3318330798430577E+00
   0.4761453124406653E+00
   0.5446511356529873E+00
   0.4800695691854361E+00
   0.3006222867253656E+00
   0.5031629825170437E+00
   0.5017186811614736E+00
   0.5129134283379911E+00
   0.5414111545031886E+00
   0.3435238908931537E+00
   0.3398118070630227E+00
   0.3190216712596046E+00
   0.5066191388476967E+00
   0.5123865725535555E+00
   0.5329065627706484E+00
   0.5881305140710164E+00
   0.4644885571752061E+00
   0.3529644983302088E+00
SCALARS v double 1
LOOKUP_TABLE default
   0.0000000000000000E+00
   0.0000000000000000E+00
   0.0000000000000000E+00
   0.0000000000000000E+00
   0.0000000000000000E+00
   0.0000000000000000E+00
   0.0000000000000000E+00
   0.0000000000000000E+00
   0.0000000000000000E+00
   0.0000000000000000E+00
   0.0000000000000000E+00
   0.0000000000000000E+00
   0.0000000000000000E+00
   0.0000000000000000E+00
   0.0000000000000000E+00
   0.0000000000000000E+00
   0.0000000000000000E+00
   0.0000000000000000E+00
   0.0000000000000000E+00
   0.0000000000000000E+00
   0.0000000000000000E+00
   0.0000000000000000E+00
   0.0000000000000000E+00
   0.0000000000000000E+00
   0.0000000000000000E+00
   0.0000000000000000E+00
   0.0000000000000000E+00
   0.0000000000000000E+00
   0.0000000000000000E+00
   0.0000000000000000E+00
   0.0000000000000000E+00
   0.0000000000000000E+00
   0.0000000000000000E+00
   0.0000000000000000E+00
   0.0000000000000000E+00
   0.0000000000000000E+00
   0.0000000000000000E+00
   0.0000000000000000E+00
   0.0000000000000000E+00
   0.0000000000000000E+00
   0.0000000000000000E+00
   0.0000000000000000E+00
   0.0000000000000000E+00
   0.0000000000000000E+00
   0.0000000000000000E+00
   0.0000000000000000E+00
   0.0000000000000000E+00
   0.0000000000000000E+00
   0.0000000000000000E+00
   0.0000000000000000E+00
   0.0000000000000000E+00
   0.0000000000000000E+00
   0.0000000000000000E+00
   0.0000000000000000E+00
   0.0000000000000000E+00
   0.0000000000000000E+00
   0.0000000000000000E+00
   0.0000000000000000E+00
   0.0000000000000000E+00
   0.0000000000000000E+00
   0.0000000000000000E+00
   0.8513786211603697E-03
  -0.1262645373357945E-02
  -0.1293743040752899E-02
   0.0000000000000000E+00
   0.0000000000000000E+00
   0.0000000000000000E+00
   0.0000000000000000E+00
  -0.1933741667789961E-01
   0.5035491671735161E-03
   0.2213180170844408E-02
   0.1419352364189812E-01
  -0.6752934878525745E-02
  -0.8170239131980726E-02
  -0.1325723542825168E-01
   0.4993982753401630E-02
   0.7358941673830031E-03
   0.3478413353378488E-02
   0.1946676460113761E-02
   0.3168208073678931E-02
   0.1755589533961423E-02
  -0.7295169477528456E-02
  -0.6887233774783424E-04
   0.4552566573082838E-02
  -0.4161913257861319E-03
  -0.6647668762830825E-04
  -0.2024572747787187E-03
   0.8051606992264171E-03
   0.0000000000000000E+00
   0.0000000000000000E+00
   0.0000000000000000E+00
   0.0000000000000000E+00
   0.4746736617023943E-03
   0.1623985839344532E-02
  -0.1273087719465179E-02
  -0.9977331914521937E-03
  -0.2076402798583359E-02
  -0.9960804126703244E-03
  -0.7502737846105548E-03
  -0.7419073871677484E-03
   0.6053717746319186E-04
  -0.5965998365550660E-03
   0.8040959542379643E-03
  -0.1729966872132714E-02
   0.3146019142905713E-03
  -0.5711048451986564E-04
  -0.8890335711772841E-03
  -0.1052025293124413E-02
   0.0000000000000000E+00
   0.0000000000000000E+00
   0.0000000000000000E+00
  -0.1035619366199881E-02
  -0.7789758176794444E-02
   0.1821212393831871E-01
  -0.2897361692773001E-04
  -0.1377034101727415E-02
  -0.2028387399267129E-02
  -0.5613613489548989E-02
  -0.1620404457634451E-02
  -0.6356671556459384E-02
  -0.4326823907697623E-02
   0.1517899757144128E-02
   0.3300522065759866E-01
   0.4389732041371640E-04
  -0.2766875793076628E-02
   0.3629086788986919E-02
   0.3911408604589789E-03
   0.0000000000000000E+00
   0.0000000000000000E+00
   0.0000000000000000E+00
   0.0000000000000000E+00
   0.0000000000000000E+00
   0.0000000000000000E+00
   0.0000000000000000E+00
   0.0000000000000000E+00
   0.0000000000000000E+00
   0.0000000000000000E+00
   0.0000000000000000E+00
   0.0000000000000000E+00
   0.0000000000000000E+00
   0.0000000000000000E+00
   0.0000000000000000E+00
   0.0000000000000000E+00
   0.0000000000000000E+00
   0.5001788274819200E-02
   0.3214026039934000E-02
   0.8125856975365954E-02
   0.6096308112998258E-02
   0.1117368605997017E-01
   0.1403790763829953E-01
  -0.3213857443794383E-03
   0.5161777272295410E-02
   0.2930014141823656E-02
   0.3377893877589051E-02
   0.3728473679411987E-02
  -0.1469487665279192E-01
  -0.6136572583652138E-03
   0.6639692668381518E-02
   0.1457578760803072E-02
   0.1959411290377755E-02
   0.4263950128983724E-02
  -0.2812152889748792E-02
   0.1267575156331817E-02
   0.2851883794401165E-02
   0.1534808664948544E-02
   0.2563471476583880E-02
   0.2013582396315188E-02
   0.2154279036452488E-02
   0.8583999368512545E-02
  -0.3829958107452041E-02
   0.6155658344711360E-02
   0.4727000826592525E-04
  -0.4230611736858707E-03
  -0.1674061355816254E-01
  -0.4996319177156578E-02
  -0.4827025838965047E-02
   0.3399472496592864E-02
  -0.6077006641035972E-02
   0.3218630759114604E-04
  -0.3284811391477555E-01
  -0.3181859007335659E-02
   0.4581409174239215E-02
   0.9682103759950530E-03
   0.2133430473385147E-02
   0.4530796074169906E-02
   0.2692754556555904E-02
   0.3243192960774927E-02
   0.5223626824937084E-02
   0.1957642587086358E-02
   0.7485618835632222E-03
  -0.5694619633971704E-04
  -0.5322500053114429E-02
  -0.6972361983155875E-02
  -0.9632152601080645E-03
   0.1062785309795036E-02
  -0.2105762112026592E-02
  -0.3219383493257051E-02
  -0.2544366003357422E-02
  -0.4130954458757270E-02
  -0.7565906289382219E-02
  -0.2012280317960971E-02
   0.6515191591262592E-03
  -0.1916206540660730E-03
   0.1227843211739464E-02
  -0.3502377821945928E-02
   0.4847376476767121E-02
  -0.8642815804932029E-02
   0.3344073299974698E-04
  -0.3327707750399631E-03
   0.2558602220848950E-02
   0.1615701252060656E-02
   0.2038902964548108E-02
  -0.5641068119979702E-02
SCALARS w double 1
LOOKUP_TABLE default
   0.0000000000000000E+00
   0.0000000000000000E+00
   0.0000000000000000E+00
   0.0000000000000000E+00
   0.0000000000000000E+00
   0.0000000000000000E+00
   0.0000000000000000E+00
   0.0000000000000000E+00
   0.0000000000000000E+00
   0.0000000000000000E+00
   0.0000000000000000E+00
   0.0000000000000000E+00
   0.0000000000000000E+00
   0.0000000000000000E+00
   0.0000000000000000E+00
   0.0000000000000000E+00
   0.0000000000000000E+00
   0.0000000000000000E+00
   0.0000000000000000E+00
   0.0000000000000000E+00
   0.0000000000000000E+00
   0.0000000000000000E+00
   0.0000000000000000E+00
   0.0000000000000000E+00
   0.0000000000000000E+00
   0.0000000000000000E+00
   0.0000000000000000E+00
   0.0000000000000000E+00
   0.0000000000000000E+00
   0.0000000000000000E+00
   0.0000000000000000E+00
   0.0000000000000000E+00
   0.0000000000000000E+00
  -0.1007278452077206E+00
  -0.4245737482658479E-01
   0.7150822729121438E-03
   0.5704773912043547E-02
   0.5681058596061120E-03
   0.1606293915187422E-02
   0.3371999449329099E-02
   0.2364016283505614E-02
   0.4720187209087093E-03
   0.3528384087632522E-02
   0.4533198813216873E-01
   0.6563145597102206E-01
   0.8378092795091462E-03
  -0.2266273869577453E-01
   0.4270582934651796E-02
   0.1341904176507753E-01
   0.1029701792182473E-01
   0.4870730315734530E-01
   0.2380906995662626E-02
  -0.6536073829752873E-02
  -0.7379843222303214E-03
   0.3050419977746731E-03
   0.3845967925910246E-02
  -0.3893825672875599E-01
   0.1820230683896600E-01
   0.1120471372723078E-01
   0.3395681891306081E-01
   0.8379368774964006E-02
   0.4924456867968963E-02
   0.4973604831203441E-02
   0.4900295690276704E-02
   0.6056528302935552E-02
   0.2694616138773377E-02
  -0.4127919574822267E-01
  -0.9927350779015533E-01
  -0.1120401836384366E+00
   0.5143954760825760E-02
   0.4215793443979344E-02
  -0.1002624119740257E+00
  -0.9892910734789176E-01
  -0.9835842474022780E-01
  -0.9444289285399687E-01
  -0.6791170330700796E-01
   0.5196455767606461E-02
  -0.1927437378144087E-01
  -0.1563616898914201E-01
  -0.5965344783385730E-02
   0.6822371770676242E-02
  -0.8000248193322181E-01
  -0.2776595541896289E-01
  -0.8086762072027689E-01
  -0.5863556033605134E-01
   0.3073703583736789E-02
   0.2684926238232991E-02
   0.2644441476372650E-02
   0.3457117781042484E-02
   0.3997977344851315E-02
   0.1199288827165609E-02
  -0.1359814935665947E-03
   0.2028740196399716E-02
   0.4893805806093374E-02
   0.3863982036863535E-02
   0.1126177550563477E-02
   0.1188087635610961E-02
   0.1460077468844492E-02
  -0.2239667199041300E-04
   0.9067918480011658E-04
   0.4386661916959990E-02
   0.2711981683343979E-02
   0.2316664612093766E-02
   0.5006431813532759E-02
   0.1069421622805211E-02
   0.2706481727723896E-02
   0.2010122945684904E-02
   0.3343977870851664E-04
   0.8385999245553703E-01
   0.2832386968844135E-02
  -0.8469747420127699E-03
  -0.1275692989388329E-03
   0.1410861921297348E+00
   0.1236585755783974E+00
  -0.1228981003552486E-02
  -0.4383150282791666E-02
  -0.2805635401965426E-03
  -0.6477952039787077E-02
  -0.1895757774321869E-02
   0.1559343261974601E+00
   0.7528367346987719E-01
   0.2567484927628493E-01
   0.1661254957121411E+00