# vtk DataFile Version 2.0
FUN3D:global_image_vtk
ASCII
DATASET UNSTRUCTURED_GRID
POINTS 213 double
    0.0000000000000000E+00    0.2500000000000000E+01    0.0000000000000000E+00
    0.1250000000000000E+01    0.2500000000000000E+01    0.0000000000000000E+00
    0.2500000000000000E+01    0.2500000000000000E+01    0.0000000000000000E+00
    0.3750000000000000E+01    0.2500000000000000E+01    0.0000000000000000E+00
    0.5000000000000000E+01    0.2500000000000000E+01    0.0000000000000000E+00
    0.5000000000000000E+01    0.1250000000000000E+01    0.0000000000000000E+00
    0.5000000000000000E+01    0.0000000000000000E+00    0.0000000000000000E+00
    0.5000000000000000E+01   -0.1250000000000000E+01    0.0000000000000000E+00
    0.5000000000000000E+01   -0.2500000000000000E+01    0.0000000000000000E+00
    0.3750000000000000E+01   -0.2500000000000000E+01    0.0000000000000000E+00
    0.2500000000000000E+01   -0.2500000000000000E+01    0.0000000000000000E+00
    0.1250000000000000E+01   -0.2500000000000000E+01    0.0000000000000000E+00
    0.0000000000000000E+00   -0.2500000000000000E+01    0.0000000000000000E+00
    0.0000000000000000E+00   -0.1250000000000000E+01    0.0000000000000000E+00
    0.0000000000000000E+00    0.0000000000000000E+00    0.0000000000000000E+00
    0.0000000000000000E+00    0.1250000000000000E+01    0.0000000000000000E+00
    0.9058375365086910E+00    0.1578994732800803E+01    0.0000000000000000E+00
    0.3982050490726493E+01   -0.1583989954232354E+01    0.0000000000000000E+00
    0.4033849428301197E+01    0.1453322699199022E+01    0.0000000000000000E+00
    0.1040505887381675E+01   -0.1479596339503735E+01    0.0000000000000000E+00
    0.1099454400140349E+01   -0.3227322616384110E+00    0.0000000000000000E+00
    0.7354504170366591E+00    0.6593508822075582E+00    0.0000000000000000E+00
    0.1622302608453282E+01    0.8256214013940779E+00    0.0000000000000000E+00
    0.2145871574390382E+01   -0.1650070333782557E+01    0.0000000000000000E+00
    0.4086422318222992E+01   -0.4612828702537229E+00    0.0000000000000000E+00
    0.2979540174134984E+01   -0.8579242121530853E+00    0.0000000000000000E+00
    0.3045064261640043E+01   -0.1836846154397680E+01    0.0000000000000000E+00
    0.3428197553792836E+01    0.3508002863614053E+00    0.0000000000000000E+00
    0.4309693860063405E+01    0.5185680230613409E+00    0.0000000000000000E+00
    0.1827272193562204E+01    0.1738996113203182E+01    0.0000000000000000E+00
    0.2808563282768077E+01    0.1325493893339706E+01    0.0000000000000000E+00
    0.1895995683864404E+01   -0.8731419609589618E+00    0.0000000000000000E+00
    0.2273179336307740E+01    0.4906150219227333E-01    0.0000000000000000E+00
    0.5000000000000000E+01    0.2500000000000000E+01    0.1250000000000000E+01
    0.5000000000000000E+01    0.2500000000000000E+01    0.2500000000000000E+01
    0.5000000000000000E+01    0.2500000000000000E+01    0.3750000000000000E+01
    0.5000000000000000E+01    0.2500000000000000E+01    0.5000000000000000E+01
    0.3750000000000000E+01    0.2500000000000000E+01    0.5000000000000000E+01
    0.2500000000000000E+01    0.2500000000000000E+01    0.5000000000000000E+01
    0.1250000000000000E+01    0.2500000000000000E+01    0.5000000000000000E+01
    0.0000000000000000E+00    0.2500000000000000E+01    0.5000000000000000E+01
    0.0000000000000000E+00    0.2500000000000000E+01    0.3750000000000000E+01
    0.0000000000000000E+00    0.2500000000000000E+01    0.2500000000000000E+01
    0.0000000000000000E+00    0.2500000000000000E+01    0.1250000000000000E+01
    0.9631080833812172E+00    0.2500000000000000E+01    0.9613285771248219E+00
    0.3981732467264904E+01    0.2500000000000000E+01    0.4069753913607991E+01
    0.4035525118777670E+01    0.2500000000000000E+01    0.1012015867579395E+01
    0.9641717640894248E+00    0.2500000000000000E+01    0.3972455192261839E+01
    0.1547743040396780E+01    0.2500000000000000E+01    0.2928177746738678E+01
    0.6985170616192014E+00    0.2500000000000000E+01    0.3068281976055466E+01
    0.8931277594515110E+00    0.2500000000000000E+01    0.2052465503257726E+01
    0.2183293750162785E+01    0.2500000000000000E+01    0.3959073795658649E+01
    0.3855333506014705E+01    0.2500000000000000E+01    0.2931218481500625E+01
    0.3152495579421047E+01    0.2500000000000000E+01    0.3635850502723324E+01
    0.3103247580566054E+01    0.2500000000000000E+01    0.4331682712472464E+01
    0.3266837581688852E+01    0.2500000000000000E+01    0.1886092433583972E+01
    0.4231539241296245E+01    0.2500000000000000E+01    0.1915865356532799E+01
    0.1909741006522088E+01    0.2500000000000000E+01    0.7170024419130505E+00
    0.2880784107213163E+01    0.2500000000000000E+01    0.9046598906449592E+00
    0.2014316024535771E+01    0.2500000000000000E+01    0.1762464314805728E+01
    0.2670003247036656E+01    0.2500000000000000E+01    0.2850479545835163E+01
    0.5000000000000000E+01    0.1250000000000000E+01    0.5000000000000000E+01
    0.5000000000000000E+01    0.0000000000000000E+00    0.5000000000000000E+01
    0.5000000000000000E+01   -0.1250000000000000E+01    0.5000000000000000E+01
    0.5000000000000000E+01   -0.2500000000000000E+01    0.5000000000000000E+01
    0.5000000000000000E+01   -0.2500000000000000E+01    0.3750000000000000E+01
    0.5000000000000000E+01   -0.2500000000000000E+01    0.2500000000000000E+01
    0.5000000000000000E+01   -0.2500000000000000E+01    0.1250000000000000E+01
    0.5000000000000000E+01    0.1578994732800803E+01    0.9058375365086910E+00
    0.5000000000000000E+01   -0.1583989954232354E+01    0.3982050490726493E+01
    0.5000000000000000E+01    0.1453322699199022E+01    0.4033849428301197E+01
    0.5000000000000000E+01   -0.1479596339503735E+01    0.1040505887381675E+01
    0.5000000000000000E+01   -0.3227322616384110E+00    0.1099454400140349E+01
    0.5000000000000000E+01    0.6593508822075582E+00    0.7354504170366591E+00
    0.5000000000000000E+01    0.8256214013940779E+00    0.1622302608453282E+01
    0.5000000000000000E+01   -0.1650070333782557E+01    0.2145871574390382E+01
    0.5000000000000000E+01   -0.4612828702537229E+00    0.4086422318222992E+01
    0.5000000000000000E+01   -0.8579242121530853E+00    0.2979540174134984E+01
    0.5000000000000000E+01   -0.1836846154397680E+01    0.3045064261640043E+01
    0.5000000000000000E+01    0.3508002863614053E+00    0.3428197553792836E+01
    0.5000000000000000E+01    0.5185680230613409E+00    0.4309693860063405E+01
    0.5000000000000000E+01    0.1738996113203182E+01    0.1827272193562204E+01
    0.5000000000000000E+01    0.1325493893339706E+01    0.2808563282768077E+01
    0.5000000000000000E+01   -0.8731419609589618E+00    0.1895995683864404E+01
    0.5000000000000000E+01    0.4906150219227333E-01    0.2273179336307740E+01
    0.0000000000000000E+00    0.1250000000000000E+01    0.5000000000000000E+01
    0.0000000000000000E+00    0.0000000000000000E+00    0.5000000000000000E+01
    0.0000000000000000E+00   -0.1250000000000000E+01    0.5000000000000000E+01
    0.0000000000000000E+00   -0.2500000000000000E+01    0.5000000000000000E+01
    0.1250000000000000E+01   -0.2500000000000000E+01    0.5000000000000000E+01
    0.2500000000000000E+01   -0.2500000000000000E+01    0.5000000000000000E+01
    0.3750000000000000E+01   -0.2500000000000000E+01    0.5000000000000000E+01
    0.4042003247744892E+01    0.1558308132739014E+01    0.5000000000000000E+01
    0.9304122287900499E+00   -0.1548001304379777E+01    0.5000000000000000E+01
    0.1037243024609388E+01    0.1462892710085612E+01    0.5000000000000000E+01
    0.3946240828834967E+01   -0.1445243809615570E+01    0.5000000000000000E+01
    0.4092527262848217E+01   -0.3455338993778935E+00    0.5000000000000000E+01
    0.4293103109154542E+01    0.6277660831404320E+00    0.5000000000000000E+01
    0.3241512314643519E+01    0.7429886854239611E+00    0.5000000000000000E+01
    0.2844289952419609E+01   -0.1588117879734118E+01    0.5000000000000000E+01
    0.7159905765450471E+00   -0.6002320124191652E+00    0.5000000000000000E+01
    0.1754341919796891E+01   -0.7398147869923652E+00    0.5000000000000000E+01
    0.1870296826774691E+01   -0.1788622905643739E+01    0.5000000000000000E+01
    0.9220614901912976E+00    0.3083720183248586E+00    0.5000000000000000E+01
    0.3101523624086016E+01    0.1777901774806180E+01    0.5000000000000000E+01
    0.2192512063922564E+01    0.1576861561598471E+01    0.5000000000000000E+01
    0.2024793420196460E+01    0.4773861992750707E+00    0.5000000000000000E+01
    0.2990627757741975E+01   -0.4878110785814084E+00    0.5000000000000000E+01
    0.0000000000000000E+00   -0.2500000000000000E+01    0.1250000000000000E+01
    0.0000000000000000E+00   -0.2500000000000000E+01    0.2500000000000000E+01
    0.0000000000000000E+00   -0.2500000000000000E+01    0.3750000000000000E+01
    0.0000000000000000E+00    0.1558308132739014E+01    0.4042003247744892E+01
    0.0000000000000000E+00   -0.1548001304379777E+01    0.9304122287900499E+00
    0.0000000000000000E+00    0.1462892710085612E+01    0.1037243024609388E+01
    0.0000000000000000E+00   -0.1445243809615570E+01    0.3946240828834967E+01
    0.0000000000000000E+00   -0.3455338993778935E+00    0.4092527262848217E+01
    0.0000000000000000E+00    0.6277660831404320E+00    0.4293103109154542E+01
    0.0000000000000000E+00    0.7429886854239611E+00    0.3241512314643519E+01
    0.0000000000000000E+00   -0.1588117879734118E+01    0.2844289952419609E+01
    0.0000000000000000E+00   -0.6002320124191652E+00    0.7159905765450471E+00
    0.0000000000000000E+00   -0.7398147869923652E+00    0.1754341919796891E+01
    0.0000000000000000E+00   -0.1788622905643739E+01    0.1870296826774691E+01
    0.0000000000000000E+00    0.3083720183248586E+00    0.9220614901912976E+00
    0.0000000000000000E+00    0.1777901774806180E+01    0.3101523624086016E+01
    0.0000000000000000E+00    0.1576861561598471E+01    0.2192512063922564E+01
[...]
POINT_DATA 213
SCALARS rho double 1
LOOKUP_TABLE default
   0.1217751007954639E+01
   0.9224161394732224E+00
   0.9117784030689506E+00
   0.8984858272263966E+00
   0.7828876802841948E+00
   0.7111781111500984E+00
   0.6995687970859936E+00
   0.7028724905733306E+00
   0.7695655467309579E+00
   0.8909334982040817E+00
   0.8995746294074881E+00
   0.9248862983455348E+00
   0.1299898027223899E+01
   0.1345723448673072E+01
   0.1453297468931092E+01
   0.1285848465686587E+01
   0.9615868682242174E+00
   0.9058072540574065E+00
   0.8987897873379099E+00
   0.9252822898551636E+00
   0.9119696224610445E+00
   0.9853535904596782E+00
   0.8976425267308296E+00
   0.9010406264508897E+00
   0.9081668364010114E+00
   0.9126859016469256E+00
   0.8951664184236556E+00
   0.9138599280950530E+00
   0.8911207783735582E+00
   0.9024800534428219E+00
   0.9076992531095620E+00
   0.8628373930801271E+00
   0.9090213051338050E+00
   0.9514649365065657E+00
   0.1008360846588163E+01
   0.1007021599395459E+01
   0.1000873036226879E+01
   0.1000881948113523E+01
   0.1001121766505123E+01
   0.1002616779322324E+01
   0.1001559171527556E+01
   0.1004923297468534E+01
   0.1016520221139993E+01
   0.1057747284555477E+01
   0.1004932586830221E+01
   0.1000283816568539E+01
   0.9472091956962960E+00
   0.1002011445541032E+01
   0.9981970547349081E+00
   0.1004452479849004E+01
   0.1005203855318333E+01
   0.9992191459122303E+00
   0.9979200169487746E+00
   0.9988479183472663E+00
   0.9987238445455999E+00
   0.9782994108766913E+00
   0.9800331824801675E+00
   0.9642010759788874E+00
   0.9614779320288942E+00
   0.9868025162348825E+00
   0.9923201653845741E+00
   0.1001375701583508E+01
   0.1001670631989338E+01
   0.1001918240001960E+01
   0.1000928180942322E+01
   0.1009933145288004E+01
   0.1006279358418523E+01
   0.9447472086571252E+00
   0.9040217556849142E+00
   0.1007695393834517E+01
   0.1004556172672616E+01
   0.8970634776752991E+00
   0.8931978507925804E+00
   0.8480985023007280E+00
   0.9703418873318294E+00
   0.9991958146543672E+00
   0.1006482842675409E+01
   0.1014440389881192E+01
   0.1012339885123150E+01
   0.1012236606261892E+01
   0.1005521773018675E+01
   0.9862551690623007E+00
   0.1006148104699969E+01
   0.9840980292293183E+00
   0.1006164991473622E+01
   0.1001779447216053E+01
   0.1000922845761947E+01
   0.1001284988669361E+01
   0.1001834576765107E+01
   0.1002412690429782E+01
   0.1000009555290219E+01
   0.1000319205495672E+01
   0.1000335243134429E+01
   0.1001810916775927E+01
   0.1002022400303921E+01
   0.9989462602788428E+00
   0.1000201793438316E+01
   0.1000833187970695E+01
   0.1000226533169513E+01
   0.1000174825265208E+01
   0.1001023923955138E+01
   0.1001391002426486E+01
   0.1001111576646616E+01
   0.1001500538606118E+01
   0.1001061253312135E+01
   0.1001369992561843E+01
   0.1000991058141612E+01
   0.1000354312537863E+01
   0.1060762677161740E+01
   0.1020386323616485E+01
   0.1005948841503700E+01
   0.1003387463738317E+01
   0.1141473233515164E+01
   0.1083527945240059E+01
   0.1004331943315764E+01
   0.1003804562705113E+01
   0.1003709886218305E+01
   0.1006568381939858E+01
   0.1012154947313602E+01
   0.1192963436399945E+01
   0.1028275558161243E+01
   0.1034605569054460E+01
   0.1168416033286317E+01
   0.1009854592201370E+01
   0.1023228538560404E+01
   0.1017138203743586E+01
   0.1007892939511791E+01
   0.1014071208693593E+01
   0.1000297271588869E+01
   0.9455382959331222E+00
   0.1003351591970101E+01
   0.9990262222160563E+00
   0.1006172807567916E+01
   0.1009091513954973E+01
   0.9979496888823081E+00
   0.9975780403223284E+00
   0.9960890947809063E+00
   0.9983645787075843E+00
   0.9808163485988941E+00
   0.9778295194334402E+00
   0.9482440193396476E+00
   0.9510996609646830E+00
   0.9879011354419688E+00
   0.9902088875811624E+00
   0.9926542007500433E+00
   0.9999076059490833E+00
   0.9987370997702719E+00
   0.9946819232579193E+00
   0.1006806565049938E+01
   0.1020895574727910E+01
   0.9978146283971927E+00
   0.1004771428584905E+01
   0.1001365913586244E+01
   0.1004794084972634E+01
   0.9952583206697767E+00
   0.9848180325907110E+00
   0.1000284895147708E+01
   0.9939525929534597E+00
   0.9818166648273395E+00
   0.9941914989645240E+00
   0.9968851241225807E+00
   0.9929780363718235E+00
   0.9987094842188030E+00
   0.1000073966518625E+01
   0.9997597543436212E+00
   0.9953547655862697E+00
   0.9934593708154957E+00
   0.1001394693759665E+01
   0.1018084161022140E+01
   0.1002800308407342E+01
   0.9807164994250389E+00
   0.1001901825697546E+01
   0.1008111963031030E+01
   0.9702290602029459E+00
   0.9432023103446882E+00
   0.9845743662198002E+00
   0.9844595913495523E+00
   0.9758791272330297E+00
   0.9907386444246844E+00
   0.9769559456868407E+00
   0.1033832715172782E+01
   0.1021500190535707E+01
   0.1000260304084300E+01
   0.9991402855683005E+00
   0.9911197908049560E+00
   0.9906663547154666E+00
   0.9574593963952104E+00
   0.9924404155839467E+00
   0.1006089450532227E+01
   0.1001947071452529E+01
   0.9898467694692906E+00
   0.9656417478177011E+00
   0.9210097354439883E+00
   0.9724139030556932E+00
   0.9782279546665390E+00
   0.9569048807130200E+00
   0.9618092206138037E+00
   0.9491827198527364E+00
   0.9373542978199613E+00
   0.9319122743881870E+00
   0.9993590723648226E+00
   0.9994818343808969E+00
   0.9988466565438646E+00
   0.1001947834267609E+01
   0.9399848529797057E+00
   0.9260173088247562E+00
   0.9374582154590435E+00
   0.9982765421936803E+00
   0.9982293337008670E+00
   0.1000519920626262E+01
   0.9796502435487723E+00
   0.9713220143692464E+00
   0.9459476074017741E+00
SCALARS u double 1
LOOKUP_TABLE default
   0.0000000000000000E+00
   0.0000000000000000E+00
   0.0000000000000000E+00
   0.0000000000000000E+00
   0.0000000000000000E+00
   0.0000000000000000E+00
   0.0000000000000000E+00
   0.0000000000000000E+00
   0.0000000000000000E+00
   0.0000000000000000E+00
   0.0000000000000000E+00
   0.0000000000000000E+00
   0.0000000000000000E+00
   0.0000000000000000E+00
   0.0000000000000000E+00
   0.0000000000000000E+00
   0.0000000000000000E+00
   0.0000000000000000E+00
   0.0000000000000000E+00
   0.0000000000000000E+00
   0.0000000000000000E+00
   0.0000000000000000E+00
   0.0000000000000000E+00
   0.0000000000000000E+00
   0.0000000000000000E+00
   0.0000000000000000E+00
   0.0000000000000000E+00
   0.0000000000000000E+00
   0.0000000000000000E+00
   0.0000000000000000E+00
   0.0000000000000000E+00
   0.0000000000000000E+00
   0.0000000000000000E+00
   0.5059364757095483E+00
   0.5283206803524688E+00
   0.5144548599344826E+00
   0.4943200204370665E+00
   0.4882380289107119E+00
   0.4892102272386584E+00
   0.4916104898491644E+00
   0.4984001202604283E+00
   0.4932595689111846E+00
   0.4791178069139103E+00
   0.4530319410930593E+00
   0.4736422721515821E+00
   0.5097559618105588E+00
   0.4524167341491111E+00
   0.4980073782390447E+00
   0.5240823296936489E+00
   0.4995869294283761E+00
   0.5243658627128830E+00
   0.5063689368868974E+00
   0.5616890947719625E+00
   0.5257351042709514E+00
   0.5012324176959597E+00
   0.5717785539173807E+00
   0.5702546933840579E+00
   0.3681945036150002E+00
   0.4042378022976627E+00
   0.5549283775843331E+00
   0.5553718076035489E+00
   0.4951218278018171E+00
   0.4954785255947705E+00
   0.4935566434889837E+00
   0.4926977047384427E+00
   0.5127109033879668E+00
   0.5310949776450296E+00
   0.5061089212273536E+00
   0.4714221634860520E+00
   0.5093627798552905E+00
   0.5083493177942690E+00
   0.4962951946756117E+00
   0.5105154535876701E+00
   0.4874998532751679E+00
   0.5302393659802060E+00
   0.5270966226916558E+00
   0.5090815486173509E+00
   0.5260489609041057E+00
   0.5250463018166858E+00
   0.5237786314706564E+00
   0.5036463120639091E+00
   0.5286329549058366E+00
   0.5341654205228390E+00
   0.5372218282238691E+00
   0.5320515640951089E+00
   0.4993680287322095E+00
   0.4999718086633517E+00
   0.4987745918263756E+00
   0.4979256232991546E+00
   0.4931404359659855E+00
   0.4931042826496956E+00
   0.4891823043498414E+00
   0.4898949778024524E+00
   0.4957844687425440E+00
   0.4936342325631385E+00
   0.4881080875770303E+00
   0.4911194892920587E+00
   0.4916671186391647E+00
   0.4911378653879377E+00
   0.4916078093404335E+00
   0.4978746684201383E+00
   0.4929826538236058E+00
   0.4933294128631208E+00
   0.4967976721322755E+00
   0.4896301477882680E+00
   0.4921759952883363E+00
   0.4917156323221228E+00
   0.4912805465783642E+00
   0.4515742892812927E+00
   0.4774267318159952E+00
   0.4928801135486771E+00
   0.4918543478983305E+00
   0.4646916735350872E+00
   0.4726971094033662E+00
   0.4914753800435676E+00
   0.4907420260833058E+00
   0.4941098115277762E+00
   0.4855516789913141E+00
   0.4739007369450774E+00
   0.4020260472031733E+00
   0.4920543045436825E+00
   0.4592080969006940E+00
   0.4603601720708934E+00
   0.4893839788293898E+00
   0.4711599325177556E+00
   0.4747740736211261E+00
   0.4817577524815789E+00
   0.4810369861848001E+00
   0.5088626242670387E+00
   0.4471320152504778E+00
   0.4962834541131370E+00
   0.5324230313707556E+00
   0.4953912976360725E+00
   0.5217890074880521E+00
   0.5090713695292627E+00
   0.5648136075845684E+00
   0.5280170449794310E+00
   0.5039106923711000E+00
   0.5818793578543744E+00
   0.5708345500502199E+00
   0.3421526429306702E+00
   0.3867946800801954E+00
   0.5703495840350771E+00
   0.5643016650692610E+00
   0.5681306792252268E+00
   0.5293659760612131E+00
   0.5449659948143460E+00
   0.5697317462360647E+00
   0.5407174573488871E+00
   0.5487486111902578E+00
   0.5787922446799465E+00
   0.4958839607489322E+00
   0.5067399374301160E+00
   0.4998253074625097E+00
   0.5532105366626473E+00
   0.4601686764217688E+00
   0.4984313669189820E+00
   0.5489268125505287E+00
   0.5875222069350921E+00
   0.5809272650017716E+00
   0.5452000018884937E+00
   0.5755735751161219E+00
   0.5124626274844977E+00
   0.5057813061872850E+00
   0.5051025113891399E+00
   0.5629810172187631E+00
   0.5550905097272363E+00
   0.4981408137778352E+00
   0.5483586808538901E+00
   0.5482176836475463E+00
   0.5636699964860099E+00
   0.4954044517470806E+00
   0.4962451683282579E+00
   0.3930168135993760E+00
   0.3746984495702328E+00
   0.5577394827068709E+00
   0.5732716317805368E+00
   0.4177842371817634E+00
   0.5805190902503045E+00
   0.4199259445428687E+00
   0.5386332245212824E+00
   0.4995289223323910E+00
   0.5110873118284873E+00
   0.5071339993706654E+00
   0.5705893868149587E+00
   0.5837326115476174E+00
   0.5443354936709528E+00
   0.5634781465529445E+00
   0.5322141876936758E+00
   0.5311445420408263E+00
   0.5556158418102085E+00
   0.5548271238456696E+00
   0.4424289089524476E+00
   0.5276534045083791E+00
   0.5789555005801866E+00
   0.3423634610081820E+00
   0.4807396398367477E+00
   0.5507416547530848E+00
   0.4934740371625152E+00
   0.3128836625057094E+00
   0.5063625108955520E+00
   0.5044666939533327E+00
   0.5133359030333636E+00
   0.5375699285720774E+00
   0.3548316068589687E+00
   0.3596118923916229E+00
   0.3330358985079611E+00
   0.5089281061976556E+00
   0.5137300265973106E+00
   0.5316477268962841E+00
   0.5845362298205102E+00
   0.4637652061236881E+00
   0.3666024346619360E+00
SCALARS v double 1
LOOKUP_TABLE default
   0.0000000000000000E+00
   0.0000000000000000E+00
   0.0000000000000000E+00
   0.0000000000000000E+00
   0.0000000000000000E+00
   0.0000000000000000E+00
   0.0000000000000000E+00
   0.0000000000000000E+00
   0.0000000000000000E+00
   0.0000000000000000E+00
   0.0000000000000000E+00
   0.0000000000000000E+00
   0.0000000000000000E+00
   0.0000000000000000E+00
   0.0000000000000000E+00
   0.0000000000000000E+00
   0.0000000000000000E+00
   0.0000000000000000E+00
   0.0000000000000000E+00
   0.0000000000000000E+00
   0.0000000000000000E+00
   0.0000000000000000E+00
   0.0000000000000000E+00
   0.0000000000000000E+00
   0.0000000000000000E+00
   0.0000000000000000E+00
   0.0000000000000000E+00
   0.0000000000000000E+00
   0.0000000000000000E+00
   0.0000000000000000E+00
   0.0000000000000000E+00
   0.0000000000000000E+00
   0.0000000000000000E+00
   0.0000000000000000E+00
   0.0000000000000000E+00
   0.0000000000000000E+00
   0.0000000000000000E+00
   0.0000000000000000E+00
   0.0000000000000000E+00
   0.0000000000000000E+00
   0.0000000000000000E+00
   0.0000000000000000E+00
   0.0000000000000000E+00
   0.0000000000000000E+00
   0.0000000000000000E+00
   0.0000000000000000E+00
   0.0000000000000000E+00
   0.0000000000000000E+00
   0.0000000000000000E+00
   0.0000000000000000E+00
   0.0000000000000000E+00
   0.0000000000000000E+00
   0.0000000000000000E+00
   0.0000000000000000E+00
   0.0000000000000000E+00
   0.0000000000000000E+00
   0.0000000000000000E+00
   0.0000000000000000E+00
   0.0000000000000000E+00
   0.0000000000000000E+00
   0.0000000000000000E+00
   0.9895892409692104E-03
  -0.2326533619695720E-03
  -0.5752028341502512E-03
   0.0000000000000000E+00
   0.0000000000000000E+00
   0.0000000000000000E+00
   0.0000000000000000E+00
  -0.1791780092294101E-01
   0.3938872064659549E-03
   0.1872618588784952E-02
   0.1484860483512697E-01
  -0.5264463730362702E-02
  -0.5251680661140803E-02
  -0.1115808797818963E-01
   0.4284695677969576E-02
   0.6708343692698142E-03
   0.2885489994272688E-02
   0.1440845752608984E-02
   0.2861282161575562E-02
   0.1795707974762102E-02
  -0.6418887172723763E-02
   0.9403276107845879E-05
   0.4263085911547736E-02
   0.4175352769575387E-04
  -0.3048865825653716E-03
  -0.3938907960182720E-03
   0.6181742602430879E-03
   0.0000000000000000E+00
   0.0000000000000000E+00
   0.0000000000000000E+00
   0.0000000000000000E+00
   0.4029843678534810E-03
   0.1243336631804360E-02
  -0.1232007821922589E-02
  -0.3588283602419777E-03
  -0.1006431570568202E-02
  -0.3364797940413803E-03
  -0.2115411233183834E-03
  -0.2418316338525043E-03
  -0.2599412038449264E-03
  -0.5144262523854077E-03
   0.6647967424183701E-03
  -0.1781501125025236E-02
   0.3365218234127727E-03
   0.1166374712078554E-03
  -0.4711568821283323E-03
  -0.4804926892450664E-03
   0.0000000000000000E+00
   0.0000000000000000E+00
   0.0000000000000000E+00
  -0.1058838613707293E-02
  -0.8630457524458245E-02
   0.1520418253475917E-01
   0.1251926499407308E-03
  -0.1059409077998571E-02
  -0.1809362747990775E-02
  -0.5060178338378227E-02
  -0.1406657886273350E-02
  -0.3988147772808212E-02
  -0.2889564557341044E-02
   0.2267320008777454E-02
   0.2854916744548745E-01
  -0.2357280727601731E-03
  -0.3857199951345529E-02
   0.2857204148247299E-02
   0.9622246136697451E-03
   0.0000000000000000E+00
   0.0000000000000000E+00
   0.0000000000000000E+00
   0.0000000000000000E+00
   0.0000000000000000E+00
   0.0000000000000000E+00
   0.0000000000000000E+00
   0.0000000000000000E+00
   0.0000000000000000E+00
   0.0000000000000000E+00
   0.0000000000000000E+00
   0.0000000000000000E+00
   0.0000000000000000E+00
   0.0000000000000000E+00
   0.0000000000000000E+00
   0.0000000000000000E+00
   0.0000000000000000E+00
   0.4425907974234713E-02
   0.2869065611577016E-02
   0.6940104183498378E-02
   0.5412176117809920E-02
   0.8817127742972821E-02
   0.1230091216982048E-01
  -0.9758809872205236E-04
   0.4564453920732365E-02
   0.2536452637283224E-02
   0.2555033441454872E-02
   0.3086408657738592E-02
  -0.1121687784365462E-01
  -0.5231676186266450E-03
   0.6066854986189119E-02
   0.2563457623538995E-02
   0.2521490909030141E-02
   0.3785554359670523E-02
  -0.2012681193129906E-02
   0.1197779735524859E-02
   0.2662598924514670E-02
   0.1438981031639461E-02
   0.2313998812333050E-02
   0.1682734919687537E-02
   0.1958048006222390E-02
   0.8247960795233411E-02
  -0.3184125616135887E-02
   0.5512021589457457E-02
   0.3319995750236110E-04
  -0.9033093226976690E-04
  -0.1344074135826148E-01
  -0.3463186704031705E-02
  -0.3930470201557698E-02
   0.3792392732410420E-02
  -0.4237096722475041E-02
   0.7962183332321843E-03
  -0.2709559138985074E-01
  -0.2734272736451759E-02
   0.4370698909773867E-02
   0.8754723002814786E-03
   0.2031599927754241E-02
   0.3841029947251213E-02
   0.2084593235377249E-02
   0.2938249204237096E-02
   0.4583966606144531E-02
   0.1828850512011386E-02
   0.5230492213885432E-03
  -0.2246122917090147E-03
  -0.4285051850682848E-02
  -0.4875516318476701E-02
   0.7503836247280167E-03
   0.6978513499566282E-03
  -0.2683128011101318E-03
  -0.3966028061887342E-02
  -0.1333288318284899E-02
  -0.4215023393942154E-02
  -0.7316792728585299E-02
  -0.1710151735404526E-02
   0.6084397552844345E-03
  -0.2362936060447528E-03
   0.8081806996434616E-03
  -0.1535516930913387E-02
   0.7608788800743121E-02
  -0.9684623446717881E-02
  -0.1737102505054076E-04
  -0.3797527831346405E-03
   0.2258735434395050E-02
   0.1224649586838054E-02
   0.1449824902917182E-02
  -0.3761329059621834E-02
SCALARS w double 1
LOOKUP_TABLE default
   0.0000000000000000E+00
   0.0000000000000000E+00
   0.0000000000000000E+00
   0.0000000000000000E+00
   0.0000000000000000E+00
   0.0000000000000000E+00
   0.0000000000000000E+00
   0.0000000000000000E+00
   0.0000000000000000E+00
   0.0000000000000000E+00
   0.0000000000000000E+00
   0.0000000000000000E+00
   0.0000000000000000E+00
   0.0000000000000000E+00
   0.0000000000000000E+00
   0.0000000000000000E+00
   0.0000000000000000E+00
   0.0000000000000000E+00
   0.0000000000000000E+00
   0.0000000000000000E+00
   0.0000000000000000E+00
   0.0000000000000000E+00
   0.0000000000000000E+00
   0.0000000000000000E+00
   0.0000000000000000E+00
   0.0000000000000000E+00
   0.0000000000000000E+00
   0.0000000000000000E+00
   0.0000000000000000E+00
   0.0000000000000000E+00
   0.0000000000000000E+00
   0.0000000000000000E+00
   0.0000000000000000E+00
  -0.1119780322603504E+00
  -0.4946454251859563E-01
  -0.2712003307671461E-02
   0.5028015579425374E-02
  -0.3431163260666714E-03
  -0.7393453510715891E-03
   0.2844439097423652E-03
   0.1875336134225495E-02
   0.3986732252918066E-03
   0.3641272831787099E-02
   0.3905780472987951E-01
   0.5263200266097378E-01
  -0.6191557373926947E-03
  -0.2784069521465303E-01
   0.1838563919930454E-02
   0.1024141494658461E-01
   0.7875301648199311E-02
   0.4373462225414045E-01
  -0.9481553766208054E-03
  -0.9896279746864788E-02
  -0.3396690366076464E-02
  -0.1903853922358607E-02
  -0.4974433835944482E-04
  -0.4492593121167858E-01
   0.1585324064575824E-01
   0.1182748201692615E-01
   0.2884973073479599E-01
   0.4668374947337367E-02
   0.4133693153442993E-02
   0.4472176407898153E-02
   0.4441058532425478E-02
   0.5863058577776773E-02
  -0.5875180007543631E-03
  -0.4780908629532803E-01
  -0.1104282888296739E+00
  -0.1257742774158276E+00
   0.2410571189230807E-02
   0.8951717688832899E-03
  -0.1125280047321507E+00
  -0.1109014659713962E+00
  -0.1112383097873452E+00
  -0.1055177554884483E+00
  -0.7636379026011389E-01
   0.2320629024981109E-02
  -0.2494270013285903E-01
  -0.2078184232609250E-01
  -0.1117924320777743E-01
   0.4196979573057577E-02
  -0.8962654137396142E-01
  -0.3444365426629760E-01
  -0.9008445370854649E-01
  -0.6754638995923899E-01
   0.2367828543553354E-02
   0.1779836183584822E-02
   0.1686366919056103E-02
   0.2518293653160448E-02
   0.6706223970218642E-03
  -0.1370352996002003E-02
  -0.1325763597310083E-02
   0.1231299648721582E-02
   0.2038668218880683E-02
   0.9803711489953547E-03
   0.9542960232251076E-03
   0.1030461952955508E-02
   0.8633779592979274E-03
  -0.1150729073696211E-02
  -0.2104707983423412E-02
   0.2207475081888849E-02
  -0.6026635590775778E-03
  -0.7831204378231910E-03
   0.2265147728880425E-02
  -0.1076757894310743E-02
  -0.6098965173475902E-03
  -0.7548451662223426E-03
  -0.1649133514816595E-02
   0.6923603380434089E-01
   0.2314924917216178E-02
  -0.1071962034742220E-02
  -0.8486031047052558E-03
   0.1151781290540289E+00
   0.1033329079014249E+00
  -0.1783214578852710E-02
  -0.4514514327987732E-02
  -0.7898244863792492E-03
  -0.6759624398692960E-02
  -0.2062948683993657E-02
   0.1269458745393617E+00
   0.6368416685932793E-01
   0.2251341120300839E-01
   0.1347657513404406E+00