# vtk DataFile Version 2.0
FUN3D:global_image_vtk
ASCII
DATASET UNSTRUCTURED_GRID
POINTS 213 double
    0.0000000000000000E+00    0.2500000000000000E+01    0.0000000000000000E+00
    0.1250000000000000E+01    0.2500000000000000E+01    0.0000000000000000E+00
    0.2500000000000000E+01    0.2500000000000000E+01    0.0000000000000000E+00
    0.3750000000000000E+01    0.2500000000000000E+01    0.0000000000000000E+00
    0.5000000000000000E+01    0.2500000000000000E+01    0.0000000000000000E+00
    0.5000000000000000E+01    0.1250000000000000E+01    0.0000000000000000E+00
    0.5000000000000000E+01    0.0000000000000000E+00    0.0000000000000000E+00
    0.5000000000000000E+01   -0.1250000000000000E+01    0.0000000000000000E+00
    0.5000000000000000E+01   -0.2500000000000000E+01    0.0000000000000000E+00
    0.3750000000000000E+01   -0.2500000000000000E+01    0.0000000000000000E+00
    0.2500000000000000E+01   -0.2500000000000000E+01    0.0000000000000000E+00
    0.1250000000000000E+01   -0.2500000000000000E+01    0.0000000000000000E+00
    0.0000000000000000E+00   -0.2500000000000000E+01    0.0000000000000000E+00
    0.0000000000000000E+00   -0.1250000000000000E+01    0.0000000000000000E+00
    0.0000000000000000E+00    0.0000000000000000E+00    0.0000000000000000E+00
    0.0000000000000000E+00    0.1250000000000000E+01    0.0000000000000000E+00
    0.9058375365086910E+00    0.1578994732800803E+01    0.0000000000000000E+00
    0.3982050490726493E+01   -0.1583989954232354E+01    0.0000000000000000E+00
    0.4033849428301197E+01    0.1453322699199022E+01    0.0000000000000000E+00
    0.1040505887381675E+01   -0.1479596339503735E+01    0.0000000000000000E+00
    0.1099454400140349E+01   -0.3227322616384110E+00    0.0000000000000000E+00
    0.7354504170366591E+00    0.6593508822075582E+00    0.0000000000000000E+00
    0.1622302608453282E+01    0.8256214013940779E+00    0.0000000000000000E+00
    0.2145871574390382E+01   -0.1650070333782557E+01    0.0000000000000000E+00
    0.4086422318222992E+01   -0.4612828702537229E+00    0.0000000000000000E+00
    0.2979540174134984E+01   -0.8579242121530853E+00    0.0000000000000000E+00
    0.3045064261640043E+01   -0.1836846154397680E+01    0.0000000000000000E+00
    0.3428197553792836E+01    0.3508002863614053E+00    0.0000000000000000E+00
    0.4309693860063405E+01    0.5185680230613409E+00    0.0000000000000000E+00
    0.1827272193562204E+01    0.1738996113203182E+01    0.0000000000000000E+00
    0.2808563282768077E+01    0.1325493893339706E+01    0.0000000000000000E+00
    0.1895995683864404E+01   -0.8731419609589618E+00    0.0000000000000000E+00
    0.2273179336307740E+01    0.4906150219227333E-01    0.0000000000000000E+00
    0.5000000000000000E+01    0.2500000000000000E+01    0.1250000000000000E+01
    0.5000000000000000E+01    0.2500000000000000E+01    0.2500000000000000E+01
    0.5000000000000000E+01    0.2500000000000000E+01    0.3750000000000000E+01
    0.5000000000000000E+01    0.2500000000000000E+01    0.5000000000000000E+01
    0.3750000000000000E+01    0.2500000000000000E+01    0.5000000000000000E+01
    0.2500000000000000E+01    0.2500000000000000E+01    0.5000000000000000E+01
    0.1250000000000000E+01    0.2500000000000000E+01    0.5000000000000000E+01
    0.0000000000000000E+00    0.2500000000000000E+01    0.5000000000000000E+01
    0.0000000000000000E+00    0.2500000000000000E+01    0.3750000000000000E+01
    0.0000000000000000E+00    0.2500000000000000E+01    0.2500000000000000E+01
    0.0000000000000000E+00    0.2500000000000000E+01    0.1250000000000000E+01
    0.9631080833812172E+00    0.2500000000000000E+01    0.9613285771248219E+00
    0.3981732467264904E+01    0.2500000000000000E+01    0.4069753913607991E+01
    0.4035525118777670E+01    0.2500000000000000E+01    0.1012015867579395E+01
    0.9641717640894248E+00    0.2500000000000000E+01    0.3972455192261839E+01
    0.1547743040396780E+01    0.2500000000000000E+01    0.2928177746738678E+01
    0.6985170616192014E+00    0.2500000000000000E+01    0.3068281976055466E+01
    0.8931277594515110E+00    0.2500000000000000E+01    0.2052465503257726E+01
    0.2183293750162785E+01    0.2500000000000000E+01    0.3959073795658649E+01
    0.3855333506014705E+01    0.2500000000000000E+01    0.2931218481500625E+01
    0.3152495579421047E+01    0.2500000000000000E+01    0.3635850502723324E+01
    0.3103247580566054E+01    0.2500000000000000E+01    0.4331682712472464E+01
    0.3266837581688852E+01    0.2500000000000000E+01    0.1886092433583972E+01
    0.4231539241296245E+01    0.2500000000000000E+01    0.1915865356532799E+01
    0.1909741006522088E+01    0.2500000000000000E+01    0.7170024419130505E+00
    0.2880784107213163E+01    0.2500000000000000E+01    0.9046598906449592E+00
    0.2014316024535771E+01    0.2500000000000000E+01    0.1762464314805728E+01
    0.2670003247036656E+01    0.2500000000000000E+01    0.2850479545835163E+01
    0.5000000000000000E+01    0.1250000000000000E+01    0.5000000000000000E+01
    0.5000000000000000E+01    0.0000000000000000E+00    0.5000000000000000E+01
    0.5000000000000000E+01   -0.1250000000000000E+01    0.5000000000000000E+01
    0.5000000000000000E+01   -0.2500000000000000E+01    0.5000000000000000E+01
    0.5000000000000000E+01   -0.2500000000000000E+01    0.3750000000000000E+01
    0.5000000000000000E+01   -0.2500000000000000E+01    0.2500000000000000E+01
    0.5000000000000000E+01   -0.2500000000000000E+01    0.1250000000000000E+01
    0.5000000000000000E+01    0.1578994732800803E+01    0.9058375365086910E+00
    0.5000000000000000E+01   -0.1583989954232354E+01    0.3982050490726493E+01
    0.5000000000000000E+01    0.1453322699199022E+01    0.4033849428301197E+01
    0.5000000000000000E+01   -0.1479596339503735E+01    0.1040505887381675E+01
    0.5000000000000000E+01   -0.3227322616384110E+00    0.1099454400140349E+01
    0.5000000000000000E+01    0.6593508822075582E+00    0.7354504170366591E+00
    0.5000000000000000E+01    0.8256214013940779E+00    0.1622302608453282E+01
    0.5000000000000000E+01   -0.1650070333782557E+01    0.2145871574390382E+01
    0.5000000000000000E+01   -0.4612828702537229E+00    0.4086422318222992E+01
    0.5000000000000000E+01   -0.8579242121530853E+00    0.2979540174134984E+01
    0.5000000000000000E+01   -0.1836846154397680E+01    0.3045064261640043E+01
    0.5000000000000000E+01    0.3508002863614053E+00    0.3428197553792836E+01
    0.5000000000000000E+01    0.5185680230613409E+00    0.4309693860063405E+01
    0.5000000000000000E+01    0.1738996113203182E+01    0.1827272193562204E+01
    0.5000000000000000E+01    0.1325493893339706E+01    0.2808563282768077E+01
    0.5000000000000000E+01   -0.8731419609589618E+00    0.1895995683864404E+01
    0.5000000000000000E+01    0.4906150219227333E-01    0.2273179336307740E+01
    0.0000000000000000E+00    0.1250000000000000E+01    0.5000000000000000E+01
    0.0000000000000000E+00    0.0000000000000000E+00    0.5000000000000000E+01
    0.0000000000000000E+00   -0.1250000000000000E+01    0.5000000000000000E+01
    0.0000000000000000E+00   -0.2500000000000000E+01    0.5000000000000000E+01
    0.1250000000000000E+01   -0.2500000000000000E+01    0.5000000000000000E+01
    0.2500000000000000E+01   -0.2500000000000000E+01    0.5000000000000000E+01
    0.3750000000000000E+01   -0.2500000000000000E+01    0.5000000000000000E+01
    0.4042003247744892E+01    0.1558308132739014E+01    0.5000000000000000E+01
    0.9304122287900499E+00   -0.1548001304379777E+01    0.5000000000000000E+01
    0.1037243024609388E+01    0.1462892710085612E+01    0.5000000000000000E+01
    0.3946240828834967E+01   -0.1445243809615570E+01    0.5000000000000000E+01
    0.4092527262848217E+01   -0.3455338993778935E+00    0.5000000000000000E+01
    0.4293103109154542E+01    0.6277660831404320E+00    0.5000000000000000E+01
    0.3241512314643519E+01    0.7429886854239611E+00    0.5000000000000000E+01
    0.2844289952419609E+01   -0.1588117879734118E+01    0.5000000000000000E+01
    0.7159905765450471E+00   -0.6002320124191652E+00    0.5000000000000000E+01
    0.1754341919796891E+01   -0.7398147869923652E+00    0.5000000000000000E+01
    0.1870296826774691E+01   -0.1788622905643739E+01    0.5000000000000000E+01
    0.9220614901912976E+00    0.3083720183248586E+00    0.5000000000000000E+01
    0.3101523624086016E+01    0.1777901774806180E+01    0.5000000000000000E+01
    0.2192512063922564E+01    0.1576861561598471E+01    0.5000000000000000E+01
    0.2024793420196460E+01    0.4773861992750707E+00    0.5000000000000000E+01
    0.2990627757741975E+01   -0.4878110785814084E+00    0.5000000000000000E+01
    0.0000000000000000E+00   -0.2500000000000000E+01    0.1250000000000000E+01
    0.0000000000000000E+00   -0.2500000000000000E+01    0.2500000000000000E+01
    0.0000000000000000E+00   -0.2500000000000000E+01    0.3750000000000000E+01
    0.0000000000000000E+00    0.1558308132739014E+01    0.4042003247744892E+01
    0.0000000000000000E+00   -0.1548001304379777E+01    0.9304122287900499E+00
    0.0000000000000000E+00    0.1462892710085612E+01    0.1037243024609388E+01
    0.0000000000000000E+00   -0.1445243809615570E+01    0.3946240828834967E+01
    0.0000000000000000E+00   -0.3455338993778935E+00    0.4092527262848217E+01
    0.0000000000000000E+00    0.6277660831404320E+00    0.4293103109154542E+01
    0.0000000000000000E+00    0.7429886854239611E+00    0.3241512314643519E+01
    0.0000000000000000E+00   -0.1588117879734118E+01    0.2844289952419609E+01
    0.0000000000000000E+00   -0.6002320124191652E+00    0.7159905765450471E+00
    0.0000000000000000E+00   -0.7398147869923652E+00    0.1754341919796891E+01
    0.0000000000000000E+00   -0.1788622905643739E+01    0.1870296826774691E+01
    0.0000000000000000E+00    0.3083720183248586E+00    0.9220614901912976E+00
    0.0000000000000000E+00    0.1777901774806180E+01    0.3101523624086016E+01
    0.0000000000000000E+00    0.1576861561598471E+01    0.2192512063922564E+01
[...]
POINT_DATA 213
SCALARS rho double 1
LOOKUP_TABLE default
   0.1218184581933318E+01
   0.9219514815774120E+00
   0.9105761164419951E+00
   0.8963907323337174E+00
   0.7821487696186823E+00
   0.7113148803356034E+00
   0.6992893411514305E+00
   0.7032404038531170E+00
   0.7684421093261776E+00
   0.8894678483660560E+00
   0.8985900672139390E+00
   0.9250023122762666E+00
   0.1301121345515779E+01
   0.1347022930886343E+01
   0.1454831679485872E+01
   0.1286189667019333E+01
   0.9613233422967278E+00
   0.9044690315771313E+00
   0.8971043733684774E+00
   0.9254347187441950E+00
   0.9126297801614677E+00
   0.9860043934845916E+00
   0.8972396622221506E+00
   0.8999329548412335E+00
   0.9066948829107963E+00
   0.9110930459259781E+00
   0.8941461930318123E+00
   0.9124640131577771E+00
   0.8900158785113185E+00
   0.9016131265819728E+00
   0.9062422375846212E+00
   0.8624504173729007E+00
   0.9077459314504038E+00
   0.9505888655431646E+00
   0.1008474470510148E+01
   0.1007001766371249E+01
   0.1000146969461897E+01
   0.1000490536359664E+01
   0.1001017263114351E+01
   0.1002483472892090E+01
   0.1001954919688371E+01
   0.1004920219294301E+01
   0.1016635445346188E+01
   0.1058262378655397E+01
   0.1005081954970234E+01
   0.1000008945925679E+01
   0.9454893979541293E+00
   0.1002056195952522E+01
   0.9982585752693518E+00
   0.1004522101183125E+01
   0.1005397571215959E+01
   0.9993043477556438E+00
   0.9977967443797338E+00
   0.9987969980663659E+00
   0.9987175321154066E+00
   0.9780104291025860E+00
   0.9795698587901787E+00
   0.9637898421423787E+00
   0.9599288549658596E+00
   0.9865823599719443E+00
   0.9921847843244062E+00
   0.1000341740813215E+01
   0.1000540470152813E+01
   0.1000672445621819E+01
   0.9998320008754252E+00
   0.1009742277151778E+01
   0.1007075843615356E+01
   0.9445329137151618E+00
   0.9031883680403688E+00
   0.1007020049125781E+01
   0.1004204466919189E+01
   0.8963263484476547E+00
   0.8924644432584330E+00
   0.8470158322021442E+00
   0.9708136068992461E+00
   0.1000084620266266E+01
   0.1006090912788676E+01
   0.1015615766765447E+01
   0.1012917766867658E+01
   0.1012882988865498E+01
   0.1005125323853353E+01
   0.9862694342809250E+00
   0.1006604373320465E+01
   0.9849226275435707E+00
   0.1008160798364506E+01
   0.1001910649398401E+01
   0.1000781019667816E+01
   0.1001299340015055E+01
   0.1001841425402313E+01
   0.1002341947699752E+01
   0.1000279180748272E+01
   0.1000188340966012E+01
   0.9997695336446109E+00
   0.1001742065228549E+01
   0.1001919936489234E+01
   0.9986513034907074E+00
   0.9995291892967907E+00
   0.9999173802140107E+00
   0.1000195476562650E+01
   0.1000438389162412E+01
   0.1001059545632219E+01
   0.1001455920897145E+01
   0.1001325224764803E+01
   0.1001532757056750E+01
   0.1000861904612535E+01
   0.1001351223460144E+01
   0.1001109623116248E+01
   0.1000539044040139E+01
   0.1060293781320108E+01
   0.1020473082585333E+01
   0.1005927663311052E+01
   0.1003473871586448E+01
   0.1142180864854644E+01
   0.1083603186818779E+01
   0.1004373984273131E+01
   0.1003910149970532E+01
   0.1003792817222776E+01
   0.1006642291159810E+01
   0.1012290406390130E+01
   0.1193353157233040E+01
   0.1027982030059685E+01
   0.1034896014585868E+01
   0.1168960269159266E+01
   0.1009916641401036E+01
   0.1023538181502564E+01
   0.1017047822363821E+01
   0.1007880005635103E+01
   0.1014167767813901E+01
   0.1000108752708902E+01
   0.9441675584022005E+00
   0.1003511641428066E+01
   0.9988708197726217E+00
   0.1006459273464848E+01
   0.1009161605869840E+01
   0.9979472547964918E+00
   0.9977523782003734E+00
   0.9961553771966961E+00
   0.9984680785713498E+00
   0.9809396724702706E+00
   0.9780369726891603E+00
   0.9479395348225654E+00
   0.9505452939936568E+00
   0.9878129776645849E+00
   0.9899097235131630E+00
   0.9925449500646960E+00
   0.9998092598089305E+00
   0.9986253873911450E+00
   0.9946413675393323E+00
   0.1006842000516406E+01
   0.1021139432978801E+01
   0.9979987587143818E+00
   0.1004800060090381E+01
   0.1001439399980788E+01
   0.1004887519150995E+01
   0.9952170299662868E+00
   0.9849387898657057E+00
   0.1000227400912821E+01
   0.9938607749883679E+00
   0.9819042772377481E+00
   0.9943162772171801E+00
   0.9968742997803459E+00
   0.9937021713276633E+00
   0.9986959087226255E+00
   0.1000032869842063E+01
   0.9996633754416125E+00
   0.9958429947920688E+00
   0.9933664241379627E+00
   0.1001382433674268E+01
   0.1018313230212307E+01
   0.1002795502335526E+01
   0.9806267457697938E+00
   0.1001874115406201E+01
   0.1008214252838892E+01
   0.9700874902193464E+00
   0.9431491561996567E+00
   0.9846668272295888E+00
   0.9842469264998653E+00
   0.9754066308095533E+00
   0.9907875197234941E+00
   0.9774391229470177E+00
   0.1033916606872194E+01
   0.1021948940636408E+01
   0.1000030936447181E+01
   0.9991729251987884E+00
   0.9919133321445318E+00
   0.9906924277289574E+00
   0.9572797179647993E+00
   0.9929856557493849E+00
   0.1006251253061784E+01
   0.1002026055230964E+01
   0.9896510215094859E+00
   0.9651975055955500E+00
   0.9202300912720461E+00
   0.9722612463633409E+00
   0.9781735214489016E+00
   0.9559296815075228E+00
   0.9616922190387234E+00
   0.9489803079891489E+00
   0.9365305553907195E+00
   0.9301822355774623E+00
   0.9993117042214623E+00
   0.9994570490358062E+00
   0.9987948518687790E+00
   0.1002021355175433E+01
   0.9390086127604294E+00
   0.9238505619719118E+00
   0.9356685592820108E+00
   0.9984099364929250E+00
   0.9983353533105072E+00
   0.1000450245356804E+01
   0.9793722043943704E+00
   0.9713568984919835E+00
   0.9446673792441198E+00
SCALARS u double 1
LOOKUP_TABLE default
   0.0000000000000000E+00
   0.0000000000000000E+00
   0.0000000000000000E+00
   0.0000000000000000E+00
   0.0000000000000000E+00
   0.0000000000000000E+00
   0.0000000000000000E+00
   0.0000000000000000E+00
   0.0000000000000000E+00
   0.0000000000000000E+00
   0.0000000000000000E+00
   0.0000000000000000E+00
   0.0000000000000000E+00
   0.0000000000000000E+00
   0.0000000000000000E+00
   0.0000000000000000E+00
   0.0000000000000000E+00
   0.0000000000000000E+00
   0.0000000000000000E+00
   0.0000000000000000E+00
   0.0000000000000000E+00
   0.0000000000000000E+00
   0.0000000000000000E+00
   0.0000000000000000E+00
   0.0000000000000000E+00
   0.0000000000000000E+00
   0.0000000000000000E+00
   0.0000000000000000E+00
   0.0000000000000000E+00
   0.0000000000000000E+00
   0.0000000000000000E+00
   0.0000000000000000E+00
   0.0000000000000000E+00
   0.5047929051839674E+00
   0.5291701143589298E+00
   0.5145241523166788E+00
   0.4932180764937014E+00
   0.4880834373262211E+00
   0.4911716948022149E+00
   0.4931445386082842E+00
   0.4982220363133668E+00
   0.4935126090300846E+00
   0.4788318708929535E+00
   0.4523419379282150E+00
   0.4740735422603253E+00
   0.5098351789883135E+00
   0.4500828902277637E+00
   0.4980687550458779E+00
   0.5234863738138745E+00
   0.4995022509628828E+00
   0.5242312302211032E+00
   0.5063102215561667E+00
   0.5624076733429448E+00
   0.5248402045869757E+00
   0.5014802471544277E+00
   0.5725843814127627E+00
   0.5709259385323043E+00
   0.3684576624973208E+00
   0.4025764573727053E+00
   0.5559094080568211E+00
   0.5552217832862761E+00
   0.4941844216222884E+00
   0.4946255944195980E+00
   0.4922724897535115E+00
   0.4917288856705356E+00
   0.5126154984456709E+00
   0.5318524890058809E+00
   0.5048408404917523E+00
   0.4703373505051893E+00
   0.5096869370945697E+00
   0.5089820942114405E+00
   0.4952365306140369E+00
   0.5091887724680736E+00
   0.4862648521063590E+00
   0.5291950352760969E+00
   0.5274800496668033E+00
   0.5095339526938407E+00
   0.5264634379848049E+00
   0.5255255551814378E+00
   0.5249345941376272E+00
   0.5039127333169972E+00
   0.5286659728417545E+00
   0.5354669701929440E+00
   0.5369248059476980E+00
   0.5323896832661408E+00
   0.4987529395033866E+00
   0.4995655683120515E+00
   0.4985678082786799E+00
   0.4978572937149252E+00
   0.4945660707333215E+00
   0.4946835217361873E+00
   0.4895517709740524E+00
   0.4881800326544313E+00
   0.4965847191067390E+00
   0.4946166743575033E+00
   0.4861180987174095E+00
   0.4896995895018481E+00
   0.4900485952329997E+00
   0.4911865162241875E+00
   0.4926665601773548E+00
   0.4981839164194167E+00
   0.4946487728730570E+00
   0.4948708358797758E+00
   0.4976279083969802E+00
   0.4907740239144173E+00
   0.4935708938743775E+00
   0.4927548947235209E+00
   0.4920713884481173E+00
   0.4510868388310599E+00
   0.4773580874576482E+00
   0.4929695194373475E+00
   0.4921378782744662E+00
   0.4641002288838245E+00
   0.4734530025248229E+00
   0.4915432294724558E+00
   0.4906761087160903E+00
   0.4939912844672452E+00
   0.4854534347882781E+00
   0.4731583059453047E+00
   0.4016577348952554E+00
   0.4924195391854266E+00
   0.4585268851666299E+00
   0.4598476709623973E+00
   0.4894589888145358E+00
   0.4701566818411675E+00
   0.4743778811679422E+00
   0.4816559613552432E+00
   0.4810457487168427E+00
   0.5082080985224827E+00
   0.4446041980042705E+00
   0.4960951886641409E+00
   0.5313147349452001E+00
   0.4949412886653853E+00
   0.5217270982300374E+00
   0.5081102272933706E+00
   0.5662469586555180E+00
   0.5268454994411719E+00
   0.5035542143379813E+00
   0.5834438350871707E+00
   0.5718246486173942E+00
   0.3411247016135138E+00
   0.3855186823890973E+00
   0.5716303702711101E+00
   0.5643417479399162E+00
   0.5690296687773160E+00
   0.5291016395699302E+00
   0.5451151393797615E+00
   0.5701785196877797E+00
   0.5407582128502935E+00
   0.5488015353883587E+00
   0.5791064449527180E+00
   0.4955345360884502E+00
   0.5065531782129934E+00
   0.4994962386630266E+00
   0.5535725810842924E+00
   0.4600163335034272E+00
   0.4983856950713630E+00
   0.5491948318500434E+00
   0.5896067327045145E+00
   0.5824004037506376E+00
   0.5457918908603293E+00
   0.5786601915220795E+00
   0.5122204611589327E+00
   0.5055660286137605E+00
   0.5049404972668736E+00
   0.5645526245439935E+00
   0.5551709590287132E+00
   0.4977656832565116E+00
   0.5487063243832867E+00
   0.5484601119619391E+00
   0.5642517226344097E+00
   0.4955199310213916E+00
   0.4958333883361267E+00
   0.3908651527677061E+00
   0.3725868123584350E+00
   0.5585540929669514E+00
   0.5741421449552606E+00
   0.4178225229174928E+00
   0.5815128830453091E+00
   0.4184792556476457E+00
   0.5387779568408038E+00
   0.4989424355239688E+00
   0.5114107422176475E+00
   0.5070753475254878E+00
   0.5731982988067824E+00
   0.5855978138763126E+00
   0.5445612511350763E+00
   0.5655111436534326E+00
   0.5319819547416647E+00
   0.5310076927029922E+00
   0.5560282649887437E+00
   0.5553413470083781E+00
   0.4405969307064088E+00
   0.5283756032153467E+00
   0.5806205741297711E+00
   0.3397270719054366E+00
   0.4810706715696320E+00
   0.5509774513778243E+00
   0.4922018353583295E+00
   0.3107819157082856E+00
   0.5051410596902718E+00
   0.5043523769846007E+00
   0.5129575953723753E+00
   0.5386471450781712E+00
   0.3522137231723409E+00
   0.3560014204209994E+00
   0.3307776169390399E+00
   0.5084434505405064E+00
   0.5125446842599560E+00
   0.5315367354651646E+00
   0.5856162403511008E+00
   0.4639610641462610E+00
   0.3629044727152909E+00
SCALARS v double 1
LOOKUP_TABLE default
   0.0000000000000000E+00
   0.0000000000000000E+00
   0.0000000000000000E+00
   0.0000000000000000E+00
   0.0000000000000000E+00
   0.0000000000000000E+00
   0.0000000000000000E+00
   0.0000000000000000E+00
   0.0000000000000000E+00
   0.0000000000000000E+00
   0.0000000000000000E+00
   0.0000000000000000E+00
   0.0000000000000000E+00
   0.0000000000000000E+00
   0.0000000000000000E+00
   0.0000000000000000E+00
   0.0000000000000000E+00
   0.0000000000000000E+00
   0.0000000000000000E+00
   0.0000000000000000E+00
   0.0000000000000000E+00
   0.0000000000000000E+00
   0.0000000000000000E+00
   0.0000000000000000E+00
   0.0000000000000000E+00
   0.0000000000000000E+00
   0.0000000000000000E+00
   0.0000000000000000E+00
   0.0000000000000000E+00
   0.0000000000000000E+00
   0.0000000000000000E+00
   0.0000000000000000E+00
   0.0000000000000000E+00
   0.0000000000000000E+00
   0.0000000000000000E+00
   0.0000000000000000E+00
   0.0000000000000000E+00
   0.0000000000000000E+00
   0.0000000000000000E+00
   0.0000000000000000E+00
   0.0000000000000000E+00
   0.0000000000000000E+00
   0.0000000000000000E+00
   0.0000000000000000E+00
   0.0000000000000000E+00
   0.0000000000000000E+00
   0.0000000000000000E+00
   0.0000000000000000E+00
   0.0000000000000000E+00
   0.0000000000000000E+00
   0.0000000000000000E+00
   0.0000000000000000E+00
   0.0000000000000000E+00
   0.0000000000000000E+00
   0.0000000000000000E+00
   0.0000000000000000E+00
   0.0000000000000000E+00
   0.0000000000000000E+00
   0.0000000000000000E+00
   0.0000000000000000E+00
   0.0000000000000000E+00
   0.5973787032993675E-03
  -0.1453040873466015E-02
  -0.1410754723399197E-02
   0.0000000000000000E+00
   0.0000000000000000E+00
   0.0000000000000000E+00
   0.0000000000000000E+00
  -0.1862687822150767E-01
   0.2590455711320351E-03
   0.2184863459011335E-02
   0.1493479415586783E-01
  -0.5165910772559778E-02
  -0.6348483034574955E-02
  -0.1151148743609499E-01
   0.4678714769744825E-02
   0.5054346321415191E-03
   0.3138064666242906E-02
   0.1498677807732210E-02
   0.3450179397539058E-02
   0.1670617004023379E-02
  -0.6418270839623829E-02
   0.7426979073648352E-03
   0.4730575285668618E-02
   0.5432742029359344E-03
   0.7211865857061933E-04
  -0.1710423363539232E-03
   0.6076417037617680E-03
   0.0000000000000000E+00
   0.0000000000000000E+00
   0.0000000000000000E+00
   0.0000000000000000E+00
   0.8932587754495435E-04
   0.1417875481465679E-02
  -0.1128796512856477E-02
  -0.9280331954392288E-03
  -0.2135246343894366E-02
  -0.1265025439380419E-02
  -0.9477274197851917E-03
  -0.6551003342086543E-03
  -0.3215631751718595E-04
  -0.5534887526126267E-03
   0.7175529682781537E-03
  -0.1583357815987902E-02
   0.7445976445135095E-04
  -0.1440819431137396E-03
  -0.9131632975517876E-03
  -0.9197559225903595E-03
   0.0000000000000000E+00
   0.0000000000000000E+00
   0.0000000000000000E+00
  -0.1114202458613059E-02
  -0.8501209513947373E-02
   0.1598695245634050E-01
   0.2135326268420139E-03
  -0.1060651876052233E-02
  -0.1681468577353712E-02
  -0.5324889518582220E-02
  -0.1198151742829895E-02
  -0.3589099865212171E-02
  -0.2889280506615515E-02
   0.2194673626638782E-02
   0.2886836557824814E-01
  -0.1843347387827597E-03
  -0.4269945787581014E-02
   0.2463630754007034E-02
   0.9342555095685244E-03
   0.0000000000000000E+00
   0.0000000000000000E+00
   0.0000000000000000E+00
   0.0000000000000000E+00
   0.0000000000000000E+00
   0.0000000000000000E+00
   0.0000000000000000E+00
   0.0000000000000000E+00
   0.0000000000000000E+00
   0.0000000000000000E+00
   0.0000000000000000E+00
   0.0000000000000000E+00
   0.0000000000000000E+00
   0.0000000000000000E+00
   0.0000000000000000E+00
   0.0000000000000000E+00
   0.0000000000000000E+00
   0.4720880975163860E-02
   0.2800732197106699E-02
   0.6931772530753152E-02
   0.5693218552099483E-02
   0.8743812938207331E-02
   0.1260041052807922E-01
   0.5564566949650564E-03
   0.4345743813897806E-02
   0.2401796129058755E-02
   0.2335596630158250E-02
   0.3192159855451812E-02
  -0.1060505377981740E-01
  -0.4824285038711165E-03
   0.6062051702365642E-02
   0.2666151772539577E-02
   0.2278078827427301E-02
   0.3852490950635106E-02
  -0.2022236500359488E-02
   0.8975298071898104E-03
   0.2354718005104846E-02
   0.1133534749481560E-02
   0.2687940104189687E-02
   0.1770981324659591E-02
   0.1778502407625791E-02
   0.8115691882872455E-02
  -0.3275629806047765E-02
   0.5538589512754281E-02
   0.5298831510793471E-04
   0.1499974548020678E-04
  -0.1332819384525610E-01
  -0.3243049320657426E-02
  -0.3473213231564153E-02
   0.3723250760280052E-02
  -0.4046181725908472E-02
   0.9481901867788900E-03
  -0.2602190051507272E-01
  -0.2947929518628502E-02
   0.4204246013815560E-02
   0.6903083097809580E-03
   0.1814502554670735E-02
   0.4398457419330685E-02
   0.2321179553085254E-02
   0.3328572123437722E-02
   0.5031518469043011E-02
   0.1842702990175857E-02
   0.5722419229368690E-03
  -0.2970030210772609E-03
  -0.4695990609047707E-02
  -0.5525944754225634E-02
   0.4723562990701297E-03
   0.9679768054091150E-03
  -0.7304175388403612E-03
  -0.3860172485529668E-02
  -0.1246753830761898E-02
  -0.3692908645293900E-02
  -0.6963419279352363E-02
  -0.1674636546876275E-02
   0.5263387504619799E-03
  -0.3688019037609412E-03
   0.1105397123205892E-02
  -0.1829338067728064E-02
   0.7320301627771410E-02
  -0.9620678442980405E-02
  -0.1164893389861901E-04
  -0.4079878896982587E-03
   0.2399172700396574E-02
   0.1168413787841289E-02
   0.1278392617747588E-02
  -0.3842457219518665E-02
SCALARS w double 1
LOOKUP_TABLE default
   0.0000000000000000E+00
   0.0000000000000000E+00
   0.0000000000000000E+00
   0.0000000000000000E+00
   0.0000000000000000E+00
   0.0000000000000000E+00
   0.0000000000000000E+00
   0.0000000000000000E+00
   0.0000000000000000E+00
   0.0000000000000000E+00
   0.0000000000000000E+00
   0.0000000000000000E+00
   0.0000000000000000E+00
   0.0000000000000000E+00
   0.0000000000000000E+00
   0.0000000000000000E+00
   0.0000000000000000E+00
   0.0000000000000000E+00
   0.0000000000000000E+00
   0.0000000000000000E+00
   0.0000000000000000E+00
   0.0000000000000000E+00
   0.0000000000000000E+00
   0.0000000000000000E+00
   0.0000000000000000E+00
   0.0000000000000000E+00
   0.0000000000000000E+00
   0.0000000000000000E+00
   0.0000000000000000E+00
   0.0000000000000000E+00
   0.0000000000000000E+00
   0.0000000000000000E+00
   0.0000000000000000E+00
  -0.1144975451614700E+00
  -0.5030761734995821E-01
  -0.2192909279194283E-02
   0.5089386392595629E-02
  -0.6917866645964442E-03
  -0.6003808707998755E-03
   0.5817874860342278E-03
   0.1149204617908116E-02
   0.2335064830614151E-03
   0.3430510865896347E-02
   0.3874613010080273E-01
   0.5321491022928125E-01
  -0.1473829427035048E-02
  -0.2786380782387618E-01
   0.2114557182937448E-02
   0.1071746821611864E-01
   0.8121938327974993E-02
   0.4420194979215798E-01
  -0.3684171324190424E-03
  -0.1057521799302705E-01
  -0.3659677960449855E-02
  -0.2078616464958690E-02
   0.5026608152972259E-03
  -0.4609594147688594E-01
   0.1604944469672221E-01
   0.1236647010590374E-01
   0.2998352689028940E-01
   0.5092695914658426E-02
   0.4334692885513545E-02
   0.4379604519837173E-02
   0.3993560772035905E-02
   0.5439383789477918E-02
  -0.2606456770603293E-03
  -0.4852190661686356E-01
  -0.1125343596102258E+00
  -0.1281342176643023E+00
   0.2718470848715641E-02
   0.1946434766503395E-02
  -0.1153299900490450E+00
  -0.1133410911683950E+00
  -0.1137208719002150E+00
  -0.1074826965009032E+00
  -0.7766769935905538E-01
   0.2988783822436430E-02
  -0.2459653145652754E-01
  -0.2053690404139292E-01
  -0.9963889866107134E-02
   0.5237955406342917E-02
  -0.9138920455173569E-01
  -0.3410129587027988E-01
  -0.9191487288482432E-01
  -0.6787035062340625E-01
   0.1816194994792371E-02
   0.1561602771300993E-02
   0.1425838685121779E-02
   0.2114538773173478E-02
   0.1365276833378432E-02
  -0.1246142980261292E-02
  -0.1484790628473731E-02
   0.1125069065527622E-02
   0.2221271756346867E-02
   0.1197350272896300E-02
  -0.7717401253377793E-04
   0.1826054973580402E-03
   0.8242365009007682E-03
  -0.1578025988114280E-02
  -0.1947502601400047E-02
   0.1967964386473529E-02
  -0.4240314941611685E-04
  -0.4343079032139164E-03
   0.2232605741973557E-02
  -0.1069028622360632E-02
  -0.1979181560961208E-03
  -0.4900813978126968E-03
  -0.1811372832275881E-02
   0.6874631473808192E-01
   0.2311554011651383E-02
  -0.1097204537914938E-02
  -0.8082496758597875E-03
   0.1154872789773522E+00
   0.1041618803946356E+00
  -0.1760367824061892E-02
  -0.4417406070299348E-02
  -0.7678068196234781E-03
  -0.7114754572148094E-02
  -0.2685190574484844E-02
   0.1267472868876237E+00
   0.6334450955809756E-01
   0.2227099907005717E-01
   0.1349682382301206E+00