title="tecplot geometry and solution file"
variables = x y z rho u v w p mach temperature
zone t="boundary 1 bc-1", solutiontime= 0.6000000E+02, strandid=1001, i=32, j=46, f=feblock
  0.000000000000E+00  0.000000000000E+00  0.000000000000E+00  0.000000000000E+00  0.000000000000E+00  0.000000000000E+00  0.000000000000E+00
  0.000000000000E+00  0.000000000000E+00  0.000000000000E+00  0.000000000000E+00  0.000000000000E+00  0.000000000000E+00  0.000000000000E+00
  0.000000000000E+00  0.000000000000E+00  0.000000000000E+00  0.000000000000E+00  0.000000000000E+00  0.000000000000E+00  0.000000000000E+00
  0.000000000000E+00  0.000000000000E+00  0.000000000000E+00  0.000000000000E+00  0.000000000000E+00  0.000000000000E+00  0.000000000000E+00
  0.000000000000E+00  0.000000000000E+00  0.000000000000E+00  0.000000000000E+00
  0.250000000000E+01  0.250000000000E+01  0.125000000000E+01  0.146289271009E+01  0.157686156160E+01  0.308372018325E+00  0.000000000000E+00
 -0.125000000000E+01 -0.600232012419E+00  0.250000000000E+01  0.477386199275E+00  0.742988685424E+00 -0.739814786992E+00  0.177790177481E+01
  0.155830813274E+01  0.250000000000E+01 -0.250000000000E+01 -0.154800130438E+01 -0.487811078581E+00  0.250000000000E+01  0.627766083140E+00
 -0.345533899378E+00 -0.178862290564E+01 -0.158811787973E+01  0.125000000000E+01 -0.250000000000E+01 -0.144524380962E+01  0.000000000000E+00
 -0.125000000000E+01 -0.250000000000E+01 -0.250000000000E+01 -0.250000000000E+01
  0.000000000000E+00  0.125000000000E+01  0.000000000000E+00  0.103724302461E+01  0.219251206392E+01  0.922061490191E+00  0.000000000000E+00
  0.000000000000E+00  0.715990576545E+00  0.250000000000E+01  0.202479342020E+01  0.324151231464E+01  0.175434191980E+01  0.310152362409E+01
  0.404200324774E+01  0.375000000000E+01  0.000000000000E+00  0.930412228790E+00  0.299062775774E+01  0.500000000000E+01  0.429310310915E+01
  0.409252726285E+01  0.187029682677E+01  0.284428995242E+01  0.500000000000E+01  0.125000000000E+01  0.394624082883E+01  0.500000000000E+01
  0.500000000000E+01  0.250000000000E+01  0.375000000000E+01  0.500000000000E+01
  0.134427144725E+01  0.106355395585E+01  0.142583204263E+01  0.108608796972E+01  0.103229115296E+01  0.120095364089E+01  0.164466726900E+01
  0.149409063935E+01  0.123520366778E+01  0.102389313772E+01  0.102809523641E+01  0.101301828676E+01  0.103252946660E+01  0.101471891588E+01
  0.100663883738E+01  0.100830818986E+01  0.144945744576E+01  0.116393552179E+01  0.101462863961E+01  0.100426040818E+01  0.100679807405E+01
  0.100724553320E+01  0.104668119122E+01  0.101938460927E+01  0.100424800564E+01  0.106442280095E+01  0.100789341916E+01  0.100288843763E+01
  0.100334542039E+01  0.102847362115E+01  0.100958665721E+01  0.100399273181E+01
  0.000000000000E+00  0.445481415630E+00  0.000000000000E+00  0.468737856703E+00  0.462182264804E+00  0.443613739822E+00  0.000000000000E+00
  0.000000000000E+00  0.379272523765E+00  0.471738849625E+00  0.466574953662E+00  0.479355157875E+00  0.490159653089E+00  0.484514724290E+00
  0.488524784506E+00  0.489830188535E+00  0.000000000000E+00  0.450653304691E+00  0.474814030159E+00  0.495784888120E+00  0.490899471714E+00
  0.486835368474E+00  0.448668669330E+00  0.465807174955E+00  0.496536481945E+00  0.444686658120E+00  0.487701045809E+00  0.497534090466E+00
  0.496384264529E+00  0.470002878261E+00  0.489199905776E+00  0.495522026835E+00
  0.000000000000E+00  0.000000000000E+00  0.000000000000E+00  0.186085473102E-01 -0.276688491390E-02  0.332952481856E-01  0.000000000000E+00
  0.000000000000E+00 -0.594701624169E-02  0.000000000000E+00  0.356648466030E-02 -0.566638316476E-02 -0.416060181641E-02  0.305514065320E-04
 -0.106175910456E-02  0.000000000000E+00  0.000000000000E+00 -0.764112888008E-02  0.359618948416E-03  0.000000000000E+00 -0.203512295933E-02
 -0.138312914178E-02  0.156561484943E-02 -0.158521018403E-02 -0.638374232849E-04  0.000000000000E+00 -0.283455320920E-04 -0.196339458624E-03
  0.807126795556E-03  0.000000000000E+00  0.000000000000E+00  0.000000000000E+00
  0.000000000000E+00  0.452181757268E-01  0.000000000000E+00  0.123933295254E+00  0.247647171440E-01  0.165644511185E+00  0.000000000000E+00
  0.000000000000E+00  0.155763096689E+00  0.351822588049E-02  0.259783172784E-01 -0.651224680392E-02  0.748997916155E-01  0.371839288862E-02
 -0.149294553623E-03  0.459062472024E-03  0.000000000000E+00  0.140954083969E+00 -0.808565309215E-02  0.237177362652E-02 -0.304305783491E-03
 -0.438193606685E-02  0.255017491052E-01 -0.194957032138E-02  0.308362566173E-02  0.837461430600E-01 -0.121909330661E-02  0.268514645072E-02
  0.264043116374E-02  0.279387073193E-02 -0.834662814183E-03  0.345019189821E-02
  0.960184572992E+00  0.782340562065E+00  0.101844204867E+01  0.808726657919E+00  0.746125892014E+00  0.879446498827E+00  0.117475225379E+01
  0.106719924288E+01  0.916620146478E+00  0.737395238779E+00  0.743553972607E+00  0.725759211307E+00  0.757455250743E+00  0.729188343601E+00
  0.720785048187E+00  0.722781670846E+00  0.103531921349E+01  0.858317140823E+00  0.728065073262E+00  0.718615293847E+00  0.721013448718E+00
  0.721151587067E+00  0.760018786207E+00  0.732628403400E+00  0.718531161596E+00  0.791043235502E+00  0.722107949746E+00  0.717199383023E+00
  0.717636870825E+00  0.741799737309E+00  0.724056580027E+00  0.718400634591E+00
  0.000000000000E+00  0.441238348672E+00  0.000000000000E+00  0.475214987063E+00  0.460123709187E+00  0.468827815738E+00  0.000000000000E+00
  0.000000000000E+00  0.402302517455E+00  0.469814974659E+00  0.464411129226E+00  0.478714034442E+00  0.489298241735E+00  0.483068558109E+00
  0.487930073291E+00  0.488961654800E+00  0.000000000000E+00  0.464775721576E+00  0.473795652179E+00  0.495346592121E+00  0.490266103589E+00
  0.486286084078E+00  0.445717618440E+00  0.464382274960E+00  0.496127395012E+00  0.443624103982E+00  0.486964462128E+00  0.497246279855E+00
  0.496059270993E+00  0.467732355682E+00  0.488212087532E+00  0.495098264921E+00
  0.999990295817E+00  0.102982719482E+01  0.999990760134E+00  0.104247294202E+01  0.101190080514E+01  0.102520618319E+01  0.999991418514E+00
  0.999992169604E+00  0.103891223653E+01  0.100826277300E+01  0.101252833861E+01  0.100300548284E+01  0.102702865666E+01  0.100605563281E+01
  0.100244400473E+01  0.100355660041E+01  0.999992723571E+00  0.103239739200E+01  0.100459524083E+01  0.100179336275E+01  0.100260305837E+01
  0.100234966412E+01  0.101657153068E+01  0.100617544687E+01  0.100168844805E+01  0.104043292639E+01  0.100303376371E+01  0.100118726924E+01
  0.100134171018E+01  0.100976788406E+01  0.100405369345E+01  0.100176112491E+01
        12        19        11        11
        11         5        12        12
        10        14         5         5
        19        13        11        11
        19        24        13        13
        30        23        24        24
        19        12        22        22
        28        22        21        21
        11        13         6         6
         7         6         9         9
        15        12        14        14
        18        13        23        23
        15        25        21        21
        27        19        22        22
        18         8         9         9
        27        31        24        24
         4        11         6         6
         5        14        12        12
         4         2         5         5
        21        12        15        15
        14        16        15        15
        24        19        27        27
        22        29        27        27
        23        26        18        18
        17         8        18        18
         5        11         4         4
         6         3         4         4
        26        23        30        30
         5         2        10        10
        16        14        10        10
         3         6         7         7
        21        25        28        28
        29        22        28        28
         6        13         9         9
         2         4         1         1
        31        27        32        32
        25        15        20        20
        24        23        13        13
         8         7         9         9
        13        18         9         9
        31        30        24        24
        12        21        22        22
        29        32        27        27
         3         1         4         4
        26        17        18        18
        16        20        15        15
zone t="boundary 2 bc-2", solutiontime= 0.6000000E+02, strandid=1002, i=33, j=48, f=feblock
  0.500000000000E+01  0.375000000000E+01  0.250000000000E+01  0.288078410721E+01  0.125000000000E+01  0.190974100652E+01  0.326683758169E+01
  0.201431602454E+01  0.000000000000E+00  0.963108083381E+00  0.500000000000E+01  0.403552511878E+01  0.423153924130E+01  0.500000000000E+01
  0.385533350601E+01  0.500000000000E+01  0.398173246726E+01  0.315249557942E+01  0.267000324704E+01  0.154774304040E+01  0.218329375016E+01
  0.893127759452E+00  0.000000000000E+00  0.698517061619E+00  0.964171764089E+00  0.310324758057E+01  0.000000000000E+00  0.000000000000E+00
  0.125000000000E+01  0.500000000000E+01  0.375000000000E+01  0.250000000000E+01  0.000000000000E+00
 -0.250000000000E+01 -0.250000000000E+01 -0.250000000000E+01 -0.250000000000E+01 -0.250000000000E+01 -0.250000000000E+01 -0.250000000000E+01
 -0.250000000000E+01 -0.250000000000E+01 -0.250000000000E+01 -0.250000000000E+01 -0.250000000000E+01 -0.250000000000E+01 -0.250000000000E+01
 -0.250000000000E+01 -0.250000000000E+01 -0.250000000000E+01 -0.250000000000E+01 -0.250000000000E+01 -0.250000000000E+01 -0.250000000000E+01
 -0.250000000000E+01 -0.250000000000E+01 -0.250000000000E+01 -0.250000000000E+01 -0.250000000000E+01 -0.250000000000E+01 -0.250000000000E+01
 -0.250000000000E+01 -0.250000000000E+01 -0.250000000000E+01 -0.250000000000E+01 -0.250000000000E+01
  0.000000000000E+00  0.000000000000E+00  0.000000000000E+00  0.904659890645E+00  0.000000000000E+00  0.717002441913E+00  0.188609243358E+01
  0.176246431481E+01  0.000000000000E+00  0.961328577125E+00  0.125000000000E+01  0.101201586758E+01  0.191586535653E+01  0.250000000000E+01
  0.293121848150E+01  0.375000000000E+01  0.406975391361E+01  0.363585050272E+01  0.285047954584E+01  0.292817774674E+01  0.395907379566E+01
  0.205246550326E+01  0.125000000000E+01  0.306828197606E+01  0.397245519226E+01  0.433168271247E+01  0.250000000000E+01  0.375000000000E+01
  0.500000000000E+01  0.500000000000E+01  0.500000000000E+01  0.500000000000E+01  0.500000000000E+01
  0.830787399627E+00  0.935297253563E+00  0.934221980129E+00  0.968087712061E+00  0.961719526608E+00  0.964848331103E+00  0.984136201028E+00
  0.991412446994E+00  0.144945744576E+01  0.102921689257E+01  0.955878695515E+00  0.960692918871E+00  0.981487961398E+00  0.100642910907E+01
  0.997912123400E+00  0.100977863891E+01  0.100199481633E+01  0.998063237215E+00  0.991085838814E+00  0.100132719327E+01  0.100094600684E+01
  0.101224609878E+01  0.106442280095E+01  0.101082190523E+01  0.100685258270E+01  0.100118414330E+01  0.102847362115E+01  0.100958665721E+01
  0.100510171608E+01  0.100179475831E+01  0.100266315989E+01  0.100321164507E+01  0.100399273181E+01
  0.000000000000E+00  0.000000000000E+00  0.000000000000E+00  0.378986941274E+00  0.000000000000E+00  0.340639444251E+00  0.582179008685E+00
  0.575195820592E+00  0.000000000000E+00  0.489449421343E+00  0.494741336168E+00  0.431507387642E+00  0.568961825310E+00  0.536179830411E+00
  0.568879739462E+00  0.516235684989E+00  0.508555697362E+00  0.527399281786E+00  0.566648549273E+00  0.531828923408E+00  0.506096460013E+00
  0.520701999369E+00  0.444686658120E+00  0.491339919731E+00  0.492734936221E+00  0.501504484219E+00  0.470002878261E+00  0.489199905776E+00
  0.490458183242E+00  0.491426954412E+00  0.486218276541E+00  0.490304438676E+00  0.495522026835E+00
  0.000000000000E+00  0.000000000000E+00  0.000000000000E+00  0.000000000000E+00  0.000000000000E+00  0.000000000000E+00  0.000000000000E+00
  0.000000000000E+00  0.000000000000E+00  0.000000000000E+00  0.000000000000E+00  0.000000000000E+00  0.000000000000E+00  0.000000000000E+00
  0.000000000000E+00  0.000000000000E+00  0.000000000000E+00  0.000000000000E+00  0.000000000000E+00  0.000000000000E+00  0.000000000000E+00
  0.000000000000E+00  0.000000000000E+00  0.000000000000E+00  0.000000000000E+00  0.000000000000E+00  0.000000000000E+00  0.000000000000E+00
  0.000000000000E+00  0.000000000000E+00  0.000000000000E+00  0.000000000000E+00  0.000000000000E+00
  0.000000000000E+00  0.000000000000E+00  0.000000000000E+00 -0.229669076305E-02  0.000000000000E+00  0.183565245817E-01  0.121122185599E-01
  0.454986542022E-01  0.000000000000E+00  0.870789628885E-01 -0.995426191601E-01 -0.211864969784E-01 -0.306441473317E-01 -0.414442961334E-01
 -0.137883072489E-02  0.259919173721E-02  0.609478530619E-03  0.503572833509E-03  0.150967300897E-01  0.284025717851E-01  0.564163857975E-02
  0.553419831055E-01  0.837461430600E-01  0.110441020519E-01  0.679169180116E-02 -0.758115945466E-03  0.279387073193E-02 -0.834662814183E-03
  0.400708374943E-02  0.602719172203E-02 -0.143884672699E-03  0.120121426517E-02  0.345019189821E-02
  0.593415708400E+00  0.668065253149E+00  0.667297107207E+00  0.684257572335E+00  0.686937806205E+00  0.679201335808E+00  0.695811645327E+00
  0.702343853087E+00  0.103531921349E+01  0.723694676211E+00  0.672591690440E+00  0.675702734186E+00  0.694093188758E+00  0.720959962459E+00
  0.712691281782E+00  0.724770829798E+00  0.716580562904E+00  0.713298991987E+00  0.706429557511E+00  0.717737238864E+00  0.715376602397E+00
  0.730937674833E+00  0.791043235502E+00  0.724372849801E+00  0.721010721288E+00  0.715457540671E+00  0.741799737309E+00  0.724056580027E+00
  0.719312937994E+00  0.715892799162E+00  0.716608904954E+00  0.717367939402E+00  0.718400634591E+00
  0.000000000000E+00  0.000000000000E+00  0.000000000000E+00  0.380991906661E+00  0.000000000000E+00  0.343629824802E+00  0.585286157528E+00
  0.579373264131E+00  0.000000000000E+00  0.501056068628E+00  0.508460363327E+00  0.435373027233E+00  0.572640041407E+00  0.537002098810E+00
  0.568922553812E+00  0.514994090501E+00  0.508247257191E+00  0.527252853145E+00  0.567446661078E+00  0.531657143935E+00  0.505981016695E+00
  0.520795579474E+00  0.443624103982E+00  0.490663730621E+00  0.492155873902E+00  0.501390784790E+00  0.467732355682E+00  0.488212087532E+00
  0.490002767293E+00  0.491352304721E+00  0.486075475378E+00  0.490036479446E+00  0.495098264921E+00
  0.999993490674E+00  0.999993692749E+00  0.999993545390E+00  0.989539056569E+00  0.999993139454E+00  0.985524708369E+00  0.989838908924E+00
  0.991798516654E+00  0.999992723571E+00  0.984411112968E+00  0.985091906571E+00  0.984689081472E+00  0.990058464780E+00  0.100289621827E+01
  0.999855369123E+00  0.100485306642E+01  0.100121554694E+01  0.100055642924E+01  0.997896793379E+00  0.100350029557E+01  0.100058068718E+01
  0.101093276230E+01  0.104043292639E+01  0.100326475363E+01  0.100254498737E+01  0.100045587382E+01  0.100976788406E+01  0.100405369345E+01
  0.100192656830E+01  0.100045434507E+01  0.100058774179E+01  0.100109993748E+01  0.100176112491E+01
        15         7        19        19
         8        20        19        19
        18        19        21        21
         7         4         8         8
         3         6         4         4
        19         7         8         8
        19        18        15        15
        14        13        15        15
         8        22        20        20
        27        24        22        22
        19        20        21        21
        32        26        21        21
        17        18        26        26
        17        16        15        15
        25        29        21        21
        12         7        13        13
        10         8         6         6
        25        20        24        24
         4         6         8         8
        12         2         4         4
        10        23        22        22
        26        31        17        17
        30        16        17        17
         4         7        12        12
        13        11        12        12
        21        20        25        25
        24        28        25        25
        22         8        10        10
         6         5        10        10
        31        26        32        32
         4         2         3         3
         5         6         3         3
        11        13        14        14
        22        23        27        27
        28        24        27        27
        15        13         7         7
         2        12         1         1
        29        25        33        33
        23        10         9         9
        21        26        18        18
        16        14        15        15
        18        17        15        15
        29        32        21        21
        22        24        20        20
        28        33        25        25
        11         1        12        12
        31        30        17        17
         5         9        10        10
zone t="boundary 3 bc-3", solutiontime= 0.6000000E+02, strandid=1003, i=33, j=48, f=feblock
  0.375000000000E+01  0.250000000000E+01  0.500000000000E+01  0.403552511878E+01  0.288078410721E+01  0.125000000000E+01  0.190974100652E+01
  0.500000000000E+01  0.326683758169E+01  0.423153924130E+01  0.201431602454E+01  0.000000000000E+00  0.963108083381E+00  0.500000000000E+01
  0.267000324704E+01  0.385533350601E+01  0.893127759452E+00  0.154774304040E+01  0.000000000000E+00  0.500000000000E+01  0.315249557942E+01
  0.218329375016E+01  0.398173246726E+01  0.000000000000E+00  0.698517061619E+00  0.964171764089E+00  0.125000000000E+01  0.000000000000E+00
  0.500000000000E+01  0.310324758057E+01  0.250000000000E+01  0.375000000000E+01  0.000000000000E+00
  0.250000000000E+01  0.250000000000E+01  0.250000000000E+01  0.250000000000E+01  0.250000000000E+01  0.250000000000E+01  0.250000000000E+01
  0.250000000000E+01  0.250000000000E+01  0.250000000000E+01  0.250000000000E+01  0.250000000000E+01  0.250000000000E+01  0.250000000000E+01
  0.250000000000E+01  0.250000000000E+01  0.250000000000E+01  0.250000000000E+01  0.250000000000E+01  0.250000000000E+01  0.250000000000E+01
  0.250000000000E+01  0.250000000000E+01  0.250000000000E+01  0.250000000000E+01  0.250000000000E+01  0.250000000000E+01  0.250000000000E+01
  0.250000000000E+01  0.250000000000E+01  0.250000000000E+01  0.250000000000E+01  0.250000000000E+01
  0.000000000000E+00  0.000000000000E+00  0.000000000000E+00  0.101201586758E+01  0.904659890645E+00  0.000000000000E+00  0.717002441913E+00
  0.125000000000E+01  0.188609243358E+01  0.191586535653E+01  0.176246431481E+01  0.000000000000E+00  0.961328577125E+00  0.250000000000E+01
  0.285047954584E+01  0.293121848150E+01  0.205246550326E+01  0.292817774674E+01  0.125000000000E+01  0.375000000000E+01  0.363585050272E+01
  0.395907379566E+01  0.406975391361E+01  0.250000000000E+01  0.306828197606E+01  0.397245519226E+01  0.500000000000E+01  0.375000000000E+01
  0.500000000000E+01  0.433168271247E+01  0.500000000000E+01  0.500000000000E+01  0.500000000000E+01
  0.941861268950E+00  0.946296418074E+00  0.843730486669E+00  0.964330993593E+00  0.978820740526E+00  0.956975890484E+00  0.983331402999E+00
  0.963500307708E+00  0.982689307124E+00  0.984243964030E+00  0.990263816021E+00  0.134427144725E+01  0.101918251293E+01  0.100829903943E+01
  0.993456155276E+00  0.997998684776E+00  0.100807808353E+01  0.100072116320E+01  0.106355395585E+01  0.100673529182E+01  0.100058356088E+01
  0.100234980701E+01  0.100178076636E+01  0.102389313772E+01  0.100874208367E+01  0.100528370888E+01  0.100522860284E+01  0.100830818986E+01
  0.100196461760E+01  0.100162012356E+01  0.100413205387E+01  0.100321958146E+01  0.100426040818E+01
  0.000000000000E+00  0.000000000000E+00  0.000000000000E+00  0.439071270565E+00  0.399865812635E+00  0.000000000000E+00  0.373794144879E+00
  0.495017683728E+00  0.573056190145E+00  0.569605109746E+00  0.559932658633E+00  0.000000000000E+00  0.483390704685E+00  0.533822129979E+00
  0.556458763017E+00  0.564688360832E+00  0.522615496434E+00  0.522533036288E+00  0.445481415630E+00  0.518326924604E+00  0.524750915661E+00
  0.503888174384E+00  0.509839746174E+00  0.471738849625E+00  0.496245454703E+00  0.494940396598E+00  0.489076358495E+00  0.489830188535E+00
  0.493064988029E+00  0.499146612012E+00  0.486766642578E+00  0.484757872121E+00  0.495784888120E+00
  0.000000000000E+00  0.000000000000E+00  0.000000000000E+00  0.000000000000E+00  0.000000000000E+00  0.000000000000E+00  0.000000000000E+00
  0.000000000000E+00  0.000000000000E+00  0.000000000000E+00  0.000000000000E+00  0.000000000000E+00  0.000000000000E+00  0.000000000000E+00
  0.000000000000E+00  0.000000000000E+00  0.000000000000E+00  0.000000000000E+00  0.000000000000E+00  0.000000000000E+00  0.000000000000E+00
  0.000000000000E+00  0.000000000000E+00  0.000000000000E+00  0.000000000000E+00  0.000000000000E+00  0.000000000000E+00  0.000000000000E+00
  0.000000000000E+00  0.000000000000E+00  0.000000000000E+00  0.000000000000E+00  0.000000000000E+00
  0.000000000000E+00  0.000000000000E+00  0.000000000000E+00 -0.226115184997E-01  0.111963818304E-01  0.000000000000E+00  0.179816810082E-01
 -0.100761229248E+00  0.390410730514E-02 -0.389325431958E-01  0.340377324854E-01  0.000000000000E+00  0.652293780027E-01 -0.424929714744E-01
  0.843881016957E-02 -0.650994115290E-02  0.490054840049E-01  0.135873483127E-01  0.452181757268E-01  0.737198531577E-03 -0.701222787601E-03
  0.243744348032E-02  0.868929670408E-03  0.351822588049E-02  0.103945254685E-01  0.431655349662E-02  0.337507299282E-02  0.459062472024E-03
  0.572579985045E-02  0.341101609384E-03  0.160978307234E-02  0.569905731624E-03  0.237177362652E-02
  0.672750879152E+00  0.675918855492E+00  0.602658383145E+00  0.676093765198E+00  0.691308921321E+00  0.683547254662E+00  0.690066482517E+00
  0.677274860442E+00  0.695201827751E+00  0.696250865851E+00  0.703344068538E+00  0.960184572992E+00  0.719726358847E+00  0.722866646171E+00
  0.709447759007E+00  0.713700946623E+00  0.726067413801E+00  0.716602922622E+00  0.782340562065E+00  0.722284532304E+00  0.716128636840E+00
  0.716551643661E+00  0.716546536166E+00  0.737395238779E+00  0.722682910808E+00  0.719441264061E+00  0.719566095267E+00  0.722781670846E+00
  0.716030181682E+00  0.715847822070E+00  0.718146783146E+00  0.717062470291E+00  0.718615293847E+00
  0.000000000000E+00  0.000000000000E+00  0.000000000000E+00  0.443767746096E+00  0.402286944707E+00  0.000000000000E+00  0.377550369337E+00
  0.509232128940E+00  0.575832179790E+00  0.573707405424E+00  0.562554064316E+00  0.000000000000E+00  0.490563299546E+00  0.534527096498E+00
  0.556586982155E+00  0.564391577710E+00  0.522730517480E+00  0.522052000231E+00  0.441238348672E+00  0.517182331633E+00  0.524228630758E+00
  0.503687457626E+00  0.509488571092E+00  0.469814974659E+00  0.495614442563E+00  0.494483780351E+00  0.488562428519E+00  0.488961654800E+00
  0.492980744799E+00  0.499005552293E+00  0.486460936731E+00  0.484596927743E+00  0.495346592121E+00
  0.999989342234E+00  0.999989410945E+00  0.999989629075E+00  0.981541895434E+00  0.988773990761E+00  0.999989828420E+00  0.982469463070E+00
  0.984104309084E+00  0.990427545914E+00  0.990355285696E+00  0.994362997035E+00  0.999990295817E+00  0.988652071250E+00  0.100368369409E+01
  0.999769196994E+00  0.100118501208E+01  0.100834885306E+01  0.100252111033E+01  0.102982719482E+01  0.100443319454E+01  0.100199536627E+01
  0.100082056594E+01  0.100138192339E+01  0.100826277300E+01  0.100298787124E+01  0.100192389550E+01  0.100215267505E+01  0.100355660041E+01
  0.100047670022E+01  0.100056591049E+01  0.100126820226E+01  0.100066573357E+01  0.100179336275E+01
        15         9        16        16
        15        18        11        11
        22        15        21        21
        11         5         9         9
         5         7         2         2
        11         9        15        15
        16        21        15        15
        16        10        14        14
        18        17        11        11
        17        25        24        24
        22        18        15        15
        22        30        31        31
        30        21        23        23
        16        20        23        23
        22        27        26        26
        10         9         4         4
         7        11        13        13
        25        18        26        26
        11         7         5         5
         5         1         4         4
        17        19        13        13
        23        32        30        30
        23        20        29        29
         4         9         5         5
         4         8        10        10
        26        18        22        22
        26        28        25        25
        13        11        17        17
        13         6         7         7
        31        30        32        32
         2         1         5         5
         2         7         6         6
        14        10         8         8
        24        19        17        17
        24        25        28        28
         9        10        16        16
         3         4         1         1
        33        26        27        27
        12        13        19        19
        21        30        22        22
        16        14        20        20
        16        23        21        21
        22        31        27        27
        18        25        17        17
        26        33        28        28
         4         3         8         8
        23        29        32        32
        13        12         6         6
zone t="boundary 4 bc-4", solutiontime= 0.6000000E+02, strandid=1004, i=32, j=46, f=feblock
  0.125000000000E+01  0.219251206392E+01  0.103724302461E+01  0.500000000000E+01  0.250000000000E+01  0.375000000000E+01  0.404200324774E+01
  0.500000000000E+01  0.000000000000E+00  0.310152362409E+01  0.202479342020E+01  0.324151231464E+01  0.922061490191E+00  0.000000000000E+00
  0.299062775774E+01  0.394624082883E+01  0.500000000000E+01  0.409252726285E+01  0.500000000000E+01  0.429310310915E+01  0.175434191980E+01
  0.284428995242E+01  0.000000000000E+00  0.000000000000E+00  0.715990576545E+00  0.930412228790E+00  0.125000000000E+01  0.187029682677E+01
  0.500000000000E+01  0.375000000000E+01  0.250000000000E+01  0.000000000000E+00
  0.250000000000E+01  0.157686156160E+01  0.146289271009E+01  0.250000000000E+01  0.250000000000E+01  0.250000000000E+01  0.155830813274E+01
  0.125000000000E+01  0.250000000000E+01  0.177790177481E+01  0.477386199275E+00  0.742988685424E+00  0.308372018325E+00  0.125000000000E+01
 -0.487811078581E+00 -0.144524380962E+01 -0.125000000000E+01 -0.345533899378E+00  0.000000000000E+00  0.627766083140E+00 -0.739814786992E+00
 -0.158811787973E+01  0.000000000000E+00 -0.125000000000E+01 -0.600232012419E+00 -0.154800130438E+01 -0.250000000000E+01 -0.178862290564E+01
 -0.250000000000E+01 -0.250000000000E+01 -0.250000000000E+01 -0.250000000000E+01
  0.500000000000E+01  0.500000000000E+01  0.500000000000E+01  0.500000000000E+01  0.500000000000E+01  0.500000000000E+01  0.500000000000E+01
  0.500000000000E+01  0.500000000000E+01  0.500000000000E+01  0.500000000000E+01  0.500000000000E+01  0.500000000000E+01  0.500000000000E+01
  0.500000000000E+01  0.500000000000E+01  0.500000000000E+01  0.500000000000E+01  0.500000000000E+01  0.500000000000E+01  0.500000000000E+01
  0.500000000000E+01  0.500000000000E+01  0.500000000000E+01  0.500000000000E+01  0.500000000000E+01  0.500000000000E+01  0.500000000000E+01
  0.500000000000E+01  0.500000000000E+01  0.500000000000E+01  0.500000000000E+01
  0.100522860284E+01  0.100432972635E+01  0.100432034596E+01  0.100196461760E+01  0.100413205387E+01  0.100321958146E+01  0.100258623141E+01
  0.100201175168E+01  0.100426040818E+01  0.100372310386E+01  0.100446502179E+01  0.100346952075E+01  0.100365984934E+01  0.100424800564E+01
  0.100362337525E+01  0.100164192030E+01  0.100227632649E+01  0.100227311595E+01  0.100213446568E+01  0.100254347560E+01  0.100442386337E+01
  0.100337264019E+01  0.100288843763E+01  0.100334542039E+01  0.100323222998E+01  0.100406087088E+01  0.100510171608E+01  0.100431307076E+01
  0.100179475831E+01  0.100266315989E+01  0.100321164507E+01  0.100399273181E+01
  0.489076358495E+00  0.489238598563E+00  0.490983331373E+00  0.493064988029E+00  0.486766642578E+00  0.484757872121E+00  0.485404956316E+00
  0.494262733326E+00  0.495784888120E+00  0.486800248260E+00  0.488139337161E+00  0.487244593361E+00  0.494423292681E+00  0.496536481945E+00
  0.487845783070E+00  0.483219469782E+00  0.492573587426E+00  0.487262277901E+00  0.494865946653E+00  0.488012491174E+00  0.490096716940E+00
  0.488269667088E+00  0.497534090466E+00  0.496384264529E+00  0.495259755760E+00  0.493216438921E+00  0.490458183242E+00  0.490400009215E+00
  0.491426954412E+00  0.486218276541E+00  0.490304438676E+00  0.495522026835E+00
  0.000000000000E+00 -0.893974738261E-04 -0.129755093821E-02  0.000000000000E+00  0.000000000000E+00  0.000000000000E+00  0.425702045644E-03
  0.797025486797E-03  0.000000000000E+00  0.274712864636E-03 -0.942431009798E-03 -0.820006413699E-03 -0.174523850185E-02 -0.638374232849E-04
 -0.110022750329E-02 -0.102277493733E-02 -0.133259272474E-02 -0.213434236331E-02 -0.132929464816E-02 -0.106401261750E-02 -0.624409175504E-03
 -0.761703279803E-03 -0.196339458624E-03  0.807126795556E-03  0.520225891309E-04  0.161630462975E-02  0.000000000000E+00  0.791646919142E-03
  0.000000000000E+00  0.000000000000E+00  0.000000000000E+00  0.000000000000E+00