# vtk DataFile Version 2.0
FUN3D:global_image_vtk
ASCII
DATASET UNSTRUCTURED_GRID
POINTS 213 double
    0.0000000000000000E+00    0.2500000000000000E+01    0.0000000000000000E+00
    0.1250000000000000E+01    0.2500000000000000E+01    0.0000000000000000E+00
    0.2500000000000000E+01    0.2500000000000000E+01    0.0000000000000000E+00
    0.3750000000000000E+01    0.2500000000000000E+01    0.0000000000000000E+00
    0.5000000000000000E+01    0.2500000000000000E+01    0.0000000000000000E+00
    0.5000000000000000E+01    0.1250000000000000E+01    0.0000000000000000E+00
    0.5000000000000000E+01    0.0000000000000000E+00    0.0000000000000000E+00
    0.5000000000000000E+01   -0.1250000000000000E+01    0.0000000000000000E+00
    0.5000000000000000E+01   -0.2500000000000000E+01    0.0000000000000000E+00
    0.3750000000000000E+01   -0.2500000000000000E+01    0.0000000000000000E+00
    0.2500000000000000E+01   -0.2500000000000000E+01    0.0000000000000000E+00
    0.1250000000000000E+01   -0.2500000000000000E+01    0.0000000000000000E+00
    0.0000000000000000E+00   -0.2500000000000000E+01    0.0000000000000000E+00
    0.0000000000000000E+00   -0.1250000000000000E+01    0.0000000000000000E+00
    0.0000000000000000E+00    0.0000000000000000E+00    0.0000000000000000E+00
    0.0000000000000000E+00    0.1250000000000000E+01    0.0000000000000000E+00
    0.9058375365086910E+00    0.1578994732800803E+01    0.0000000000000000E+00
    0.3982050490726493E+01   -0.1583989954232354E+01    0.0000000000000000E+00
    0.4033849428301197E+01    0.1453322699199022E+01    0.0000000000000000E+00
    0.1040505887381675E+01   -0.1479596339503735E+01    0.0000000000000000E+00
    0.1099454400140349E+01   -0.3227322616384110E+00    0.0000000000000000E+00
    0.7354504170366591E+00    0.6593508822075582E+00    0.0000000000000000E+00
    0.1622302608453282E+01    0.8256214013940779E+00    0.0000000000000000E+00
    0.2145871574390382E+01   -0.1650070333782557E+01    0.0000000000000000E+00
    0.4086422318222992E+01   -0.4612828702537229E+00    0.0000000000000000E+00
    0.2979540174134984E+01   -0.8579242121530853E+00    0.0000000000000000E+00
    0.3045064261640043E+01   -0.1836846154397680E+01    0.0000000000000000E+00
    0.3428197553792836E+01    0.3508002863614053E+00    0.0000000000000000E+00
    0.4309693860063405E+01    0.5185680230613409E+00    0.0000000000000000E+00
    0.1827272193562204E+01    0.1738996113203182E+01    0.0000000000000000E+00
    0.2808563282768077E+01    0.1325493893339706E+01    0.0000000000000000E+00
    0.1895995683864404E+01   -0.8731419609589618E+00    0.0000000000000000E+00
    0.2273179336307740E+01    0.4906150219227333E-01    0.0000000000000000E+00
    0.5000000000000000E+01    0.2500000000000000E+01    0.1250000000000000E+01
    0.5000000000000000E+01    0.2500000000000000E+01    0.2500000000000000E+01
    0.5000000000000000E+01    0.2500000000000000E+01    0.3750000000000000E+01
    0.5000000000000000E+01    0.2500000000000000E+01    0.5000000000000000E+01
    0.3750000000000000E+01    0.2500000000000000E+01    0.5000000000000000E+01
    0.2500000000000000E+01    0.2500000000000000E+01    0.5000000000000000E+01
    0.1250000000000000E+01    0.2500000000000000E+01    0.5000000000000000E+01
    0.0000000000000000E+00    0.2500000000000000E+01    0.5000000000000000E+01
    0.0000000000000000E+00    0.2500000000000000E+01    0.3750000000000000E+01
    0.0000000000000000E+00    0.2500000000000000E+01    0.2500000000000000E+01
    0.0000000000000000E+00    0.2500000000000000E+01    0.1250000000000000E+01
    0.9631080833812172E+00    0.2500000000000000E+01    0.9613285771248219E+00
    0.3981732467264904E+01    0.2500000000000000E+01    0.4069753913607991E+01
    0.4035525118777670E+01    0.2500000000000000E+01    0.1012015867579395E+01
    0.9641717640894248E+00    0.2500000000000000E+01    0.3972455192261839E+01
    0.1547743040396780E+01    0.2500000000000000E+01    0.2928177746738678E+01
    0.6985170616192014E+00    0.2500000000000000E+01    0.3068281976055466E+01
    0.8931277594515110E+00    0.2500000000000000E+01    0.2052465503257726E+01
    0.2183293750162785E+01    0.2500000000000000E+01    0.3959073795658649E+01
    0.3855333506014705E+01    0.2500000000000000E+01    0.2931218481500625E+01
    0.3152495579421047E+01    0.2500000000000000E+01    0.3635850502723324E+01
    0.3103247580566054E+01    0.2500000000000000E+01    0.4331682712472464E+01
    0.3266837581688852E+01    0.2500000000000000E+01    0.1886092433583972E+01
    0.4231539241296245E+01    0.2500000000000000E+01    0.1915865356532799E+01
    0.1909741006522088E+01    0.2500000000000000E+01    0.7170024419130505E+00
    0.2880784107213163E+01    0.2500000000000000E+01    0.9046598906449592E+00
    0.2014316024535771E+01    0.2500000000000000E+01    0.1762464314805728E+01
    0.2670003247036656E+01    0.2500000000000000E+01    0.2850479545835163E+01
    0.5000000000000000E+01    0.1250000000000000E+01    0.5000000000000000E+01
    0.5000000000000000E+01    0.0000000000000000E+00    0.5000000000000000E+01
    0.5000000000000000E+01   -0.1250000000000000E+01    0.5000000000000000E+01
    0.5000000000000000E+01   -0.2500000000000000E+01    0.5000000000000000E+01
    0.5000000000000000E+01   -0.2500000000000000E+01    0.3750000000000000E+01
    0.5000000000000000E+01   -0.2500000000000000E+01    0.2500000000000000E+01
    0.5000000000000000E+01   -0.2500000000000000E+01    0.1250000000000000E+01
    0.5000000000000000E+01    0.1578994732800803E+01    0.9058375365086910E+00
    0.5000000000000000E+01   -0.1583989954232354E+01    0.3982050490726493E+01
    0.5000000000000000E+01    0.1453322699199022E+01    0.4033849428301197E+01
    0.5000000000000000E+01   -0.1479596339503735E+01    0.1040505887381675E+01
    0.5000000000000000E+01   -0.3227322616384110E+00    0.1099454400140349E+01
    0.5000000000000000E+01    0.6593508822075582E+00    0.7354504170366591E+00
    0.5000000000000000E+01    0.8256214013940779E+00    0.1622302608453282E+01
    0.5000000000000000E+01   -0.1650070333782557E+01    0.2145871574390382E+01
    0.5000000000000000E+01   -0.4612828702537229E+00    0.4086422318222992E+01
    0.5000000000000000E+01   -0.8579242121530853E+00    0.2979540174134984E+01
    0.5000000000000000E+01   -0.1836846154397680E+01    0.3045064261640043E+01
    0.5000000000000000E+01    0.3508002863614053E+00    0.3428197553792836E+01
    0.5000000000000000E+01    0.5185680230613409E+00    0.4309693860063405E+01
    0.5000000000000000E+01    0.1738996113203182E+01    0.1827272193562204E+01
    0.5000000000000000E+01    0.1325493893339706E+01    0.2808563282768077E+01
    0.5000000000000000E+01   -0.8731419609589618E+00    0.1895995683864404E+01
    0.5000000000000000E+01    0.4906150219227333E-01    0.2273179336307740E+01
    0.0000000000000000E+00    0.1250000000000000E+01    0.5000000000000000E+01
    0.0000000000000000E+00    0.0000000000000000E+00    0.5000000000000000E+01
    0.0000000000000000E+00   -0.1250000000000000E+01    0.5000000000000000E+01
    0.0000000000000000E+00   -0.2500000000000000E+01    0.5000000000000000E+01
    0.1250000000000000E+01   -0.2500000000000000E+01    0.5000000000000000E+01
    0.2500000000000000E+01   -0.2500000000000000E+01    0.5000000000000000E+01
    0.3750000000000000E+01   -0.2500000000000000E+01    0.5000000000000000E+01
    0.4042003247744892E+01    0.1558308132739014E+01    0.5000000000000000E+01
    0.9304122287900499E+00   -0.1548001304379777E+01    0.5000000000000000E+01
    0.1037243024609388E+01    0.1462892710085612E+01    0.5000000000000000E+01
    0.3946240828834967E+01   -0.1445243809615570E+01    0.5000000000000000E+01
    0.4092527262848217E+01   -0.3455338993778935E+00    0.5000000000000000E+01
    0.4293103109154542E+01    0.6277660831404320E+00    0.5000000000000000E+01
    0.3241512314643519E+01    0.7429886854239611E+00    0.5000000000000000E+01
    0.2844289952419609E+01   -0.1588117879734118E+01    0.5000000000000000E+01
    0.7159905765450471E+00   -0.6002320124191652E+00    0.5000000000000000E+01
    0.1754341919796891E+01   -0.7398147869923652E+00    0.5000000000000000E+01
    0.1870296826774691E+01   -0.1788622905643739E+01    0.5000000000000000E+01
    0.9220614901912976E+00    0.3083720183248586E+00    0.5000000000000000E+01
    0.3101523624086016E+01    0.1777901774806180E+01    0.5000000000000000E+01
    0.2192512063922564E+01    0.1576861561598471E+01    0.5000000000000000E+01
    0.2024793420196460E+01    0.4773861992750707E+00    0.5000000000000000E+01
    0.2990627757741975E+01   -0.4878110785814084E+00    0.5000000000000000E+01
    0.0000000000000000E+00   -0.2500000000000000E+01    0.1250000000000000E+01
    0.0000000000000000E+00   -0.2500000000000000E+01    0.2500000000000000E+01
    0.0000000000000000E+00   -0.2500000000000000E+01    0.3750000000000000E+01
    0.0000000000000000E+00    0.1558308132739014E+01    0.4042003247744892E+01
    0.0000000000000000E+00   -0.1548001304379777E+01    0.9304122287900499E+00
    0.0000000000000000E+00    0.1462892710085612E+01    0.1037243024609388E+01
    0.0000000000000000E+00   -0.1445243809615570E+01    0.3946240828834967E+01
    0.0000000000000000E+00   -0.3455338993778935E+00    0.4092527262848217E+01
    0.0000000000000000E+00    0.6277660831404320E+00    0.4293103109154542E+01
    0.0000000000000000E+00    0.7429886854239611E+00    0.3241512314643519E+01
    0.0000000000000000E+00   -0.1588117879734118E+01    0.2844289952419609E+01
    0.0000000000000000E+00   -0.6002320124191652E+00    0.7159905765450471E+00
    0.0000000000000000E+00   -0.7398147869923652E+00    0.1754341919796891E+01
    0.0000000000000000E+00   -0.1788622905643739E+01    0.1870296826774691E+01
    0.0000000000000000E+00    0.3083720183248586E+00    0.9220614901912976E+00
    0.0000000000000000E+00    0.1777901774806180E+01    0.3101523624086016E+01
    0.0000000000000000E+00    0.1576861561598471E+01    0.2192512063922564E+01
[...]
POINT_DATA 213
SCALARS rho double 1
LOOKUP_TABLE default
   0.1344271447242668E+01
   0.9569758904790925E+00
   0.9462964180601643E+00
   0.9418612688990958E+00
   0.8437304865780330E+00
   0.7738004287306005E+00
   0.7629818902573676E+00
   0.7664577900350786E+00
   0.8307873996247614E+00
   0.9352972535561369E+00
   0.9342219801229857E+00
   0.9617195265997280E+00
   0.1449457445751188E+01
   0.1494090639343211E+01
   0.1644667268989316E+01
   0.1425832042627298E+01
   0.1009014431808613E+01
   0.9508810859414926E+00
   0.9436508493271291E+00
   0.9581561010769719E+00
   0.9415852465261004E+00
   0.1036377237117184E+01
   0.9256161097221739E+00
   0.9322349861565250E+00
   0.9537479562710985E+00
   0.9518769542249060E+00
   0.9348583099990896E+00
   0.9564028398563199E+00
   0.9376098381292443E+00
   0.9300661514913130E+00
   0.9445157489118869E+00
   0.8863506522028101E+00
   0.9423579955776210E+00
   0.9635003073847724E+00
   0.1008299039454742E+01
   0.1006735291838595E+01
   0.1001964617551125E+01
   0.1003219581432169E+01
   0.1004132053853929E+01
   0.1005228602844529E+01
   0.1004260408182303E+01
   0.1008308189857316E+01
   0.1023893137716377E+01
   0.1063553955842149E+01
   0.1019182512920081E+01
   0.1001780766367280E+01
   0.9643309931318886E+00
   0.1005283708871948E+01
   0.1000721163194936E+01
   0.1008742083663189E+01
   0.1008078083527232E+01
   0.1002349807004914E+01
   0.9979986847796160E+00
   0.1000583560875674E+01
   0.1001620123557406E+01
   0.9826893071433449E+00
   0.9842439639907435E+00
   0.9833314030039070E+00
   0.9788207404770553E+00
   0.9902638160234302E+00
   0.9934561552664601E+00
   0.1002011751610669E+01
   0.1002134465622532E+01
   0.1002276326481276E+01
   0.1001794758307570E+01
   0.1009778638890475E+01
   0.1006429109061643E+01
   0.9558786954855177E+00
   0.9249398402726561E+00
   0.1007036755521552E+01
   0.1004504925150508E+01
   0.9143642069658986E+00
   0.9089667854388593E+00
   0.8751688892522517E+00
   0.9767271883068337E+00
   0.1000452621141066E+01
   0.1005831087455767E+01
   0.1012882803330065E+01
   0.1011618951343412E+01
   0.1010438648634061E+01
   0.1005468280890418E+01
   0.9907612677472295E+00
   0.1005140325672326E+01
   0.9860567245261393E+00
   0.1005609737666169E+01
   0.1004248005644306E+01
   0.1002888437636136E+01
   0.1003345420388450E+01
   0.1003992731812281E+01
   0.1005101716082133E+01
   0.1003211645068678E+01
   0.1002663159901480E+01
   0.1002586231355907E+01
   0.1004060870874713E+01
   0.1004320345961940E+01
   0.1001641920309561E+01
   0.1002273115924181E+01
   0.1002543475534056E+01
   0.1003469520738856E+01
   0.1003372640188814E+01
   0.1003232229978476E+01
   0.1004423863369494E+01
   0.1004313070759199E+01
   0.1003659849335963E+01
   0.1003723103857069E+01
   0.1004329726344876E+01
   0.1004465021783453E+01
   0.1003623375255978E+01
   0.1064422800930130E+01
   0.1028473621145099E+01
   0.1009586657210163E+01
   0.1006638837375359E+01
   0.1163935521800947E+01
   0.1086087969726851E+01
   0.1007893419161688E+01
   0.1007245533203508E+01
   0.1006798074051112E+01
   0.1013018286750089E+01
   0.1019384609268530E+01
   0.1235203667777454E+01
   0.1032529466587362E+01
   0.1046681191219124E+01
   0.1200953640880119E+01
   0.1014718915875275E+01
   0.1032291152950665E+01
   0.1028095236398111E+01
   0.1014628639607580E+01
   0.1029216892560568E+01
   0.1001994816321164E+01
   0.9606929188399904E+00
   0.1006852582695195E+01
   0.1001327193263224E+01
   0.1010821905231174E+01
   0.1012246098775889E+01
   0.1000946006839766E+01
   0.9979121233959140E+00
   0.9980632372186923E+00
   0.1001184143300433E+01
   0.9841362010201575E+00
   0.9814879613839014E+00
   0.9648483310898111E+00
   0.9680877120450333E+00
   0.9914124469898644E+00
   0.9910858388095327E+00
   0.9925545095382530E+00
   0.1001727533801997E+01
   0.9993409401617701E+00
   0.9941410834731685E+00
   0.1007038753570834E+01
   0.1022539494010912E+01
   0.1001088098224562E+01
   0.1008798496135926E+01
   0.1004773845984856E+01
   0.1009050237312610E+01
   0.9966470331636500E+00
   0.1004988557048835E+01
   0.1003325535081210E+01
   0.9949431084836562E+00
   0.9832680780474280E+00
   0.9943957454385649E+00
   0.9973420655777422E+00
   0.9932190084982349E+00
   0.1001306487058456E+01
   0.1003001636861506E+01
   0.1002183579557465E+01
   0.9947078545016178E+00
   0.9937965520973451E+00
   0.1004867865417586E+01
   0.1020077607324942E+01
   0.1005364552319131E+01
   0.9816998152082396E+00
   0.1004973031141060E+01
   0.1012382323271225E+01
   0.9871424289481183E+00
   0.9551513532721674E+00
   0.9865075699149513E+00
   0.9864532948734475E+00
   0.9918946936955918E+00
   0.9933508196178448E+00
   0.9954406178129106E+00
   0.1037336789600293E+01
   0.1033536797498973E+01
   0.1001443320746103E+01
   0.1001930499681273E+01
   0.9912478516143107E+00
   0.9910920509168472E+00
   0.9648489987318482E+00
   0.9933282604745376E+00
   0.1006058638646835E+01
   0.1001954027097083E+01
   0.9908735804112135E+00
   0.9740945209692790E+00
   0.9418802134040452E+00
   0.9819379687575346E+00
   0.9794803560214767E+00
   0.9704172059849899E+00
   0.9720478942714158E+00
   0.9557351699734282E+00
   0.9496731207924539E+00
   0.9528673561801114E+00
   0.1002659533921972E+01
   0.1002471631843286E+01
   0.1000509329217705E+01
   0.1001677321709346E+01
   0.9607931427541552E+00
   0.9491625496408553E+00
   0.9584503057444579E+00
   0.1001121207667864E+01
   0.1000496140498541E+01
   0.1001156644129807E+01
   0.9807376182629787E+00
   0.9806000803427656E+00
   0.9628476101903144E+00
SCALARS u double 1
LOOKUP_TABLE default
   0.0000000000000000E+00
   0.0000000000000000E+00
   0.0000000000000000E+00
   0.0000000000000000E+00
   0.0000000000000000E+00
   0.0000000000000000E+00
   0.0000000000000000E+00
   0.0000000000000000E+00
   0.0000000000000000E+00
   0.0000000000000000E+00
   0.0000000000000000E+00
   0.0000000000000000E+00
   0.0000000000000000E+00
   0.0000000000000000E+00
   0.0000000000000000E+00
   0.0000000000000000E+00
   0.0000000000000000E+00
   0.0000000000000000E+00
   0.0000000000000000E+00
   0.0000000000000000E+00
   0.0000000000000000E+00
   0.0000000000000000E+00
   0.0000000000000000E+00
   0.0000000000000000E+00
   0.0000000000000000E+00
   0.0000000000000000E+00
   0.0000000000000000E+00
   0.0000000000000000E+00
   0.0000000000000000E+00
   0.0000000000000000E+00
   0.0000000000000000E+00
   0.0000000000000000E+00
   0.0000000000000000E+00
   0.4950176840699129E+00
   0.5338221299433668E+00
   0.5183269246292483E+00
   0.4930649880123737E+00
   0.4847578720701203E+00
   0.4867666425536726E+00
   0.4890763585080209E+00
   0.4957848881357966E+00
   0.4898301885349828E+00
   0.4717388496294671E+00
   0.4454814156339987E+00
   0.4833907046861983E+00
   0.5098397462717961E+00
   0.4390712705291138E+00
   0.4949403966063158E+00
   0.5225330362957955E+00
   0.4962454547069490E+00
   0.5226154964395566E+00
   0.5038881744085634E+00
   0.5646883608477907E+00
   0.5247509156995723E+00
   0.4991466120495174E+00
   0.5730561901528880E+00
   0.5696051097752952E+00
   0.3737941448699887E+00
   0.3998658125708902E+00
   0.5599326586321516E+00
   0.5564587630390387E+00
   0.4942627332812515E+00
   0.4948659465946078E+00
   0.4925735874085370E+00
   0.4914269544128864E+00
   0.5162356849922137E+00
   0.5361798304107970E+00
   0.4947413361992140E+00
   0.4524112210551711E+00
   0.5128777324866373E+00
   0.5117942039978290E+00
   0.4783517511226516E+00
   0.4931696661798488E+00
   0.4603173601755397E+00
   0.5244892722358873E+00
   0.5297434247262097E+00
   0.5129579300087840E+00
   0.5328358317856765E+00
   0.5308941035583795E+00
   0.5309856169019662E+00
   0.5063656734849588E+00
   0.5282461955955486E+00
   0.5410312729347077E+00
   0.5361261481919313E+00
   0.5374105275536207E+00
   0.4965364819501606E+00
   0.4975340904729190E+00
   0.4963842645327531E+00
   0.4955220268400624E+00
   0.4904581832521055E+00
   0.4903044386657683E+00
   0.4862182765389721E+00
   0.4854049562142507E+00
   0.4932164389223452E+00
   0.4909833313681389E+00
   0.4832194697524368E+00
   0.4872622777934606E+00
   0.4880124910242422E+00
   0.4872445932770463E+00
   0.4882696670854289E+00
   0.4952597557627008E+00
   0.4900967169353093E+00
   0.4904000092169167E+00
   0.4944232926763591E+00
   0.4868002482227964E+00
   0.4892385985382732E+00
   0.4881393371197271E+00
   0.4878457830183527E+00
   0.4446866581545670E+00
   0.4700028782602408E+00
   0.4891999057798104E+00
   0.4885247845046896E+00
   0.4506533046750364E+00
   0.4687378566932981E+00
   0.4877010458159903E+00
   0.4868353684778987E+00
   0.4908994717225925E+00
   0.4793551578804341E+00
   0.4658071749524220E+00
   0.3792725237692940E+00
   0.4901596530988487E+00
   0.4486686693323393E+00
   0.4436137398327214E+00
   0.4845147242934724E+00
   0.4621822648123933E+00
   0.4665749536687213E+00
   0.4748140301611602E+00
   0.4894494213484870E+00
   0.5085556973336399E+00
   0.4315073876466988E+00
   0.4927349362261048E+00
   0.5318289234059276E+00
   0.4913399197304359E+00
   0.5207019993763821E+00
   0.5060964600140578E+00
   0.5688797394605963E+00
   0.5273992817781140E+00
   0.5015044842070353E+00
   0.5821790086913112E+00
   0.5689618253170728E+00
   0.3406394442535845E+00
   0.3789869412789703E+00
   0.5751958205997301E+00
   0.5666485492728384E+00
   0.5704108782769338E+00
   0.5291056376174540E+00
   0.5451902710941572E+00
   0.5718804314774201E+00
   0.5389079126166466E+00
   0.5475507505574397E+00
   0.5821713868483140E+00
   0.4925601785351933E+00
   0.5042157547063255E+00
   0.4961735437192349E+00
   0.5565207962283637E+00
   0.4758845208902411E+00
   0.4950268384617378E+00
   0.5498525443264256E+00
   0.5891202296887040E+00
   0.5841957608937176E+00
   0.5469097664299579E+00
   0.5805417617672117E+00
   0.5106251438930214E+00
   0.5030200513852019E+00
   0.5033624680486921E+00
   0.5676446095826834E+00
   0.5563943082463483E+00
   0.4947255974308110E+00
   0.5505243828111782E+00
   0.5510857280737912E+00
   0.5657350949465617E+00
   0.4920070018833668E+00
   0.4927299097600775E+00
   0.3865140570179990E+00
   0.3687754533859769E+00
   0.5574921717747471E+00
   0.5763755545065280E+00
   0.4194304390080061E+00
   0.5824843240526351E+00
   0.4265209609052352E+00
   0.5392799843515922E+00
   0.5012032759281898E+00
   0.5119513208431602E+00
   0.5049119464350800E+00
   0.5751974973483281E+00
   0.5876371359878686E+00
   0.5379907807283438E+00
   0.5677472539675257E+00
   0.5351248665750358E+00
   0.5338056378997991E+00
   0.5580313797891275E+00
   0.5512707862466711E+00
   0.4261852757247280E+00
   0.5273356177936621E+00
   0.5795712529716014E+00
   0.3318687134255793E+00
   0.4760283324620234E+00
   0.5446196255213813E+00
   0.4798331901183813E+00
   0.3005293508933897E+00
   0.5031051138848485E+00
   0.5017115978494535E+00
   0.5129033211113134E+00
   0.5414840107920582E+00
   0.3437603855487128E+00
   0.3397710718027829E+00
   0.3189928572963147E+00
   0.5065936052539077E+00
   0.5123483779973879E+00
   0.5330313519075692E+00
   0.5879309999882150E+00
   0.4644180533065632E+00
   0.3531270510342270E+00
SCALARS v double 1
LOOKUP_TABLE default
   0.0000000000000000E+00
   0.0000000000000000E+00
   0.0000000000000000E+00
   0.0000000000000000E+00
   0.0000000000000000E+00
   0.0000000000000000E+00
   0.0000000000000000E+00
   0.0000000000000000E+00
   0.0000000000000000E+00
   0.0000000000000000E+00
   0.0000000000000000E+00
   0.0000000000000000E+00
   0.0000000000000000E+00
   0.0000000000000000E+00
   0.0000000000000000E+00
   0.0000000000000000E+00
   0.0000000000000000E+00
   0.0000000000000000E+00
   0.0000000000000000E+00
   0.0000000000000000E+00
   0.0000000000000000E+00
   0.0000000000000000E+00
   0.0000000000000000E+00
   0.0000000000000000E+00
   0.0000000000000000E+00
   0.0000000000000000E+00
   0.0000000000000000E+00
   0.0000000000000000E+00
   0.0000000000000000E+00
   0.0000000000000000E+00
   0.0000000000000000E+00
   0.0000000000000000E+00
   0.0000000000000000E+00
   0.0000000000000000E+00
   0.0000000000000000E+00
   0.0000000000000000E+00
   0.0000000000000000E+00
   0.0000000000000000E+00
   0.0000000000000000E+00
   0.0000000000000000E+00
   0.0000000000000000E+00
   0.0000000000000000E+00
   0.0000000000000000E+00
   0.0000000000000000E+00
   0.0000000000000000E+00
   0.0000000000000000E+00
   0.0000000000000000E+00
   0.0000000000000000E+00
   0.0000000000000000E+00
   0.0000000000000000E+00
   0.0000000000000000E+00
   0.0000000000000000E+00
   0.0000000000000000E+00
   0.0000000000000000E+00
   0.0000000000000000E+00
   0.0000000000000000E+00
   0.0000000000000000E+00
   0.0000000000000000E+00
   0.0000000000000000E+00
   0.0000000000000000E+00
   0.0000000000000000E+00
   0.7970254413358739E-03
  -0.1329294698221012E-02
  -0.1332592755143328E-02
   0.0000000000000000E+00
   0.0000000000000000E+00
   0.0000000000000000E+00
   0.0000000000000000E+00
  -0.1922562553549006E-01
   0.4770618209217828E-03
   0.2183360174047499E-02
   0.1427333001671623E-01
  -0.6488282059856955E-02
  -0.7821622849447566E-02
  -0.1327725049529776E-01
   0.4914481771098599E-02
   0.6907122068020402E-03
   0.3434418446359960E-02
   0.1920847385205609E-02
   0.3147960255907526E-02
   0.1704778374716460E-02
  -0.7316187293921889E-02
  -0.7701899221109218E-04
   0.4468738018602357E-02
  -0.4387156063138773E-03
  -0.6383742168027347E-04
  -0.1963394578746953E-03
   0.8071267938524668E-03
   0.0000000000000000E+00
   0.0000000000000000E+00
   0.0000000000000000E+00
   0.0000000000000000E+00
   0.4257020086534187E-03
   0.1616304629664506E-02
  -0.1297550940677319E-02
  -0.1022774978309108E-02
  -0.2134342417965481E-02
  -0.1064012673695190E-02
  -0.8200064371547636E-03
  -0.7617033196717246E-03
   0.5202258681069126E-04
  -0.6244091919212459E-03
   0.7916469191084634E-03
  -0.1745238504544925E-02
   0.2747128588193317E-03
  -0.8939747647563039E-04
  -0.9424310132249425E-03
  -0.1100227542779544E-02
   0.0000000000000000E+00
   0.0000000000000000E+00
   0.0000000000000000E+00
  -0.1061759101608000E-02
  -0.7641128884324642E-02
   0.1860854730708067E-01
  -0.2834553345805228E-04
  -0.1383129140675176E-02
  -0.2035122956290835E-02
  -0.5666383166137016E-02
  -0.1585210180444487E-02
  -0.5947016240280272E-02
  -0.4160601813927214E-02
   0.1565614850088536E-02
   0.3329524818412984E-01
   0.3055140589294860E-04
  -0.2766884914242719E-02
   0.3566484658234334E-02
   0.3596189480672833E-03
   0.0000000000000000E+00
   0.0000000000000000E+00
   0.0000000000000000E+00
   0.0000000000000000E+00
   0.0000000000000000E+00
   0.0000000000000000E+00
   0.0000000000000000E+00
   0.0000000000000000E+00
   0.0000000000000000E+00
   0.0000000000000000E+00
   0.0000000000000000E+00
   0.0000000000000000E+00
   0.0000000000000000E+00
   0.0000000000000000E+00
   0.0000000000000000E+00
   0.0000000000000000E+00
   0.0000000000000000E+00
   0.5047032571109620E-02
   0.3230791949950533E-02
   0.8149134249028878E-02
   0.6168366986104896E-02
   0.1122928631763561E-01
   0.1429277496243783E-01
  -0.2038826622127856E-03
   0.5118221811774177E-02
   0.2914950529613180E-02
   0.3373611804762969E-02
   0.3728336395669610E-02
  -0.1465719870396335E-01
  -0.6159699825162366E-03
   0.6651630332818631E-02
   0.1542014282304129E-02
   0.1969646535169368E-02
   0.4266273531804986E-02
  -0.2790960931345484E-02
   0.1226887066592477E-02
   0.2819172476754251E-02
   0.1497449151771094E-02
   0.2575339058816934E-02
   0.2030646451249625E-02
   0.2118046059804661E-02
   0.8700410475097776E-02
  -0.3733396962577710E-02
   0.6241189097602712E-02
   0.2516489159161878E-04
  -0.3854044719229902E-03
  -0.1674679001801838E-01
  -0.4881976858535684E-02
  -0.4720000781961243E-02
   0.3445223061985973E-02
  -0.6135724060193175E-02
   0.9934522945575178E-04
  -0.3291372907904275E-01
  -0.3046196710421051E-02
   0.4722743256564008E-02
   0.9228367958181089E-03
   0.2112175224630255E-02
   0.4518755684027483E-02
   0.2720465272919159E-02
   0.3212576463392636E-02
   0.5200804216268886E-02
   0.1941838971687251E-02
   0.7315897579979465E-03
  -0.2555238243326978E-04
  -0.5374632769354673E-02
  -0.6959590940067592E-02
  -0.9443815905676101E-03
   0.1105268415061338E-02
  -0.2080554114129759E-02
  -0.3200035982824382E-02
  -0.2527833363058907E-02
  -0.4115193634763024E-02
  -0.7593954971249969E-02
  -0.1985686389682067E-02
   0.6240402865369167E-03
  -0.2239081701063173E-03
   0.1216949785442119E-02
  -0.3483958234462257E-02
   0.5229139978684721E-02
  -0.8487626161423876E-02
   0.2315170770911389E-04
  -0.3395192816528627E-03
   0.2542663548424367E-02
   0.1663457683099457E-02
   0.2021438700598320E-02
  -0.5620783949400704E-02
SCALARS w double 1
LOOKUP_TABLE default
   0.0000000000000000E+00
   0.0000000000000000E+00
   0.0000000000000000E+00
   0.0000000000000000E+00
   0.0000000000000000E+00
   0.0000000000000000E+00
   0.0000000000000000E+00
   0.0000000000000000E+00
   0.0000000000000000E+00
   0.0000000000000000E+00
   0.0000000000000000E+00
   0.0000000000000000E+00
   0.0000000000000000E+00
   0.0000000000000000E+00
   0.0000000000000000E+00
   0.0000000000000000E+00
   0.0000000000000000E+00
   0.0000000000000000E+00
   0.0000000000000000E+00
   0.0000000000000000E+00
   0.0000000000000000E+00
   0.0000000000000000E+00
   0.0000000000000000E+00
   0.0000000000000000E+00
   0.0000000000000000E+00
   0.0000000000000000E+00
   0.0000000000000000E+00
   0.0000000000000000E+00
   0.0000000000000000E+00
   0.0000000000000000E+00
   0.0000000000000000E+00
   0.0000000000000000E+00
   0.0000000000000000E+00
  -0.1007612293619177E+00
  -0.4249297153627129E-01
   0.7371985585710366E-03
   0.5725799899298369E-02
   0.5699057242524252E-03
   0.1609783078488041E-02
   0.3375072981028123E-02
   0.2371773621172001E-02
   0.4590624712235012E-03
   0.3518225880281392E-02
   0.4521817572817223E-01
   0.6522937800299103E-01
   0.8689296683201430E-03
  -0.2261151846480016E-01
   0.4316553490851892E-02
   0.1358734831670176E-01
   0.1039452546908133E-01
   0.4900548400609443E-01
   0.2437443475694594E-02
  -0.6509941158161485E-02
  -0.7012227792910716E-03
   0.3411016120582537E-03
   0.3904107317259203E-02
  -0.3893254323488171E-01
   0.1798168100968492E-01
   0.1119638185573666E-01
   0.3403773250062082E-01
   0.8438810175200716E-02
   0.4937312235371207E-02
   0.4970345544743581E-02
   0.4871517382740148E-02
   0.6027191692180042E-02
   0.2599191716314815E-02
  -0.4144429613708298E-01
  -0.9954261916400052E-01
  -0.1121678224587076E+00
   0.5070874991846965E-02
   0.4230770654667335E-02
  -0.1004732309633783E+00
  -0.9895252532483106E-01
  -0.9875450990420653E-01
  -0.9462509646508004E-01
  -0.6807133851832639E-01
   0.5154922140156852E-02
  -0.1935330759570291E-01
  -0.1575800302497842E-01
  -0.6002862478722466E-02
   0.6819057345411343E-02
  -0.8010050839712532E-01
  -0.2781092473134757E-01
  -0.8096457381582867E-01
  -0.5873277580536939E-01
   0.3083625660561623E-02
   0.2685146444651720E-02
   0.2640431158686163E-02
   0.3450191894889943E-02
   0.4007083746312051E-02
   0.1201214280598061E-02
  -0.1438846683244025E-03
   0.2039877254314050E-02
   0.4895693571100177E-02
   0.3857385557425633E-02
   0.1114201920509275E-02
   0.1182682004917242E-02
   0.1465296214677163E-02
  -0.1653641866631133E-04
   0.8996621352676295E-04
   0.4386667831754336E-02
   0.2715724202050437E-02
   0.2322755259317820E-02
   0.5010600999780913E-02
   0.1071689307977998E-02
   0.2712217683910063E-02
   0.2013964056366132E-02
   0.2879082478362897E-04
   0.8374614307502259E-01
   0.2793870732269302E-02
  -0.8346628143151996E-03
  -0.1492945567549025E-03
   0.1409540839681157E+00
   0.1239332952507485E+00
  -0.1219093307501058E-02
  -0.4381936071376266E-02
  -0.3043057866810967E-03
  -0.6512246805560637E-02
  -0.1949570321912378E-02
   0.1557630966888973E+00
   0.7489979161517975E-01
   0.2550174910456670E-01
   0.1656445111844048E+00