title="tecplot geometry and solution file"
variables = x y z rho u v w p mach temperature
zone t="boundary 1 bc-1", solutiontime= 0.3000000E+02, strandid=1001, i=32, j=46, f=feblock
  0.000000000000E+00  0.000000000000E+00  0.000000000000E+00  0.000000000000E+00  0.000000000000E+00  0.000000000000E+00  0.000000000000E+00
  0.000000000000E+00  0.000000000000E+00  0.000000000000E+00  0.000000000000E+00  0.000000000000E+00  0.000000000000E+00  0.000000000000E+00
  0.000000000000E+00  0.000000000000E+00  0.000000000000E+00  0.000000000000E+00  0.000000000000E+00  0.000000000000E+00  0.000000000000E+00
  0.000000000000E+00  0.000000000000E+00  0.000000000000E+00  0.000000000000E+00  0.000000000000E+00  0.000000000000E+00  0.000000000000E+00
  0.000000000000E+00  0.000000000000E+00  0.000000000000E+00  0.000000000000E+00
  0.250000000000E+01  0.250000000000E+01  0.125000000000E+01  0.146289271009E+01  0.157686156160E+01  0.308372018325E+00  0.000000000000E+00
 -0.125000000000E+01 -0.600232012419E+00  0.250000000000E+01  0.477386199275E+00  0.742988685424E+00 -0.739814786992E+00  0.177790177481E+01
  0.155830813274E+01  0.250000000000E+01 -0.250000000000E+01 -0.154800130438E+01 -0.487811078581E+00  0.250000000000E+01  0.627766083140E+00
 -0.345533899378E+00 -0.178862290564E+01 -0.158811787973E+01  0.125000000000E+01 -0.250000000000E+01 -0.144524380962E+01  0.000000000000E+00
 -0.125000000000E+01 -0.250000000000E+01 -0.250000000000E+01 -0.250000000000E+01
  0.000000000000E+00  0.125000000000E+01  0.000000000000E+00  0.103724302461E+01  0.219251206392E+01  0.922061490191E+00  0.000000000000E+00
  0.000000000000E+00  0.715990576545E+00  0.250000000000E+01  0.202479342020E+01  0.324151231464E+01  0.175434191980E+01  0.310152362409E+01
  0.404200324774E+01  0.375000000000E+01  0.000000000000E+00  0.930412228790E+00  0.299062775774E+01  0.500000000000E+01  0.429310310915E+01
  0.409252726285E+01  0.187029682677E+01  0.284428995242E+01  0.500000000000E+01  0.125000000000E+01  0.394624082883E+01  0.500000000000E+01
  0.500000000000E+01  0.250000000000E+01  0.375000000000E+01  0.500000000000E+01
  0.134427120624E+01  0.106355337921E+01  0.142583182354E+01  0.108608762439E+01  0.103229060181E+01  0.120095338163E+01  0.164466686012E+01
  0.149409013440E+01  0.123520338607E+01  0.102389267962E+01  0.102809468262E+01  0.101301783249E+01  0.103252921002E+01  0.101471847571E+01
  0.100663847924E+01  0.100830781962E+01  0.144945702221E+01  0.116393504732E+01  0.101462808980E+01  0.100426007859E+01  0.100679777117E+01
  0.100724510265E+01  0.104668059780E+01  0.101938406268E+01  0.100424766504E+01  0.106442280582E+01  0.100789301828E+01  0.100288822782E+01
  0.100334523363E+01  0.102847313658E+01  0.100958633672E+01  0.100399293482E+01
  0.000000000000E+00  0.445482009341E+00  0.000000000000E+00  0.468737738059E+00  0.462182942357E+00  0.443614219133E+00  0.000000000000E+00
  0.000000000000E+00  0.379272886738E+00  0.471739271689E+00  0.466575693264E+00  0.479355714552E+00  0.490159750693E+00  0.484515187043E+00
  0.488524405635E+00  0.489830825361E+00  0.000000000000E+00  0.450654222959E+00  0.474814731767E+00  0.495785238730E+00  0.490899381264E+00
  0.486835558136E+00  0.448669240886E+00  0.465807889556E+00  0.496536816733E+00  0.444686413647E+00  0.487701104159E+00  0.497534334324E+00
  0.496384326449E+00  0.470003391324E+00  0.489200218679E+00  0.495522109488E+00
  0.000000000000E+00  0.000000000000E+00  0.000000000000E+00  0.186086031024E-01 -0.276691075805E-02  0.332951065051E-01  0.000000000000E+00
  0.000000000000E+00 -0.594712649692E-02  0.000000000000E+00  0.356640474368E-02 -0.566633201117E-02 -0.416070559869E-02  0.305673511510E-04
 -0.106165695899E-02  0.000000000000E+00  0.000000000000E+00 -0.764121931494E-02  0.359683827564E-03  0.000000000000E+00 -0.203492637015E-02
 -0.138317019972E-02  0.156558517389E-02 -0.158520429442E-02 -0.634634396742E-04  0.000000000000E+00 -0.283713805567E-04 -0.196313362328E-03
  0.807242050644E-03  0.000000000000E+00  0.000000000000E+00  0.000000000000E+00
  0.000000000000E+00  0.452184653197E-01  0.000000000000E+00  0.123932976873E+00  0.247646621519E-01  0.165644444697E+00  0.000000000000E+00
  0.000000000000E+00  0.155763017895E+00  0.351819569577E-02  0.259784068812E-01 -0.651227655242E-02  0.748997087924E-01  0.371831583377E-02
 -0.149392639563E-03  0.458690567151E-03  0.000000000000E+00  0.140954002061E+00 -0.808568052185E-02  0.237161031951E-02 -0.304072432491E-03
 -0.438187303372E-02  0.255018603588E-01 -0.194954201362E-02  0.308350474704E-02  0.837460359161E-01 -0.121907948470E-02  0.268489505697E-02
  0.264017882483E-02  0.279392054592E-02 -0.834874478089E-03  0.344925345601E-02
  0.960184400844E+00  0.782340137770E+00  0.101844189217E+01  0.808726231909E+00  0.746125384930E+00  0.879446184534E+00  0.117475196174E+01
  0.106719888220E+01  0.916619812034E+00  0.737394761752E+00  0.743553487887E+00  0.725758743476E+00  0.757454827917E+00  0.729187893901E+00
  0.720784623804E+00  0.722781357351E+00  0.103531891095E+01  0.858316782195E+00  0.728064561118E+00  0.718614925776E+00  0.721013056851E+00
  0.721151172498E+00  0.760018280979E+00  0.732627920222E+00  0.718530835065E+00  0.791042941387E+00  0.722107560678E+00  0.717199162879E+00
  0.717636661420E+00  0.741799245362E+00  0.724056263663E+00  0.718400655758E+00
  0.000000000000E+00  0.441238959585E+00  0.000000000000E+00  0.475214846865E+00  0.460124412519E+00  0.468828258563E+00  0.000000000000E+00
  0.000000000000E+00  0.402302846554E+00  0.469815441619E+00  0.464411893721E+00  0.478714636951E+00  0.489298401226E+00  0.483069063050E+00
  0.487929751534E+00  0.488962306415E+00  0.000000000000E+00  0.464776563747E+00  0.473796390865E+00  0.495346987204E+00  0.490266071783E+00
  0.486286308904E+00  0.445718212357E+00  0.464383015850E+00  0.496127757310E+00  0.443623932494E+00  0.486964554701E+00  0.497246546499E+00
  0.496059357923E+00  0.467732911453E+00  0.488212429328E+00  0.495098383731E+00
  0.999990295817E+00  0.102982719465E+01  0.999990760134E+00  0.104247272434E+01  0.101190065770E+01  0.102520603812E+01  0.999991418514E+00
  0.999992169604E+00  0.103891209441E+01  0.100826257185E+01  0.101252822394E+01  0.100300528606E+01  0.102702833856E+01  0.100605544877E+01
  0.100244377117E+01  0.100355653364E+01  0.999992723571E+00  0.103239738148E+01  0.100459507854E+01  0.100179317842E+01  0.100260281508E+01
  0.100234951636E+01  0.101657143125E+01  0.100617532279E+01  0.100168833258E+01  0.104043253478E+01  0.100303362223E+01  0.100118717139E+01
  0.100134160438E+01  0.100976769015E+01  0.100405357349E+01  0.100176095188E+01
        12        19        11        11
        11         5        12        12
        10        14         5         5
        19        13        11        11
        19        24        13        13
        30        23        24        24
        19        12        22        22
        28        22        21        21
        11        13         6         6
         7         6         9         9
        15        12        14        14
        18        13        23        23
        15        25        21        21
        27        19        22        22
        18         8         9         9
        27        31        24        24
         4        11         6         6
         5        14        12        12
         4         2         5         5
        21        12        15        15
        14        16        15        15
        24        19        27        27
        22        29        27        27
        23        26        18        18
        17         8        18        18
         5        11         4         4
         6         3         4         4
        26        23        30        30
         5         2        10        10
        16        14        10        10
         3         6         7         7
        21        25        28        28
        29        22        28        28
         6        13         9         9
         2         4         1         1
        31        27        32        32
        25        15        20        20
        24        23        13        13
         8         7         9         9
        13        18         9         9
        31        30        24        24
        12        21        22        22
        29        32        27        27
         3         1         4         4
        26        17        18        18
        16        20        15        15
zone t="boundary 2 bc-2", solutiontime= 0.3000000E+02, strandid=1002, i=33, j=48, f=feblock
  0.500000000000E+01  0.375000000000E+01  0.250000000000E+01  0.288078410721E+01  0.125000000000E+01  0.190974100652E+01  0.326683758169E+01
  0.201431602454E+01  0.000000000000E+00  0.963108083381E+00  0.500000000000E+01  0.403552511878E+01  0.423153924130E+01  0.500000000000E+01
  0.385533350601E+01  0.500000000000E+01  0.398173246726E+01  0.315249557942E+01  0.267000324704E+01  0.154774304040E+01  0.218329375016E+01
  0.893127759452E+00  0.000000000000E+00  0.698517061619E+00  0.964171764089E+00  0.310324758057E+01  0.000000000000E+00  0.000000000000E+00
  0.125000000000E+01  0.500000000000E+01  0.375000000000E+01  0.250000000000E+01  0.000000000000E+00
 -0.250000000000E+01 -0.250000000000E+01 -0.250000000000E+01 -0.250000000000E+01 -0.250000000000E+01 -0.250000000000E+01 -0.250000000000E+01
 -0.250000000000E+01 -0.250000000000E+01 -0.250000000000E+01 -0.250000000000E+01 -0.250000000000E+01 -0.250000000000E+01 -0.250000000000E+01
 -0.250000000000E+01 -0.250000000000E+01 -0.250000000000E+01 -0.250000000000E+01 -0.250000000000E+01 -0.250000000000E+01 -0.250000000000E+01
 -0.250000000000E+01 -0.250000000000E+01 -0.250000000000E+01 -0.250000000000E+01 -0.250000000000E+01 -0.250000000000E+01 -0.250000000000E+01
 -0.250000000000E+01 -0.250000000000E+01 -0.250000000000E+01 -0.250000000000E+01 -0.250000000000E+01
  0.000000000000E+00  0.000000000000E+00  0.000000000000E+00  0.904659890645E+00  0.000000000000E+00  0.717002441913E+00  0.188609243358E+01
  0.176246431481E+01  0.000000000000E+00  0.961328577125E+00  0.125000000000E+01  0.101201586758E+01  0.191586535653E+01  0.250000000000E+01
  0.293121848150E+01  0.375000000000E+01  0.406975391361E+01  0.363585050272E+01  0.285047954584E+01  0.292817774674E+01  0.395907379566E+01
  0.205246550326E+01  0.125000000000E+01  0.306828197606E+01  0.397245519226E+01  0.433168271247E+01  0.250000000000E+01  0.375000000000E+01
  0.500000000000E+01  0.500000000000E+01  0.500000000000E+01  0.500000000000E+01  0.500000000000E+01
  0.830787058230E+00  0.935297142669E+00  0.934221468260E+00  0.968087272811E+00  0.961718887831E+00  0.964848094490E+00  0.984135704254E+00
  0.991412151528E+00  0.144945702221E+01  0.102921644985E+01  0.955878532826E+00  0.960693592696E+00  0.981487645215E+00  0.100642877090E+01
  0.997911858474E+00  0.100978038058E+01  0.100199531359E+01  0.998062611770E+00  0.991085526891E+00  0.100132671872E+01  0.100094552118E+01
  0.101224568223E+01  0.106442280582E+01  0.101082128367E+01  0.100685200161E+01  0.100118341086E+01  0.102847313658E+01  0.100958633672E+01
  0.100510125208E+01  0.100179258838E+01  0.100266099990E+01  0.100321124546E+01  0.100399293482E+01
  0.000000000000E+00  0.000000000000E+00  0.000000000000E+00  0.378986744667E+00  0.000000000000E+00  0.340639658724E+00  0.582178729399E+00
  0.575196125861E+00  0.000000000000E+00  0.489449751367E+00  0.494740393628E+00  0.431507185037E+00  0.568960880102E+00  0.536179921292E+00
  0.568880597764E+00  0.516236782709E+00  0.508560964523E+00  0.527401878908E+00  0.566649023323E+00  0.531829595199E+00  0.506098823299E+00
  0.520702323570E+00  0.444686413647E+00  0.491340585406E+00  0.492735629202E+00  0.501507735548E+00  0.470003391324E+00  0.489200218679E+00
  0.490458802178E+00  0.491425943667E+00  0.486215870325E+00  0.490305794748E+00  0.495522109488E+00
  0.000000000000E+00  0.000000000000E+00  0.000000000000E+00  0.000000000000E+00  0.000000000000E+00  0.000000000000E+00  0.000000000000E+00
  0.000000000000E+00  0.000000000000E+00  0.000000000000E+00  0.000000000000E+00  0.000000000000E+00  0.000000000000E+00  0.000000000000E+00
  0.000000000000E+00  0.000000000000E+00  0.000000000000E+00  0.000000000000E+00  0.000000000000E+00  0.000000000000E+00  0.000000000000E+00
  0.000000000000E+00  0.000000000000E+00  0.000000000000E+00  0.000000000000E+00  0.000000000000E+00  0.000000000000E+00  0.000000000000E+00
  0.000000000000E+00  0.000000000000E+00  0.000000000000E+00  0.000000000000E+00  0.000000000000E+00
  0.000000000000E+00  0.000000000000E+00  0.000000000000E+00 -0.229664625372E-02  0.000000000000E+00  0.183566373204E-01  0.121123909217E-01
  0.454986535781E-01  0.000000000000E+00  0.870790377110E-01 -0.995419279588E-01 -0.211866944343E-01 -0.306434873036E-01 -0.414440986922E-01
 -0.137784907467E-02  0.260092677400E-02  0.610320066272E-03  0.504303226026E-03  0.150971555976E-01  0.284026592053E-01  0.564171072461E-02
  0.553420922485E-01  0.837460359161E-01  0.110441678867E-01  0.679149107550E-02 -0.758256694026E-03  0.279392054592E-02 -0.834874478089E-03
  0.400605781362E-02  0.602956847657E-02 -0.143186087482E-03  0.120031541275E-02  0.344925345601E-02
  0.593415464547E+00  0.668065173940E+00  0.667296741589E+00  0.684257289155E+00  0.686937349939E+00  0.679200913067E+00  0.695811323288E+00
  0.702343383353E+00  0.103531891095E+01  0.723694313347E+00  0.672591473353E+00  0.675702595665E+00  0.694092985499E+00  0.720959767027E+00
  0.712691050078E+00  0.724771831425E+00  0.716580007871E+00  0.713298190110E+00  0.706429141871E+00  0.717736799445E+00  0.715375917078E+00
  0.730937223815E+00  0.791042941387E+00  0.724372300876E+00  0.721010154858E+00  0.715456483730E+00  0.741799245362E+00  0.724056263663E+00
  0.719312437487E+00  0.715891167631E+00  0.716607630784E+00  0.717367565355E+00  0.718400655758E+00
  0.000000000000E+00  0.000000000000E+00  0.000000000000E+00  0.380991701152E+00  0.000000000000E+00  0.343630111446E+00  0.585285868199E+00
  0.579373677067E+00  0.000000000000E+00  0.501056427175E+00  0.508459333758E+00  0.435373030373E+00  0.572639048776E+00  0.537002156662E+00
  0.568923426757E+00  0.514995282545E+00  0.508252845109E+00  0.527255581403E+00  0.567447224442E+00  0.531657855019E+00  0.505983499563E+00
  0.520795965103E+00  0.443623932494E+00  0.490664431575E+00  0.492156614473E+00  0.501394222536E+00  0.467732911453E+00  0.488212429328E+00
  0.490003434612E+00  0.491351351182E+00  0.486072978232E+00  0.490037862727E+00  0.495098383731E+00
  0.999993490674E+00  0.999993692749E+00  0.999993545390E+00  0.989539096031E+00  0.999993139454E+00  0.985524336654E+00  0.989838950455E+00
  0.991798148912E+00  0.999992723571E+00  0.984411042818E+00  0.985091756282E+00  0.984688188954E+00  0.990058493793E+00  0.100289628339E+01
  0.999855309501E+00  0.100485272194E+01  0.100121427457E+01  0.100055593144E+01  0.997896520315E+00  0.100350015678E+01  0.100058021412E+01
  0.101093255452E+01  0.104043253478E+01  0.100326461028E+01  0.100254477837E+01  0.100045512776E+01  0.100976769015E+01  0.100405357349E+01
  0.100192633368E+01  0.100045423206E+01  0.100058811821E+01  0.100109981426E+01  0.100176095188E+01
        15         7        19        19
         8        20        19        19
        18        19        21        21
         7         4         8         8
         3         6         4         4
        19         7         8         8
        19        18        15        15
        14        13        15        15
         8        22        20        20
        27        24        22        22
        19        20        21        21
        32        26        21        21
        17        18        26        26
        17        16        15        15
        25        29        21        21
        12         7        13        13
        10         8         6         6
        25        20        24        24
         4         6         8         8
        12         2         4         4
        10        23        22        22
        26        31        17        17
        30        16        17        17
         4         7        12        12
        13        11        12        12
        21        20        25        25
        24        28        25        25
        22         8        10        10
         6         5        10        10
        31        26        32        32
         4         2         3         3
         5         6         3         3
        11        13        14        14
        22        23        27        27
        28        24        27        27
        15        13         7         7
         2        12         1         1
        29        25        33        33
        23        10         9         9
        21        26        18        18
        16        14        15        15
        18        17        15        15
        29        32        21        21
        22        24        20        20
        28        33        25        25
        11         1        12        12
        31        30        17        17
         5         9        10        10
zone t="boundary 3 bc-3", solutiontime= 0.3000000E+02, strandid=1003, i=33, j=48, f=feblock
  0.375000000000E+01  0.250000000000E+01  0.500000000000E+01  0.403552511878E+01  0.288078410721E+01  0.125000000000E+01  0.190974100652E+01
  0.500000000000E+01  0.326683758169E+01  0.423153924130E+01  0.201431602454E+01  0.000000000000E+00  0.963108083381E+00  0.500000000000E+01
  0.267000324704E+01  0.385533350601E+01  0.893127759452E+00  0.154774304040E+01  0.000000000000E+00  0.500000000000E+01  0.315249557942E+01
  0.218329375016E+01  0.398173246726E+01  0.000000000000E+00  0.698517061619E+00  0.964171764089E+00  0.125000000000E+01  0.000000000000E+00
  0.500000000000E+01  0.310324758057E+01  0.250000000000E+01  0.375000000000E+01  0.000000000000E+00
  0.250000000000E+01  0.250000000000E+01  0.250000000000E+01  0.250000000000E+01  0.250000000000E+01  0.250000000000E+01  0.250000000000E+01
  0.250000000000E+01  0.250000000000E+01  0.250000000000E+01  0.250000000000E+01  0.250000000000E+01  0.250000000000E+01  0.250000000000E+01
  0.250000000000E+01  0.250000000000E+01  0.250000000000E+01  0.250000000000E+01  0.250000000000E+01  0.250000000000E+01  0.250000000000E+01
  0.250000000000E+01  0.250000000000E+01  0.250000000000E+01  0.250000000000E+01  0.250000000000E+01  0.250000000000E+01  0.250000000000E+01
  0.250000000000E+01  0.250000000000E+01  0.250000000000E+01  0.250000000000E+01  0.250000000000E+01
  0.000000000000E+00  0.000000000000E+00  0.000000000000E+00  0.101201586758E+01  0.904659890645E+00  0.000000000000E+00  0.717002441913E+00
  0.125000000000E+01  0.188609243358E+01  0.191586535653E+01  0.176246431481E+01  0.000000000000E+00  0.961328577125E+00  0.250000000000E+01
  0.285047954584E+01  0.293121848150E+01  0.205246550326E+01  0.292817774674E+01  0.125000000000E+01  0.375000000000E+01  0.363585050272E+01
  0.395907379566E+01  0.406975391361E+01  0.250000000000E+01  0.306828197606E+01  0.397245519226E+01  0.500000000000E+01  0.375000000000E+01
  0.500000000000E+01  0.433168271247E+01  0.500000000000E+01  0.500000000000E+01  0.500000000000E+01
  0.941860794031E+00  0.946295847229E+00  0.843730465777E+00  0.964337074681E+00  0.978822845920E+00  0.956975364749E+00  0.983330915608E+00
  0.963504939062E+00  0.982688815455E+00  0.984244430144E+00  0.990263116035E+00  0.134427120624E+01  0.101918219862E+01  0.100829754697E+01
  0.993455633343E+00  0.997997647794E+00  0.100807761531E+01  0.100072059473E+01  0.106355337921E+01  0.100673652455E+01  0.100058280573E+01
  0.100234908094E+01  0.100178182815E+01  0.102389267962E+01  0.100874162833E+01  0.100528322362E+01  0.100522801700E+01  0.100830781962E+01
  0.100196259773E+01  0.100161969998E+01  0.100413152319E+01  0.100321754196E+01  0.100426007859E+01
  0.000000000000E+00  0.000000000000E+00  0.000000000000E+00  0.439068933519E+00  0.399864956722E+00  0.000000000000E+00  0.373794147999E+00
  0.495011014018E+00  0.573056276004E+00  0.569603264938E+00  0.559933348937E+00  0.000000000000E+00  0.483390969202E+00  0.533822545134E+00
  0.556459191113E+00  0.564688377362E+00  0.522616033554E+00  0.522533646091E+00  0.445482009341E+00  0.518327220111E+00  0.524751690696E+00
  0.503888983446E+00  0.509844834004E+00  0.471739271689E+00  0.496246056049E+00  0.494940663244E+00  0.489078139940E+00  0.489830825361E+00
  0.493066874489E+00  0.499150324811E+00  0.486770865230E+00  0.484761548456E+00  0.495785238730E+00
  0.000000000000E+00  0.000000000000E+00  0.000000000000E+00  0.000000000000E+00  0.000000000000E+00  0.000000000000E+00  0.000000000000E+00
  0.000000000000E+00  0.000000000000E+00  0.000000000000E+00  0.000000000000E+00  0.000000000000E+00  0.000000000000E+00  0.000000000000E+00
  0.000000000000E+00  0.000000000000E+00  0.000000000000E+00  0.000000000000E+00  0.000000000000E+00  0.000000000000E+00  0.000000000000E+00
  0.000000000000E+00  0.000000000000E+00  0.000000000000E+00  0.000000000000E+00  0.000000000000E+00  0.000000000000E+00  0.000000000000E+00
  0.000000000000E+00  0.000000000000E+00  0.000000000000E+00  0.000000000000E+00  0.000000000000E+00
  0.000000000000E+00  0.000000000000E+00  0.000000000000E+00 -0.226116409688E-01  0.111963995093E-01  0.000000000000E+00  0.179817060616E-01
 -0.100759849664E+00  0.390462463650E-02 -0.389310686503E-01  0.340378043846E-01  0.000000000000E+00  0.652294161417E-01 -0.424919834817E-01
  0.843937161107E-02 -0.650843308732E-02  0.490054411626E-01  0.135871894337E-01  0.452184653197E-01  0.738593361893E-03 -0.699696257479E-03
  0.243773725946E-02  0.869599105140E-03  0.351819569577E-02  0.103942852593E-01  0.431637942813E-02  0.337408228973E-02  0.458690567151E-03
  0.573084154043E-02  0.341275709262E-03  0.160752411014E-02  0.570181338543E-03  0.237161031951E-02
  0.672750539928E+00  0.675918447751E+00  0.602658368222E+00  0.676093504294E+00  0.691308527396E+00  0.683546879141E+00  0.690066233765E+00
  0.677276451924E+00  0.695201563960E+00  0.696250845856E+00  0.703343679323E+00  0.960184400844E+00  0.719725943012E+00  0.722865734064E+00
  0.709447211998E+00  0.713700751459E+00  0.726066943281E+00  0.716602405743E+00  0.782340137770E+00  0.722285095800E+00  0.716127924604E+00
  0.716550995617E+00  0.716545806520E+00  0.737394761752E+00  0.722682435004E+00  0.719440785441E+00  0.719565398369E+00  0.722781357351E+00
  0.716029319624E+00  0.715846789465E+00  0.718145985418E+00  0.717061414963E+00  0.718614925776E+00
  0.000000000000E+00  0.000000000000E+00  0.000000000000E+00  0.443766881476E+00  0.402286632049E+00  0.000000000000E+00  0.377550348178E+00
  0.509225888867E+00  0.575832234797E+00  0.573705599017E+00  0.562554716500E+00  0.000000000000E+00  0.490563634390E+00  0.534527372964E+00
  0.556587487131E+00  0.564391360805E+00  0.522731094030E+00  0.522052644933E+00  0.441238959585E+00  0.517182743364E+00  0.524229465852E+00
  0.503688313105E+00  0.509494185953E+00  0.469815441619E+00  0.495615089153E+00  0.494484090353E+00  0.488564295400E+00  0.488962306415E+00
  0.492982489093E+00  0.499009518554E+00  0.486465290864E+00  0.484600467193E+00  0.495346987204E+00
  0.999989342234E+00  0.999989410945E+00  0.999989629075E+00  0.981535327079E+00  0.988771300536E+00  0.999989828420E+00  0.982469595877E+00
  0.984101891181E+00  0.990427665642E+00  0.990354788247E+00  0.994363149659E+00  0.999990295817E+00  0.988651804930E+00  0.100368391328E+01
  0.999768951388E+00  0.100118577859E+01  0.100834866796E+01  0.100252095672E+01  0.102982719465E+01  0.100443274826E+01  0.100199512595E+01
  0.100082038577E+01  0.100137984234E+01  0.100826257185E+01  0.100298766363E+01  0.100192371259E+01  0.100215228851E+01  0.100355653364E+01
  0.100047751258E+01  0.100056489032E+01  0.100126761920E+01  0.100066629516E+01  0.100179317842E+01
        15         9        16        16
        15        18        11        11
        22        15        21        21
        11         5         9         9
         5         7         2         2
        11         9        15        15
        16        21        15        15
        16        10        14        14
        18        17        11        11
        17        25        24        24
        22        18        15        15
        22        30        31        31
        30        21        23        23
        16        20        23        23
        22        27        26        26
        10         9         4         4
         7        11        13        13
        25        18        26        26
        11         7         5         5
         5         1         4         4
        17        19        13        13
        23        32        30        30
        23        20        29        29
         4         9         5         5
         4         8        10        10
        26        18        22        22
        26        28        25        25
        13        11        17        17
        13         6         7         7
        31        30        32        32
         2         1         5         5
         2         7         6         6
        14        10         8         8
        24        19        17        17
        24        25        28        28
         9        10        16        16
         3         4         1         1
        33        26        27        27
        12        13        19        19
        21        30        22        22
        16        14        20        20
        16        23        21        21
        22        31        27        27
        18        25        17        17
        26        33        28        28
         4         3         8         8
        23        29        32        32
        13        12         6         6
zone t="boundary 4 bc-4", solutiontime= 0.3000000E+02, strandid=1004, i=32, j=46, f=feblock
  0.125000000000E+01  0.219251206392E+01  0.103724302461E+01  0.500000000000E+01  0.250000000000E+01  0.375000000000E+01  0.404200324774E+01
  0.500000000000E+01  0.000000000000E+00  0.310152362409E+01  0.202479342020E+01  0.324151231464E+01  0.922061490191E+00  0.000000000000E+00
  0.299062775774E+01  0.394624082883E+01  0.500000000000E+01  0.409252726285E+01  0.500000000000E+01  0.429310310915E+01  0.175434191980E+01
  0.284428995242E+01  0.000000000000E+00  0.000000000000E+00  0.715990576545E+00  0.930412228790E+00  0.125000000000E+01  0.187029682677E+01
  0.500000000000E+01  0.375000000000E+01  0.250000000000E+01  0.000000000000E+00
  0.250000000000E+01  0.157686156160E+01  0.146289271009E+01  0.250000000000E+01  0.250000000000E+01  0.250000000000E+01  0.155830813274E+01
  0.125000000000E+01  0.250000000000E+01  0.177790177481E+01  0.477386199275E+00  0.742988685424E+00  0.308372018325E+00  0.125000000000E+01
 -0.487811078581E+00 -0.144524380962E+01 -0.125000000000E+01 -0.345533899378E+00  0.000000000000E+00  0.627766083140E+00 -0.739814786992E+00
 -0.158811787973E+01  0.000000000000E+00 -0.125000000000E+01 -0.600232012419E+00 -0.154800130438E+01 -0.250000000000E+01 -0.178862290564E+01
 -0.250000000000E+01 -0.250000000000E+01 -0.250000000000E+01 -0.250000000000E+01
  0.500000000000E+01  0.500000000000E+01  0.500000000000E+01  0.500000000000E+01  0.500000000000E+01  0.500000000000E+01  0.500000000000E+01
  0.500000000000E+01  0.500000000000E+01  0.500000000000E+01  0.500000000000E+01  0.500000000000E+01  0.500000000000E+01  0.500000000000E+01
  0.500000000000E+01  0.500000000000E+01  0.500000000000E+01  0.500000000000E+01  0.500000000000E+01  0.500000000000E+01  0.500000000000E+01
  0.500000000000E+01  0.500000000000E+01  0.500000000000E+01  0.500000000000E+01  0.500000000000E+01  0.500000000000E+01  0.500000000000E+01
  0.500000000000E+01  0.500000000000E+01  0.500000000000E+01  0.500000000000E+01
  0.100522801700E+01  0.100432870172E+01  0.100431975029E+01  0.100196259773E+01  0.100413152319E+01  0.100321754196E+01  0.100258235249E+01
  0.100200856741E+01  0.100426007859E+01  0.100372244706E+01  0.100446418973E+01  0.100346787963E+01  0.100365957733E+01  0.100424766504E+01
  0.100362226635E+01  0.100163979840E+01  0.100227386839E+01  0.100226992382E+01  0.100213193761E+01  0.100253969892E+01  0.100442335594E+01
  0.100337175500E+01  0.100288822782E+01  0.100334523363E+01  0.100323184053E+01  0.100406047884E+01  0.100510125208E+01  0.100431286953E+01
  0.100179258838E+01  0.100266099990E+01  0.100321124546E+01  0.100399293482E+01
  0.489078139940E+00  0.489240916356E+00  0.490984451418E+00  0.493066874489E+00  0.486770865230E+00  0.484761548456E+00  0.485407220103E+00
  0.494264600776E+00  0.495785238730E+00  0.486804665228E+00  0.488140547653E+00  0.487247724312E+00  0.494423962693E+00  0.496536816733E+00
  0.487846408383E+00  0.483216499187E+00  0.492572279557E+00  0.487262589930E+00  0.494866961662E+00  0.488014800332E+00  0.490097608927E+00
  0.488269032895E+00  0.497534334324E+00  0.496384326449E+00  0.495260239101E+00  0.493217223562E+00  0.490458802178E+00  0.490400896765E+00
  0.491425943667E+00  0.486215870325E+00  0.490305794748E+00  0.495522109488E+00
  0.000000000000E+00 -0.897817376315E-04 -0.129723493768E-02  0.000000000000E+00  0.000000000000E+00  0.000000000000E+00  0.425104138900E-03
  0.797901797489E-03  0.000000000000E+00  0.273708605399E-03 -0.942062607437E-03 -0.819989551258E-03 -0.174501757292E-02 -0.634634396742E-04
 -0.109817396312E-02 -0.102090041607E-02 -0.133122617088E-02 -0.213268912571E-02 -0.132840490937E-02 -0.106355847248E-02 -0.623729763231E-03
 -0.760449280339E-03 -0.196313362328E-03  0.807242050644E-03  0.519904845478E-04  0.161651603564E-02  0.000000000000E+00  0.791730010483E-03
  0.000000000000E+00  0.000000000000E+00  0.000000000000E+00  0.000000000000E+00