# vtk DataFile Version 2.0
FUN3D:global_image_vtk
ASCII
DATASET UNSTRUCTURED_GRID
POINTS 213 double
    0.0000000000000000E+00    0.2500000000000000E+01    0.0000000000000000E+00
    0.1250000000000000E+01    0.2500000000000000E+01    0.0000000000000000E+00
    0.2500000000000000E+01    0.2500000000000000E+01    0.0000000000000000E+00
    0.3750000000000000E+01    0.2500000000000000E+01    0.0000000000000000E+00
    0.5000000000000000E+01    0.2500000000000000E+01    0.0000000000000000E+00
    0.5000000000000000E+01    0.1250000000000000E+01    0.0000000000000000E+00
    0.5000000000000000E+01    0.0000000000000000E+00    0.0000000000000000E+00
    0.5000000000000000E+01   -0.1250000000000000E+01    0.0000000000000000E+00
    0.5000000000000000E+01   -0.2500000000000000E+01    0.0000000000000000E+00
    0.3750000000000000E+01   -0.2500000000000000E+01    0.0000000000000000E+00
    0.2500000000000000E+01   -0.2500000000000000E+01    0.0000000000000000E+00
    0.1250000000000000E+01   -0.2500000000000000E+01    0.0000000000000000E+00
    0.0000000000000000E+00   -0.2500000000000000E+01    0.0000000000000000E+00
    0.0000000000000000E+00   -0.1250000000000000E+01    0.0000000000000000E+00
    0.0000000000000000E+00    0.0000000000000000E+00    0.0000000000000000E+00
    0.0000000000000000E+00    0.1250000000000000E+01    0.0000000000000000E+00
    0.9058375365086910E+00    0.1578994732800803E+01    0.0000000000000000E+00
    0.3982050490726493E+01   -0.1583989954232354E+01    0.0000000000000000E+00
    0.4033849428301197E+01    0.1453322699199022E+01    0.0000000000000000E+00
    0.1040505887381675E+01   -0.1479596339503735E+01    0.0000000000000000E+00
    0.1099454400140349E+01   -0.3227322616384110E+00    0.0000000000000000E+00
    0.7354504170366591E+00    0.6593508822075582E+00    0.0000000000000000E+00
    0.1622302608453282E+01    0.8256214013940779E+00    0.0000000000000000E+00
    0.2145871574390382E+01   -0.1650070333782557E+01    0.0000000000000000E+00
    0.4086422318222992E+01   -0.4612828702537229E+00    0.0000000000000000E+00
    0.2979540174134984E+01   -0.8579242121530853E+00    0.0000000000000000E+00
    0.3045064261640043E+01   -0.1836846154397680E+01    0.0000000000000000E+00
    0.3428197553792836E+01    0.3508002863614053E+00    0.0000000000000000E+00
    0.4309693860063405E+01    0.5185680230613409E+00    0.0000000000000000E+00
    0.1827272193562204E+01    0.1738996113203182E+01    0.0000000000000000E+00
    0.2808563282768077E+01    0.1325493893339706E+01    0.0000000000000000E+00
    0.1895995683864404E+01   -0.8731419609589618E+00    0.0000000000000000E+00
    0.2273179336307740E+01    0.4906150219227333E-01    0.0000000000000000E+00
    0.5000000000000000E+01    0.2500000000000000E+01    0.1250000000000000E+01
    0.5000000000000000E+01    0.2500000000000000E+01    0.2500000000000000E+01
    0.5000000000000000E+01    0.2500000000000000E+01    0.3750000000000000E+01
    0.5000000000000000E+01    0.2500000000000000E+01    0.5000000000000000E+01
    0.3750000000000000E+01    0.2500000000000000E+01    0.5000000000000000E+01
    0.2500000000000000E+01    0.2500000000000000E+01    0.5000000000000000E+01
    0.1250000000000000E+01    0.2500000000000000E+01    0.5000000000000000E+01
    0.0000000000000000E+00    0.2500000000000000E+01    0.5000000000000000E+01
    0.0000000000000000E+00    0.2500000000000000E+01    0.3750000000000000E+01
    0.0000000000000000E+00    0.2500000000000000E+01    0.2500000000000000E+01
    0.0000000000000000E+00    0.2500000000000000E+01    0.1250000000000000E+01
    0.9631080833812172E+00    0.2500000000000000E+01    0.9613285771248219E+00
    0.3981732467264904E+01    0.2500000000000000E+01    0.4069753913607991E+01
    0.4035525118777670E+01    0.2500000000000000E+01    0.1012015867579395E+01
    0.9641717640894248E+00    0.2500000000000000E+01    0.3972455192261839E+01
    0.1547743040396780E+01    0.2500000000000000E+01    0.2928177746738678E+01
    0.6985170616192014E+00    0.2500000000000000E+01    0.3068281976055466E+01
    0.8931277594515110E+00    0.2500000000000000E+01    0.2052465503257726E+01
    0.2183293750162785E+01    0.2500000000000000E+01    0.3959073795658649E+01
    0.3855333506014705E+01    0.2500000000000000E+01    0.2931218481500625E+01
    0.3152495579421047E+01    0.2500000000000000E+01    0.3635850502723324E+01
    0.3103247580566054E+01    0.2500000000000000E+01    0.4331682712472464E+01
    0.3266837581688852E+01    0.2500000000000000E+01    0.1886092433583972E+01
    0.4231539241296245E+01    0.2500000000000000E+01    0.1915865356532799E+01
    0.1909741006522088E+01    0.2500000000000000E+01    0.7170024419130505E+00
    0.2880784107213163E+01    0.2500000000000000E+01    0.9046598906449592E+00
    0.2014316024535771E+01    0.2500000000000000E+01    0.1762464314805728E+01
    0.2670003247036656E+01    0.2500000000000000E+01    0.2850479545835163E+01
    0.5000000000000000E+01    0.1250000000000000E+01    0.5000000000000000E+01
    0.5000000000000000E+01    0.0000000000000000E+00    0.5000000000000000E+01
    0.5000000000000000E+01   -0.1250000000000000E+01    0.5000000000000000E+01
    0.5000000000000000E+01   -0.2500000000000000E+01    0.5000000000000000E+01
    0.5000000000000000E+01   -0.2500000000000000E+01    0.3750000000000000E+01
    0.5000000000000000E+01   -0.2500000000000000E+01    0.2500000000000000E+01
    0.5000000000000000E+01   -0.2500000000000000E+01    0.1250000000000000E+01
    0.5000000000000000E+01    0.1578994732800803E+01    0.9058375365086910E+00
    0.5000000000000000E+01   -0.1583989954232354E+01    0.3982050490726493E+01
    0.5000000000000000E+01    0.1453322699199022E+01    0.4033849428301197E+01
    0.5000000000000000E+01   -0.1479596339503735E+01    0.1040505887381675E+01
    0.5000000000000000E+01   -0.3227322616384110E+00    0.1099454400140349E+01
    0.5000000000000000E+01    0.6593508822075582E+00    0.7354504170366591E+00
    0.5000000000000000E+01    0.8256214013940779E+00    0.1622302608453282E+01
    0.5000000000000000E+01   -0.1650070333782557E+01    0.2145871574390382E+01
    0.5000000000000000E+01   -0.4612828702537229E+00    0.4086422318222992E+01
    0.5000000000000000E+01   -0.8579242121530853E+00    0.2979540174134984E+01
    0.5000000000000000E+01   -0.1836846154397680E+01    0.3045064261640043E+01
    0.5000000000000000E+01    0.3508002863614053E+00    0.3428197553792836E+01
    0.5000000000000000E+01    0.5185680230613409E+00    0.4309693860063405E+01
    0.5000000000000000E+01    0.1738996113203182E+01    0.1827272193562204E+01
    0.5000000000000000E+01    0.1325493893339706E+01    0.2808563282768077E+01
    0.5000000000000000E+01   -0.8731419609589618E+00    0.1895995683864404E+01
    0.5000000000000000E+01    0.4906150219227333E-01    0.2273179336307740E+01
    0.0000000000000000E+00    0.1250000000000000E+01    0.5000000000000000E+01
    0.0000000000000000E+00    0.0000000000000000E+00    0.5000000000000000E+01
    0.0000000000000000E+00   -0.1250000000000000E+01    0.5000000000000000E+01
    0.0000000000000000E+00   -0.2500000000000000E+01    0.5000000000000000E+01
    0.1250000000000000E+01   -0.2500000000000000E+01    0.5000000000000000E+01
    0.2500000000000000E+01   -0.2500000000000000E+01    0.5000000000000000E+01
    0.3750000000000000E+01   -0.2500000000000000E+01    0.5000000000000000E+01
    0.4042003247744892E+01    0.1558308132739014E+01    0.5000000000000000E+01
    0.9304122287900499E+00   -0.1548001304379777E+01    0.5000000000000000E+01
    0.1037243024609388E+01    0.1462892710085612E+01    0.5000000000000000E+01
    0.3946240828834967E+01   -0.1445243809615570E+01    0.5000000000000000E+01
    0.4092527262848217E+01   -0.3455338993778935E+00    0.5000000000000000E+01
    0.4293103109154542E+01    0.6277660831404320E+00    0.5000000000000000E+01
    0.3241512314643519E+01    0.7429886854239611E+00    0.5000000000000000E+01
    0.2844289952419609E+01   -0.1588117879734118E+01    0.5000000000000000E+01
    0.7159905765450471E+00   -0.6002320124191652E+00    0.5000000000000000E+01
    0.1754341919796891E+01   -0.7398147869923652E+00    0.5000000000000000E+01
    0.1870296826774691E+01   -0.1788622905643739E+01    0.5000000000000000E+01
    0.9220614901912976E+00    0.3083720183248586E+00    0.5000000000000000E+01
    0.3101523624086016E+01    0.1777901774806180E+01    0.5000000000000000E+01
    0.2192512063922564E+01    0.1576861561598471E+01    0.5000000000000000E+01
    0.2024793420196460E+01    0.4773861992750707E+00    0.5000000000000000E+01
    0.2990627757741975E+01   -0.4878110785814084E+00    0.5000000000000000E+01
    0.0000000000000000E+00   -0.2500000000000000E+01    0.1250000000000000E+01
    0.0000000000000000E+00   -0.2500000000000000E+01    0.2500000000000000E+01
    0.0000000000000000E+00   -0.2500000000000000E+01    0.3750000000000000E+01
    0.0000000000000000E+00    0.1558308132739014E+01    0.4042003247744892E+01
    0.0000000000000000E+00   -0.1548001304379777E+01    0.9304122287900499E+00
    0.0000000000000000E+00    0.1462892710085612E+01    0.1037243024609388E+01
    0.0000000000000000E+00   -0.1445243809615570E+01    0.3946240828834967E+01
    0.0000000000000000E+00   -0.3455338993778935E+00    0.4092527262848217E+01
    0.0000000000000000E+00    0.6277660831404320E+00    0.4293103109154542E+01
    0.0000000000000000E+00    0.7429886854239611E+00    0.3241512314643519E+01
    0.0000000000000000E+00   -0.1588117879734118E+01    0.2844289952419609E+01
    0.0000000000000000E+00   -0.6002320124191652E+00    0.7159905765450471E+00
    0.0000000000000000E+00   -0.7398147869923652E+00    0.1754341919796891E+01
    0.0000000000000000E+00   -0.1788622905643739E+01    0.1870296826774691E+01
    0.0000000000000000E+00    0.3083720183248586E+00    0.9220614901912976E+00
    0.0000000000000000E+00    0.1777901774806180E+01    0.3101523624086016E+01
    0.0000000000000000E+00    0.1576861561598471E+01    0.2192512063922564E+01
[...]
POINT_DATA 213
SCALARS rho double 1
LOOKUP_TABLE default
   0.1344271447242695E+01
   0.9569758904792759E+00
   0.9462964180608885E+00
   0.9418612689015093E+00
   0.8437304865815071E+00
   0.7738004287310155E+00
   0.7629818902575709E+00
   0.7664577900352380E+00
   0.8307873996248832E+00
   0.9352972535564092E+00
   0.9342219801232853E+00
   0.9617195266001478E+00
   0.1449457445751641E+01
   0.1494090639343411E+01
   0.1644667268989610E+01
   0.1425832042627333E+01
   0.1009014431808826E+01
   0.9508810859416620E+00
   0.9436508493289876E+00
   0.9581561010774070E+00
   0.9415852465263324E+00
   0.1036377237117349E+01
   0.9256161097225424E+00
   0.9322349861568184E+00
   0.9537479562712246E+00
   0.9518769542251798E+00
   0.9348583099993771E+00
   0.9564028398567717E+00
   0.9376098381291519E+00
   0.9300661514916970E+00
   0.9445157489129135E+00
   0.8863506522031108E+00
   0.9423579955778849E+00
   0.9635003073940849E+00
   0.1008299039454401E+01
   0.1006735291837929E+01
   0.1001964617552151E+01
   0.1003219581433246E+01
   0.1004132053854417E+01
   0.1005228602844562E+01
   0.1004260408182382E+01
   0.1008308189857467E+01
   0.1023893137716592E+01
   0.1063553955842380E+01
   0.1019182512920228E+01
   0.1001780766366804E+01
   0.9643309931452375E+00
   0.1005283708872206E+01
   0.1000721163195309E+01
   0.1008742083663390E+01
   0.1008078083527447E+01
   0.1002349807005315E+01
   0.9979986847798611E+00
   0.1000583560875982E+01
   0.1001620123557623E+01
   0.9826893071428221E+00
   0.9842439639919707E+00
   0.9833314030038887E+00
   0.9788207404767814E+00
   0.9902638160236140E+00
   0.9934561552669304E+00
   0.1002011751612707E+01
   0.1002134465624351E+01
   0.1002276326481745E+01
   0.1001794758307994E+01
   0.1009778638890701E+01
   0.1006429109061938E+01
   0.9558786954866659E+00
   0.9249398402749086E+00
   0.1007036755521660E+01
   0.1004504925149984E+01
   0.9143642069654675E+00
   0.9089667854390112E+00
   0.8751688892508691E+00
   0.9767271883060858E+00
   0.1000452621141169E+01
   0.1005831087455499E+01
   0.1012882803329857E+01
   0.1011618951343441E+01
   0.1010438648633678E+01
   0.1005468280890008E+01
   0.9907612677453692E+00
   0.1005140325672558E+01
   0.9860567245260545E+00
   0.1005609737666798E+01
   0.1004248005644284E+01
   0.1002888437636312E+01
   0.1003345420388664E+01
   0.1003992731812252E+01
   0.1005101716082374E+01
   0.1003211645068850E+01
   0.1002663159901730E+01
   0.1002586231357661E+01
   0.1004060870874931E+01
   0.1004320345962222E+01
   0.1001641920309837E+01
   0.1002273115925553E+01
   0.1002543475536779E+01
   0.1003469520739855E+01
   0.1003372640189120E+01
   0.1003232229978699E+01
   0.1004423863369821E+01
   0.1004313070759301E+01
   0.1003659849336174E+01
   0.1003723103857441E+01
   0.1004329726345200E+01
   0.1004465021783861E+01
   0.1003623375256245E+01
   0.1064422800930916E+01
   0.1028473621145183E+01
   0.1009586657210357E+01
   0.1006638837375609E+01
   0.1163935521800656E+01
   0.1086087969726807E+01
   0.1007893419161930E+01
   0.1007245533203686E+01
   0.1006798074051217E+01
   0.1013018286750342E+01
   0.1019384609268655E+01
   0.1235203667777635E+01
   0.1032529466587687E+01
   0.1046681191219289E+01
   0.1200953640880381E+01
   0.1014718915875462E+01
   0.1032291152950904E+01
   0.1028095236398399E+01
   0.1014628639607747E+01
   0.1029216892560818E+01
   0.1001994816321318E+01
   0.9606929188410768E+00
   0.1006852582695441E+01
   0.1001327193263569E+01
   0.1010821905231367E+01
   0.1012246098776149E+01
   0.1000946006839932E+01
   0.9979121233961574E+00
   0.9980632372187641E+00
   0.1001184143300542E+01
   0.9841362010204968E+00
   0.9814879613844769E+00
   0.9648483310903057E+00
   0.9680877120456213E+00
   0.9914124469900789E+00
   0.9910858388097705E+00
   0.9925545095384491E+00
   0.1001727533802224E+01
   0.9993409401620449E+00
   0.9941410834734640E+00
   0.1007038753571029E+01
   0.1022539494011126E+01
   0.1001088098224752E+01
   0.1008798496136155E+01
   0.1004773845985142E+01
   0.1009050237312861E+01
   0.9966470331638793E+00
   0.1004988557048977E+01
   0.1003325535081444E+01
   0.9949431084838815E+00
   0.9832680780482698E+00
   0.9943957454395088E+00
   0.9973420655779704E+00
   0.9932190084984474E+00
   0.1001306487058810E+01
   0.1003001636861797E+01
   0.1002183579557746E+01
   0.9947078545017229E+00
   0.9937965520975238E+00
   0.1004867865417779E+01
   0.1020077607325179E+01
   0.1005364552319362E+01
   0.9816998152084234E+00
   0.1004973031141265E+01
   0.1012382323271459E+01
   0.9871424289484347E+00
   0.9551513532724022E+00
   0.9865075699151762E+00
   0.9864532948738419E+00
   0.9918946936956419E+00
   0.9933508196181299E+00
   0.9954406178130937E+00
   0.1037336789600390E+01
   0.1033536797499093E+01
   0.1001443320745994E+01
   0.1001930499681522E+01
   0.9912478516143712E+00
   0.9910920509170430E+00
   0.9648489987318731E+00
   0.9933282604746333E+00
   0.1006058638646866E+01
   0.1001954027097169E+01
   0.9908735804114167E+00
   0.9740945209673179E+00
   0.9418802134044812E+00
   0.9819379687585296E+00
   0.9794803560215664E+00
   0.9704172059849557E+00
   0.9720478942716285E+00
   0.9557351699741287E+00
   0.9496731207923136E+00
   0.9528673561798610E+00
   0.1002659533922095E+01
   0.1002471631843411E+01
   0.1000509329217872E+01
   0.1001677321709527E+01
   0.9607931427544276E+00
   0.9491625496408043E+00
   0.9584503057440769E+00
   0.1001121207668072E+01
   0.1000496140498615E+01
   0.1001156644130093E+01
   0.9807376182631722E+00
   0.9806000803428492E+00
   0.9628476101903426E+00
SCALARS u double 1
LOOKUP_TABLE default
   0.0000000000000000E+00
   0.0000000000000000E+00
   0.0000000000000000E+00
   0.0000000000000000E+00
   0.0000000000000000E+00
   0.0000000000000000E+00
   0.0000000000000000E+00
   0.0000000000000000E+00
   0.0000000000000000E+00
   0.0000000000000000E+00
   0.0000000000000000E+00
   0.0000000000000000E+00
   0.0000000000000000E+00
   0.0000000000000000E+00
   0.0000000000000000E+00
   0.0000000000000000E+00
   0.0000000000000000E+00
   0.0000000000000000E+00
   0.0000000000000000E+00
   0.0000000000000000E+00
   0.0000000000000000E+00
   0.0000000000000000E+00
   0.0000000000000000E+00
   0.0000000000000000E+00
   0.0000000000000000E+00
   0.0000000000000000E+00
   0.0000000000000000E+00
   0.0000000000000000E+00
   0.0000000000000000E+00
   0.0000000000000000E+00
   0.0000000000000000E+00
   0.0000000000000000E+00
   0.0000000000000000E+00
   0.4950176840613019E+00
   0.5338221299442314E+00
   0.5183269246287517E+00
   0.4930649880118655E+00
   0.4847578720689312E+00
   0.4867666425524690E+00
   0.4890763585072231E+00
   0.4957848881358276E+00
   0.4898301885348331E+00
   0.4717388496292597E+00
   0.4454814156337450E+00
   0.4833907046860778E+00
   0.5098397462688633E+00
   0.4390712705330399E+00
   0.4949403966060918E+00
   0.5225330362955372E+00
   0.4962454547067106E+00
   0.5226154964393094E+00
   0.5038881744077534E+00
   0.5646883608469446E+00
   0.5247509156984626E+00
   0.4991466120475504E+00
   0.5730561901528368E+00
   0.5696051097751007E+00
   0.3737941448704483E+00
   0.3998658125744632E+00
   0.5599326586319879E+00
   0.5564587630383985E+00
   0.4942627332815073E+00
   0.4948659465956532E+00
   0.4925735874087085E+00
   0.4914269544125366E+00
   0.5162356849921568E+00
   0.5361798304108584E+00
   0.4947413361982165E+00
   0.4524112210541538E+00
   0.5128777324864364E+00
   0.5117942039972321E+00
   0.4783517511234410E+00
   0.4931696661800053E+00
   0.4603173601771717E+00
   0.5244892722366653E+00
   0.5297434247263697E+00
   0.5129579300084085E+00
   0.5328358317857593E+00
   0.5308941035585044E+00
   0.5309856169017079E+00
   0.5063656734849252E+00
   0.5282461955986103E+00
   0.5410312729345859E+00
   0.5361261481922033E+00
   0.5374105275530684E+00
   0.4965364819500765E+00
   0.4975340904727321E+00
   0.4963842645326302E+00
   0.4955220268400378E+00
   0.4904581832516962E+00
   0.4903044386655228E+00
   0.4862182765385578E+00
   0.4854049562148533E+00
   0.4932164389220803E+00
   0.4909833313678668E+00
   0.4832194697525871E+00
   0.4872622777952383E+00
   0.4880124910271693E+00
   0.4872445932780013E+00
   0.4882696670849355E+00
   0.4952597557624275E+00
   0.4900967169348096E+00
   0.4904000092165294E+00
   0.4944232926759422E+00
   0.4868002482218144E+00
   0.4892385985376823E+00
   0.4881393371198643E+00
   0.4878457830187595E+00
   0.4446866581531594E+00
   0.4700028782601939E+00
   0.4891999057795952E+00
   0.4885247845046715E+00
   0.4506533046756667E+00
   0.4687378566935518E+00
   0.4877010458157564E+00
   0.4868353684778841E+00
   0.4908994717225295E+00
   0.4793551578801458E+00
   0.4658071749523948E+00
   0.3792725237690781E+00
   0.4901596530984493E+00
   0.4486686693321640E+00
   0.4436137398322451E+00
   0.4845147242932921E+00
   0.4621822648120565E+00
   0.4665749536684399E+00
   0.4748140301609722E+00
   0.4894494213482345E+00
   0.5085556973336250E+00
   0.4315073876467216E+00
   0.4927349362258406E+00
   0.5318289234057952E+00
   0.4913399197303010E+00
   0.5207019993760262E+00
   0.5060964600137220E+00
   0.5688797394606341E+00
   0.5273992817779511E+00
   0.5015044842067190E+00
   0.5821790086911131E+00
   0.5689618253170201E+00
   0.3406394442535511E+00
   0.3789869412788984E+00
   0.5751958205993469E+00
   0.5666485492727092E+00
   0.5704108782767430E+00
   0.5291056376171531E+00
   0.5451902710939259E+00
   0.5718804314772066E+00
   0.5389079126164223E+00
   0.5475507505571521E+00
   0.5821713868480159E+00
   0.4925601785349913E+00
   0.5042157547059012E+00
   0.4961735437189874E+00
   0.5565207962281966E+00
   0.4758845208901302E+00
   0.4950268384613118E+00
   0.5498525443259459E+00
   0.5891202296880392E+00
   0.5841957608930521E+00
   0.5469097664293182E+00
   0.5805417617667064E+00
   0.5106251438921638E+00
   0.5030200513844161E+00
   0.5033624680471294E+00
   0.5676446095826644E+00
   0.5563943082458802E+00
   0.4947255974304436E+00
   0.5505243828109302E+00
   0.5510857280735677E+00
   0.5657350949463945E+00
   0.4920070018829994E+00
   0.4927299097599207E+00
   0.3865140570173387E+00
   0.3687754533856785E+00
   0.5574921717744965E+00
   0.5763755545061736E+00
   0.4194304390081188E+00
   0.5824843240522911E+00
   0.4265209609049296E+00
   0.5392799843514595E+00
   0.5012032759280654E+00
   0.5119513208415154E+00
   0.5049119464339610E+00
   0.5751974973481216E+00
   0.5876371359879192E+00
   0.5379907807284063E+00
   0.5677472539676451E+00
   0.5351248665749525E+00
   0.5338056378990705E+00
   0.5580313797890590E+00
   0.5512707862469756E+00
   0.4261852757241086E+00
   0.5273356177935117E+00
   0.5795712529715473E+00
   0.3318687134253170E+00
   0.4760283324619102E+00
   0.5446196255209028E+00
   0.4798331901184722E+00
   0.3005293508934456E+00
   0.5031051138846457E+00
   0.5017115978487617E+00
   0.5129033211102704E+00
   0.5414840107911588E+00
   0.3437603855477052E+00
   0.3397710718026035E+00
   0.3189928572963486E+00
   0.5065936052533164E+00
   0.5123483779971439E+00
   0.5330313519069826E+00
   0.5879309999880703E+00
   0.4644180533064363E+00
   0.3531270510337353E+00
SCALARS v double 1
LOOKUP_TABLE default
   0.0000000000000000E+00
   0.0000000000000000E+00
   0.0000000000000000E+00
   0.0000000000000000E+00
   0.0000000000000000E+00
   0.0000000000000000E+00
   0.0000000000000000E+00
   0.0000000000000000E+00
   0.0000000000000000E+00
   0.0000000000000000E+00
   0.0000000000000000E+00
   0.0000000000000000E+00
   0.0000000000000000E+00
   0.0000000000000000E+00
   0.0000000000000000E+00
   0.0000000000000000E+00
   0.0000000000000000E+00
   0.0000000000000000E+00
   0.0000000000000000E+00
   0.0000000000000000E+00
   0.0000000000000000E+00
   0.0000000000000000E+00
   0.0000000000000000E+00
   0.0000000000000000E+00
   0.0000000000000000E+00
   0.0000000000000000E+00
   0.0000000000000000E+00
   0.0000000000000000E+00
   0.0000000000000000E+00
   0.0000000000000000E+00
   0.0000000000000000E+00
   0.0000000000000000E+00
   0.0000000000000000E+00
   0.0000000000000000E+00
   0.0000000000000000E+00
   0.0000000000000000E+00
   0.0000000000000000E+00
   0.0000000000000000E+00
   0.0000000000000000E+00
   0.0000000000000000E+00
   0.0000000000000000E+00
   0.0000000000000000E+00
   0.0000000000000000E+00
   0.0000000000000000E+00
   0.0000000000000000E+00
   0.0000000000000000E+00
   0.0000000000000000E+00
   0.0000000000000000E+00
   0.0000000000000000E+00
   0.0000000000000000E+00
   0.0000000000000000E+00
   0.0000000000000000E+00
   0.0000000000000000E+00
   0.0000000000000000E+00
   0.0000000000000000E+00
   0.0000000000000000E+00
   0.0000000000000000E+00
   0.0000000000000000E+00
   0.0000000000000000E+00
   0.0000000000000000E+00
   0.0000000000000000E+00
   0.7970254426893947E-03
  -0.1329294698184000E-02
  -0.1332592755180447E-02
   0.0000000000000000E+00
   0.0000000000000000E+00
   0.0000000000000000E+00
   0.0000000000000000E+00
  -0.1922562554028865E-01
   0.4770618206431248E-03
   0.2183360173849867E-02
   0.1427333001698180E-01
  -0.6488282060262750E-02
  -0.7821622852402810E-02
  -0.1327725049645120E-01
   0.4914481771325064E-02
   0.6907122057682705E-03
   0.3434418446096386E-02
   0.1920847385086257E-02
   0.3147960255439917E-02
   0.1704778374034089E-02
  -0.7316187295816341E-02
  -0.7701899205874275E-04
   0.4468738018600237E-02
  -0.4387156060288889E-03
  -0.6383742172489386E-04
  -0.1963394578657209E-03
   0.8071267938406510E-03
   0.0000000000000000E+00
   0.0000000000000000E+00
   0.0000000000000000E+00
   0.0000000000000000E+00
   0.4257020097382087E-03
   0.1616304629550174E-02
  -0.1297550940599546E-02
  -0.1022774977633492E-02
  -0.2134342417539659E-02
  -0.1064012672896401E-02
  -0.8200064367025401E-03
  -0.7617033190583937E-03
   0.5202258680919197E-04
  -0.6244091917016191E-03
   0.7916469189157343E-03
  -0.1745238504446309E-02
   0.2747128588441245E-03
  -0.8939747628267972E-04
  -0.9424310129788867E-03
  -0.1100227541915747E-02
   0.0000000000000000E+00
   0.0000000000000000E+00
   0.0000000000000000E+00
  -0.1061759101672033E-02
  -0.7641128884149113E-02
   0.1860854730709406E-01
  -0.2834553343355807E-04
  -0.1383129140669840E-02
  -0.2035122956346387E-02
  -0.5666383166139512E-02
  -0.1585210180549033E-02
  -0.5947016240340797E-02
  -0.4160601814036493E-02
   0.1565614850086575E-02
   0.3329524818418004E-01
   0.3055140591087223E-04
  -0.2766884914272969E-02
   0.3566484658258296E-02
   0.3596189480898924E-03
   0.0000000000000000E+00
   0.0000000000000000E+00
   0.0000000000000000E+00
   0.0000000000000000E+00
   0.0000000000000000E+00
   0.0000000000000000E+00
   0.0000000000000000E+00
   0.0000000000000000E+00
   0.0000000000000000E+00
   0.0000000000000000E+00
   0.0000000000000000E+00
   0.0000000000000000E+00
   0.0000000000000000E+00
   0.0000000000000000E+00
   0.0000000000000000E+00
   0.0000000000000000E+00
   0.0000000000000000E+00
   0.5047032571049131E-02
   0.3230791949876301E-02
   0.8149134248982184E-02
   0.6168366986135058E-02
   0.1122928631764036E-01
   0.1429277496249497E-01
  -0.2038826621735689E-03
   0.5118221811759950E-02
   0.2914950529623461E-02
   0.3373611804772407E-02
   0.3728336395737274E-02
  -0.1465719870381001E-01
  -0.6159699826941024E-03
   0.6651630332719967E-02
   0.1542014282840972E-02
   0.1969646535390255E-02
   0.4266273531490605E-02
  -0.2790960930538467E-02
   0.1226887066244074E-02
   0.2819172476674736E-02
   0.1497449151592218E-02
   0.2575339058762787E-02
   0.2030646450967647E-02
   0.2118046059806364E-02
   0.8700410475103367E-02
  -0.3733396962609935E-02
   0.6241189097635602E-02
   0.2516489153245268E-04
  -0.3854044719418322E-03
  -0.1674679001754125E-01
  -0.4881976858437051E-02
  -0.4720000781924868E-02
   0.3445223062201193E-02
  -0.6135724059694832E-02
   0.9934522974599858E-04
  -0.3291372907894854E-01
  -0.3046196710462446E-02
   0.4722743256614624E-02
   0.9228367951236252E-03
   0.2112175224438068E-02
   0.4518755684062075E-02
   0.2720465272788021E-02
   0.3212576463450216E-02
   0.5200804216237180E-02
   0.1941838971406670E-02
   0.7315897574228029E-03
  -0.2555238252074441E-04
  -0.5374632769389908E-02
  -0.6959590942150992E-02
  -0.9443815895217243E-03
   0.1105268415090502E-02
  -0.2080554114041396E-02
  -0.3200035982836451E-02
  -0.2527833362838535E-02
  -0.4115193634854214E-02
  -0.7593954971443367E-02
  -0.1985686389734540E-02
   0.6240402862751571E-03
  -0.2239081708202259E-03
   0.1216949785064661E-02
  -0.3483958234762997E-02
   0.5229139978101845E-02
  -0.8487626161498821E-02
   0.2315170730029315E-04
  -0.3395192818927322E-03
   0.2542663548294817E-02
   0.1663457683045099E-02
   0.2021438700601550E-02
  -0.5620783949673002E-02
SCALARS w double 1
LOOKUP_TABLE default
   0.0000000000000000E+00
   0.0000000000000000E+00
   0.0000000000000000E+00
   0.0000000000000000E+00
   0.0000000000000000E+00
   0.0000000000000000E+00
   0.0000000000000000E+00
   0.0000000000000000E+00
   0.0000000000000000E+00
   0.0000000000000000E+00
   0.0000000000000000E+00
   0.0000000000000000E+00
   0.0000000000000000E+00
   0.0000000000000000E+00
   0.0000000000000000E+00
   0.0000000000000000E+00
   0.0000000000000000E+00
   0.0000000000000000E+00
   0.0000000000000000E+00
   0.0000000000000000E+00
   0.0000000000000000E+00
   0.0000000000000000E+00
   0.0000000000000000E+00
   0.0000000000000000E+00
   0.0000000000000000E+00
   0.0000000000000000E+00
   0.0000000000000000E+00
   0.0000000000000000E+00
   0.0000000000000000E+00
   0.0000000000000000E+00
   0.0000000000000000E+00
   0.0000000000000000E+00
   0.0000000000000000E+00
  -0.1007612293583770E+00
  -0.4249297153448459E-01
   0.7371985579334506E-03
   0.5725799897504205E-02
   0.5699057241640147E-03
   0.1609783079041654E-02
   0.3375072981879710E-02
   0.2371773621270242E-02
   0.4590624712998026E-03
   0.3518225880289137E-02
   0.4521817572807815E-01
   0.6522937800295220E-01
   0.8689296683035268E-03
  -0.2261151846610984E-01
   0.4316553490948595E-02
   0.1358734831658671E-01
   0.1039452546909705E-01
   0.4900548400609598E-01
   0.2437443475794887E-02
  -0.6509941158196674E-02
  -0.7012227795815370E-03
   0.3411016121299567E-03
   0.3904107316462071E-02
  -0.3893254323405487E-01
   0.1798168100961364E-01
   0.1119638185461103E-01
   0.3403773249985300E-01
   0.8438810174814640E-02
   0.4937312232535684E-02
   0.4970345542599756E-02
   0.4871517382701597E-02
   0.6027191692339867E-02
   0.2599191716471711E-02
  -0.4144429613703256E-01
  -0.9954261916401255E-01
  -0.1121678224580250E+00
   0.5070874991567755E-02
   0.4230770652937435E-02
  -0.1004732309634857E+00
  -0.9895252532473897E-01
  -0.9875450990405035E-01
  -0.9462509646445259E-01
  -0.6807133851841049E-01
   0.5154922139056574E-02
  -0.1935330759620543E-01
  -0.1575800302517764E-01
  -0.6002862479501188E-02
   0.6819057343116970E-02
  -0.8010050839486890E-01
  -0.2781092473140467E-01
  -0.8096457381594208E-01
  -0.5873277580546399E-01
   0.3083625660801112E-02
   0.2685146444746226E-02
   0.2640431158726933E-02
   0.3450191895197502E-02
   0.4007083746599115E-02
   0.1201214280720192E-02
  -0.1438846685380374E-03
   0.2039877252967582E-02
   0.4895693571314406E-02
   0.3857385557745991E-02
   0.1114201920842175E-02
   0.1182682003948908E-02
   0.1465296211977015E-02
  -0.1653641889171469E-04
   0.8996621355967316E-04
   0.4386667831917055E-02
   0.2715724202118359E-02
   0.2322755259705694E-02
   0.5010600999979941E-02
   0.1071689308765334E-02
   0.2712217684395194E-02
   0.2013964056447358E-02
   0.2879082505725491E-04
   0.8374614307442403E-01
   0.2793870732267216E-02
  -0.8346628142510427E-03
  -0.1492945567068752E-03
   0.1409540839681509E+00
   0.1239332952509258E+00
  -0.1219093307555149E-02
  -0.4381936071357998E-02
  -0.3043057866115333E-03
  -0.6512246805527935E-02
  -0.1949570321852614E-02
   0.1557630966889268E+00
   0.7489979161522269E-01
   0.2550174910459009E-01
   0.1656445111844273E+00