# vtk DataFile Version 2.0
FUN3D:global_image_vtk
ASCII
DATASET UNSTRUCTURED_GRID
POINTS 213 double
    0.0000000000000000E+00    0.2500000000000000E+01    0.0000000000000000E+00
    0.1250000000000000E+01    0.2500000000000000E+01    0.0000000000000000E+00
    0.2500000000000000E+01    0.2500000000000000E+01    0.0000000000000000E+00
    0.3750000000000000E+01    0.2500000000000000E+01    0.0000000000000000E+00
    0.5000000000000000E+01    0.2500000000000000E+01    0.0000000000000000E+00
    0.5000000000000000E+01    0.1250000000000000E+01    0.0000000000000000E+00
    0.5000000000000000E+01    0.0000000000000000E+00    0.0000000000000000E+00
    0.5000000000000000E+01   -0.1250000000000000E+01    0.0000000000000000E+00
    0.5000000000000000E+01   -0.2500000000000000E+01    0.0000000000000000E+00
    0.3750000000000000E+01   -0.2500000000000000E+01    0.0000000000000000E+00
    0.2500000000000000E+01   -0.2500000000000000E+01    0.0000000000000000E+00
    0.1250000000000000E+01   -0.2500000000000000E+01    0.0000000000000000E+00
    0.0000000000000000E+00   -0.2500000000000000E+01    0.0000000000000000E+00
    0.0000000000000000E+00   -0.1250000000000000E+01    0.0000000000000000E+00
    0.0000000000000000E+00    0.0000000000000000E+00    0.0000000000000000E+00
    0.0000000000000000E+00    0.1250000000000000E+01    0.0000000000000000E+00
    0.9058375365086910E+00    0.1578994732800803E+01    0.0000000000000000E+00
    0.3982050490726493E+01   -0.1583989954232354E+01    0.0000000000000000E+00
    0.4033849428301197E+01    0.1453322699199022E+01    0.0000000000000000E+00
    0.1040505887381675E+01   -0.1479596339503735E+01    0.0000000000000000E+00
    0.1099454400140349E+01   -0.3227322616384110E+00    0.0000000000000000E+00
    0.7354504170366591E+00    0.6593508822075582E+00    0.0000000000000000E+00
    0.1622302608453282E+01    0.8256214013940779E+00    0.0000000000000000E+00
    0.2145871574390382E+01   -0.1650070333782557E+01    0.0000000000000000E+00
    0.4086422318222992E+01   -0.4612828702537229E+00    0.0000000000000000E+00
    0.2979540174134984E+01   -0.8579242121530853E+00    0.0000000000000000E+00
    0.3045064261640043E+01   -0.1836846154397680E+01    0.0000000000000000E+00
    0.3428197553792836E+01    0.3508002863614053E+00    0.0000000000000000E+00
    0.4309693860063405E+01    0.5185680230613409E+00    0.0000000000000000E+00
    0.1827272193562204E+01    0.1738996113203182E+01    0.0000000000000000E+00
    0.2808563282768077E+01    0.1325493893339706E+01    0.0000000000000000E+00
    0.1895995683864404E+01   -0.8731419609589618E+00    0.0000000000000000E+00
    0.2273179336307740E+01    0.4906150219227333E-01    0.0000000000000000E+00
    0.5000000000000000E+01    0.2500000000000000E+01    0.1250000000000000E+01
    0.5000000000000000E+01    0.2500000000000000E+01    0.2500000000000000E+01
    0.5000000000000000E+01    0.2500000000000000E+01    0.3750000000000000E+01
    0.5000000000000000E+01    0.2500000000000000E+01    0.5000000000000000E+01
    0.3750000000000000E+01    0.2500000000000000E+01    0.5000000000000000E+01
    0.2500000000000000E+01    0.2500000000000000E+01    0.5000000000000000E+01
    0.1250000000000000E+01    0.2500000000000000E+01    0.5000000000000000E+01
    0.0000000000000000E+00    0.2500000000000000E+01    0.5000000000000000E+01
    0.0000000000000000E+00    0.2500000000000000E+01    0.3750000000000000E+01
    0.0000000000000000E+00    0.2500000000000000E+01    0.2500000000000000E+01
    0.0000000000000000E+00    0.2500000000000000E+01    0.1250000000000000E+01
    0.9631080833812172E+00    0.2500000000000000E+01    0.9613285771248219E+00
    0.3981732467264904E+01    0.2500000000000000E+01    0.4069753913607991E+01
    0.4035525118777670E+01    0.2500000000000000E+01    0.1012015867579395E+01
    0.9641717640894248E+00    0.2500000000000000E+01    0.3972455192261839E+01
    0.1547743040396780E+01    0.2500000000000000E+01    0.2928177746738678E+01
    0.6985170616192014E+00    0.2500000000000000E+01    0.3068281976055466E+01
    0.8931277594515110E+00    0.2500000000000000E+01    0.2052465503257726E+01
    0.2183293750162785E+01    0.2500000000000000E+01    0.3959073795658649E+01
    0.3855333506014705E+01    0.2500000000000000E+01    0.2931218481500625E+01
    0.3152495579421047E+01    0.2500000000000000E+01    0.3635850502723324E+01
    0.3103247580566054E+01    0.2500000000000000E+01    0.4331682712472464E+01
    0.3266837581688852E+01    0.2500000000000000E+01    0.1886092433583972E+01
    0.4231539241296245E+01    0.2500000000000000E+01    0.1915865356532799E+01
    0.1909741006522088E+01    0.2500000000000000E+01    0.7170024419130505E+00
    0.2880784107213163E+01    0.2500000000000000E+01    0.9046598906449592E+00
    0.2014316024535771E+01    0.2500000000000000E+01    0.1762464314805728E+01
    0.2670003247036656E+01    0.2500000000000000E+01    0.2850479545835163E+01
    0.5000000000000000E+01    0.1250000000000000E+01    0.5000000000000000E+01
    0.5000000000000000E+01    0.0000000000000000E+00    0.5000000000000000E+01
    0.5000000000000000E+01   -0.1250000000000000E+01    0.5000000000000000E+01
    0.5000000000000000E+01   -0.2500000000000000E+01    0.5000000000000000E+01
    0.5000000000000000E+01   -0.2500000000000000E+01    0.3750000000000000E+01
    0.5000000000000000E+01   -0.2500000000000000E+01    0.2500000000000000E+01
    0.5000000000000000E+01   -0.2500000000000000E+01    0.1250000000000000E+01
    0.5000000000000000E+01    0.1578994732800803E+01    0.9058375365086910E+00
    0.5000000000000000E+01   -0.1583989954232354E+01    0.3982050490726493E+01
    0.5000000000000000E+01    0.1453322699199022E+01    0.4033849428301197E+01
    0.5000000000000000E+01   -0.1479596339503735E+01    0.1040505887381675E+01
    0.5000000000000000E+01   -0.3227322616384110E+00    0.1099454400140349E+01
    0.5000000000000000E+01    0.6593508822075582E+00    0.7354504170366591E+00
    0.5000000000000000E+01    0.8256214013940779E+00    0.1622302608453282E+01
    0.5000000000000000E+01   -0.1650070333782557E+01    0.2145871574390382E+01
    0.5000000000000000E+01   -0.4612828702537229E+00    0.4086422318222992E+01
    0.5000000000000000E+01   -0.8579242121530853E+00    0.2979540174134984E+01
    0.5000000000000000E+01   -0.1836846154397680E+01    0.3045064261640043E+01
    0.5000000000000000E+01    0.3508002863614053E+00    0.3428197553792836E+01
    0.5000000000000000E+01    0.5185680230613409E+00    0.4309693860063405E+01
    0.5000000000000000E+01    0.1738996113203182E+01    0.1827272193562204E+01
    0.5000000000000000E+01    0.1325493893339706E+01    0.2808563282768077E+01
    0.5000000000000000E+01   -0.8731419609589618E+00    0.1895995683864404E+01
    0.5000000000000000E+01    0.4906150219227333E-01    0.2273179336307740E+01
    0.0000000000000000E+00    0.1250000000000000E+01    0.5000000000000000E+01
    0.0000000000000000E+00    0.0000000000000000E+00    0.5000000000000000E+01
    0.0000000000000000E+00   -0.1250000000000000E+01    0.5000000000000000E+01
    0.0000000000000000E+00   -0.2500000000000000E+01    0.5000000000000000E+01
    0.1250000000000000E+01   -0.2500000000000000E+01    0.5000000000000000E+01
    0.2500000000000000E+01   -0.2500000000000000E+01    0.5000000000000000E+01
    0.3750000000000000E+01   -0.2500000000000000E+01    0.5000000000000000E+01
    0.4042003247744892E+01    0.1558308132739014E+01    0.5000000000000000E+01
    0.9304122287900499E+00   -0.1548001304379777E+01    0.5000000000000000E+01
    0.1037243024609388E+01    0.1462892710085612E+01    0.5000000000000000E+01
    0.3946240828834967E+01   -0.1445243809615570E+01    0.5000000000000000E+01
    0.4092527262848217E+01   -0.3455338993778935E+00    0.5000000000000000E+01
    0.4293103109154542E+01    0.6277660831404320E+00    0.5000000000000000E+01
    0.3241512314643519E+01    0.7429886854239611E+00    0.5000000000000000E+01
    0.2844289952419609E+01   -0.1588117879734118E+01    0.5000000000000000E+01
    0.7159905765450471E+00   -0.6002320124191652E+00    0.5000000000000000E+01
    0.1754341919796891E+01   -0.7398147869923652E+00    0.5000000000000000E+01
    0.1870296826774691E+01   -0.1788622905643739E+01    0.5000000000000000E+01
    0.9220614901912976E+00    0.3083720183248586E+00    0.5000000000000000E+01
    0.3101523624086016E+01    0.1777901774806180E+01    0.5000000000000000E+01
    0.2192512063922564E+01    0.1576861561598471E+01    0.5000000000000000E+01
    0.2024793420196460E+01    0.4773861992750707E+00    0.5000000000000000E+01
    0.2990627757741975E+01   -0.4878110785814084E+00    0.5000000000000000E+01
    0.0000000000000000E+00   -0.2500000000000000E+01    0.1250000000000000E+01
    0.0000000000000000E+00   -0.2500000000000000E+01    0.2500000000000000E+01
    0.0000000000000000E+00   -0.2500000000000000E+01    0.3750000000000000E+01
    0.0000000000000000E+00    0.1558308132739014E+01    0.4042003247744892E+01
    0.0000000000000000E+00   -0.1548001304379777E+01    0.9304122287900499E+00
    0.0000000000000000E+00    0.1462892710085612E+01    0.1037243024609388E+01
    0.0000000000000000E+00   -0.1445243809615570E+01    0.3946240828834967E+01
    0.0000000000000000E+00   -0.3455338993778935E+00    0.4092527262848217E+01
    0.0000000000000000E+00    0.6277660831404320E+00    0.4293103109154542E+01
    0.0000000000000000E+00    0.7429886854239611E+00    0.3241512314643519E+01
    0.0000000000000000E+00   -0.1588117879734118E+01    0.2844289952419609E+01
    0.0000000000000000E+00   -0.6002320124191652E+00    0.7159905765450471E+00
    0.0000000000000000E+00   -0.7398147869923652E+00    0.1754341919796891E+01
    0.0000000000000000E+00   -0.1788622905643739E+01    0.1870296826774691E+01
    0.0000000000000000E+00    0.3083720183248586E+00    0.9220614901912976E+00
    0.0000000000000000E+00    0.1777901774806180E+01    0.3101523624086016E+01
    0.0000000000000000E+00    0.1576861561598471E+01    0.2192512063922564E+01
[...]
POINT_DATA 213
SCALARS rho double 1
LOOKUP_TABLE default
   0.1343965965117002E+01
   0.9576972743564083E+00
   0.9477448440982332E+00
   0.9438131429149900E+00
   0.8441009467558886E+00
   0.7733576804372124E+00
   0.7630128817474162E+00
   0.7656186401976126E+00
   0.8316614328730133E+00
   0.9369663685929754E+00
   0.9354398919560059E+00
   0.9614824100192972E+00
   0.1447869006666769E+01
   0.1492319199781332E+01
   0.1642809585221593E+01
   0.1425671987048659E+01
   0.1009386313047140E+01
   0.9522697503371785E+00
   0.9451727079134093E+00
   0.9577559805833501E+00
   0.9405678790567376E+00
   0.1035489931272316E+01
   0.9260511830357058E+00
   0.9335251653912965E+00
   0.9552381735193125E+00
   0.9537149692296704E+00
   0.9360594536558012E+00
   0.9578783264990529E+00
   0.9386202155655210E+00
   0.9312265807685315E+00
   0.9460891775418043E+00
   0.8867073900003184E+00
   0.9437960430101985E+00
   0.9641219454321761E+00
   0.1007296400358745E+01
   0.1006184778452667E+01
   0.1004574959367512E+01
   0.1005751423147779E+01
   0.1004610526952584E+01
   0.1005284910501401E+01
   0.1003004652614314E+01
   0.1008151398384973E+01
   0.1023748878493216E+01
   0.1062885649082193E+01
   0.1019113286182956E+01
   0.1001827819976633E+01
   0.9658918539402342E+00
   0.1005409935316633E+01
   0.1000775309978402E+01
   0.1008827306269311E+01
   0.1007918430021421E+01
   0.1002494199549854E+01
   0.9976014237158883E+00
   0.1000593571398945E+01
   0.1001865292080647E+01
   0.9828372189821886E+00
   0.9840878141513689E+00
   0.9841380510847451E+00
   0.9802128046895797E+00
   0.9905521808034962E+00
   0.9934998276675222E+00
   0.1004778245004165E+01
   0.1004767189311067E+01
   0.1005114321403730E+01
   0.1004850286041515E+01
   0.1009544109014708E+01
   0.1004699691149375E+01
   0.9559620068849739E+00
   0.9257182856660329E+00
   0.1007687731086014E+01
   0.1004499793509426E+01
   0.9151324661940962E+00
   0.9096292335930102E+00
   0.8762723011785867E+00
   0.9757629703874443E+00
   0.9987129104883206E+00
   0.1006335541448312E+01
   0.1010818858968057E+01
   0.1010129204783380E+01
   0.1009074518766862E+01
   0.1005937111813608E+01
   0.9900076153611090E+00
   0.1003829925520203E+01
   0.9846226060936236E+00
   0.1002837187994607E+01
   0.1003882860714584E+01
   0.1003215373660021E+01
   0.1003424139004371E+01
   0.1003738532185111E+01
   0.1005281661746728E+01
   0.1003265155654889E+01
   0.1004580560214748E+01
   0.1005196429563994E+01
   0.1004060719460107E+01
   0.1004546525350240E+01
   0.1003385890478818E+01
   0.1004519397746622E+01
   0.1005791657822788E+01
   0.1004686431904388E+01
   0.1003955411243207E+01
   0.1003135933508622E+01
   0.1004406797856908E+01
   0.1004217778806329E+01
   0.1003536250687068E+01
   0.1005309733387157E+01
   0.1004812133270889E+01
   0.1004741758032932E+01
   0.1004669787244785E+01
   0.1064928020832087E+01
   0.1028650830313547E+01
   0.1009537909818782E+01
   0.1006519332276007E+01
   0.1163380978663819E+01
   0.1086055351283382E+01
   0.1007820126298173E+01
   0.1007302541787607E+01
   0.1006711537672211E+01
   0.1012984941376234E+01
   0.1019259447682004E+01
   0.1234910552336864E+01
   0.1032980184918185E+01
   0.1046583637996195E+01
   0.1200461006634196E+01
   0.1014504356278504E+01
   0.1031892368518307E+01
   0.1028375142352936E+01
   0.1014845788291346E+01
   0.1029073306369215E+01
   0.1002080407411240E+01
   0.9621401808858260E+00
   0.1006807134159361E+01
   0.1001537961891036E+01
   0.1010605445965593E+01
   0.1012248905027519E+01
   0.1001047925246007E+01
   0.9972872453346834E+00
   0.9978249676393597E+00
   0.1001116545064467E+01
   0.9838204468873226E+00
   0.9808407240854714E+00
   0.9653613800858712E+00
   0.9688902722269699E+00
   0.9913867318385902E+00
   0.9913033737562029E+00
   0.9924499653838910E+00
   0.1001939550981163E+01
   0.9994944957400868E+00
   0.9940522236853976E+00
   0.1006988072622780E+01
   0.1022221194274999E+01
   0.1000742636504558E+01
   0.1008918713464265E+01
   0.1004949825891335E+01
   0.1009093554849534E+01
   0.9967232935163401E+00
   0.1004971620927536E+01
   0.1003543350768254E+01
   0.9949818722755941E+00
   0.9827942752350222E+00
   0.9939983479596005E+00
   0.9970549762656417E+00
   0.9919138355909231E+00
   0.1001240974635278E+01
   0.1003192427213378E+01
   0.1002174556043541E+01
   0.9936100682174857E+00
   0.9937194721738236E+00
   0.1005130361358304E+01
   0.1019813424933775E+01
   0.1005421270393404E+01
   0.9816989786406930E+00
   0.1005148094901047E+01
   0.1012366735054204E+01
   0.9872336004946184E+00
   0.9550246542567338E+00
   0.9860586847273570E+00
   0.9866043130259250E+00
   0.9925193433474729E+00
   0.9931308547889302E+00
   0.9948952524485193E+00
   0.1037296046546961E+01
   0.1033015714699980E+01
   0.1001454862081728E+01
   0.1002005181867410E+01
   0.9897996522379890E+00
   0.9907251148297889E+00
   0.9646455765077020E+00
   0.9920848215299227E+00
   0.1005418868896376E+01
   0.1001496628923880E+01
   0.9910386850277111E+00
   0.9741297637345969E+00
   0.9424060718645072E+00
   0.9820102503165379E+00
   0.9791544204223640E+00
   0.9713816147250888E+00
   0.9720530687407445E+00
   0.9554278770110629E+00
   0.9502413891290363E+00
   0.9545737773912490E+00
   0.1002932458181579E+01
   0.1002562230580889E+01
   0.1000541323044757E+01
   0.1001108797910773E+01
   0.9616592902431327E+00
   0.9512265334549619E+00
   0.9602851457839421E+00
   0.1000865689491871E+01
   0.1000324352345883E+01
   0.1000906465814737E+01
   0.9809417603325808E+00
   0.9805261762944916E+00
   0.9640837773339664E+00
SCALARS u double 1
LOOKUP_TABLE default
   0.0000000000000000E+00
   0.0000000000000000E+00
   0.0000000000000000E+00
   0.0000000000000000E+00
   0.0000000000000000E+00
   0.0000000000000000E+00
   0.0000000000000000E+00
   0.0000000000000000E+00
   0.0000000000000000E+00
   0.0000000000000000E+00
   0.0000000000000000E+00
   0.0000000000000000E+00
   0.0000000000000000E+00
   0.0000000000000000E+00
   0.0000000000000000E+00
   0.0000000000000000E+00
   0.0000000000000000E+00
   0.0000000000000000E+00
   0.0000000000000000E+00
   0.0000000000000000E+00
   0.0000000000000000E+00
   0.0000000000000000E+00
   0.0000000000000000E+00
   0.0000000000000000E+00
   0.0000000000000000E+00
   0.0000000000000000E+00
   0.0000000000000000E+00
   0.0000000000000000E+00
   0.0000000000000000E+00
   0.0000000000000000E+00
   0.0000000000000000E+00
   0.0000000000000000E+00
   0.0000000000000000E+00
   0.4956088284648587E+00
   0.5336028970446528E+00
   0.5184450484224870E+00
   0.4933133805921419E+00
   0.4841981491751727E+00
   0.4837170324791894E+00
   0.4863897386850575E+00
   0.4963079454234018E+00
   0.4896567686507118E+00
   0.4720672485480129E+00
   0.4463580842045362E+00
   0.4827649170503999E+00
   0.5089240083578500E+00
   0.4407506708930019E+00
   0.4944059177261496E+00
   0.5229414834295872E+00
   0.4962113329871243E+00
   0.5227252774166345E+00
   0.5032083733272111E+00
   0.5640222653180260E+00
   0.5252398845612084E+00
   0.4980203183664770E+00
   0.5719626554170172E+00
   0.5688065662284701E+00
   0.3730025263256762E+00
   0.4007150976229864E+00
   0.5587988179124950E+00
   0.5564435980680694E+00
   0.4946070205199498E+00
   0.4954020890583384E+00
   0.4937887068955060E+00
   0.4918952700545284E+00
   0.5164135096087832E+00
   0.5359192416575941E+00
   0.4957089567074708E+00
   0.4530920757632079E+00
   0.5123877365649753E+00
   0.5107432042241854E+00
   0.4790291055165853E+00
   0.4944626130315761E+00
   0.4614927601066189E+00
   0.5257659114372440E+00
   0.5298668676639481E+00
   0.5123506249081332E+00
   0.5330012240473438E+00
   0.5309373756403315E+00
   0.5300690751574445E+00
   0.5056169292204600E+00
   0.5285423541941164E+00
   0.5403389546363819E+00
   0.5368093473913754E+00
   0.5377911717512681E+00
   0.4974925003227246E+00
   0.4981163009326278E+00
   0.4967933545782310E+00
   0.4957441691053848E+00
   0.4878915030068960E+00
   0.4876185038778740E+00
   0.4855744436641958E+00
   0.4864380784760671E+00
   0.4916982561276171E+00
   0.4891553762301354E+00
   0.4852571564386702E+00
   0.4886306925182234E+00
   0.4891593044444775E+00
   0.4864820347330256E+00
   0.4864884603828485E+00
   0.4945747635993346E+00
   0.4872882736123154E+00
   0.4875772049717964E+00
   0.4930333113903399E+00
   0.4847489965265301E+00
   0.4867503335563615E+00
   0.4860741815197054E+00
   0.4863473321582957E+00
   0.4453025379887874E+00
   0.4698446888908271E+00
   0.4891585191389358E+00
   0.4880234325825581E+00
   0.4508541990554501E+00
   0.4675635716692964E+00
   0.4875638098914109E+00
   0.4867846705082876E+00
   0.4910070761383673E+00
   0.4794303210279944E+00
   0.4668009667757094E+00
   0.3794183379452327E+00
   0.4896737063014087E+00
   0.4493542213608290E+00
   0.4441330464254659E+00
   0.4845044464746233E+00
   0.4634869328891084E+00
   0.4670678934236315E+00
   0.4748190092377211E+00
   0.4893617548772228E+00
   0.5086596075151580E+00
   0.4339262716383478E+00
   0.4926474816805164E+00
   0.5329860892490405E+00
   0.4918407844819404E+00
   0.5207224502102411E+00
   0.5065004762883982E+00
   0.5670296823735325E+00
   0.5283167985363205E+00
   0.5014208324983659E+00
   0.5802774553446018E+00
   0.5677865475061374E+00
   0.3413713419023584E+00
   0.3799191815198660E+00
   0.5737491346525279E+00
   0.5664341419917343E+00
   0.5693347635823414E+00
   0.5290190586893491E+00
   0.5447941407809326E+00
   0.5714556246857662E+00
   0.5388201781089591E+00
   0.5474922102358107E+00
   0.5819849040061986E+00
   0.4927287445567896E+00
   0.5038081362073911E+00
   0.4963777806332109E+00
   0.5560551742475880E+00
   0.4759488686438951E+00
   0.4944703450666165E+00
   0.5492269732093631E+00
   0.5873511811202231E+00
   0.5827117377885818E+00
   0.5459119783628407E+00
   0.5779713469061926E+00
   0.5101703932735501E+00
   0.5024518106587270E+00
   0.5028207582484862E+00
   0.5662368374140687E+00
   0.5559265056884591E+00
   0.4944845325316533E+00
   0.5501273442315052E+00
   0.5508114155404020E+00
   0.5651747165707707E+00
   0.4913641464885417E+00
   0.4930968995540078E+00
   0.3887840308958341E+00
   0.3712671996263565E+00
   0.5569996398265586E+00
   0.5753868691269611E+00
   0.4190741676519142E+00
   0.5815029704668123E+00
   0.4282091015842121E+00
   0.5390672021247694E+00
   0.5018184739945932E+00
   0.5109974191890854E+00
   0.5042138094937454E+00
   0.5729366097658081E+00
   0.5854507375413591E+00
   0.5377005186304672E+00
   0.5657930586216791E+00
   0.5353592578822512E+00
   0.5338428451635563E+00
   0.5573228452654221E+00
   0.5505141601523422E+00
   0.4278589446636620E+00
   0.5263781253161192E+00
   0.5780468345459938E+00
   0.3349063547305901E+00
   0.4756038252769280E+00
   0.5450194239402152E+00
   0.4812880019439235E+00
   0.3028624665885448E+00
   0.5042224178616316E+00
   0.5010712476166759E+00
   0.5127451430629233E+00
   0.5402571479261853E+00
   0.3462531770021944E+00
   0.3437558824532752E+00
   0.3211894757308768E+00
   0.5065066593517287E+00
   0.5132480548968963E+00
   0.5328474636353079E+00
   0.5867050686771578E+00
   0.4641292924427530E+00
   0.3573061436653145E+00
SCALARS v double 1
LOOKUP_TABLE default
   0.0000000000000000E+00
   0.0000000000000000E+00
   0.0000000000000000E+00
   0.0000000000000000E+00
   0.0000000000000000E+00
   0.0000000000000000E+00
   0.0000000000000000E+00
   0.0000000000000000E+00
   0.0000000000000000E+00
   0.0000000000000000E+00
   0.0000000000000000E+00
   0.0000000000000000E+00
   0.0000000000000000E+00
   0.0000000000000000E+00
   0.0000000000000000E+00
   0.0000000000000000E+00
   0.0000000000000000E+00
   0.0000000000000000E+00
   0.0000000000000000E+00
   0.0000000000000000E+00
   0.0000000000000000E+00
   0.0000000000000000E+00
   0.0000000000000000E+00
   0.0000000000000000E+00
   0.0000000000000000E+00
   0.0000000000000000E+00
   0.0000000000000000E+00
   0.0000000000000000E+00
   0.0000000000000000E+00
   0.0000000000000000E+00
   0.0000000000000000E+00
   0.0000000000000000E+00
   0.0000000000000000E+00
   0.0000000000000000E+00
   0.0000000000000000E+00
   0.0000000000000000E+00
   0.0000000000000000E+00
   0.0000000000000000E+00
   0.0000000000000000E+00
   0.0000000000000000E+00
   0.0000000000000000E+00
   0.0000000000000000E+00
   0.0000000000000000E+00
   0.0000000000000000E+00
   0.0000000000000000E+00
   0.0000000000000000E+00
   0.0000000000000000E+00
   0.0000000000000000E+00
   0.0000000000000000E+00
   0.0000000000000000E+00
   0.0000000000000000E+00
   0.0000000000000000E+00
   0.0000000000000000E+00
   0.0000000000000000E+00
   0.0000000000000000E+00
   0.0000000000000000E+00
   0.0000000000000000E+00
   0.0000000000000000E+00
   0.0000000000000000E+00
   0.0000000000000000E+00
   0.0000000000000000E+00
   0.1110944809487118E-02
   0.8894063283815135E-04
  -0.2256230927179771E-03
   0.0000000000000000E+00
   0.0000000000000000E+00
   0.0000000000000000E+00
   0.0000000000000000E+00
  -0.1826596319092157E-01
   0.5203830429094169E-03
   0.1878491897747256E-02
   0.1416255059723876E-01
  -0.6501997857230008E-02
  -0.6389585999961016E-02
  -0.1279767710013275E-01
   0.4370092521889275E-02
   0.8687744257600697E-03
   0.2912660621792452E-02
   0.1721176750518433E-02
   0.2390060041463293E-02
   0.1806295088433465E-02
  -0.7239135652101414E-02
  -0.7923524111893826E-03
   0.3835177342919309E-02
  -0.1118304313261697E-02
  -0.4335735691596776E-03
  -0.4122207872380637E-03
   0.8238327818272233E-03
   0.0000000000000000E+00
   0.0000000000000000E+00
   0.0000000000000000E+00
   0.0000000000000000E+00
   0.7713153187959384E-03
   0.1446855553226568E-02
  -0.1432454312050976E-02
  -0.1830682058516501E-03
  -0.6368229044548587E-03
   0.1554307692433250E-06
   0.1570368846876766E-03
  -0.1281326243637631E-03
  -0.1980906566642791E-03
  -0.5812876430515775E-03
   0.8187273682169554E-03
  -0.2009822795310778E-02
   0.6577135415802724E-03
   0.2670102189576438E-03
  -0.4122143583835141E-03
  -0.4041753283447529E-03
   0.0000000000000000E+00
   0.0000000000000000E+00
   0.0000000000000000E+00
  -0.8245146475030133E-03
  -0.7840960697757877E-02
   0.1754776370156525E-01
  -0.2303298090476847E-03
  -0.1392075969870636E-02
  -0.2132240672113503E-02
  -0.5225451630090965E-02
  -0.1867543411702623E-02
  -0.6503281561635435E-02
  -0.4080685695183026E-02
   0.1637819157057595E-02
   0.3279795343908691E-01
   0.3403928038975137E-04
  -0.2137299680070396E-02
   0.4117273059275848E-02
   0.3975298746315208E-03
   0.0000000000000000E+00
   0.0000000000000000E+00
   0.0000000000000000E+00
   0.0000000000000000E+00
   0.0000000000000000E+00
   0.0000000000000000E+00
   0.0000000000000000E+00
   0.0000000000000000E+00
   0.0000000000000000E+00
   0.0000000000000000E+00
   0.0000000000000000E+00
   0.0000000000000000E+00
   0.0000000000000000E+00
   0.0000000000000000E+00
   0.0000000000000000E+00
   0.0000000000000000E+00
   0.0000000000000000E+00
   0.4616975220147648E-02
   0.3357845440884851E-02
   0.8115582428644528E-02
   0.5759262534734268E-02
   0.1133093146110623E-01
   0.1381895407429399E-01
  -0.1135117653214570E-02
   0.5476402088562310E-02
   0.3081290792358531E-02
   0.3702009427107443E-02
   0.3533064977363656E-02
  -0.1539744674627445E-01
  -0.6072392060159892E-03
   0.6600773083814408E-02
   0.1225967845728238E-02
   0.2048810954483299E-02
   0.4111602284110314E-02
  -0.2954721405455337E-02
   0.1551222796134539E-02
   0.3142034577501971E-02
   0.1844151277114783E-02
   0.1980344434989150E-02
   0.1905421320163728E-02
   0.2340303343180567E-02
   0.8854545381277196E-02
  -0.3596672715578283E-02
   0.6173453785356518E-02
  -0.2538597258714838E-04
  -0.5217189066085250E-03
  -0.1694694266104408E-01
  -0.5238548351917163E-02
  -0.5401912081903314E-02
   0.3390622989592351E-02
  -0.6456337989241578E-02
  -0.2496867012398552E-03
  -0.3423380061942108E-01
  -0.2794928461256533E-02
   0.4829281661350324E-02
   0.1165738633625444E-02
   0.2409666442538803E-02
   0.3800483062963191E-02
   0.2521483320108815E-02
   0.2787006656228380E-02
   0.4652276068326583E-02
   0.1860294820281481E-02
   0.5598144959428818E-03
   0.1109449332725470E-03
  -0.5015274354702185E-02
  -0.6123223478156429E-02
  -0.7179794824342900E-03
   0.7534681910856329E-03
  -0.1629172479764819E-02
  -0.3315608079366416E-02
  -0.2686693035282740E-02
  -0.4637902172696572E-02
  -0.7870486893722547E-02
  -0.1984609533700332E-02
   0.7342676391436884E-03
  -0.4820012736810413E-04
   0.8017466290313873E-03
  -0.3054426303579269E-02
   0.5726048189382744E-02
  -0.8604835756711018E-02
   0.1214044190066587E-03
  -0.2437893778896768E-03
   0.2381684847981895E-02
   0.1773419307132512E-02
   0.2220241683942973E-02
  -0.5479036225741896E-02
SCALARS w double 1
LOOKUP_TABLE default
   0.0000000000000000E+00
   0.0000000000000000E+00
   0.0000000000000000E+00
   0.0000000000000000E+00
   0.0000000000000000E+00
   0.0000000000000000E+00
   0.0000000000000000E+00
   0.0000000000000000E+00
   0.0000000000000000E+00
   0.0000000000000000E+00
   0.0000000000000000E+00
   0.0000000000000000E+00
   0.0000000000000000E+00
   0.0000000000000000E+00
   0.0000000000000000E+00
   0.0000000000000000E+00
   0.0000000000000000E+00
   0.0000000000000000E+00
   0.0000000000000000E+00
   0.0000000000000000E+00
   0.0000000000000000E+00
   0.0000000000000000E+00
   0.0000000000000000E+00
   0.0000000000000000E+00
   0.0000000000000000E+00
   0.0000000000000000E+00
   0.0000000000000000E+00
   0.0000000000000000E+00
   0.0000000000000000E+00
   0.0000000000000000E+00
   0.0000000000000000E+00
   0.0000000000000000E+00
   0.0000000000000000E+00
  -0.9793387882465911E-01
  -0.4158652091176816E-01
  -0.2643201736393515E-03
   0.4776968871411366E-02
   0.2336530935604493E-02
   0.2066946197693784E-02
   0.3698109342854888E-02
   0.4497601758169984E-02
   0.8752498418996488E-03
   0.3710510015575251E-02
   0.4555783639599491E-01
   0.6454513608772187E-01
   0.1417952750724607E-02
  -0.2246873520561174E-01
   0.4383443039592563E-02
   0.1306963524660680E-01
   0.1014724328107175E-01
   0.4836323702175298E-01
   0.2042153286572353E-02
  -0.5983567583783915E-02
  -0.3671688198704105E-03
   0.6866346327788385E-03
   0.3705292358555862E-02
  -0.3772537524807512E-01
   0.1772882149010486E-01
   0.1080267792390825E-01
   0.3306513073688323E-01
   0.8295032103972680E-02
   0.4265551496875945E-02
   0.4617427819998159E-02
   0.4884783223092946E-02
   0.5663977702552704E-02
   0.1691087750961367E-02
  -0.4052102404634688E-01
  -0.9691550264632785E-01
  -0.1096890446316234E+00
   0.4373725667389375E-02
   0.2875303055349299E-02
  -0.9736388291824832E-01
  -0.9617761258459280E-01
  -0.9618032365523592E-01
  -0.9224873755321057E-01
  -0.6624934304548459E-01
   0.3937943103101393E-02
  -0.1958109062962772E-01
  -0.1613555011889684E-01
  -0.7363644218238188E-02
   0.5393789467766688E-02
  -0.7799400375499102E-01
  -0.2811874306139279E-01
  -0.7850874691510416E-01
  -0.5795367591677663E-01
   0.4480258576905136E-02
   0.3182641518588335E-02
   0.3181670321408293E-02
   0.4452986800741308E-02
   0.3707631592665757E-02
   0.9145224541873382E-03
   0.1024229857426020E-02
   0.3497665164612006E-02
   0.5421220845468501E-02
   0.4199489083932887E-02
   0.3488250703993551E-02
   0.1479916634032047E-02
   0.3869357739146869E-02
   0.1323526917382770E-02
   0.4042515862861926E-03
   0.5468667935347017E-02
   0.2804196138645914E-02
   0.2554744808524195E-02
   0.5857587266962228E-02
   0.1779115892617150E-02
   0.2308782691630145E-02
   0.2015540105056931E-02
   0.8912500854497819E-03
   0.8439718142213949E-01
   0.2689248679907378E-02
  -0.8532159972839874E-03
   0.2965013566201890E-03
   0.1406940844295668E+00
   0.1228215758637910E+00
  -0.1103850471322766E-02
  -0.4226933972925075E-02
   0.1938024215451123E-03
  -0.6072658438180879E-02
  -0.1406601238884626E-02
   0.1562297192088264E+00
   0.7533013596609846E-01
   0.2578699977160550E-01
   0.1655557636134041E+00