title="tecplot geometry and solution file"
variables = x y z rho u v w p mach temperature
zone t="boundary 1 bc-1", solutiontime= 0.1000000E+02, strandid=1001, i=32, j=46, f=feblock
  0.000000000000E+00  0.000000000000E+00  0.000000000000E+00  0.000000000000E+00  0.000000000000E+00  0.000000000000E+00  0.000000000000E+00
  0.000000000000E+00  0.000000000000E+00  0.000000000000E+00  0.000000000000E+00  0.000000000000E+00  0.000000000000E+00  0.000000000000E+00
  0.000000000000E+00  0.000000000000E+00  0.000000000000E+00  0.000000000000E+00  0.000000000000E+00  0.000000000000E+00  0.000000000000E+00
  0.000000000000E+00  0.000000000000E+00  0.000000000000E+00  0.000000000000E+00  0.000000000000E+00  0.000000000000E+00  0.000000000000E+00
  0.000000000000E+00  0.000000000000E+00  0.000000000000E+00  0.000000000000E+00
  0.250000000000E+01  0.250000000000E+01  0.125000000000E+01  0.146289271009E+01  0.157686156160E+01  0.308372018325E+00  0.000000000000E+00
 -0.125000000000E+01 -0.600232012419E+00  0.250000000000E+01  0.477386199275E+00  0.742988685424E+00 -0.739814786992E+00  0.177790177481E+01
  0.155830813274E+01  0.250000000000E+01 -0.250000000000E+01 -0.154800130438E+01 -0.487811078581E+00  0.250000000000E+01  0.627766083140E+00
 -0.345533899378E+00 -0.178862290564E+01 -0.158811787973E+01  0.125000000000E+01 -0.250000000000E+01 -0.144524380962E+01  0.000000000000E+00
 -0.125000000000E+01 -0.250000000000E+01 -0.250000000000E+01 -0.250000000000E+01
  0.000000000000E+00  0.125000000000E+01  0.000000000000E+00  0.103724302461E+01  0.219251206392E+01  0.922061490191E+00  0.000000000000E+00
  0.000000000000E+00  0.715990576545E+00  0.250000000000E+01  0.202479342020E+01  0.324151231464E+01  0.175434191980E+01  0.310152362409E+01
  0.404200324774E+01  0.375000000000E+01  0.000000000000E+00  0.930412228790E+00  0.299062775774E+01  0.500000000000E+01  0.429310310915E+01
  0.409252726285E+01  0.187029682677E+01  0.284428995242E+01  0.500000000000E+01  0.125000000000E+01  0.394624082883E+01  0.500000000000E+01
  0.500000000000E+01  0.250000000000E+01  0.375000000000E+01  0.500000000000E+01
  0.134396596512E+01  0.106288564908E+01  0.142567198705E+01  0.108605535128E+01  0.103189236852E+01  0.120046100663E+01  0.164280958522E+01
  0.149231919978E+01  0.123491055234E+01  0.102374887849E+01  0.102837514235E+01  0.101298494138E+01  0.103298018492E+01  0.101450435628E+01
  0.100651933228E+01  0.100815139838E+01  0.144786900667E+01  0.116338097866E+01  0.101484578829E+01  0.100300465261E+01  0.100671153767E+01
  0.100730254179E+01  0.104658363800E+01  0.101925944768E+01  0.100388286071E+01  0.106492802083E+01  0.100782012630E+01  0.100321537366E+01
  0.100342413900E+01  0.102865083031E+01  0.100953790982E+01  0.100373853219E+01
  0.000000000000E+00  0.446358084205E+00  0.000000000000E+00  0.467563571669E+00  0.463486932889E+00  0.444133046425E+00  0.000000000000E+00
  0.000000000000E+00  0.379418337945E+00  0.472067248548E+00  0.467067893424E+00  0.479430321028E+00  0.489673706301E+00  0.484504446475E+00
  0.488023432583E+00  0.489656768651E+00  0.000000000000E+00  0.450854199055E+00  0.474819009238E+00  0.496307945423E+00  0.491007076138E+00
  0.486784670508E+00  0.449354221361E+00  0.466800966776E+00  0.497492500323E+00  0.445302537989E+00  0.487563809891E+00  0.498116300933E+00
  0.496793354578E+00  0.469844688891E+00  0.489158519139E+00  0.495744169105E+00
  0.000000000000E+00  0.000000000000E+00  0.000000000000E+00  0.175477637016E-01 -0.213729968007E-02  0.327979534391E-01  0.000000000000E+00
  0.000000000000E+00 -0.650328156164E-02  0.000000000000E+00  0.411727305928E-02 -0.522545163009E-02 -0.408068569518E-02  0.340392803898E-04
 -0.824514647503E-03  0.000000000000E+00  0.000000000000E+00 -0.784096069776E-02  0.397529874632E-03  0.000000000000E+00 -0.213224067211E-02
 -0.139207596987E-02  0.163781915706E-02 -0.186754341170E-02 -0.433573569160E-03  0.000000000000E+00 -0.230329809048E-03 -0.412220787238E-03
  0.823832781827E-03  0.000000000000E+00  0.000000000000E+00  0.000000000000E+00
  0.000000000000E+00  0.455578363960E-01  0.000000000000E+00  0.122821575864E+00  0.248513824051E-01  0.165555763613E+00  0.000000000000E+00
  0.000000000000E+00  0.156229719209E+00  0.371051001558E-02  0.269604580129E-01 -0.607265843818E-02  0.753301359661E-01  0.395709262863E-02
  0.296501356620E-03  0.875249841900E-03  0.000000000000E+00  0.140694084430E+00 -0.764474789535E-02  0.449760175817E-02  0.193802421545E-03
 -0.422693397293E-02  0.257869997716E-01 -0.140660123888E-02  0.448025857691E-02  0.843971814221E-01 -0.110385047132E-02  0.318264151859E-02
  0.318167032141E-02  0.268924867991E-02 -0.853215997284E-03  0.445298680074E-02
  0.959966373589E+00  0.781902653547E+00  0.101832772431E+01  0.808257918460E+00  0.745947924580E+00  0.879213444012E+00  0.117342534820E+01
  0.106593393881E+01  0.916233368358E+00  0.737246062699E+00  0.743709019863E+00  0.725752188343E+00  0.757527695737E+00  0.729039699885E+00
  0.720574106518E+00  0.722624471698E+00  0.103418462239E+01  0.857886472273E+00  0.728168401469E+00  0.718031343593E+00  0.721005193067E+00
  0.721150997587E+00  0.759976945784E+00  0.732624392062E+00  0.718477302346E+00  0.791195134415E+00  0.722071716105E+00  0.717593508231E+00
  0.717814525370E+00  0.741827108302E+00  0.723983027197E+00  0.718433596844E+00
  0.000000000000E+00  0.442116500307E+00  0.000000000000E+00  0.473917813296E+00  0.461385999617E+00  0.469208363775E+00  0.000000000000E+00
  0.000000000000E+00  0.402654370859E+00  0.470157920340E+00  0.464974770999E+00  0.478772748855E+00  0.488971294431E+00  0.483058360980E+00
  0.487471345222E+00  0.488804262260E+00  0.000000000000E+00  0.464897233173E+00  0.473810440209E+00  0.495775218279E+00  0.490355655443E+00
  0.486248062943E+00  0.446404320032E+00  0.465344796566E+00  0.497021629746E+00  0.444398663977E+00  0.486821726565E+00  0.497775581784E+00
  0.496429309537E+00  0.467605982273E+00  0.488183827397E+00  0.495254121055E+00
  0.999990295817E+00  0.102989791603E+01  0.999990760134E+00  0.104190001413E+01  0.101205040978E+01  0.102535510509E+01  0.999991418514E+00
  0.999992169604E+00  0.103872034559E+01  0.100820084833E+01  0.101246382271E+01  0.100302879360E+01  0.102667872000E+01  0.100606327959E+01
  0.100226962044E+01  0.100349437793E+01  0.999992723571E+00  0.103237123798E+01  0.100452282881E+01  0.100223252047E+01  0.100267776073E+01
  0.100229211656E+01  0.101661031710E+01  0.100629349202E+01  0.100197768350E+01  0.104013902021E+01  0.100305637501E+01  0.100141100097E+01
  0.100151102256E+01  0.100963118000E+01  0.100400017495E+01  0.100206079903E+01
        12        19        11        11
        11         5        12        12
        10        14         5         5
        19        13        11        11
        19        24        13        13
        30        23        24        24
        19        12        22        22
        28        22        21        21
        11        13         6         6
         7         6         9         9
        15        12        14        14
        18        13        23        23
        15        25        21        21
        27        19        22        22
        18         8         9         9
        27        31        24        24
         4        11         6         6
         5        14        12        12
         4         2         5         5
        21        12        15        15
        14        16        15        15
        24        19        27        27
        22        29        27        27
        23        26        18        18
        17         8        18        18
         5        11         4         4
         6         3         4         4
        26        23        30        30
         5         2        10        10
        16        14        10        10
         3         6         7         7
        21        25        28        28
        29        22        28        28
         6        13         9         9
         2         4         1         1
        31        27        32        32
        25        15        20        20
        24        23        13        13
         8         7         9         9
        13        18         9         9
        31        30        24        24
        12        21        22        22
        29        32        27        27
         3         1         4         4
        26        17        18        18
        16        20        15        15
zone t="boundary 2 bc-2", solutiontime= 0.1000000E+02, strandid=1002, i=33, j=48, f=feblock
  0.500000000000E+01  0.375000000000E+01  0.250000000000E+01  0.288078410721E+01  0.125000000000E+01  0.190974100652E+01  0.326683758169E+01
  0.201431602454E+01  0.000000000000E+00  0.963108083381E+00  0.500000000000E+01  0.403552511878E+01  0.423153924130E+01  0.500000000000E+01
  0.385533350601E+01  0.500000000000E+01  0.398173246726E+01  0.315249557942E+01  0.267000324704E+01  0.154774304040E+01  0.218329375016E+01
  0.893127759452E+00  0.000000000000E+00  0.698517061619E+00  0.964171764089E+00  0.310324758057E+01  0.000000000000E+00  0.000000000000E+00
  0.125000000000E+01  0.500000000000E+01  0.375000000000E+01  0.250000000000E+01  0.000000000000E+00
 -0.250000000000E+01 -0.250000000000E+01 -0.250000000000E+01 -0.250000000000E+01 -0.250000000000E+01 -0.250000000000E+01 -0.250000000000E+01
 -0.250000000000E+01 -0.250000000000E+01 -0.250000000000E+01 -0.250000000000E+01 -0.250000000000E+01 -0.250000000000E+01 -0.250000000000E+01
 -0.250000000000E+01 -0.250000000000E+01 -0.250000000000E+01 -0.250000000000E+01 -0.250000000000E+01 -0.250000000000E+01 -0.250000000000E+01
 -0.250000000000E+01 -0.250000000000E+01 -0.250000000000E+01 -0.250000000000E+01 -0.250000000000E+01 -0.250000000000E+01 -0.250000000000E+01
 -0.250000000000E+01 -0.250000000000E+01 -0.250000000000E+01 -0.250000000000E+01 -0.250000000000E+01
  0.000000000000E+00  0.000000000000E+00  0.000000000000E+00  0.904659890645E+00  0.000000000000E+00  0.717002441913E+00  0.188609243358E+01
  0.176246431481E+01  0.000000000000E+00  0.961328577125E+00  0.125000000000E+01  0.101201586758E+01  0.191586535653E+01  0.250000000000E+01
  0.293121848150E+01  0.375000000000E+01  0.406975391361E+01  0.363585050272E+01  0.285047954584E+01  0.292817774674E+01  0.395907379566E+01
  0.205246550326E+01  0.125000000000E+01  0.306828197606E+01  0.397245519226E+01  0.433168271247E+01  0.250000000000E+01  0.375000000000E+01
  0.500000000000E+01  0.500000000000E+01  0.500000000000E+01  0.500000000000E+01  0.500000000000E+01
  0.831661432873E+00  0.936966368593E+00  0.935439891956E+00  0.968890272227E+00  0.961482410019E+00  0.965361380086E+00  0.983820446887E+00
  0.991386731839E+00  0.144786900667E+01  0.102907330637E+01  0.955962006885E+00  0.962140180886E+00  0.980840724085E+00  0.100469969115E+01
  0.997287245335E+00  0.100954410901E+01  0.100208040741E+01  0.997824967639E+00  0.991303373756E+00  0.100153796189E+01  0.100104792525E+01
  0.101224890503E+01  0.106492802083E+01  0.101060544597E+01  0.100680713416E+01  0.100111654506E+01  0.102865083031E+01  0.100953790982E+01
  0.100528166175E+01  0.100485028604E+01  0.100458056021E+01  0.100326515565E+01  0.100373853219E+01
  0.000000000000E+00  0.000000000000E+00  0.000000000000E+00  0.379919181520E+00  0.000000000000E+00  0.341371341902E+00  0.580277455345E+00
  0.573749134653E+00  0.000000000000E+00  0.489361754877E+00  0.495708956707E+00  0.433926271638E+00  0.567786547506E+00  0.535919241658E+00
  0.567029682374E+00  0.516413509609E+00  0.508659607515E+00  0.528316798536E+00  0.566434141992E+00  0.532986089249E+00  0.506500476288E+00
  0.520722450210E+00  0.445302537989E+00  0.491840784482E+00  0.492647481681E+00  0.501420832498E+00  0.469844688891E+00  0.489158519139E+00
  0.487891503007E+00  0.491895270055E+00  0.485574443664E+00  0.487618503878E+00  0.495744169105E+00
  0.000000000000E+00  0.000000000000E+00  0.000000000000E+00  0.000000000000E+00  0.000000000000E+00  0.000000000000E+00  0.000000000000E+00
  0.000000000000E+00  0.000000000000E+00  0.000000000000E+00  0.000000000000E+00  0.000000000000E+00  0.000000000000E+00  0.000000000000E+00
  0.000000000000E+00  0.000000000000E+00  0.000000000000E+00  0.000000000000E+00  0.000000000000E+00  0.000000000000E+00  0.000000000000E+00
  0.000000000000E+00  0.000000000000E+00  0.000000000000E+00  0.000000000000E+00  0.000000000000E+00  0.000000000000E+00  0.000000000000E+00
  0.000000000000E+00  0.000000000000E+00  0.000000000000E+00  0.000000000000E+00  0.000000000000E+00
  0.000000000000E+00  0.000000000000E+00  0.000000000000E+00 -0.228787930941E-02  0.000000000000E+00  0.184382856868E-01  0.114382302016E-01
  0.449169449893E-01  0.000000000000E+00  0.866356548069E-01 -0.969155026463E-01 -0.217476934990E-01 -0.302169871084E-01 -0.405210240463E-01
 -0.573483634191E-03  0.169108775096E-02  0.185159883893E-02  0.180640710695E-02  0.153246134963E-01  0.288066145850E-01  0.614076672463E-02
  0.554070031496E-01  0.843971814221E-01  0.111772455775E-01  0.660675936956E-02  0.136110951358E-04  0.268924867991E-02 -0.853215997284E-03
  0.370763159267E-02  0.566397770255E-02  0.102422985743E-02  0.914522454187E-03  0.445298680074E-02
  0.594040013798E+00  0.669257470651E+00  0.668167038612E+00  0.684522147053E+00  0.686768438375E+00  0.679274482202E+00  0.695948790975E+00
  0.702390535638E+00  0.103418462239E+01  0.723545578979E+00  0.672749974355E+00  0.676346069124E+00  0.693934730449E+00  0.719881930953E+00
  0.712449311124E+00  0.724516416916E+00  0.716380700610E+00  0.713137898030E+00  0.706611877500E+00  0.717766786408E+00  0.715686147591E+00
  0.730918887673E+00  0.791195134415E+00  0.724241150738E+00  0.721036354455E+00  0.715447349721E+00  0.741827108302E+00  0.723983027197E+00
  0.719780796829E+00  0.717936722138E+00  0.717572519514E+00  0.717293655755E+00  0.718433596844E+00
  0.000000000000E+00  0.000000000000E+00  0.000000000000E+00  0.382013423334E+00  0.000000000000E+00  0.344443442973E+00  0.583210475274E+00
  0.577852563591E+00  0.000000000000E+00  0.500907654506E+00  0.508863959909E+00  0.437956903319E+00  0.571314386346E+00  0.536612405684E+00
  0.566989667670E+00  0.515198322086E+00  0.508446729433E+00  0.528169557296E+00  0.567227284232E+00  0.532877371300E+00  0.506306945966E+00
  0.520830059192E+00  0.444398663977E+00  0.491158714282E+00  0.492046175042E+00  0.501293225678E+00  0.467605982273E+00  0.488183827397E+00
  0.487321451083E+00  0.491863973345E+00  0.485570456609E+00  0.487389639719E+00  0.495254121055E+00
  0.999993490674E+00  0.999993692749E+00  0.999993545390E+00  0.989101690196E+00  0.999993139454E+00  0.985107022822E+00  0.990351756205E+00
  0.991890165879E+00  0.999992723571E+00  0.984345628539E+00  0.985237862293E+00  0.984144011013E+00  0.990485609715E+00  0.100312034752E+01
  0.100014217593E+01  0.100473369576E+01  0.100085080343E+01  0.100056932791E+01  0.997935298809E+00  0.100333041703E+01  0.100091172596E+01
  0.101090397595E+01  0.104013902021E+01  0.100329719682E+01  0.100262588731E+01  0.100050917603E+01  0.100963118000E+01  0.100400017495E+01
  0.100239878425E+01  0.100025986453E+01  0.100002087150E+01  0.100094288374E+01  0.100206079903E+01
        15         7        19        19
         8        20        19        19
        18        19        21        21
         7         4         8         8
         3         6         4         4
        19         7         8         8
        19        18        15        15
        14        13        15        15
         8        22        20        20
        27        24        22        22
        19        20        21        21
        32        26        21        21
        17        18        26        26
        17        16        15        15
        25        29        21        21
        12         7        13        13
        10         8         6         6
        25        20        24        24
         4         6         8         8
        12         2         4         4
        10        23        22        22
        26        31        17        17
        30        16        17        17
         4         7        12        12
        13        11        12        12
        21        20        25        25
        24        28        25        25
        22         8        10        10
         6         5        10        10
        31        26        32        32
         4         2         3         3
         5         6         3         3
        11        13        14        14
        22        23        27        27
        28        24        27        27
        15        13         7         7
         2        12         1         1
        29        25        33        33
        23        10         9         9
        21        26        18        18
        16        14        15        15
        18        17        15        15
        29        32        21        21
        22        24        20        20
        28        33        25        25
        11         1        12        12
        31        30        17        17
         5         9        10        10
zone t="boundary 3 bc-3", solutiontime= 0.1000000E+02, strandid=1003, i=33, j=48, f=feblock
  0.375000000000E+01  0.250000000000E+01  0.500000000000E+01  0.403552511878E+01  0.288078410721E+01  0.125000000000E+01  0.190974100652E+01
  0.500000000000E+01  0.326683758169E+01  0.423153924130E+01  0.201431602454E+01  0.000000000000E+00  0.963108083381E+00  0.500000000000E+01
  0.267000324704E+01  0.385533350601E+01  0.893127759452E+00  0.154774304040E+01  0.000000000000E+00  0.500000000000E+01  0.315249557942E+01
  0.218329375016E+01  0.398173246726E+01  0.000000000000E+00  0.698517061619E+00  0.964171764089E+00  0.125000000000E+01  0.000000000000E+00
  0.500000000000E+01  0.310324758057E+01  0.250000000000E+01  0.375000000000E+01  0.000000000000E+00
  0.250000000000E+01  0.250000000000E+01  0.250000000000E+01  0.250000000000E+01  0.250000000000E+01  0.250000000000E+01  0.250000000000E+01
  0.250000000000E+01  0.250000000000E+01  0.250000000000E+01  0.250000000000E+01  0.250000000000E+01  0.250000000000E+01  0.250000000000E+01
  0.250000000000E+01  0.250000000000E+01  0.250000000000E+01  0.250000000000E+01  0.250000000000E+01  0.250000000000E+01  0.250000000000E+01
  0.250000000000E+01  0.250000000000E+01  0.250000000000E+01  0.250000000000E+01  0.250000000000E+01  0.250000000000E+01  0.250000000000E+01
  0.250000000000E+01  0.250000000000E+01  0.250000000000E+01  0.250000000000E+01  0.250000000000E+01
  0.000000000000E+00  0.000000000000E+00  0.000000000000E+00  0.101201586758E+01  0.904659890645E+00  0.000000000000E+00  0.717002441913E+00
  0.125000000000E+01  0.188609243358E+01  0.191586535653E+01  0.176246431481E+01  0.000000000000E+00  0.961328577125E+00  0.250000000000E+01
  0.285047954584E+01  0.293121848150E+01  0.205246550326E+01  0.292817774674E+01  0.125000000000E+01  0.375000000000E+01  0.363585050272E+01
  0.395907379566E+01  0.406975391361E+01  0.250000000000E+01  0.306828197606E+01  0.397245519226E+01  0.500000000000E+01  0.375000000000E+01
  0.500000000000E+01  0.433168271247E+01  0.500000000000E+01  0.500000000000E+01  0.500000000000E+01
  0.943813142915E+00  0.947744844098E+00  0.844100946756E+00  0.965891853940E+00  0.980212804690E+00  0.957697274356E+00  0.984138051085E+00
  0.964121945432E+00  0.982837218982E+00  0.984087814151E+00  0.990552180803E+00  0.134396596512E+01  0.101911328618E+01  0.100729640036E+01
  0.993499827668E+00  0.997601423716E+00  0.100791843002E+01  0.100077530998E+01  0.106288564908E+01  0.100618477845E+01  0.100059357140E+01
  0.100249419955E+01  0.100182781998E+01  0.102374887849E+01  0.100882730627E+01  0.100540993532E+01  0.100528491050E+01  0.100815139838E+01
  0.100457495937E+01  0.100186529208E+01  0.100461052695E+01  0.100575142315E+01  0.100300465261E+01
  0.000000000000E+00  0.000000000000E+00  0.000000000000E+00  0.440750670893E+00  0.400715097623E+00  0.000000000000E+00  0.373002526326E+00
  0.495608828465E+00  0.571962655417E+00  0.568806566228E+00  0.558798817912E+00  0.000000000000E+00  0.482764917050E+00  0.533602897045E+00
  0.556443598068E+00  0.564022265318E+00  0.522725277417E+00  0.522941483430E+00  0.446358084205E+00  0.518445048422E+00  0.525239884561E+00
  0.503208373327E+00  0.508924008358E+00  0.472067248548E+00  0.496211332987E+00  0.494405917726E+00  0.486389738685E+00  0.489656768651E+00
  0.493313380592E+00  0.498020318366E+00  0.483717032479E+00  0.484198149175E+00  0.496307945423E+00
  0.000000000000E+00  0.000000000000E+00  0.000000000000E+00  0.000000000000E+00  0.000000000000E+00  0.000000000000E+00  0.000000000000E+00
  0.000000000000E+00  0.000000000000E+00  0.000000000000E+00  0.000000000000E+00  0.000000000000E+00  0.000000000000E+00  0.000000000000E+00
  0.000000000000E+00  0.000000000000E+00  0.000000000000E+00  0.000000000000E+00  0.000000000000E+00  0.000000000000E+00  0.000000000000E+00
  0.000000000000E+00  0.000000000000E+00  0.000000000000E+00  0.000000000000E+00  0.000000000000E+00  0.000000000000E+00  0.000000000000E+00
  0.000000000000E+00  0.000000000000E+00  0.000000000000E+00  0.000000000000E+00  0.000000000000E+00
  0.000000000000E+00  0.000000000000E+00  0.000000000000E+00 -0.224687352056E-01  0.108026779239E-01  0.000000000000E+00  0.177288214901E-01
 -0.979338788247E-01  0.370529235856E-02 -0.377253752481E-01  0.330651307369E-01  0.000000000000E+00  0.645451360877E-01 -0.415865209118E-01
  0.829503210397E-02 -0.598356758378E-02  0.483632370218E-01  0.130696352466E-01  0.455578363960E-01 -0.264320173639E-03 -0.367168819870E-03
  0.204215328657E-02  0.141795275072E-02  0.371051001558E-02  0.101472432811E-01  0.438344303959E-02  0.369810934285E-02  0.875249841900E-03
  0.477696887141E-02  0.686634632779E-03  0.206694619769E-02  0.233653093560E-02  0.449760175817E-02
  0.674145059983E+00  0.676953434554E+00  0.602922994748E+00  0.676678163300E+00  0.691682242160E+00  0.684062523616E+00  0.690393835500E+00
  0.677703156103E+00  0.695241263335E+00  0.696246675961E+00  0.703454748895E+00  0.959966373589E+00  0.719436802963E+00  0.722257078281E+00
  0.709528161072E+00  0.713538717331E+00  0.725990278093E+00  0.716689662907E+00  0.781902653547E+00  0.721786776101E+00  0.716089330987E+00
  0.716741608716E+00  0.716386817180E+00  0.737246062699E+00  0.722653236697E+00  0.719586081731E+00  0.719926510541E+00  0.722624471698E+00
  0.717629868389E+00  0.715881564328E+00  0.718220945494E+00  0.718281779880E+00  0.718031343593E+00
  0.000000000000E+00  0.000000000000E+00  0.000000000000E+00  0.445621076220E+00  0.403307517519E+00  0.000000000000E+00  0.376805575033E+00
  0.509259155951E+00  0.574759020449E+00  0.572781580781E+00  0.561398214814E+00  0.000000000000E+00  0.489929847981E+00  0.534197490370E+00
  0.556550352399E+00  0.563671954053E+00  0.522766424816E+00  0.522429137977E+00  0.442116500307E+00  0.517336571457E+00  0.524733798128E+00
  0.502975745740E+00  0.508643334832E+00  0.470157920340E+00  0.495606378326E+00  0.493931723403E+00  0.485773072885E+00  0.488804262260E+00
  0.493310272843E+00  0.497929128614E+00  0.483505207650E+00  0.484241567210E+00  0.495775218279E+00
  0.999989342234E+00  0.999989410945E+00  0.999989629075E+00  0.980802793559E+00  0.987902967999E+00  0.999989828420E+00  0.982129863422E+00
  0.984091714787E+00  0.990334665670E+00  0.990506469370E+00  0.994229953291E+00  0.999990295817E+00  0.988321453369E+00  0.100383552372E+01
  0.999838548370E+00  0.100135603310E+01  0.100840143315E+01  0.100258821143E+01  0.102989791603E+01  0.100429017431E+01  0.100193034618E+01
  0.100094170386E+01  0.100111169210E+01  0.100820084833E+01  0.100286196169E+01  0.100199976053E+01  0.100259847157E+01  0.100349437793E+01
  0.100010636974E+01  0.100036821116E+01  0.100089467183E+01  0.999843966102E+00  0.100223252047E+01
        15         9        16        16
        15        18        11        11
        22        15        21        21
        11         5         9         9
         5         7         2         2
        11         9        15        15
        16        21        15        15
        16        10        14        14
        18        17        11        11
        17        25        24        24
        22        18        15        15
        22        30        31        31
        30        21        23        23
        16        20        23        23
        22        27        26        26
        10         9         4         4
         7        11        13        13
        25        18        26        26
        11         7         5         5
         5         1         4         4
        17        19        13        13
        23        32        30        30
        23        20        29        29
         4         9         5         5
         4         8        10        10
        26        18        22        22
        26        28        25        25
        13        11        17        17
        13         6         7         7
        31        30        32        32
         2         1         5         5
         2         7         6         6
        14        10         8         8
        24        19        17        17
        24        25        28        28
         9        10        16        16
         3         4         1         1
        33        26        27        27
        12        13        19        19
        21        30        22        22
        16        14        20        20
        16        23        21        21
        22        31        27        27
        18        25        17        17
        26        33        28        28
         4         3         8         8
        23        29        32        32
        13        12         6         6
zone t="boundary 4 bc-4", solutiontime= 0.1000000E+02, strandid=1004, i=32, j=46, f=feblock
  0.125000000000E+01  0.219251206392E+01  0.103724302461E+01  0.500000000000E+01  0.250000000000E+01  0.375000000000E+01  0.404200324774E+01
  0.500000000000E+01  0.000000000000E+00  0.310152362409E+01  0.202479342020E+01  0.324151231464E+01  0.922061490191E+00  0.000000000000E+00
  0.299062775774E+01  0.394624082883E+01  0.500000000000E+01  0.409252726285E+01  0.500000000000E+01  0.429310310915E+01  0.175434191980E+01
  0.284428995242E+01  0.000000000000E+00  0.000000000000E+00  0.715990576545E+00  0.930412228790E+00  0.125000000000E+01  0.187029682677E+01
  0.500000000000E+01  0.375000000000E+01  0.250000000000E+01  0.000000000000E+00
  0.250000000000E+01  0.157686156160E+01  0.146289271009E+01  0.250000000000E+01  0.250000000000E+01  0.250000000000E+01  0.155830813274E+01
  0.125000000000E+01  0.250000000000E+01  0.177790177481E+01  0.477386199275E+00  0.742988685424E+00  0.308372018325E+00  0.125000000000E+01
 -0.487811078581E+00 -0.144524380962E+01 -0.125000000000E+01 -0.345533899378E+00  0.000000000000E+00  0.627766083140E+00 -0.739814786992E+00
 -0.158811787973E+01  0.000000000000E+00 -0.125000000000E+01 -0.600232012419E+00 -0.154800130438E+01 -0.250000000000E+01 -0.178862290564E+01
 -0.250000000000E+01 -0.250000000000E+01 -0.250000000000E+01 -0.250000000000E+01
  0.500000000000E+01  0.500000000000E+01  0.500000000000E+01  0.500000000000E+01  0.500000000000E+01  0.500000000000E+01  0.500000000000E+01
  0.500000000000E+01  0.500000000000E+01  0.500000000000E+01  0.500000000000E+01  0.500000000000E+01  0.500000000000E+01  0.500000000000E+01
  0.500000000000E+01  0.500000000000E+01  0.500000000000E+01  0.500000000000E+01  0.500000000000E+01  0.500000000000E+01  0.500000000000E+01
  0.500000000000E+01  0.500000000000E+01  0.500000000000E+01  0.500000000000E+01  0.500000000000E+01  0.500000000000E+01  0.500000000000E+01
  0.500000000000E+01  0.500000000000E+01  0.500000000000E+01  0.500000000000E+01
  0.100528491050E+01  0.100481213327E+01  0.100454652535E+01  0.100457495937E+01  0.100461052695E+01  0.100575142315E+01  0.100519642956E+01
  0.100477824500E+01  0.100300465261E+01  0.100530973339E+01  0.100474175803E+01  0.100468643190E+01  0.100353625069E+01  0.100388286071E+01
  0.100466978724E+01  0.100338589048E+01  0.100511432140E+01  0.100451939775E+01  0.100476718931E+01  0.100579165782E+01  0.100440679786E+01
  0.100395541124E+01  0.100321537366E+01  0.100342413900E+01  0.100313593351E+01  0.100406071946E+01  0.100528166175E+01  0.100421777881E+01
  0.100485028604E+01  0.100458056021E+01  0.100326515565E+01  0.100373853219E+01
  0.486389738685E+00  0.486750333556E+00  0.489155376230E+00  0.493313380592E+00  0.483717032479E+00  0.484198149175E+00  0.486438078476E+00
  0.494607020520E+00  0.496307945423E+00  0.484748996527E+00  0.486074181520E+00  0.486482034733E+00  0.493033311390E+00  0.497492500323E+00
  0.486347332158E+00  0.485257156439E+00  0.493788706896E+00  0.488630692518E+00  0.495402089058E+00  0.489159304444E+00  0.487288273612E+00
  0.486488460383E+00  0.498116300933E+00  0.496793354578E+00  0.494574763599E+00  0.491698256128E+00  0.487891503007E+00  0.487577204972E+00
  0.491895270055E+00  0.485574443664E+00  0.487618503878E+00  0.495744169105E+00
  0.000000000000E+00  0.267010218958E-03 -0.143245431205E-02  0.000000000000E+00  0.000000000000E+00  0.000000000000E+00  0.771315318796E-03
  0.111094480949E-02  0.000000000000E+00  0.657713541580E-03 -0.412214358384E-03  0.157036884688E-03 -0.200982279531E-02 -0.433573569160E-03
 -0.404175328345E-03 -0.183068205852E-03 -0.225623092718E-03 -0.636822904455E-03  0.889406328382E-04  0.155430769243E-06 -0.581287643052E-03
 -0.128132624364E-03 -0.412220787238E-03  0.823832781827E-03 -0.198090656664E-03  0.144685555323E-02  0.000000000000E+00  0.818727368217E-03
  0.000000000000E+00  0.000000000000E+00  0.000000000000E+00  0.000000000000E+00