# vtk DataFile Version 2.0
FUN3D:global_image_vtk
ASCII
DATASET UNSTRUCTURED_GRID
POINTS 213 double
    0.0000000000000000E+00    0.2500000000000000E+01    0.0000000000000000E+00
    0.1250000000000000E+01    0.2500000000000000E+01    0.0000000000000000E+00
    0.2500000000000000E+01    0.2500000000000000E+01    0.0000000000000000E+00
    0.3750000000000000E+01    0.2500000000000000E+01    0.0000000000000000E+00
    0.5000000000000000E+01    0.2500000000000000E+01    0.0000000000000000E+00
    0.5000000000000000E+01    0.1250000000000000E+01    0.0000000000000000E+00
    0.5000000000000000E+01    0.0000000000000000E+00    0.0000000000000000E+00
    0.5000000000000000E+01   -0.1250000000000000E+01    0.0000000000000000E+00
    0.5000000000000000E+01   -0.2500000000000000E+01    0.0000000000000000E+00
    0.3750000000000000E+01   -0.2500000000000000E+01    0.0000000000000000E+00
    0.2500000000000000E+01   -0.2500000000000000E+01    0.0000000000000000E+00
    0.1250000000000000E+01   -0.2500000000000000E+01    0.0000000000000000E+00
    0.0000000000000000E+00   -0.2500000000000000E+01    0.0000000000000000E+00
    0.0000000000000000E+00   -0.1250000000000000E+01    0.0000000000000000E+00
    0.0000000000000000E+00    0.0000000000000000E+00    0.0000000000000000E+00
    0.0000000000000000E+00    0.1250000000000000E+01    0.0000000000000000E+00
    0.9058375365086910E+00    0.1578994732800803E+01    0.0000000000000000E+00
    0.3982050490726493E+01   -0.1583989954232354E+01    0.0000000000000000E+00
    0.4033849428301197E+01    0.1453322699199022E+01    0.0000000000000000E+00
    0.1040505887381675E+01   -0.1479596339503735E+01    0.0000000000000000E+00
    0.1099454400140349E+01   -0.3227322616384110E+00    0.0000000000000000E+00
    0.7354504170366591E+00    0.6593508822075582E+00    0.0000000000000000E+00
    0.1622302608453282E+01    0.8256214013940779E+00    0.0000000000000000E+00
    0.2145871574390382E+01   -0.1650070333782557E+01    0.0000000000000000E+00
    0.4086422318222992E+01   -0.4612828702537229E+00    0.0000000000000000E+00
    0.2979540174134984E+01   -0.8579242121530853E+00    0.0000000000000000E+00
    0.3045064261640043E+01   -0.1836846154397680E+01    0.0000000000000000E+00
    0.3428197553792836E+01    0.3508002863614053E+00    0.0000000000000000E+00
    0.4309693860063405E+01    0.5185680230613409E+00    0.0000000000000000E+00
    0.1827272193562204E+01    0.1738996113203182E+01    0.0000000000000000E+00
    0.2808563282768077E+01    0.1325493893339706E+01    0.0000000000000000E+00
    0.1895995683864404E+01   -0.8731419609589618E+00    0.0000000000000000E+00
    0.2273179336307740E+01    0.4906150219227333E-01    0.0000000000000000E+00
    0.5000000000000000E+01    0.2500000000000000E+01    0.1250000000000000E+01
    0.5000000000000000E+01    0.2500000000000000E+01    0.2500000000000000E+01
    0.5000000000000000E+01    0.2500000000000000E+01    0.3750000000000000E+01
    0.5000000000000000E+01    0.2500000000000000E+01    0.5000000000000000E+01
    0.3750000000000000E+01    0.2500000000000000E+01    0.5000000000000000E+01
    0.2500000000000000E+01    0.2500000000000000E+01    0.5000000000000000E+01
    0.1250000000000000E+01    0.2500000000000000E+01    0.5000000000000000E+01
    0.0000000000000000E+00    0.2500000000000000E+01    0.5000000000000000E+01
    0.0000000000000000E+00    0.2500000000000000E+01    0.3750000000000000E+01
    0.0000000000000000E+00    0.2500000000000000E+01    0.2500000000000000E+01
    0.0000000000000000E+00    0.2500000000000000E+01    0.1250000000000000E+01
    0.9631080833812172E+00    0.2500000000000000E+01    0.9613285771248219E+00
    0.3981732467264904E+01    0.2500000000000000E+01    0.4069753913607991E+01
    0.4035525118777670E+01    0.2500000000000000E+01    0.1012015867579395E+01
    0.9641717640894248E+00    0.2500000000000000E+01    0.3972455192261839E+01
    0.1547743040396780E+01    0.2500000000000000E+01    0.2928177746738678E+01
    0.6985170616192014E+00    0.2500000000000000E+01    0.3068281976055466E+01
    0.8931277594515110E+00    0.2500000000000000E+01    0.2052465503257726E+01
    0.2183293750162785E+01    0.2500000000000000E+01    0.3959073795658649E+01
    0.3855333506014705E+01    0.2500000000000000E+01    0.2931218481500625E+01
    0.3152495579421047E+01    0.2500000000000000E+01    0.3635850502723324E+01
    0.3103247580566054E+01    0.2500000000000000E+01    0.4331682712472464E+01
    0.3266837581688852E+01    0.2500000000000000E+01    0.1886092433583972E+01
    0.4231539241296245E+01    0.2500000000000000E+01    0.1915865356532799E+01
    0.1909741006522088E+01    0.2500000000000000E+01    0.7170024419130505E+00
    0.2880784107213163E+01    0.2500000000000000E+01    0.9046598906449592E+00
    0.2014316024535771E+01    0.2500000000000000E+01    0.1762464314805728E+01
    0.2670003247036656E+01    0.2500000000000000E+01    0.2850479545835163E+01
    0.5000000000000000E+01    0.1250000000000000E+01    0.5000000000000000E+01
    0.5000000000000000E+01    0.0000000000000000E+00    0.5000000000000000E+01
    0.5000000000000000E+01   -0.1250000000000000E+01    0.5000000000000000E+01
    0.5000000000000000E+01   -0.2500000000000000E+01    0.5000000000000000E+01
    0.5000000000000000E+01   -0.2500000000000000E+01    0.3750000000000000E+01
    0.5000000000000000E+01   -0.2500000000000000E+01    0.2500000000000000E+01
    0.5000000000000000E+01   -0.2500000000000000E+01    0.1250000000000000E+01
    0.5000000000000000E+01    0.1578994732800803E+01    0.9058375365086910E+00
    0.5000000000000000E+01   -0.1583989954232354E+01    0.3982050490726493E+01
    0.5000000000000000E+01    0.1453322699199022E+01    0.4033849428301197E+01
    0.5000000000000000E+01   -0.1479596339503735E+01    0.1040505887381675E+01
    0.5000000000000000E+01   -0.3227322616384110E+00    0.1099454400140349E+01
    0.5000000000000000E+01    0.6593508822075582E+00    0.7354504170366591E+00
    0.5000000000000000E+01    0.8256214013940779E+00    0.1622302608453282E+01
    0.5000000000000000E+01   -0.1650070333782557E+01    0.2145871574390382E+01
    0.5000000000000000E+01   -0.4612828702537229E+00    0.4086422318222992E+01
    0.5000000000000000E+01   -0.8579242121530853E+00    0.2979540174134984E+01
    0.5000000000000000E+01   -0.1836846154397680E+01    0.3045064261640043E+01
    0.5000000000000000E+01    0.3508002863614053E+00    0.3428197553792836E+01
    0.5000000000000000E+01    0.5185680230613409E+00    0.4309693860063405E+01
    0.5000000000000000E+01    0.1738996113203182E+01    0.1827272193562204E+01
    0.5000000000000000E+01    0.1325493893339706E+01    0.2808563282768077E+01
    0.5000000000000000E+01   -0.8731419609589618E+00    0.1895995683864404E+01
    0.5000000000000000E+01    0.4906150219227333E-01    0.2273179336307740E+01
    0.0000000000000000E+00    0.1250000000000000E+01    0.5000000000000000E+01
    0.0000000000000000E+00    0.0000000000000000E+00    0.5000000000000000E+01
    0.0000000000000000E+00   -0.1250000000000000E+01    0.5000000000000000E+01
    0.0000000000000000E+00   -0.2500000000000000E+01    0.5000000000000000E+01
    0.1250000000000000E+01   -0.2500000000000000E+01    0.5000000000000000E+01
    0.2500000000000000E+01   -0.2500000000000000E+01    0.5000000000000000E+01
    0.3750000000000000E+01   -0.2500000000000000E+01    0.5000000000000000E+01
    0.4042003247744892E+01    0.1558308132739014E+01    0.5000000000000000E+01
    0.9304122287900499E+00   -0.1548001304379777E+01    0.5000000000000000E+01
    0.1037243024609388E+01    0.1462892710085612E+01    0.5000000000000000E+01
    0.3946240828834967E+01   -0.1445243809615570E+01    0.5000000000000000E+01
    0.4092527262848217E+01   -0.3455338993778935E+00    0.5000000000000000E+01
    0.4293103109154542E+01    0.6277660831404320E+00    0.5000000000000000E+01
    0.3241512314643519E+01    0.7429886854239611E+00    0.5000000000000000E+01
    0.2844289952419609E+01   -0.1588117879734118E+01    0.5000000000000000E+01
    0.7159905765450471E+00   -0.6002320124191652E+00    0.5000000000000000E+01
    0.1754341919796891E+01   -0.7398147869923652E+00    0.5000000000000000E+01
    0.1870296826774691E+01   -0.1788622905643739E+01    0.5000000000000000E+01
    0.9220614901912976E+00    0.3083720183248586E+00    0.5000000000000000E+01
    0.3101523624086016E+01    0.1777901774806180E+01    0.5000000000000000E+01
    0.2192512063922564E+01    0.1576861561598471E+01    0.5000000000000000E+01
    0.2024793420196460E+01    0.4773861992750707E+00    0.5000000000000000E+01
    0.2990627757741975E+01   -0.4878110785814084E+00    0.5000000000000000E+01
    0.0000000000000000E+00   -0.2500000000000000E+01    0.1250000000000000E+01
    0.0000000000000000E+00   -0.2500000000000000E+01    0.2500000000000000E+01
    0.0000000000000000E+00   -0.2500000000000000E+01    0.3750000000000000E+01
    0.0000000000000000E+00    0.1558308132739014E+01    0.4042003247744892E+01
    0.0000000000000000E+00   -0.1548001304379777E+01    0.9304122287900499E+00
    0.0000000000000000E+00    0.1462892710085612E+01    0.1037243024609388E+01
    0.0000000000000000E+00   -0.1445243809615570E+01    0.3946240828834967E+01
    0.0000000000000000E+00   -0.3455338993778935E+00    0.4092527262848217E+01
    0.0000000000000000E+00    0.6277660831404320E+00    0.4293103109154542E+01
    0.0000000000000000E+00    0.7429886854239611E+00    0.3241512314643519E+01
    0.0000000000000000E+00   -0.1588117879734118E+01    0.2844289952419609E+01
    0.0000000000000000E+00   -0.6002320124191652E+00    0.7159905765450471E+00
    0.0000000000000000E+00   -0.7398147869923652E+00    0.1754341919796891E+01
    0.0000000000000000E+00   -0.1788622905643739E+01    0.1870296826774691E+01
    0.0000000000000000E+00    0.3083720183248586E+00    0.9220614901912976E+00
    0.0000000000000000E+00    0.1777901774806180E+01    0.3101523624086016E+01
    0.0000000000000000E+00    0.1576861561598471E+01    0.2192512063922564E+01
[...]
POINT_DATA 213
SCALARS rho double 1
LOOKUP_TABLE default
   0.1344271447242663E+01
   0.9569758904790904E+00
   0.9462964180601835E+00
   0.9418612688991714E+00
   0.8437304865781263E+00
   0.7738004287306020E+00
   0.7629818902573687E+00
   0.7664577900350854E+00
   0.8307873996247636E+00
   0.9352972535561399E+00
   0.9342219801229885E+00
   0.9617195265997365E+00
   0.1449457445751200E+01
   0.1494090639343213E+01
   0.1644667268989322E+01
   0.1425832042627295E+01
   0.1009014431808613E+01
   0.9508810859414938E+00
   0.9436508493271801E+00
   0.9581561010769815E+00
   0.9415852465261015E+00
   0.1036377237117183E+01
   0.9256161097221777E+00
   0.9322349861565274E+00
   0.9537479562710967E+00
   0.9518769542249078E+00
   0.9348583099990927E+00
   0.9564028398563249E+00
   0.9376098381292345E+00
   0.9300661514913168E+00
   0.9445157489119146E+00
   0.8863506522028126E+00
   0.9423579955776212E+00
   0.9635003073849454E+00
   0.1008299039454745E+01
   0.1006735291838589E+01
   0.1001964617551114E+01
   0.1003219581432176E+01
   0.1004132053853940E+01
   0.1005228602844533E+01
   0.1004260408182300E+01
   0.1008308189857315E+01
   0.1023893137716380E+01
   0.1063553955842153E+01
   0.1019182512920078E+01
   0.1001780766367267E+01
   0.9643309931321519E+00
   0.1005283708871950E+01
   0.1000721163194940E+01
   0.1008742083663189E+01
   0.1008078083527232E+01
   0.1002349807004922E+01
   0.9979986847796263E+00
   0.1000583560875676E+01
   0.1001620123557414E+01
   0.9826893071433318E+00
   0.9842439639907595E+00
   0.9833314030039063E+00
   0.9788207404769745E+00
   0.9902638160234390E+00
   0.9934561552664669E+00
   0.1002011751610690E+01
   0.1002134465622565E+01
   0.1002276326481280E+01
   0.1001794758307568E+01
   0.1009778638890472E+01
   0.1006429109061658E+01
   0.9558786954855539E+00
   0.9249398402726777E+00
   0.1007036755521544E+01
   0.1004504925150484E+01
   0.9143642069658762E+00
   0.9089667854388570E+00
   0.8751688892522144E+00
   0.9767271883068214E+00
   0.1000452621141073E+01
   0.1005831087455746E+01
   0.1012882803330064E+01
   0.1011618951343416E+01
   0.1010438648634049E+01
   0.1005468280890384E+01
   0.9907612677471737E+00
   0.1005140325672346E+01
   0.9860567245261349E+00
   0.1005609737666196E+01
   0.1004248005644304E+01
   0.1002888437636138E+01
   0.1003345420388449E+01
   0.1003992731812278E+01
   0.1005101716082136E+01
   0.1003211645068680E+01
   0.1002663159901487E+01
   0.1002586231355930E+01
   0.1004060870874715E+01
   0.1004320345961945E+01
   0.1001641920309572E+01
   0.1002273115924216E+01
   0.1002543475534124E+01
   0.1003469520738886E+01
   0.1003372640188823E+01
   0.1003232229978478E+01
   0.1004423863369503E+01
   0.1004313070759202E+01
   0.1003659849335965E+01
   0.1003723103857064E+01
   0.1004329726344882E+01
   0.1004465021783457E+01
   0.1003623375255983E+01
   0.1064422800930156E+01
   0.1028473621145097E+01
   0.1009586657210165E+01
   0.1006638837375363E+01
   0.1163935521800931E+01
   0.1086087969726852E+01
   0.1007893419161691E+01
   0.1007245533203512E+01
   0.1006798074051114E+01
   0.1013018286750091E+01
   0.1019384609268528E+01
   0.1235203667777459E+01
   0.1032529466587370E+01
   0.1046681191219125E+01
   0.1200953640880125E+01
   0.1014718915875276E+01
   0.1032291152950669E+01
   0.1028095236398112E+01
   0.1014628639607580E+01
   0.1029216892560572E+01
   0.1001994816321159E+01
   0.9606929188400198E+00
   0.1006852582695198E+01
   0.1001327193263229E+01
   0.1010821905231175E+01
   0.1012246098775894E+01
   0.1000946006839768E+01
   0.9979121233959211E+00
   0.9980632372186955E+00
   0.1001184143300435E+01
   0.9841362010201662E+00
   0.9814879613839187E+00
   0.9648483310898228E+00
   0.9680877120450501E+00
   0.9914124469898674E+00
   0.9910858388095359E+00
   0.9925545095382555E+00
   0.1001727533802000E+01
   0.9993409401617735E+00
   0.9941410834731728E+00
   0.1007038753570836E+01
   0.1022539494010915E+01
   0.1001088098224563E+01
   0.1008798496135928E+01
   0.1004773845984859E+01
   0.1009050237312612E+01
   0.9966470331636504E+00
   0.1004988557048832E+01
   0.1003325535081214E+01
   0.9949431084836584E+00
   0.9832680780474502E+00
   0.9943957454385927E+00
   0.9973420655777456E+00
   0.9932190084982492E+00
   0.1001306487058464E+01
   0.1003001636861512E+01
   0.1002183579557471E+01
   0.9947078545016199E+00
   0.9937965520973481E+00
   0.1004867865417588E+01
   0.1020077607324944E+01
   0.1005364552319134E+01
   0.9816998152082395E+00
   0.1004973031141062E+01
   0.1012382323271228E+01
   0.9871424289481208E+00
   0.9551513532721689E+00
   0.9865075699149550E+00
   0.9864532948734527E+00
   0.9918946936955940E+00
   0.9933508196178488E+00
   0.9954406178129107E+00
   0.1037336789600291E+01
   0.1033536797498972E+01
   0.1001443320746086E+01
   0.1001930499681276E+01
   0.9912478516143136E+00
   0.9910920509168514E+00
   0.9648489987318473E+00
   0.9933282604745420E+00
   0.1006058638646833E+01
   0.1001954027097081E+01
   0.9908735804112175E+00
   0.9740945209692154E+00
   0.9418802134040447E+00
   0.9819379687575774E+00
   0.9794803560214776E+00
   0.9704172059849863E+00
   0.9720478942714208E+00
   0.9557351699734447E+00
   0.9496731207924420E+00
   0.9528673561800952E+00
   0.1002659533921971E+01
   0.1002471631843289E+01
   0.1000509329217704E+01
   0.1001677321709350E+01
   0.9607931427541672E+00
   0.9491625496408468E+00
   0.9584503057444325E+00
   0.1001121207667869E+01
   0.1000496140498543E+01
   0.1001156644129816E+01
   0.9807376182629800E+00
   0.9806000803427624E+00
   0.9628476101903013E+00
SCALARS u double 1
LOOKUP_TABLE default
   0.0000000000000000E+00
   0.0000000000000000E+00
   0.0000000000000000E+00
   0.0000000000000000E+00
   0.0000000000000000E+00
   0.0000000000000000E+00
   0.0000000000000000E+00
   0.0000000000000000E+00
   0.0000000000000000E+00
   0.0000000000000000E+00
   0.0000000000000000E+00
   0.0000000000000000E+00
   0.0000000000000000E+00
   0.0000000000000000E+00
   0.0000000000000000E+00
   0.0000000000000000E+00
   0.0000000000000000E+00
   0.0000000000000000E+00
   0.0000000000000000E+00
   0.0000000000000000E+00
   0.0000000000000000E+00
   0.0000000000000000E+00
   0.0000000000000000E+00
   0.0000000000000000E+00
   0.0000000000000000E+00
   0.0000000000000000E+00
   0.0000000000000000E+00
   0.0000000000000000E+00
   0.0000000000000000E+00
   0.0000000000000000E+00
   0.0000000000000000E+00
   0.0000000000000000E+00
   0.0000000000000000E+00
   0.4950176840697862E+00
   0.5338221299433726E+00
   0.5183269246292557E+00
   0.4930649880123347E+00
   0.4847578720700181E+00
   0.4867666425536537E+00
   0.4890763585080222E+00
   0.4957848881358076E+00
   0.4898301885349824E+00
   0.4717388496294658E+00
   0.4454814156339945E+00
   0.4833907046862003E+00
   0.5098397462717731E+00
   0.4390712705293021E+00
   0.4949403966063126E+00
   0.5225330362957897E+00
   0.4962454547069474E+00
   0.5226154964395557E+00
   0.5038881744085592E+00
   0.5646883608477681E+00
   0.5247509156995629E+00
   0.4991466120495042E+00
   0.5730561901528849E+00
   0.5696051097753051E+00
   0.3737941448700108E+00
   0.3998658125710332E+00
   0.5599326586321485E+00
   0.5564587630390211E+00
   0.4942627332812080E+00
   0.4948659465945759E+00
   0.4925735874085134E+00
   0.4914269544128687E+00
   0.5162356849922217E+00
   0.5361798304107896E+00
   0.4947413361991772E+00
   0.4524112210551866E+00
   0.5128777324866429E+00
   0.5117942039978538E+00
   0.4783517511226852E+00
   0.4931696661798522E+00
   0.4603173601755768E+00
   0.5244892722358938E+00
   0.5297434247262115E+00
   0.5129579300087971E+00
   0.5328358317856839E+00
   0.5308941035583821E+00
   0.5309856169019775E+00
   0.5063656734849779E+00
   0.5282461955956385E+00
   0.5410312729346887E+00
   0.5361261481919425E+00
   0.5374105275535904E+00
   0.4965364819501638E+00
   0.4975340904729196E+00
   0.4963842645327542E+00
   0.4955220268400661E+00
   0.4904581832521024E+00
   0.4903044386657612E+00
   0.4862182765389430E+00
   0.4854049562141550E+00
   0.4932164389223402E+00
   0.4909833313681353E+00
   0.4832194697523934E+00
   0.4872622777934087E+00
   0.4880124910242027E+00
   0.4872445932769968E+00
   0.4882696670854018E+00
   0.4952597557626969E+00
   0.4900967169352924E+00
   0.4904000092169090E+00
   0.4944232926763478E+00
   0.4868002482227438E+00
   0.4892385985382551E+00
   0.4881393371197066E+00
   0.4878457830183142E+00
   0.4446866581545163E+00
   0.4700028782602443E+00
   0.4891999057798072E+00
   0.4885247845046862E+00
   0.4506533046750660E+00
   0.4687378566933064E+00
   0.4877010458159877E+00
   0.4868353684779037E+00
   0.4908994717225951E+00
   0.4793551578804300E+00
   0.4658071749524263E+00
   0.3792725237692899E+00
   0.4901596530988367E+00
   0.4486686693323365E+00
   0.4436137398327100E+00
   0.4845147242934713E+00
   0.4621822648123887E+00
   0.4665749536687196E+00
   0.4748140301611577E+00
   0.4894494213484826E+00
   0.5085556973336357E+00
   0.4315073876467008E+00
   0.4927349362261007E+00
   0.5318289234059225E+00
   0.4913399197304349E+00
   0.5207019993763728E+00
   0.5060964600140538E+00
   0.5688797394605958E+00
   0.5273992817781097E+00
   0.5015044842070264E+00
   0.5821790086913038E+00
   0.5689618253170676E+00
   0.3406394442535890E+00
   0.3789869412789726E+00
   0.5751958205997194E+00
   0.5666485492728304E+00
   0.5704108782769333E+00
   0.5291056376174530E+00
   0.5451902710941545E+00
   0.5718804314774181E+00
   0.5389079126166459E+00
   0.5475507505574357E+00
   0.5821713868483113E+00
   0.4925601785351930E+00
   0.5042157547063222E+00
   0.4961735437192317E+00
   0.5565207962283630E+00
   0.4758845208902431E+00
   0.4950268384617291E+00
   0.5498525443264171E+00
   0.5891202296886837E+00
   0.5841957608936964E+00
   0.5469097664299555E+00
   0.5805417617671849E+00
   0.5106251438930078E+00
   0.5030200513851920E+00
   0.5033624680486639E+00
   0.5676446095826931E+00
   0.5563943082463473E+00
   0.4947255974308088E+00
   0.5505243828111749E+00
   0.5510857280737865E+00
   0.5657350949465613E+00
   0.4920070018833643E+00
   0.4927299097600771E+00
   0.3865140570179785E+00
   0.3687754533859710E+00
   0.5574921717747447E+00
   0.5763755545065172E+00
   0.4194304390080139E+00
   0.5824843240526267E+00
   0.4265209609052301E+00
   0.5392799843515923E+00
   0.5012032759281910E+00
   0.5119513208431304E+00
   0.5049119464350746E+00
   0.5751974973483328E+00
   0.5876371359878723E+00
   0.5379907807283471E+00
   0.5677472539675303E+00
   0.5351248665750384E+00
   0.5338056378997964E+00
   0.5580313797891304E+00
   0.5512707862466797E+00
   0.4261852757247230E+00
   0.5273356177936555E+00
   0.5795712529716072E+00
   0.3318687134255728E+00
   0.4760283324620223E+00
   0.5446196255213641E+00
   0.4798331901183873E+00
   0.3005293508933914E+00
   0.5031051138848461E+00
   0.5017115978494460E+00
   0.5129033211112897E+00
   0.5414840107920553E+00
   0.3437603855486828E+00
   0.3397710718027699E+00
   0.3189928572963165E+00
   0.5065936052538959E+00
   0.5123483779973801E+00
   0.5330313519075759E+00
   0.5879309999882116E+00
   0.4644180533065640E+00
   0.3531270510342102E+00
SCALARS v double 1
LOOKUP_TABLE default
   0.0000000000000000E+00
   0.0000000000000000E+00
   0.0000000000000000E+00
   0.0000000000000000E+00
   0.0000000000000000E+00
   0.0000000000000000E+00
   0.0000000000000000E+00
   0.0000000000000000E+00
   0.0000000000000000E+00
   0.0000000000000000E+00
   0.0000000000000000E+00
   0.0000000000000000E+00
   0.0000000000000000E+00
   0.0000000000000000E+00
   0.0000000000000000E+00
   0.0000000000000000E+00
   0.0000000000000000E+00
   0.0000000000000000E+00
   0.0000000000000000E+00
   0.0000000000000000E+00
   0.0000000000000000E+00
   0.0000000000000000E+00
   0.0000000000000000E+00
   0.0000000000000000E+00
   0.0000000000000000E+00
   0.0000000000000000E+00
   0.0000000000000000E+00
   0.0000000000000000E+00
   0.0000000000000000E+00
   0.0000000000000000E+00
   0.0000000000000000E+00
   0.0000000000000000E+00
   0.0000000000000000E+00
   0.0000000000000000E+00
   0.0000000000000000E+00
   0.0000000000000000E+00
   0.0000000000000000E+00
   0.0000000000000000E+00
   0.0000000000000000E+00
   0.0000000000000000E+00
   0.0000000000000000E+00
   0.0000000000000000E+00
   0.0000000000000000E+00
   0.0000000000000000E+00
   0.0000000000000000E+00
   0.0000000000000000E+00
   0.0000000000000000E+00
   0.0000000000000000E+00
   0.0000000000000000E+00
   0.0000000000000000E+00
   0.0000000000000000E+00
   0.0000000000000000E+00
   0.0000000000000000E+00
   0.0000000000000000E+00
   0.0000000000000000E+00
   0.0000000000000000E+00
   0.0000000000000000E+00
   0.0000000000000000E+00
   0.0000000000000000E+00
   0.0000000000000000E+00
   0.0000000000000000E+00
   0.7970254414093042E-03
  -0.1329294698220411E-02
  -0.1332592755167275E-02
   0.0000000000000000E+00
   0.0000000000000000E+00
   0.0000000000000000E+00
   0.0000000000000000E+00
  -0.1922562553560919E-01
   0.4770618209120700E-03
   0.2183360174049063E-02
   0.1427333001673109E-01
  -0.6488282059864457E-02
  -0.7821622849520104E-02
  -0.1327725049531794E-01
   0.4914481771110226E-02
   0.6907122067813650E-03
   0.3434418446358768E-02
   0.1920847385204232E-02
   0.3147960255903393E-02
   0.1704778374715394E-02
  -0.7316187293959686E-02
  -0.7701899220313309E-04
   0.4468738018606489E-02
  -0.4387156063005805E-03
  -0.6383742168065827E-04
  -0.1963394578743090E-03
   0.8071267938519751E-03
   0.0000000000000000E+00
   0.0000000000000000E+00
   0.0000000000000000E+00
   0.0000000000000000E+00
   0.4257020087199173E-03
   0.1616304629661023E-02
  -0.1297550940676885E-02
  -0.1022774978311525E-02
  -0.2134342417972221E-02
  -0.1064012673653509E-02
  -0.8200064371336947E-03
  -0.7617033196766459E-03
   0.5202258680955461E-04
  -0.6244091919219549E-03
   0.7916469190983004E-03
  -0.1745238504541405E-02
   0.2747128588324255E-03
  -0.8939747646800422E-04
  -0.9424310132161350E-03
  -0.1100227542768336E-02
   0.0000000000000000E+00
   0.0000000000000000E+00
   0.0000000000000000E+00
  -0.1061759101609952E-02
  -0.7641128884318017E-02
   0.1860854730707796E-01
  -0.2834553345624949E-04
  -0.1383129140675985E-02
  -0.2035122956293778E-02
  -0.5666383166137393E-02
  -0.1585210180448461E-02
  -0.5947016240283013E-02
  -0.4160601813931027E-02
   0.1565614850088817E-02
   0.3329524818413010E-01
   0.3055140589338285E-04
  -0.2766884914244077E-02
   0.3566484658234058E-02
   0.3596189480679720E-03
   0.0000000000000000E+00
   0.0000000000000000E+00
   0.0000000000000000E+00
   0.0000000000000000E+00
   0.0000000000000000E+00
   0.0000000000000000E+00
   0.0000000000000000E+00
   0.0000000000000000E+00
   0.0000000000000000E+00
   0.0000000000000000E+00
   0.0000000000000000E+00
   0.0000000000000000E+00
   0.0000000000000000E+00
   0.0000000000000000E+00
   0.0000000000000000E+00
   0.0000000000000000E+00
   0.0000000000000000E+00
   0.5047032571108119E-02
   0.3230791949950576E-02
   0.8149134249029074E-02
   0.6168366986105811E-02
   0.1122928631763549E-01
   0.1429277496243860E-01
  -0.2038826622121786E-03
   0.5118221811774912E-02
   0.2914950529614253E-02
   0.3373611804763828E-02
   0.3728336395672206E-02
  -0.1465719870395787E-01
  -0.6159699825197121E-03
   0.6651630332818113E-02
   0.1542014282320101E-02
   0.1969646535178029E-02
   0.4266273531800960E-02
  -0.2790960931318335E-02
   0.1226887066591023E-02
   0.2819172476757392E-02
   0.1497449151779405E-02
   0.2575339058819462E-02
   0.2030646451246066E-02
   0.2118046059806281E-02
   0.8700410475097486E-02
  -0.3733396962579072E-02
   0.6241189097604051E-02
   0.2516489159161579E-04
  -0.3854044719234128E-03
  -0.1674679001799942E-01
  -0.4881976858532138E-02
  -0.4720000781960402E-02
   0.3445223061994764E-02
  -0.6135724060173157E-02
   0.9934522946663275E-04
  -0.3291372907904049E-01
  -0.3046196710422744E-02
   0.4722743256565783E-02
   0.9228367958140984E-03
   0.2112175224631095E-02
   0.4518755684032286E-02
   0.2720465272919007E-02
   0.3212576463397840E-02
   0.5200804216271061E-02
   0.1941838971679399E-02
   0.7315897579873701E-03
  -0.2555238243269823E-04
  -0.5374632769345395E-02
  -0.6959590940120880E-02
  -0.9443815905317879E-03
   0.1105268415062332E-02
  -0.2080554114125575E-02
  -0.3200035982823104E-02
  -0.2527833363051645E-02
  -0.4115193634762295E-02
  -0.7593954971253692E-02
  -0.1985686389683076E-02
   0.6240402865351750E-03
  -0.2239081701222100E-03
   0.1216949785436230E-02
  -0.3483958234462823E-02
   0.5229139978675555E-02
  -0.8487626161423935E-02
   0.2315170770133948E-04
  -0.3395192816575823E-03
   0.2542663548423910E-02
   0.1663457683099552E-02
   0.2021438700598727E-02
  -0.5620783949405387E-02
SCALARS w double 1
LOOKUP_TABLE default
   0.0000000000000000E+00
   0.0000000000000000E+00
   0.0000000000000000E+00
   0.0000000000000000E+00
   0.0000000000000000E+00
   0.0000000000000000E+00
   0.0000000000000000E+00
   0.0000000000000000E+00
   0.0000000000000000E+00
   0.0000000000000000E+00
   0.0000000000000000E+00
   0.0000000000000000E+00
   0.0000000000000000E+00
   0.0000000000000000E+00
   0.0000000000000000E+00
   0.0000000000000000E+00
   0.0000000000000000E+00
   0.0000000000000000E+00
   0.0000000000000000E+00
   0.0000000000000000E+00
   0.0000000000000000E+00
   0.0000000000000000E+00
   0.0000000000000000E+00
   0.0000000000000000E+00
   0.0000000000000000E+00
   0.0000000000000000E+00
   0.0000000000000000E+00
   0.0000000000000000E+00
   0.0000000000000000E+00
   0.0000000000000000E+00
   0.0000000000000000E+00
   0.0000000000000000E+00
   0.0000000000000000E+00
  -0.1007612293618410E+00
  -0.4249297153624060E-01
   0.7371985585749398E-03
   0.5725799899288362E-02
   0.5699057242925865E-03
   0.1609783078504263E-02
   0.3375072981036836E-02
   0.2371773621173768E-02
   0.4590624712248863E-03
   0.3518225880280067E-02
   0.4521817572816866E-01
   0.6522937800298910E-01
   0.8689296683194440E-03
  -0.2261151846483539E-01
   0.4316553490854244E-02
   0.1358734831670407E-01
   0.1039452546908252E-01
   0.4900548400609468E-01
   0.2437443475696519E-02
  -0.6509941158166853E-02
  -0.7012227792965338E-03
   0.3411016120525081E-03
   0.3904107317234354E-02
  -0.3893254323487430E-01
   0.1798168100968335E-01
   0.1119638185569808E-01
   0.3403773250059516E-01
   0.8438810175195483E-02
   0.4937312235300816E-02
   0.4970345544654273E-02
   0.4871517382719797E-02
   0.6027191692177902E-02
   0.2599191716314329E-02
  -0.4144429613708622E-01
  -0.9954261916400919E-01
  -0.1121678224586824E+00
   0.5070874991835473E-02
   0.4230770654645957E-02
  -0.1004732309633865E+00
  -0.9895252532483598E-01
  -0.9875450990420452E-01
  -0.9462509646506934E-01
  -0.6807133851833481E-01
   0.5154922140129747E-02
  -0.1935330759570925E-01
  -0.1575800302498278E-01
  -0.6002862478727231E-02
   0.6819057345356182E-02
  -0.8010050839708571E-01
  -0.2781092473134477E-01
  -0.8096457381583717E-01
  -0.5873277580537124E-01
   0.3083625660565920E-02
   0.2685146444651771E-02
   0.2640431158686317E-02
   0.3450191894896271E-02
   0.4007083746320119E-02
   0.1201214280614452E-02
  -0.1438846683191130E-03
   0.2039877254305764E-02
   0.4895693571106189E-02
   0.3857385557430148E-02
   0.1114201920509555E-02
   0.1182682004876583E-02
   0.1465296214582840E-02
  -0.1653641867644743E-04
   0.8996621353276444E-04
   0.4386667831755062E-02
   0.2715724202049153E-02
   0.2322755259328520E-02
   0.5010600999786515E-02
   0.1071689308026182E-02
   0.2712217683922082E-02
   0.2013964056374922E-02
   0.2879082479462839E-04
   0.8374614307499878E-01
   0.2793870732268939E-02
  -0.8346628143136803E-03
  -0.1492945567532509E-03
   0.1409540839681168E+00
   0.1239332952507523E+00
  -0.1219093307501946E-02
  -0.4381936071381144E-02
  -0.3043057866829189E-03
  -0.6512246805560664E-02
  -0.1949570321908963E-02
   0.1557630966888980E+00
   0.7489979161518202E-01
   0.2550174910456747E-01
   0.1656445111844053E+00