# vtk DataFile Version 2.0
FUN3D:global_image_vtk
ASCII
DATASET UNSTRUCTURED_GRID
POINTS 213 double
    0.0000000000000000E+00    0.2500000000000000E+01    0.0000000000000000E+00
    0.1250000000000000E+01    0.2500000000000000E+01    0.0000000000000000E+00
    0.2500000000000000E+01    0.2500000000000000E+01    0.0000000000000000E+00
    0.3750000000000000E+01    0.2500000000000000E+01    0.0000000000000000E+00
    0.5000000000000000E+01    0.2500000000000000E+01    0.0000000000000000E+00
    0.5000000000000000E+01    0.1250000000000000E+01    0.0000000000000000E+00
    0.5000000000000000E+01    0.0000000000000000E+00    0.0000000000000000E+00
    0.5000000000000000E+01   -0.1250000000000000E+01    0.0000000000000000E+00
    0.5000000000000000E+01   -0.2500000000000000E+01    0.0000000000000000E+00
    0.3750000000000000E+01   -0.2500000000000000E+01    0.0000000000000000E+00
    0.2500000000000000E+01   -0.2500000000000000E+01    0.0000000000000000E+00
    0.1250000000000000E+01   -0.2500000000000000E+01    0.0000000000000000E+00
    0.0000000000000000E+00   -0.2500000000000000E+01    0.0000000000000000E+00
    0.0000000000000000E+00   -0.1250000000000000E+01    0.0000000000000000E+00
    0.0000000000000000E+00    0.0000000000000000E+00    0.0000000000000000E+00
    0.0000000000000000E+00    0.1250000000000000E+01    0.0000000000000000E+00
    0.9058375365086910E+00    0.1578994732800803E+01    0.0000000000000000E+00
    0.3982050490726493E+01   -0.1583989954232354E+01    0.0000000000000000E+00
    0.4033849428301197E+01    0.1453322699199022E+01    0.0000000000000000E+00
    0.1040505887381675E+01   -0.1479596339503735E+01    0.0000000000000000E+00
    0.1099454400140349E+01   -0.3227322616384110E+00    0.0000000000000000E+00
    0.7354504170366591E+00    0.6593508822075582E+00    0.0000000000000000E+00
    0.1622302608453282E+01    0.8256214013940779E+00    0.0000000000000000E+00
    0.2145871574390382E+01   -0.1650070333782557E+01    0.0000000000000000E+00
    0.4086422318222992E+01   -0.4612828702537229E+00    0.0000000000000000E+00
    0.2979540174134984E+01   -0.8579242121530853E+00    0.0000000000000000E+00
    0.3045064261640043E+01   -0.1836846154397680E+01    0.0000000000000000E+00
    0.3428197553792836E+01    0.3508002863614053E+00    0.0000000000000000E+00
    0.4309693860063405E+01    0.5185680230613409E+00    0.0000000000000000E+00
    0.1827272193562204E+01    0.1738996113203182E+01    0.0000000000000000E+00
    0.2808563282768077E+01    0.1325493893339706E+01    0.0000000000000000E+00
    0.1895995683864404E+01   -0.8731419609589618E+00    0.0000000000000000E+00
    0.2273179336307740E+01    0.4906150219227333E-01    0.0000000000000000E+00
    0.5000000000000000E+01    0.2500000000000000E+01    0.1250000000000000E+01
    0.5000000000000000E+01    0.2500000000000000E+01    0.2500000000000000E+01
    0.5000000000000000E+01    0.2500000000000000E+01    0.3750000000000000E+01
    0.5000000000000000E+01    0.2500000000000000E+01    0.5000000000000000E+01
    0.3750000000000000E+01    0.2500000000000000E+01    0.5000000000000000E+01
    0.2500000000000000E+01    0.2500000000000000E+01    0.5000000000000000E+01
    0.1250000000000000E+01    0.2500000000000000E+01    0.5000000000000000E+01
    0.0000000000000000E+00    0.2500000000000000E+01    0.5000000000000000E+01
    0.0000000000000000E+00    0.2500000000000000E+01    0.3750000000000000E+01
    0.0000000000000000E+00    0.2500000000000000E+01    0.2500000000000000E+01
    0.0000000000000000E+00    0.2500000000000000E+01    0.1250000000000000E+01
    0.9631080833812172E+00    0.2500000000000000E+01    0.9613285771248219E+00
    0.3981732467264904E+01    0.2500000000000000E+01    0.4069753913607991E+01
    0.4035525118777670E+01    0.2500000000000000E+01    0.1012015867579395E+01
    0.9641717640894248E+00    0.2500000000000000E+01    0.3972455192261839E+01
    0.1547743040396780E+01    0.2500000000000000E+01    0.2928177746738678E+01
    0.6985170616192014E+00    0.2500000000000000E+01    0.3068281976055466E+01
    0.8931277594515110E+00    0.2500000000000000E+01    0.2052465503257726E+01
    0.2183293750162785E+01    0.2500000000000000E+01    0.3959073795658649E+01
    0.3855333506014705E+01    0.2500000000000000E+01    0.2931218481500625E+01
    0.3152495579421047E+01    0.2500000000000000E+01    0.3635850502723324E+01
    0.3103247580566054E+01    0.2500000000000000E+01    0.4331682712472464E+01
    0.3266837581688852E+01    0.2500000000000000E+01    0.1886092433583972E+01
    0.4231539241296245E+01    0.2500000000000000E+01    0.1915865356532799E+01
    0.1909741006522088E+01    0.2500000000000000E+01    0.7170024419130505E+00
    0.2880784107213163E+01    0.2500000000000000E+01    0.9046598906449592E+00
    0.2014316024535771E+01    0.2500000000000000E+01    0.1762464314805728E+01
    0.2670003247036656E+01    0.2500000000000000E+01    0.2850479545835163E+01
    0.5000000000000000E+01    0.1250000000000000E+01    0.5000000000000000E+01
    0.5000000000000000E+01    0.0000000000000000E+00    0.5000000000000000E+01
    0.5000000000000000E+01   -0.1250000000000000E+01    0.5000000000000000E+01
    0.5000000000000000E+01   -0.2500000000000000E+01    0.5000000000000000E+01
    0.5000000000000000E+01   -0.2500000000000000E+01    0.3750000000000000E+01
    0.5000000000000000E+01   -0.2500000000000000E+01    0.2500000000000000E+01
    0.5000000000000000E+01   -0.2500000000000000E+01    0.1250000000000000E+01
    0.5000000000000000E+01    0.1578994732800803E+01    0.9058375365086910E+00
    0.5000000000000000E+01   -0.1583989954232354E+01    0.3982050490726493E+01
    0.5000000000000000E+01    0.1453322699199022E+01    0.4033849428301197E+01
    0.5000000000000000E+01   -0.1479596339503735E+01    0.1040505887381675E+01
    0.5000000000000000E+01   -0.3227322616384110E+00    0.1099454400140349E+01
    0.5000000000000000E+01    0.6593508822075582E+00    0.7354504170366591E+00
    0.5000000000000000E+01    0.8256214013940779E+00    0.1622302608453282E+01
    0.5000000000000000E+01   -0.1650070333782557E+01    0.2145871574390382E+01
    0.5000000000000000E+01   -0.4612828702537229E+00    0.4086422318222992E+01
    0.5000000000000000E+01   -0.8579242121530853E+00    0.2979540174134984E+01
    0.5000000000000000E+01   -0.1836846154397680E+01    0.3045064261640043E+01
    0.5000000000000000E+01    0.3508002863614053E+00    0.3428197553792836E+01
    0.5000000000000000E+01    0.5185680230613409E+00    0.4309693860063405E+01
    0.5000000000000000E+01    0.1738996113203182E+01    0.1827272193562204E+01
    0.5000000000000000E+01    0.1325493893339706E+01    0.2808563282768077E+01
    0.5000000000000000E+01   -0.8731419609589618E+00    0.1895995683864404E+01
    0.5000000000000000E+01    0.4906150219227333E-01    0.2273179336307740E+01
    0.0000000000000000E+00    0.1250000000000000E+01    0.5000000000000000E+01
    0.0000000000000000E+00    0.0000000000000000E+00    0.5000000000000000E+01
    0.0000000000000000E+00   -0.1250000000000000E+01    0.5000000000000000E+01
    0.0000000000000000E+00   -0.2500000000000000E+01    0.5000000000000000E+01
    0.1250000000000000E+01   -0.2500000000000000E+01    0.5000000000000000E+01
    0.2500000000000000E+01   -0.2500000000000000E+01    0.5000000000000000E+01
    0.3750000000000000E+01   -0.2500000000000000E+01    0.5000000000000000E+01
    0.4042003247744892E+01    0.1558308132739014E+01    0.5000000000000000E+01
    0.9304122287900499E+00   -0.1548001304379777E+01    0.5000000000000000E+01
    0.1037243024609388E+01    0.1462892710085612E+01    0.5000000000000000E+01
    0.3946240828834967E+01   -0.1445243809615570E+01    0.5000000000000000E+01
    0.4092527262848217E+01   -0.3455338993778935E+00    0.5000000000000000E+01
    0.4293103109154542E+01    0.6277660831404320E+00    0.5000000000000000E+01
    0.3241512314643519E+01    0.7429886854239611E+00    0.5000000000000000E+01
    0.2844289952419609E+01   -0.1588117879734118E+01    0.5000000000000000E+01
    0.7159905765450471E+00   -0.6002320124191652E+00    0.5000000000000000E+01
    0.1754341919796891E+01   -0.7398147869923652E+00    0.5000000000000000E+01
    0.1870296826774691E+01   -0.1788622905643739E+01    0.5000000000000000E+01
    0.9220614901912976E+00    0.3083720183248586E+00    0.5000000000000000E+01
    0.3101523624086016E+01    0.1777901774806180E+01    0.5000000000000000E+01
    0.2192512063922564E+01    0.1576861561598471E+01    0.5000000000000000E+01
    0.2024793420196460E+01    0.4773861992750707E+00    0.5000000000000000E+01
    0.2990627757741975E+01   -0.4878110785814084E+00    0.5000000000000000E+01
    0.0000000000000000E+00   -0.2500000000000000E+01    0.1250000000000000E+01
    0.0000000000000000E+00   -0.2500000000000000E+01    0.2500000000000000E+01
    0.0000000000000000E+00   -0.2500000000000000E+01    0.3750000000000000E+01
    0.0000000000000000E+00    0.1558308132739014E+01    0.4042003247744892E+01
    0.0000000000000000E+00   -0.1548001304379777E+01    0.9304122287900499E+00
    0.0000000000000000E+00    0.1462892710085612E+01    0.1037243024609388E+01
    0.0000000000000000E+00   -0.1445243809615570E+01    0.3946240828834967E+01
    0.0000000000000000E+00   -0.3455338993778935E+00    0.4092527262848217E+01
    0.0000000000000000E+00    0.6277660831404320E+00    0.4293103109154542E+01
    0.0000000000000000E+00    0.7429886854239611E+00    0.3241512314643519E+01
    0.0000000000000000E+00   -0.1588117879734118E+01    0.2844289952419609E+01
    0.0000000000000000E+00   -0.6002320124191652E+00    0.7159905765450471E+00
    0.0000000000000000E+00   -0.7398147869923652E+00    0.1754341919796891E+01
    0.0000000000000000E+00   -0.1788622905643739E+01    0.1870296826774691E+01
    0.0000000000000000E+00    0.3083720183248586E+00    0.9220614901912976E+00
    0.0000000000000000E+00    0.1777901774806180E+01    0.3101523624086016E+01
    0.0000000000000000E+00    0.1576861561598471E+01    0.2192512063922564E+01
[...]
POINT_DATA 213
SCALARS rho double 1
LOOKUP_TABLE default
   0.1344271447245664E+01
   0.9569758904839083E+00
   0.9462964180739174E+00
   0.9418612689500606E+00
   0.8437304866686470E+00
   0.7738004287410517E+00
   0.7629818902634395E+00
   0.7664577900371000E+00
   0.8307873996266998E+00
   0.9352972535626456E+00
   0.9342219801289051E+00
   0.9617195266079971E+00
   0.1449457445761632E+01
   0.1494090639347279E+01
   0.1644667268995805E+01
   0.1425832042628831E+01
   0.1009014431813913E+01
   0.9508810859450023E+00
   0.9436508493701866E+00
   0.9581561010860289E+00
   0.9415852465311119E+00
   0.1036377237121086E+01
   0.9256161097307778E+00
   0.9322349861623804E+00
   0.9537479562741816E+00
   0.9518769542316805E+00
   0.9348583100050597E+00
   0.9564028398690466E+00
   0.9376098381251322E+00
   0.9300661515004269E+00
   0.9445157489338485E+00
   0.8863506522088022E+00
   0.9423579955843457E+00
   0.9635003077083125E+00
   0.1008299039429396E+01
   0.1006735291823557E+01
   0.1001964617599632E+01
   0.1003219581458742E+01
   0.1004132053868477E+01
   0.1005228602842919E+01
   0.1004260408179098E+01
   0.1008308189862486E+01
   0.1023893137720191E+01
   0.1063553955846222E+01
   0.1019182512925235E+01
   0.1001780766359335E+01
   0.9643309935932423E+00
   0.1005283708876489E+01
   0.1000721163203723E+01
   0.1008742083668341E+01
   0.1008078083533156E+01
   0.1002349807011771E+01
   0.9979986847763516E+00
   0.1000583560883673E+01
   0.1001620123563150E+01
   0.9826893071242658E+00
   0.9842439640298775E+00
   0.9833314029986668E+00
   0.9788207405263718E+00
   0.9902638160208102E+00
   0.9934561552763492E+00
   0.1002011751682204E+01
   0.1002134465677193E+01
   0.1002276326487345E+01
   0.1001794758314619E+01
   0.1009778638910472E+01
   0.1006429109065514E+01
   0.9558786955149307E+00
   0.9249398403645258E+00
   0.1007036755533986E+01
   0.1004504925148965E+01
   0.9143642069586750E+00
   0.9089667854463213E+00
   0.8751688892085797E+00
   0.9767271882774107E+00
   0.1000452621138941E+01
   0.1005831087457160E+01
   0.1012882803323100E+01
   0.1011618951344010E+01
   0.1010438648628173E+01
   0.1005468280889264E+01
   0.9907612676905387E+00
   0.1005140325671481E+01
   0.9860567245234931E+00
   0.1005609737678214E+01
   0.1004248005643080E+01
   0.1002888437634773E+01
   0.1003345420390002E+01
   0.1003992731814280E+01
   0.1005101716083538E+01
   0.1003211645071425E+01
   0.1002663159893014E+01
   0.1002586231407032E+01
   0.1004060870879355E+01
   0.1004320345962885E+01
   0.1001641920299004E+01
   0.1002273115951916E+01
   0.1002543475599943E+01
   0.1003469520754454E+01
   0.1003372640187093E+01
   0.1003232229982453E+01
   0.1004423863371155E+01
   0.1004313070757108E+01
   0.1003659849340871E+01
   0.1003723103859264E+01
   0.1004329726352619E+01
   0.1004465021789334E+01
   0.1003623375245065E+01
   0.1064422800948772E+01
   0.1028473621145272E+01
   0.1009586657214067E+01
   0.1006638837378034E+01
   0.1163935521794444E+01
   0.1086087969720941E+01
   0.1007893419164512E+01
   0.1007245533202907E+01
   0.1006798074049441E+01
   0.1013018286756293E+01
   0.1019384609269849E+01
   0.1235203667780970E+01
   0.1032529466595117E+01
   0.1046681191220999E+01
   0.1200953640886213E+01
   0.1014718915878538E+01
   0.1032291152955858E+01
   0.1028095236405921E+01
   0.1014628639610729E+01
   0.1029216892565273E+01
   0.1001994816331939E+01
   0.9606929188706420E+00
   0.1006852582698663E+01
   0.1001327193270630E+01
   0.1010821905233654E+01
   0.1012246098780856E+01
   0.1000946006840030E+01
   0.9979121234002269E+00
   0.9980632372145427E+00
   0.1001184143298856E+01
   0.9841362010277737E+00
   0.9814879613976485E+00
   0.9648483311028245E+00
   0.9680877120611059E+00
   0.9914124469939050E+00
   0.9910858388136938E+00
   0.9925545095409950E+00
   0.1001727533804749E+01
   0.9993409401670145E+00
   0.9941410834792223E+00
   0.1007038753574676E+01
   0.1022539494015120E+01
   0.1001088098229740E+01
   0.1008798496139413E+01
   0.1004773845990235E+01
   0.1009050237318330E+01
   0.9966470331701531E+00
   0.1004988557053417E+01
   0.1003325535083603E+01
   0.9949431084857802E+00
   0.9832680780672266E+00
   0.9943957454549386E+00
   0.9973420655845057E+00
   0.9932190084961812E+00
   0.1001306487066954E+01
   0.1003001636865380E+01
   0.1002183579564265E+01
   0.9947078545040118E+00
   0.9937965521014706E+00
   0.1004867865419829E+01
   0.1020077607330394E+01
   0.1005364552324084E+01
   0.9816998152127701E+00
   0.1004973031143296E+01
   0.1012382323273922E+01
   0.9871424289601823E+00
   0.9551513532780664E+00
   0.9865075699184032E+00
   0.9864532948836198E+00
   0.9918946936911207E+00
   0.9933508196252552E+00
   0.9954406178172096E+00
   0.1037336789602463E+01
   0.1033536797501489E+01
   0.1001443320748737E+01
   0.1001930499685335E+01
   0.9912478516123010E+00
   0.9910920509189113E+00
   0.9648489987307093E+00
   0.9933282604735048E+00
   0.1006058638649563E+01
   0.1001954027103617E+01
   0.9908735804141764E+00
   0.9740945209198515E+00
   0.9418802134226715E+00
   0.9819379687732861E+00
   0.9794803560209592E+00
   0.9704172059814716E+00
   0.9720478942743902E+00
   0.9557351699918173E+00
   0.9496731207915686E+00
   0.9528673561764098E+00
   0.1002659533922400E+01
   0.1002471631843676E+01
   0.1000509329222916E+01
   0.1001677321717443E+01
   0.9607931427544482E+00
   0.9491625496412264E+00
   0.9584503057387088E+00
   0.1001121207671182E+01
   0.1000496140497970E+01
   0.1001156644142021E+01
   0.9807376182670654E+00
   0.9806000803439138E+00
   0.9628476101970167E+00
SCALARS u double 1
LOOKUP_TABLE default
   0.0000000000000000E+00
   0.0000000000000000E+00
   0.0000000000000000E+00
   0.0000000000000000E+00
   0.0000000000000000E+00
   0.0000000000000000E+00
   0.0000000000000000E+00
   0.0000000000000000E+00
   0.0000000000000000E+00
   0.0000000000000000E+00
   0.0000000000000000E+00
   0.0000000000000000E+00
   0.0000000000000000E+00
   0.0000000000000000E+00
   0.0000000000000000E+00
   0.0000000000000000E+00
   0.0000000000000000E+00
   0.0000000000000000E+00
   0.0000000000000000E+00
   0.0000000000000000E+00
   0.0000000000000000E+00
   0.0000000000000000E+00
   0.0000000000000000E+00
   0.0000000000000000E+00
   0.0000000000000000E+00
   0.0000000000000000E+00
   0.0000000000000000E+00
   0.0000000000000000E+00
   0.0000000000000000E+00
   0.0000000000000000E+00
   0.0000000000000000E+00
   0.0000000000000000E+00
   0.0000000000000000E+00
   0.4950176837278598E+00
   0.5338221299793012E+00
   0.5183269246043588E+00
   0.4930649880292262E+00
   0.4847578721205618E+00
   0.4867666425775655E+00
   0.4890763584953772E+00
   0.4957848881200067E+00
   0.4898301885345475E+00
   0.4717388496252270E+00
   0.4454814156296167E+00
   0.4833907046845675E+00
   0.5098397461740118E+00
   0.4390712705650665E+00
   0.4949403965975548E+00
   0.5225330362884995E+00
   0.4962454547026146E+00
   0.5226154964335119E+00
   0.5038881743843587E+00
   0.5646883608317796E+00
   0.5247509156613217E+00
   0.4991466120118297E+00
   0.5730561901448895E+00
   0.5696051097460305E+00
   0.3737941448790024E+00
   0.3998658126345849E+00
   0.5599326586327629E+00
   0.5564587630172070E+00
   0.4942627333258039E+00
   0.4948659466534038E+00
   0.4925735874264024E+00
   0.4914269544118330E+00
   0.5162356849887272E+00
   0.5361798304112183E+00
   0.4947413361679827E+00
   0.4524112209835984E+00
   0.5128777324753414E+00
   0.5117942039570584E+00
   0.4783517511351896E+00
   0.4931696661834113E+00
   0.4603173602231760E+00
   0.5244892722629367E+00
   0.5297434247292646E+00
   0.5129579299844392E+00
   0.5328358317842647E+00
   0.5308941035605571E+00
   0.5309856168830234E+00
   0.5063656734718017E+00
   0.5282461956703733E+00
   0.5410312729383133E+00
   0.5361261481972079E+00
   0.5374105275489136E+00
   0.4965364819449016E+00
   0.4975340904664654E+00
   0.4963842645293642E+00
   0.4955220268348926E+00
   0.4904581832421786E+00
   0.4903044386761811E+00
   0.4862182765411911E+00
   0.4854049563157407E+00
   0.4932164389206326E+00
   0.4909833313727627E+00
   0.4832194697818877E+00
   0.4872622779005376E+00
   0.4880124911742973E+00
   0.4872445933606221E+00
   0.4882696670881109E+00
   0.4952597557598679E+00
   0.4900967169395389E+00
   0.4904000092151367E+00
   0.4944232926807267E+00
   0.4868002482603169E+00
   0.4892385985629579E+00
   0.4881393371613667E+00
   0.4878457830700402E+00
   0.4446866581200654E+00
   0.4700028782609865E+00
   0.4891999057759011E+00
   0.4885247845059447E+00
   0.4506533046910925E+00
   0.4687378567032039E+00
   0.4877010458088446E+00
   0.4868353684736065E+00
   0.4908994717144754E+00
   0.4793551578752434E+00
   0.4658071749546376E+00
   0.3792725237651626E+00
   0.4901596530893256E+00
   0.4486686693298679E+00
   0.4436137398215438E+00
   0.4845147242898896E+00
   0.4621822648035556E+00
   0.4665749536624272E+00
   0.4748140301589405E+00
   0.4894494213427603E+00
   0.5085556973622377E+00
   0.4315073876424450E+00
   0.4927349362211583E+00
   0.5318289234082247E+00
   0.4913399197305504E+00
   0.5207019993692265E+00
   0.5060964600130847E+00
   0.5688797394618342E+00
   0.5273992817858724E+00
   0.5015044842187332E+00
   0.5821790086848154E+00
   0.5689618253100516E+00
   0.3406394442514435E+00
   0.3789869412742429E+00
   0.5751958205917058E+00
   0.5666485492733265E+00
   0.5704108782713208E+00
   0.5291056376098192E+00
   0.5451902710876311E+00
   0.5718804314722936E+00
   0.5389079126114907E+00
   0.5475507505504723E+00
   0.5821713868417254E+00
   0.4925601785293791E+00
   0.5042157546897359E+00
   0.4961735437136947E+00
   0.5565207962260542E+00
   0.4758845208882855E+00
   0.4950268384588151E+00
   0.5498525443097635E+00
   0.5891202296753347E+00
   0.5841957608772628E+00
   0.5469097664090826E+00
   0.5805417617656100E+00
   0.5106251438771539E+00
   0.5030200513721835E+00
   0.5033624680189386E+00
   0.5676446095805360E+00
   0.5563943082327172E+00
   0.4947255974225347E+00
   0.5505243828059088E+00
   0.5510857280700810E+00
   0.5657350949422314E+00
   0.4920070018767031E+00
   0.4927299097570571E+00
   0.3865140570036480E+00
   0.3687754533786933E+00
   0.5574921717685779E+00
   0.5763755544990705E+00
   0.4194304390108361E+00
   0.5824843240452188E+00
   0.4265209608985142E+00
   0.5392799843494555E+00
   0.5012032759257424E+00
   0.5119513207871410E+00
   0.5049119464148838E+00
   0.5751974973378338E+00
   0.5876371359870922E+00
   0.5379907807254097E+00
   0.5677472539654851E+00
   0.5351248665747148E+00
   0.5338056378719060E+00
   0.5580313797854847E+00
   0.5512707862430279E+00
   0.4261852756882533E+00
   0.5273356177925831E+00
   0.5795712529673072E+00
   0.3318687134217378E+00
   0.4760283324589826E+00
   0.5446196255153462E+00
   0.4798331901195856E+00
   0.3005293508972141E+00
   0.5031051138837486E+00
   0.5017115978408149E+00
   0.5129033210894264E+00
   0.5414840107596552E+00
   0.3437603855168728E+00
   0.3397710718035835E+00
   0.3189928572951075E+00
   0.5065936052524266E+00
   0.5123483780096902E+00
   0.5330313518909673E+00
   0.5879309999854522E+00
   0.4644180533037036E+00
   0.3531270510264448E+00
SCALARS v double 1
LOOKUP_TABLE default
   0.0000000000000000E+00
   0.0000000000000000E+00
   0.0000000000000000E+00
   0.0000000000000000E+00
   0.0000000000000000E+00
   0.0000000000000000E+00
   0.0000000000000000E+00
   0.0000000000000000E+00
   0.0000000000000000E+00
   0.0000000000000000E+00
   0.0000000000000000E+00
   0.0000000000000000E+00
   0.0000000000000000E+00
   0.0000000000000000E+00
   0.0000000000000000E+00
   0.0000000000000000E+00
   0.0000000000000000E+00
   0.0000000000000000E+00
   0.0000000000000000E+00
   0.0000000000000000E+00
   0.0000000000000000E+00
   0.0000000000000000E+00
   0.0000000000000000E+00
   0.0000000000000000E+00
   0.0000000000000000E+00
   0.0000000000000000E+00
   0.0000000000000000E+00
   0.0000000000000000E+00
   0.0000000000000000E+00
   0.0000000000000000E+00
   0.0000000000000000E+00
   0.0000000000000000E+00
   0.0000000000000000E+00
   0.0000000000000000E+00
   0.0000000000000000E+00
   0.0000000000000000E+00
   0.0000000000000000E+00
   0.0000000000000000E+00
   0.0000000000000000E+00
   0.0000000000000000E+00
   0.0000000000000000E+00
   0.0000000000000000E+00
   0.0000000000000000E+00
   0.0000000000000000E+00
   0.0000000000000000E+00
   0.0000000000000000E+00
   0.0000000000000000E+00
   0.0000000000000000E+00
   0.0000000000000000E+00
   0.0000000000000000E+00
   0.0000000000000000E+00
   0.0000000000000000E+00
   0.0000000000000000E+00
   0.0000000000000000E+00
   0.0000000000000000E+00
   0.0000000000000000E+00
   0.0000000000000000E+00
   0.0000000000000000E+00
   0.0000000000000000E+00
   0.0000000000000000E+00
   0.0000000000000000E+00
   0.7970254867965569E-03
  -0.1329294648160516E-02
  -0.1332592724735945E-02
   0.0000000000000000E+00
   0.0000000000000000E+00
   0.0000000000000000E+00
   0.0000000000000000E+00
  -0.1922562567616554E-01
   0.4770618132845718E-03
   0.2183360161523704E-02
   0.1427333002051572E-01
  -0.6488282068726314E-02
  -0.7821622931354803E-02
  -0.1327725053400279E-01
   0.4914481771981870E-02
   0.6907121663389361E-03
   0.3434418428297182E-02
   0.1920847377719893E-02
   0.3147960227220796E-02
   0.1704778349696290E-02
  -0.7316187358309654E-02
  -0.7701899684224995E-04
   0.4468738014298350E-02
  -0.4387156056236508E-03
  -0.6383742328485326E-04
  -0.1963394586236323E-03
   0.8071267955563504E-03
   0.0000000000000000E+00
   0.0000000000000000E+00
   0.0000000000000000E+00
   0.0000000000000000E+00
   0.4257020456438939E-03
   0.1616304629746420E-02
  -0.1297550938211651E-02
  -0.1022774937331310E-02
  -0.2134342363305420E-02
  -0.1064012617498669E-02
  -0.8200064136988388E-03
  -0.7617032798031266E-03
   0.5202258913087550E-04
  -0.6244091755035726E-03
   0.7916469191415616E-03
  -0.1745238501848995E-02
   0.2747128646358728E-03
  -0.8939747382610755E-04
  -0.9424310097978361E-03
  -0.1100227503285191E-02
   0.0000000000000000E+00
   0.0000000000000000E+00
   0.0000000000000000E+00
  -0.1061759104558640E-02
  -0.7641128880079934E-02
   0.1860854731015663E-01
  -0.2834553209199468E-04
  -0.1383129141778697E-02
  -0.2035122959329699E-02
  -0.5666383164762289E-02
  -0.1585210184034162E-02
  -0.5947016241689889E-02
  -0.4160601816405982E-02
   0.1565614849430457E-02
   0.3329524818555718E-01
   0.3055140653199085E-04
  -0.2766884913903820E-02
   0.3566484660298261E-02
   0.3596189484162358E-03
   0.0000000000000000E+00
   0.0000000000000000E+00
   0.0000000000000000E+00
   0.0000000000000000E+00
   0.0000000000000000E+00
   0.0000000000000000E+00
   0.0000000000000000E+00
   0.0000000000000000E+00
   0.0000000000000000E+00
   0.0000000000000000E+00
   0.0000000000000000E+00
   0.0000000000000000E+00
   0.0000000000000000E+00
   0.0000000000000000E+00
   0.0000000000000000E+00
   0.0000000000000000E+00
   0.0000000000000000E+00
   0.5047032569089087E-02
   0.3230791947133531E-02
   0.8149134246760002E-02
   0.6168366986769280E-02
   0.1122928631853340E-01
   0.1429277496420307E-01
  -0.2038826613003490E-03
   0.5118221809784968E-02
   0.2914950527141886E-02
   0.3373611803904663E-02
   0.3728336397517551E-02
  -0.1465719870183951E-01
  -0.6159699868795036E-03
   0.6651630328004638E-02
   0.1542014294056571E-02
   0.1969646539025256E-02
   0.4266273518428244E-02
  -0.2790960914398990E-02
   0.1226887048842849E-02
   0.2819172468840287E-02
   0.1497449144753098E-02
   0.2575339051095732E-02
   0.2030646440209861E-02
   0.2118046057877160E-02
   0.8700410475038440E-02
  -0.3733396963686211E-02
   0.6241189098935077E-02
   0.2516488974805024E-04
  -0.3854044732425175E-03
  -0.1674679001294383E-01
  -0.4881976857973382E-02
  -0.4720000780792633E-02
   0.3445223063568748E-02
  -0.6135724051937119E-02
   0.9934523384735033E-04
  -0.3291372907768576E-01
  -0.3046196711574029E-02
   0.4722743257491785E-02
   0.9228367661637617E-03
   0.2112175214156206E-02
   0.4518755680898148E-02
   0.2720465267596364E-02
   0.3212576464564359E-02
   0.5200804212936131E-02
   0.1941838962268190E-02
   0.7315897337323061E-03
  -0.2555238626810340E-04
  -0.5374632779090436E-02
  -0.6959590999412520E-02
  -0.9443815705093350E-03
   0.1105268417545077E-02
  -0.2080554113791952E-02
  -0.3200035983014062E-02
  -0.2527833357316020E-02
  -0.4115193636436423E-02
  -0.7593954975654387E-02
  -0.1985686391575717E-02
   0.6240402749852587E-03
  -0.2239081975244684E-03
   0.1216949766736332E-02
  -0.3483958249251435E-02
   0.5229139960979129E-02
  -0.8487626163817305E-02
   0.2315169189303168E-04
  -0.3395192922511686E-03
   0.2542663541716254E-02
   0.1663457681348289E-02
   0.2021438700741897E-02
  -0.5620783959681437E-02
SCALARS w double 1
LOOKUP_TABLE default
   0.0000000000000000E+00
   0.0000000000000000E+00
   0.0000000000000000E+00
   0.0000000000000000E+00
   0.0000000000000000E+00
   0.0000000000000000E+00
   0.0000000000000000E+00
   0.0000000000000000E+00
   0.0000000000000000E+00
   0.0000000000000000E+00
   0.0000000000000000E+00
   0.0000000000000000E+00
   0.0000000000000000E+00
   0.0000000000000000E+00
   0.0000000000000000E+00
   0.0000000000000000E+00
   0.0000000000000000E+00
   0.0000000000000000E+00
   0.0000000000000000E+00
   0.0000000000000000E+00
   0.0000000000000000E+00
   0.0000000000000000E+00
   0.0000000000000000E+00
   0.0000000000000000E+00
   0.0000000000000000E+00
   0.0000000000000000E+00
   0.0000000000000000E+00
   0.0000000000000000E+00
   0.0000000000000000E+00
   0.0000000000000000E+00
   0.0000000000000000E+00
   0.0000000000000000E+00
   0.0000000000000000E+00
  -0.1007612292481061E+00
  -0.4249297147436994E-01
   0.7371985315773935E-03
   0.5725799850454460E-02
   0.5699057316244558E-03
   0.1609783072336204E-02
   0.3375072992815070E-02
   0.2371773626524537E-02
   0.4590624720235092E-03
   0.3518225880487294E-02
   0.4521817572680874E-01
   0.6522937800265186E-01
   0.8689296704079444E-03
  -0.2261151849965938E-01
   0.4316553496621043E-02
   0.1358734831265926E-01
   0.1039452546851658E-01
   0.4900548400493122E-01
   0.2437443480317453E-02
  -0.6509941152899986E-02
  -0.7012227876014509E-03
   0.3411016093843493E-03
   0.3904107305140418E-02
  -0.3893254319581186E-01
   0.1798168100817279E-01
   0.1119638183042994E-01
   0.3403773248543863E-01
   0.8438810169566316E-02
   0.4937312169761008E-02
   0.4970345507311394E-02
   0.4871517407368261E-02
   0.6027191722026284E-02
   0.2599191737208011E-02
  -0.4144429613336053E-01
  -0.9954261916013708E-01
  -0.1121678224458240E+00
   0.5070875000420473E-02
   0.4230770600767989E-02
  -0.1004732309645068E+00
  -0.9895252531734154E-01
  -0.9875450990019304E-01
  -0.9462509644214435E-01
  -0.6807133851824550E-01
   0.5154922119778280E-02
  -0.1935330761147300E-01
  -0.1575800302858965E-01
  -0.6002862500907637E-02
   0.6819057287846632E-02
  -0.8010050831820435E-01
  -0.2781092473207218E-01
  -0.8096457381648220E-01
  -0.5873277580450236E-01
   0.3083625661725108E-02
   0.2685146450719460E-02
   0.2640431163743800E-02
   0.3450191898213190E-02
   0.4007083749430190E-02
   0.1201214265173706E-02
  -0.1438846726992172E-03
   0.2039877225279533E-02
   0.4895693569796525E-02
   0.3857385565106218E-02
   0.1114201953030770E-02
   0.1182681994789979E-02
   0.1465296172944606E-02
  -0.1653641336782797E-04
   0.8996621170985128E-04
   0.4386667831514247E-02
   0.2715724202609085E-02
   0.2322755262420674E-02
   0.5010600996369604E-02
   0.1071689329478484E-02
   0.2712217682556738E-02
   0.2013964052360136E-02
   0.2879084741414715E-04
   0.8374614306003623E-01
   0.2793870731927404E-02
  -0.8346628141827912E-03
  -0.1492945536225392E-03
   0.1409540839688700E+00
   0.1239332952537180E+00
  -0.1219093306612897E-02
  -0.4381936066846637E-02
  -0.3043057834906772E-03
  -0.6512246803919475E-02
  -0.1949570321378761E-02
   0.1557630966890898E+00
   0.7489979161551832E-01
   0.2550174910524875E-01
   0.1656445111850339E+00