title="tecplot geometry and solution file"
variables = x y z rho u v w p mach temperature
zone t="boundary 1 bc-1", solutiontime= 0.4000000E+02, strandid=1001, i=32, j=46, f=feblock
  0.000000000000E+00  0.000000000000E+00  0.000000000000E+00  0.000000000000E+00  0.000000000000E+00  0.000000000000E+00  0.000000000000E+00
  0.000000000000E+00  0.000000000000E+00  0.000000000000E+00  0.000000000000E+00  0.000000000000E+00  0.000000000000E+00  0.000000000000E+00
  0.000000000000E+00  0.000000000000E+00  0.000000000000E+00  0.000000000000E+00  0.000000000000E+00  0.000000000000E+00  0.000000000000E+00
  0.000000000000E+00  0.000000000000E+00  0.000000000000E+00  0.000000000000E+00  0.000000000000E+00  0.000000000000E+00  0.000000000000E+00
  0.000000000000E+00  0.000000000000E+00  0.000000000000E+00  0.000000000000E+00
  0.250000000000E+01  0.250000000000E+01  0.125000000000E+01  0.146289271009E+01  0.157686156160E+01  0.308372018325E+00  0.000000000000E+00
 -0.125000000000E+01 -0.600232012419E+00  0.250000000000E+01  0.477386199275E+00  0.742988685424E+00 -0.739814786992E+00  0.177790177481E+01
  0.155830813274E+01  0.250000000000E+01 -0.250000000000E+01 -0.154800130438E+01 -0.487811078581E+00  0.250000000000E+01  0.627766083140E+00
 -0.345533899378E+00 -0.178862290564E+01 -0.158811787973E+01  0.125000000000E+01 -0.250000000000E+01 -0.144524380962E+01  0.000000000000E+00
 -0.125000000000E+01 -0.250000000000E+01 -0.250000000000E+01 -0.250000000000E+01
  0.000000000000E+00  0.125000000000E+01  0.000000000000E+00  0.103724302461E+01  0.219251206392E+01  0.922061490191E+00  0.000000000000E+00
  0.000000000000E+00  0.715990576545E+00  0.250000000000E+01  0.202479342020E+01  0.324151231464E+01  0.175434191980E+01  0.310152362409E+01
  0.404200324774E+01  0.375000000000E+01  0.000000000000E+00  0.930412228790E+00  0.299062775774E+01  0.500000000000E+01  0.429310310915E+01
  0.409252726285E+01  0.187029682677E+01  0.284428995242E+01  0.500000000000E+01  0.125000000000E+01  0.394624082883E+01  0.500000000000E+01
  0.500000000000E+01  0.250000000000E+01  0.375000000000E+01  0.500000000000E+01
  0.134427145119E+01  0.106355395260E+01  0.142583204302E+01  0.108608796606E+01  0.103229114989E+01  0.120095364312E+01  0.164466726728E+01
  0.149409063636E+01  0.123520366731E+01  0.102389313712E+01  0.102809523322E+01  0.101301828556E+01  0.103252946705E+01  0.101471891370E+01
  0.100663883719E+01  0.100830818649E+01  0.144945744867E+01  0.116393551680E+01  0.101462863626E+01  0.100426040724E+01  0.100679807562E+01
  0.100724553363E+01  0.104668118714E+01  0.101938460409E+01  0.100424800537E+01  0.106442281106E+01  0.100789341652E+01  0.100288844237E+01
  0.100334542181E+01  0.102847361775E+01  0.100958665588E+01  0.100399273857E+01
  0.000000000000E+00  0.445481420114E+00  0.000000000000E+00  0.468737854421E+00  0.462182267532E+00  0.443613740741E+00  0.000000000000E+00
  0.000000000000E+00  0.379272525181E+00  0.471738849006E+00  0.466574961473E+00  0.479355161309E+00  0.490159648461E+00  0.484514726340E+00
  0.488524773510E+00  0.489830200133E+00  0.000000000000E+00  0.450653322149E+00  0.474814037259E+00  0.495784876126E+00  0.490899460315E+00
  0.486835364618E+00  0.448668673259E+00  0.465807186851E+00  0.496536483308E+00  0.444686633840E+00  0.487701037251E+00  0.497534086503E+00
  0.496384260390E+00  0.470002882988E+00  0.489199908235E+00  0.495522029748E+00
  0.000000000000E+00  0.000000000000E+00  0.000000000000E+00  0.186085524998E-01 -0.276688298005E-02  0.332952466246E-01  0.000000000000E+00
  0.000000000000E+00 -0.594701769754E-02  0.000000000000E+00  0.356648588451E-02 -0.566637988825E-02 -0.416060345833E-02  0.305534789344E-04
 -0.106176516806E-02  0.000000000000E+00  0.000000000000E+00 -0.764112754508E-02  0.359619723337E-03  0.000000000000E+00 -0.203512849903E-02
 -0.138313243165E-02  0.156561564707E-02 -0.158521315041E-02 -0.638395925159E-04  0.000000000000E+00 -0.283450923272E-04 -0.196341515841E-03
  0.807127114715E-03  0.000000000000E+00  0.000000000000E+00  0.000000000000E+00
  0.000000000000E+00  0.452181797862E-01  0.000000000000E+00  0.123933293417E+00  0.247647189312E-01  0.165644510864E+00  0.000000000000E+00
  0.000000000000E+00  0.155763096056E+00  0.351822661356E-02  0.259783161661E-01 -0.651224842410E-02  0.748997892107E-01  0.371839403993E-02
 -0.149292020585E-03  0.459058865077E-03  0.000000000000E+00  0.140954082972E+00 -0.808565728582E-02  0.237176893732E-02 -0.304298826198E-03
 -0.438193698544E-02  0.255017505555E-01 -0.194957189967E-02  0.308362256910E-02  0.837461349342E-01 -0.121909289085E-02  0.268513918929E-02
  0.264043132159E-02  0.279386969206E-02 -0.834665076431E-03  0.345018553778E-02
  0.960184575808E+00  0.782340561475E+00  0.101844204894E+01  0.808726655709E+00  0.746125889654E+00  0.879446498155E+00  0.117475225256E+01
  0.106719924074E+01  0.916620145165E+00  0.737395237566E+00  0.743553970053E+00  0.725759209460E+00  0.757455248602E+00  0.729188341360E+00
  0.720785045973E+00  0.722781669228E+00  0.103531921557E+01  0.858317139663E+00  0.728065069960E+00  0.718615291795E+00  0.721013448082E+00
  0.721151586813E+00  0.760018783388E+00  0.732628400168E+00  0.718531161292E+00  0.791043236093E+00  0.722107947235E+00  0.717199386537E+00
  0.717636872586E+00  0.741799733766E+00  0.724056578385E+00  0.718400640046E+00
  0.000000000000E+00  0.441238352967E+00  0.000000000000E+00  0.475214984487E+00  0.460123712023E+00  0.468827816983E+00  0.000000000000E+00
  0.000000000000E+00  0.402302518735E+00  0.469814974296E+00  0.464411137000E+00  0.478714038179E+00  0.489298237674E+00  0.483068560386E+00
  0.487930063024E+00  0.488961666103E+00  0.000000000000E+00  0.464775736977E+00  0.473795659626E+00  0.495346580590E+00  0.490266092821E+00
  0.486286080433E+00  0.445717622371E+00  0.464382286682E+00  0.496127396393E+00  0.443624081056E+00  0.486964453790E+00  0.497246275811E+00
  0.496059266599E+00  0.467732360725E+00  0.488212090221E+00  0.495098267574E+00
  0.999990295817E+00  0.102982719718E+01  0.999990760134E+00  0.104247294269E+01  0.101190080495E+01  0.102520618050E+01  0.999991418514E+00
  0.999992169604E+00  0.103891223544E+01  0.100826277193E+01  0.101252833827E+01  0.100300548147E+01  0.102702865331E+01  0.100605563188E+01
  0.100244400184E+01  0.100355660152E+01  0.999992723571E+00  0.103239739503E+01  0.100459523960E+01  0.100179336083E+01  0.100260305592E+01
  0.100234966335E+01  0.101657153087E+01  0.100617544754E+01  0.100168844790E+01  0.104043291728E+01  0.100303376286E+01  0.100118726943E+01
  0.100134171122E+01  0.100976788256E+01  0.100405369250E+01  0.100176112578E+01
        12        19        11        11
        11         5        12        12
        10        14         5         5
        19        13        11        11
        19        24        13        13
        30        23        24        24
        19        12        22        22
        28        22        21        21
        11        13         6         6
         7         6         9         9
        15        12        14        14
        18        13        23        23
        15        25        21        21
        27        19        22        22
        18         8         9         9
        27        31        24        24
         4        11         6         6
         5        14        12        12
         4         2         5         5
        21        12        15        15
        14        16        15        15
        24        19        27        27
        22        29        27        27
        23        26        18        18
        17         8        18        18
         5        11         4         4
         6         3         4         4
        26        23        30        30
         5         2        10        10
        16        14        10        10
         3         6         7         7
        21        25        28        28
        29        22        28        28
         6        13         9         9
         2         4         1         1
        31        27        32        32
        25        15        20        20
        24        23        13        13
         8         7         9         9
        13        18         9         9
        31        30        24        24
        12        21        22        22
        29        32        27        27
         3         1         4         4
        26        17        18        18
        16        20        15        15
zone t="boundary 2 bc-2", solutiontime= 0.4000000E+02, strandid=1002, i=33, j=48, f=feblock
  0.500000000000E+01  0.375000000000E+01  0.250000000000E+01  0.288078410721E+01  0.125000000000E+01  0.190974100652E+01  0.326683758169E+01
  0.201431602454E+01  0.000000000000E+00  0.963108083381E+00  0.500000000000E+01  0.403552511878E+01  0.423153924130E+01  0.500000000000E+01
  0.385533350601E+01  0.500000000000E+01  0.398173246726E+01  0.315249557942E+01  0.267000324704E+01  0.154774304040E+01  0.218329375016E+01
  0.893127759452E+00  0.000000000000E+00  0.698517061619E+00  0.964171764089E+00  0.310324758057E+01  0.000000000000E+00  0.000000000000E+00
  0.125000000000E+01  0.500000000000E+01  0.375000000000E+01  0.250000000000E+01  0.000000000000E+00
 -0.250000000000E+01 -0.250000000000E+01 -0.250000000000E+01 -0.250000000000E+01 -0.250000000000E+01 -0.250000000000E+01 -0.250000000000E+01
 -0.250000000000E+01 -0.250000000000E+01 -0.250000000000E+01 -0.250000000000E+01 -0.250000000000E+01 -0.250000000000E+01 -0.250000000000E+01
 -0.250000000000E+01 -0.250000000000E+01 -0.250000000000E+01 -0.250000000000E+01 -0.250000000000E+01 -0.250000000000E+01 -0.250000000000E+01
 -0.250000000000E+01 -0.250000000000E+01 -0.250000000000E+01 -0.250000000000E+01 -0.250000000000E+01 -0.250000000000E+01 -0.250000000000E+01
 -0.250000000000E+01 -0.250000000000E+01 -0.250000000000E+01 -0.250000000000E+01 -0.250000000000E+01
  0.000000000000E+00  0.000000000000E+00  0.000000000000E+00  0.904659890645E+00  0.000000000000E+00  0.717002441913E+00  0.188609243358E+01
  0.176246431481E+01  0.000000000000E+00  0.961328577125E+00  0.125000000000E+01  0.101201586758E+01  0.191586535653E+01  0.250000000000E+01
  0.293121848150E+01  0.375000000000E+01  0.406975391361E+01  0.363585050272E+01  0.285047954584E+01  0.292817774674E+01  0.395907379566E+01
  0.205246550326E+01  0.125000000000E+01  0.306828197606E+01  0.397245519226E+01  0.433168271247E+01  0.250000000000E+01  0.375000000000E+01
  0.500000000000E+01  0.500000000000E+01  0.500000000000E+01  0.500000000000E+01  0.500000000000E+01
  0.830787404781E+00  0.935297258510E+00  0.934221977768E+00  0.968087714222E+00  0.961719524620E+00  0.964848338453E+00  0.984136205467E+00
  0.991412447093E+00  0.144945744867E+01  0.102921689032E+01  0.955878716058E+00  0.960692948094E+00  0.981487966201E+00  0.100642908936E+01
  0.997912114799E+00  0.100977868830E+01  0.100199484814E+01  0.998063219049E+00  0.991085841017E+00  0.100132719290E+01  0.100094599985E+01
  0.101224609735E+01  0.106442281106E+01  0.101082189973E+01  0.100685257798E+01  0.100118412834E+01  0.102847361775E+01  0.100958665588E+01
  0.100510171178E+01  0.100179475082E+01  0.100266311890E+01  0.100321164480E+01  0.100399273857E+01
  0.000000000000E+00  0.000000000000E+00  0.000000000000E+00  0.378986938719E+00  0.000000000000E+00  0.340639446300E+00  0.582179008154E+00
  0.575195822316E+00  0.000000000000E+00  0.489449421786E+00  0.494741308213E+00  0.431507394879E+00  0.568961809671E+00  0.536179840751E+00
  0.568879734130E+00  0.516235691312E+00  0.508555819161E+00  0.527399314331E+00  0.566648556715E+00  0.531828935094E+00  0.506096475905E+00
  0.520701996927E+00  0.444686633840E+00  0.491339928854E+00  0.492734940210E+00  0.501504526423E+00  0.470002882988E+00  0.489199908235E+00
  0.490458154983E+00  0.491426965695E+00  0.486218274499E+00  0.490304430038E+00  0.495522029748E+00
  0.000000000000E+00  0.000000000000E+00  0.000000000000E+00  0.000000000000E+00  0.000000000000E+00  0.000000000000E+00  0.000000000000E+00
  0.000000000000E+00  0.000000000000E+00  0.000000000000E+00  0.000000000000E+00  0.000000000000E+00  0.000000000000E+00  0.000000000000E+00
  0.000000000000E+00  0.000000000000E+00  0.000000000000E+00  0.000000000000E+00  0.000000000000E+00  0.000000000000E+00  0.000000000000E+00
  0.000000000000E+00  0.000000000000E+00  0.000000000000E+00  0.000000000000E+00  0.000000000000E+00  0.000000000000E+00  0.000000000000E+00
  0.000000000000E+00  0.000000000000E+00  0.000000000000E+00  0.000000000000E+00  0.000000000000E+00
  0.000000000000E+00  0.000000000000E+00  0.000000000000E+00 -0.229668912985E-02  0.000000000000E+00  0.183565264290E-01  0.121122198896E-01
  0.454986555075E-01  0.000000000000E+00  0.870789627627E-01 -0.995426040077E-01 -0.211865037804E-01 -0.306441333400E-01 -0.414442969753E-01
 -0.137879743632E-02  0.259922296067E-02  0.609520953670E-03  0.503605146914E-03  0.150967388854E-01  0.284025711942E-01  0.564165139515E-02
  0.553419851220E-01  0.837461349342E-01  0.110441033541E-01  0.679168603764E-02 -0.758102097949E-03  0.279386969206E-02 -0.834665076431E-03
  0.400707428405E-02  0.602725410461E-02 -0.143896474259E-03  0.120117120552E-02  0.345018553778E-02
  0.593415712082E+00  0.668065256683E+00  0.667297105521E+00  0.684257572217E+00  0.686937804785E+00  0.679201333715E+00  0.695811644749E+00
  0.702343850543E+00  0.103531921557E+01  0.723694675052E+00  0.672591699662E+00  0.675702735316E+00  0.694093187744E+00  0.720959953169E+00
  0.712691285905E+00  0.724770860549E+00  0.716580556596E+00  0.713298977905E+00  0.706429553896E+00  0.717737236711E+00  0.715376597394E+00
  0.730937672550E+00  0.791043236093E+00  0.724372845161E+00  0.721010715857E+00  0.715457525741E+00  0.741799733766E+00  0.724056578385E+00
  0.719312936905E+00  0.715892793381E+00  0.716608872390E+00  0.717367928975E+00  0.718400640046E+00
  0.000000000000E+00  0.000000000000E+00  0.000000000000E+00  0.380991904540E+00  0.000000000000E+00  0.343629828801E+00  0.585286158586E+00
  0.579373267038E+00  0.000000000000E+00  0.501056068900E+00  0.508460334681E+00  0.435373041110E+00  0.572640026777E+00  0.537002107371E+00
  0.568922544301E+00  0.514994098634E+00  0.508247389270E+00  0.527252886119E+00  0.567446670842E+00  0.531657156251E+00  0.505981032728E+00
  0.520795577716E+00  0.443624081056E+00  0.490663739992E+00  0.492155878507E+00  0.501390828448E+00  0.467732360725E+00  0.488212090221E+00
  0.490002738306E+00  0.491352316911E+00  0.486075474449E+00  0.490036474201E+00  0.495098267574E+00
  0.999993490674E+00  0.999993692749E+00  0.999993545390E+00  0.989539054191E+00  0.999993139454E+00  0.985524697826E+00  0.989838903636E+00
  0.991798512963E+00  0.999992723571E+00  0.984411113541E+00  0.985091898908E+00  0.984689053167E+00  0.990058458487E+00  0.100289622499E+01
  0.999855383526E+00  0.100485305991E+01  0.100121550635E+01  0.100055642770E+01  0.997896786053E+00  0.100350029293E+01  0.100058068717E+01
  0.101093276057E+01  0.104043291728E+01  0.100326475267E+01  0.100254498451E+01  0.100045586789E+01  0.100976788256E+01  0.100405369250E+01
  0.100192657108E+01  0.100045434448E+01  0.100058773723E+01  0.100109992321E+01  0.100176112578E+01
        15         7        19        19
         8        20        19        19
        18        19        21        21
         7         4         8         8
         3         6         4         4
        19         7         8         8
        19        18        15        15
        14        13        15        15
         8        22        20        20
        27        24        22        22
        19        20        21        21
        32        26        21        21
        17        18        26        26
        17        16        15        15
        25        29        21        21
        12         7        13        13
        10         8         6         6
        25        20        24        24
         4         6         8         8
        12         2         4         4
        10        23        22        22
        26        31        17        17
        30        16        17        17
         4         7        12        12
        13        11        12        12
        21        20        25        25
        24        28        25        25
        22         8        10        10
         6         5        10        10
        31        26        32        32
         4         2         3         3
         5         6         3         3
        11        13        14        14
        22        23        27        27
        28        24        27        27
        15        13         7         7
         2        12         1         1
        29        25        33        33
        23        10         9         9
        21        26        18        18
        16        14        15        15
        18        17        15        15
        29        32        21        21
        22        24        20        20
        28        33        25        25
        11         1        12        12
        31        30        17        17
         5         9        10        10
zone t="boundary 3 bc-3", solutiontime= 0.4000000E+02, strandid=1003, i=33, j=48, f=feblock
  0.375000000000E+01  0.250000000000E+01  0.500000000000E+01  0.403552511878E+01  0.288078410721E+01  0.125000000000E+01  0.190974100652E+01
  0.500000000000E+01  0.326683758169E+01  0.423153924130E+01  0.201431602454E+01  0.000000000000E+00  0.963108083381E+00  0.500000000000E+01
  0.267000324704E+01  0.385533350601E+01  0.893127759452E+00  0.154774304040E+01  0.000000000000E+00  0.500000000000E+01  0.315249557942E+01
  0.218329375016E+01  0.398173246726E+01  0.000000000000E+00  0.698517061619E+00  0.964171764089E+00  0.125000000000E+01  0.000000000000E+00
  0.500000000000E+01  0.310324758057E+01  0.250000000000E+01  0.375000000000E+01  0.000000000000E+00
  0.250000000000E+01  0.250000000000E+01  0.250000000000E+01  0.250000000000E+01  0.250000000000E+01  0.250000000000E+01  0.250000000000E+01
  0.250000000000E+01  0.250000000000E+01  0.250000000000E+01  0.250000000000E+01  0.250000000000E+01  0.250000000000E+01  0.250000000000E+01
  0.250000000000E+01  0.250000000000E+01  0.250000000000E+01  0.250000000000E+01  0.250000000000E+01  0.250000000000E+01  0.250000000000E+01
  0.250000000000E+01  0.250000000000E+01  0.250000000000E+01  0.250000000000E+01  0.250000000000E+01  0.250000000000E+01  0.250000000000E+01
  0.250000000000E+01  0.250000000000E+01  0.250000000000E+01  0.250000000000E+01  0.250000000000E+01
  0.000000000000E+00  0.000000000000E+00  0.000000000000E+00  0.101201586758E+01  0.904659890645E+00  0.000000000000E+00  0.717002441913E+00
  0.125000000000E+01  0.188609243358E+01  0.191586535653E+01  0.176246431481E+01  0.000000000000E+00  0.961328577125E+00  0.250000000000E+01
  0.285047954584E+01  0.293121848150E+01  0.205246550326E+01  0.292817774674E+01  0.125000000000E+01  0.375000000000E+01  0.363585050272E+01
  0.395907379566E+01  0.406975391361E+01  0.250000000000E+01  0.306828197606E+01  0.397245519226E+01  0.500000000000E+01  0.375000000000E+01
  0.500000000000E+01  0.433168271247E+01  0.500000000000E+01  0.500000000000E+01  0.500000000000E+01
  0.941861278435E+00  0.946296412682E+00  0.843730529668E+00  0.964331300727E+00  0.978820819816E+00  0.956975888035E+00  0.983331396418E+00
  0.963500546412E+00  0.982689288708E+00  0.984244007107E+00  0.990263805359E+00  0.134427145119E+01  0.101918251605E+01  0.100829901683E+01
  0.993456152127E+00  0.997998675018E+00  0.100807808269E+01  0.100072116069E+01  0.106355395260E+01  0.100673528644E+01  0.100058356032E+01
  0.100234980413E+01  0.100178078379E+01  0.102389313712E+01  0.100874208194E+01  0.100528370711E+01  0.100522859493E+01  0.100830818649E+01
  0.100196466889E+01  0.100162011127E+01  0.100413203151E+01  0.100321958503E+01  0.100426040724E+01
  0.000000000000E+00  0.000000000000E+00  0.000000000000E+00  0.439071219691E+00  0.399865796544E+00  0.000000000000E+00  0.373794139311E+00
  0.495017409071E+00  0.573056194302E+00  0.569605084777E+00  0.559932666813E+00  0.000000000000E+00  0.483390702850E+00  0.533822151476E+00
  0.556458768821E+00  0.564688347701E+00  0.522615499166E+00  0.522533043553E+00  0.445481420114E+00  0.518326868833E+00  0.524750893832E+00
  0.503888155848E+00  0.509839691029E+00  0.471738849006E+00  0.496245460659E+00  0.494940393106E+00  0.489076365361E+00  0.489830200133E+00
  0.493065117383E+00  0.499146578382E+00  0.486766687244E+00  0.484758134344E+00  0.495784876126E+00
  0.000000000000E+00  0.000000000000E+00  0.000000000000E+00  0.000000000000E+00  0.000000000000E+00  0.000000000000E+00  0.000000000000E+00
  0.000000000000E+00  0.000000000000E+00  0.000000000000E+00  0.000000000000E+00  0.000000000000E+00  0.000000000000E+00  0.000000000000E+00
  0.000000000000E+00  0.000000000000E+00  0.000000000000E+00  0.000000000000E+00  0.000000000000E+00  0.000000000000E+00  0.000000000000E+00
  0.000000000000E+00  0.000000000000E+00  0.000000000000E+00  0.000000000000E+00  0.000000000000E+00  0.000000000000E+00  0.000000000000E+00
  0.000000000000E+00  0.000000000000E+00  0.000000000000E+00  0.000000000000E+00  0.000000000000E+00
  0.000000000000E+00  0.000000000000E+00  0.000000000000E+00 -0.226115391264E-01  0.111963784102E-01  0.000000000000E+00  0.179816812525E-01
 -0.100761166533E+00  0.390410962362E-02 -0.389325100500E-01  0.340377348608E-01  0.000000000000E+00  0.652293809074E-01 -0.424929264246E-01
  0.843880704214E-02 -0.650992517650E-02  0.490054863282E-01  0.135873401759E-01  0.452181797862E-01  0.737187868636E-03 -0.701209389854E-03
  0.243744175447E-02  0.868952816069E-03  0.351822661356E-02  0.103945232185E-01  0.431655182879E-02  0.337507094271E-02  0.459058865077E-03
  0.572581288520E-02  0.341134805014E-03  0.160978873322E-02  0.569844333349E-03  0.237176893732E-02
  0.672750885927E+00  0.675918851641E+00  0.602658413858E+00  0.676093764143E+00  0.691308917183E+00  0.683547252913E+00  0.690066484366E+00
  0.677274957338E+00  0.695201830520E+00  0.696250879951E+00  0.703344069720E+00  0.960184575808E+00  0.719726359171E+00  0.722866634515E+00
  0.709447754549E+00  0.713700947646E+00  0.726067413066E+00  0.716602920122E+00  0.782340561475E+00  0.722284526522E+00  0.716128633730E+00
  0.716551643141E+00  0.716546536879E+00  0.737395237566E+00  0.722682909388E+00  0.719441261349E+00  0.719566087607E+00  0.722781669228E+00
  0.716030233785E+00  0.715847819510E+00  0.718146761313E+00  0.717062457410E+00  0.718615291795E+00
  0.000000000000E+00  0.000000000000E+00  0.000000000000E+00  0.443767766900E+00  0.402286945933E+00  0.000000000000E+00  0.377550361969E+00
  0.509231871681E+00  0.575832177441E+00  0.573707384866E+00  0.562554069147E+00  0.000000000000E+00  0.490563298749E+00  0.534527112640E+00
  0.556586988777E+00  0.564391561240E+00  0.522730520451E+00  0.522052007527E+00  0.441238352967E+00  0.517182276658E+00  0.524228609922E+00
  0.503687438549E+00  0.509488520204E+00  0.469814974296E+00  0.495614448524E+00  0.494483777345E+00  0.488562436042E+00  0.488961666103E+00
  0.492980868946E+00  0.499005516526E+00  0.486460983366E+00  0.484597195022E+00  0.495346580590E+00
  0.999989342234E+00  0.999989410945E+00  0.999989629075E+00  0.981541581287E+00  0.988773904745E+00  0.999989828420E+00  0.982469472276E+00
  0.984104206068E+00  0.990427568421E+00  0.990355262408E+00  0.994363009411E+00  0.999990295817E+00  0.988652068666E+00  0.100368370039E+01
  0.999769193881E+00  0.100118502330E+01  0.100834885288E+01  0.100252110936E+01  0.102982719718E+01  0.100443319187E+01  0.100199536249E+01
  0.100082056809E+01  0.100138190696E+01  0.100826277193E+01  0.100298787099E+01  0.100192389349E+01  0.100215267227E+01  0.100355660152E+01
  0.100047672181E+01  0.100056591919E+01  0.100126819411E+01  0.100066571203E+01  0.100179336083E+01
        15         9        16        16
        15        18        11        11
        22        15        21        21
        11         5         9         9
         5         7         2         2
        11         9        15        15
        16        21        15        15
        16        10        14        14
        18        17        11        11
        17        25        24        24
        22        18        15        15
        22        30        31        31
        30        21        23        23
        16        20        23        23
        22        27        26        26
        10         9         4         4
         7        11        13        13
        25        18        26        26
        11         7         5         5
         5         1         4         4
        17        19        13        13
        23        32        30        30
        23        20        29        29
         4         9         5         5
         4         8        10        10
        26        18        22        22
        26        28        25        25
        13        11        17        17
        13         6         7         7
        31        30        32        32
         2         1         5         5
         2         7         6         6
        14        10         8         8
        24        19        17        17
        24        25        28        28
         9        10        16        16
         3         4         1         1
        33        26        27        27
        12        13        19        19
        21        30        22        22
        16        14        20        20
        16        23        21        21
        22        31        27        27
        18        25        17        17
        26        33        28        28
         4         3         8         8
        23        29        32        32
        13        12         6         6
zone t="boundary 4 bc-4", solutiontime= 0.4000000E+02, strandid=1004, i=32, j=46, f=feblock
  0.125000000000E+01  0.219251206392E+01  0.103724302461E+01  0.500000000000E+01  0.250000000000E+01  0.375000000000E+01  0.404200324774E+01
  0.500000000000E+01  0.000000000000E+00  0.310152362409E+01  0.202479342020E+01  0.324151231464E+01  0.922061490191E+00  0.000000000000E+00
  0.299062775774E+01  0.394624082883E+01  0.500000000000E+01  0.409252726285E+01  0.500000000000E+01  0.429310310915E+01  0.175434191980E+01
  0.284428995242E+01  0.000000000000E+00  0.000000000000E+00  0.715990576545E+00  0.930412228790E+00  0.125000000000E+01  0.187029682677E+01
  0.500000000000E+01  0.375000000000E+01  0.250000000000E+01  0.000000000000E+00
  0.250000000000E+01  0.157686156160E+01  0.146289271009E+01  0.250000000000E+01  0.250000000000E+01  0.250000000000E+01  0.155830813274E+01
  0.125000000000E+01  0.250000000000E+01  0.177790177481E+01  0.477386199275E+00  0.742988685424E+00  0.308372018325E+00  0.125000000000E+01
 -0.487811078581E+00 -0.144524380962E+01 -0.125000000000E+01 -0.345533899378E+00  0.000000000000E+00  0.627766083140E+00 -0.739814786992E+00
 -0.158811787973E+01  0.000000000000E+00 -0.125000000000E+01 -0.600232012419E+00 -0.154800130438E+01 -0.250000000000E+01 -0.178862290564E+01
 -0.250000000000E+01 -0.250000000000E+01 -0.250000000000E+01 -0.250000000000E+01
  0.500000000000E+01  0.500000000000E+01  0.500000000000E+01  0.500000000000E+01  0.500000000000E+01  0.500000000000E+01  0.500000000000E+01
  0.500000000000E+01  0.500000000000E+01  0.500000000000E+01  0.500000000000E+01  0.500000000000E+01  0.500000000000E+01  0.500000000000E+01
  0.500000000000E+01  0.500000000000E+01  0.500000000000E+01  0.500000000000E+01  0.500000000000E+01  0.500000000000E+01  0.500000000000E+01
  0.500000000000E+01  0.500000000000E+01  0.500000000000E+01  0.500000000000E+01  0.500000000000E+01  0.500000000000E+01  0.500000000000E+01
  0.500000000000E+01  0.500000000000E+01  0.500000000000E+01  0.500000000000E+01
  0.100522859493E+01  0.100432970609E+01  0.100432033559E+01  0.100196466889E+01  0.100413203151E+01  0.100321958503E+01  0.100258621563E+01
  0.100201176940E+01  0.100426040724E+01  0.100372311442E+01  0.100446501474E+01  0.100346948552E+01  0.100365984150E+01  0.100424800537E+01
  0.100362337151E+01  0.100164187636E+01  0.100227629276E+01  0.100227307813E+01  0.100213446097E+01  0.100254342931E+01  0.100442384596E+01
  0.100337262209E+01  0.100288844237E+01  0.100334542181E+01  0.100323222661E+01  0.100406087324E+01  0.100510171178E+01  0.100431306248E+01
  0.100179475082E+01  0.100266311890E+01  0.100321164480E+01  0.100399273857E+01
  0.489076365361E+00  0.489238645697E+00  0.490983350837E+00  0.493065117383E+00  0.486766687244E+00  0.484758134344E+00  0.485405274041E+00
  0.494262909352E+00  0.495784876126E+00  0.486800373481E+00  0.488139374641E+00  0.487244732852E+00  0.494423309839E+00  0.496536483308E+00
  0.487845849198E+00  0.483219501426E+00  0.492573615358E+00  0.487262431061E+00  0.494866055959E+00  0.488012747710E+00  0.490096725483E+00
  0.488269664068E+00  0.497534086503E+00  0.496384260390E+00  0.495259765877E+00  0.493216444686E+00  0.490458154983E+00  0.490399993967E+00
  0.491426965695E+00  0.486218274499E+00  0.490304430038E+00  0.495522029748E+00
  0.000000000000E+00 -0.893844108760E-04 -0.129754349714E-02  0.000000000000E+00  0.000000000000E+00  0.000000000000E+00  0.425650462367E-03
  0.796987636951E-03  0.000000000000E+00  0.274721875536E-03 -0.942409159955E-03 -0.819935580635E-03 -0.174524228324E-02 -0.638395925159E-04
 -0.110015120833E-02 -0.102270858347E-02 -0.133249460044E-02 -0.213420496503E-02 -0.132921260058E-02 -0.106395898815E-02 -0.624383271572E-03
 -0.761653757108E-03 -0.196341515841E-03  0.807127114715E-03  0.520228301150E-04  0.161631424650E-02  0.000000000000E+00  0.791664144611E-03
  0.000000000000E+00  0.000000000000E+00  0.000000000000E+00  0.000000000000E+00