title="tecplot geometry and solution file"
variables = x y z mach temperature lambda1 lambda2 lambda3 lambda4 lambda5
zone t="boundary 1 bc-1", solutiontime= 0.1000000E+02, strandid=1001, i=32, j=46, f=feblock
  0.000000000000E+00  0.000000000000E+00  0.000000000000E+00  0.000000000000E+00  0.000000000000E+00  0.000000000000E+00  0.000000000000E+00
  0.000000000000E+00  0.000000000000E+00  0.000000000000E+00  0.000000000000E+00  0.000000000000E+00  0.000000000000E+00  0.000000000000E+00
  0.000000000000E+00  0.000000000000E+00  0.000000000000E+00  0.000000000000E+00  0.000000000000E+00  0.000000000000E+00  0.000000000000E+00
  0.000000000000E+00  0.000000000000E+00  0.000000000000E+00  0.000000000000E+00  0.000000000000E+00  0.000000000000E+00  0.000000000000E+00
  0.000000000000E+00  0.000000000000E+00  0.000000000000E+00  0.000000000000E+00
  0.250000000000E+01  0.250000000000E+01  0.125000000000E+01  0.146289271009E+01  0.157686156160E+01  0.308372018325E+00  0.000000000000E+00
 -0.125000000000E+01 -0.600232012419E+00  0.250000000000E+01  0.477386199275E+00  0.742988685424E+00 -0.739814786992E+00  0.177790177481E+01
  0.155830813274E+01  0.250000000000E+01 -0.250000000000E+01 -0.154800130438E+01 -0.487811078581E+00  0.250000000000E+01  0.627766083140E+00
 -0.345533899378E+00 -0.178862290564E+01 -0.158811787973E+01  0.125000000000E+01 -0.250000000000E+01 -0.144524380962E+01  0.000000000000E+00
 -0.125000000000E+01 -0.250000000000E+01 -0.250000000000E+01 -0.250000000000E+01
  0.000000000000E+00  0.125000000000E+01  0.000000000000E+00  0.103724302461E+01  0.219251206392E+01  0.922061490191E+00  0.000000000000E+00
  0.000000000000E+00  0.715990576545E+00  0.250000000000E+01  0.202479342020E+01  0.324151231464E+01  0.175434191980E+01  0.310152362409E+01
  0.404200324774E+01  0.375000000000E+01  0.000000000000E+00  0.930412228790E+00  0.299062775774E+01  0.500000000000E+01  0.429310310915E+01
  0.409252726285E+01  0.187029682677E+01  0.284428995242E+01  0.500000000000E+01  0.125000000000E+01  0.394624082883E+01  0.500000000000E+01
  0.500000000000E+01  0.250000000000E+01  0.375000000000E+01  0.500000000000E+01
  0.000000000000E+00  0.441238348384E+00  0.000000000000E+00  0.475214987021E+00  0.460123708856E+00  0.468827815405E+00  0.000000000000E+00
  0.000000000000E+00  0.402302516798E+00  0.469814974359E+00  0.464411128942E+00  0.478714034184E+00  0.489298241651E+00  0.483068557888E+00
  0.487930073118E+00  0.488961654628E+00  0.000000000000E+00  0.464775721414E+00  0.473795651891E+00  0.495346592024E+00  0.490266103446E+00
  0.486286083902E+00  0.445717618051E+00  0.464382274634E+00  0.496127394917E+00  0.443624103833E+00  0.486964461957E+00  0.497246279768E+00
  0.496059270892E+00  0.467732355362E+00  0.488212087362E+00  0.495098264817E+00
  0.999990295028E+00  0.102982719499E+01  0.999990757903E+00  0.104247294232E+01  0.101190080524E+01  0.102520618293E+01  0.999991416700E+00
  0.999992168096E+00  0.103891223624E+01  0.100826277309E+01  0.101252833877E+01  0.100300548289E+01  0.102702865700E+01  0.100605563290E+01
  0.100244400478E+01  0.100355660048E+01  0.999992721792E+00  0.103239739214E+01  0.100459524090E+01  0.100179336279E+01  0.100260305842E+01
  0.100234966417E+01  0.101657153079E+01  0.100617544692E+01  0.100168844809E+01  0.104043292670E+01  0.100303376377E+01  0.100118726928E+01
  0.100134171022E+01  0.100976788415E+01  0.100405369352E+01  0.100176112495E+01
  0.872552765699E-03  0.448241838440E-02  0.957647780150E-03  0.694538439081E-02  0.581464633199E-03  0.856818644273E-02  0.633654957862E-03
  0.299128595490E-03  0.865396315575E-02 -0.172876796190E-03  0.763202795680E-03 -0.123214436444E-02  0.117868547508E-02 -0.750248895268E-03
 -0.180299538443E-02 -0.170219702880E-02  0.809216849378E-03  0.851074549072E-02 -0.860033165475E-03 -0.503156742786E-02 -0.227864497229E-02
 -0.169074061730E-02  0.121532731055E-02 -0.954705467126E-03 -0.531540890307E-02  0.704793912054E-02 -0.146913394625E-02 -0.588906919674E-02
 -0.536373570293E-02 -0.646833300118E-03 -0.158910499964E-02 -0.511118654258E-02
  0.392399864117E-04  0.643109692026E-03  0.502671555694E-04  0.875334081534E-03  0.377341096782E-04  0.130057060553E-02  0.489987183152E-04
  0.944772950662E-04  0.129162811970E-02 -0.101328946571E-03  0.756663126863E-04 -0.262261702858E-03  0.874635718665E-04 -0.205695055988E-03
 -0.358595853919E-03 -0.370672514402E-03  0.919290681472E-04  0.136465996424E-02 -0.176938009719E-03 -0.102591723545E-02 -0.456718574941E-03
 -0.332647551110E-03  0.101082612265E-03 -0.180190036459E-03 -0.110914859820E-02  0.927866353890E-03 -0.292387988725E-03 -0.123435921391E-02
 -0.111685855443E-02 -0.156473293508E-03 -0.330742354664E-03 -0.105631629524E-02
  0.608524608387E-04  0.185709724950E-04  0.907843237886E-04  0.198150396243E-03  0.349705264954E-04  0.936903341471E-04  0.603170139682E-04
 -0.780102137775E-04 -0.463777101882E-05 -0.138178230954E-05  0.427553394115E-04  0.379335536197E-04 -0.357015021020E-06  0.160708802909E-04
 -0.526400215894E-06 -0.989135114206E-06 -0.659886238398E-04 -0.154990135560E-03  0.221398388568E-04 -0.383364588176E-06  0.727267771787E-05
  0.976990891453E-05  0.188884136307E-04 -0.814788081783E-05  0.163889614834E-04 -0.243243464315E-04 -0.218100861900E-05  0.408663694498E-05
 -0.530957930897E-05 -0.472453626178E-05 -0.210760637108E-05  0.898755263890E-06
 -0.213057629718E-03 -0.188876287888E-03 -0.226657805216E-03  0.918691670844E-05  0.223085787916E-03  0.241907393219E-03 -0.122770184027E-03
 -0.141934920050E-03  0.995883240135E-04  0.239557270599E-03  0.439489528604E-03  0.263869019415E-03  0.498546116331E-03  0.236566267845E-03
  0.168707237285E-03  0.196884747546E-03 -0.148299508213E-03  0.564011708093E-04  0.308962047609E-03  0.698468338605E-04  0.160259627434E-03
  0.200590626419E-03  0.397354038721E-03  0.267321383745E-03  0.669635510232E-04  0.188368678529E-03  0.190362737580E-03  0.642736541736E-04
  0.761804312552E-04  0.313786489415E-03  0.199778192314E-03  0.737136297011E-04
 -0.708371316868E-03 -0.185044508536E-02 -0.926261959257E-03 -0.278208327798E-02 -0.246820122556E-03 -0.357779901216E-02  0.996627163706E-04
  0.142121695330E-03 -0.359813782653E-02  0.639405749729E-04 -0.335247900063E-03  0.485175122652E-03 -0.499327219876E-03  0.297556581173E-03
  0.727330384147E-03  0.690143192140E-03 -0.318121855231E-03 -0.354764116952E-02  0.320250883681E-03  0.208492269255E-02  0.926937375608E-03
  0.679421842534E-03 -0.516964517321E-03  0.350610453373E-03  0.220871520213E-02 -0.285539075282E-02  0.586373036585E-03  0.245448448417E-02
  0.222992502999E-02  0.235388377491E-03  0.641315562151E-03  0.211930612140E-02
        12        19        11        11
        11         5        12        12
        10        14         5         5
        19        13        11        11
        19        24        13        13
        30        23        24        24
        19        12        22        22
        28        22        21        21
        11        13         6         6
         7         6         9         9
        15        12        14        14
        18        13        23        23
        15        25        21        21
        27        19        22        22
        18         8         9         9
        27        31        24        24
         4        11         6         6
         5        14        12        12
         4         2         5         5
        21        12        15        15
        14        16        15        15
        24        19        27        27
        22        29        27        27
        23        26        18        18
        17         8        18        18
         5        11         4         4
         6         3         4         4
        26        23        30        30
         5         2        10        10
        16        14        10        10
         3         6         7         7
        21        25        28        28
        29        22        28        28
         6        13         9         9
         2         4         1         1
        31        27        32        32
        25        15        20        20
        24        23        13        13
         8         7         9         9
        13        18         9         9
        31        30        24        24
        12        21        22        22
        29        32        27        27
         3         1         4         4
        26        17        18        18
        16        20        15        15
zone t="boundary 2 bc-2", solutiontime= 0.1000000E+02, strandid=1002, i=33, j=48, f=feblock
  0.500000000000E+01  0.375000000000E+01  0.250000000000E+01  0.288078410721E+01  0.125000000000E+01  0.190974100652E+01  0.326683758169E+01
  0.201431602454E+01  0.000000000000E+00  0.963108083381E+00  0.500000000000E+01  0.403552511878E+01  0.423153924130E+01  0.500000000000E+01
  0.385533350601E+01  0.500000000000E+01  0.398173246726E+01  0.315249557942E+01  0.267000324704E+01  0.154774304040E+01  0.218329375016E+01
  0.893127759452E+00  0.000000000000E+00  0.698517061619E+00  0.964171764089E+00  0.310324758057E+01  0.000000000000E+00  0.000000000000E+00
  0.125000000000E+01  0.500000000000E+01  0.375000000000E+01  0.250000000000E+01  0.000000000000E+00
 -0.250000000000E+01 -0.250000000000E+01 -0.250000000000E+01 -0.250000000000E+01 -0.250000000000E+01 -0.250000000000E+01 -0.250000000000E+01
 -0.250000000000E+01 -0.250000000000E+01 -0.250000000000E+01 -0.250000000000E+01 -0.250000000000E+01 -0.250000000000E+01 -0.250000000000E+01
 -0.250000000000E+01 -0.250000000000E+01 -0.250000000000E+01 -0.250000000000E+01 -0.250000000000E+01 -0.250000000000E+01 -0.250000000000E+01
 -0.250000000000E+01 -0.250000000000E+01 -0.250000000000E+01 -0.250000000000E+01 -0.250000000000E+01 -0.250000000000E+01 -0.250000000000E+01
 -0.250000000000E+01 -0.250000000000E+01 -0.250000000000E+01 -0.250000000000E+01 -0.250000000000E+01
  0.000000000000E+00  0.000000000000E+00  0.000000000000E+00  0.904659890645E+00  0.000000000000E+00  0.717002441913E+00  0.188609243358E+01
  0.176246431481E+01  0.000000000000E+00  0.961328577125E+00  0.125000000000E+01  0.101201586758E+01  0.191586535653E+01  0.250000000000E+01
  0.293121848150E+01  0.375000000000E+01  0.406975391361E+01  0.363585050272E+01  0.285047954584E+01  0.292817774674E+01  0.395907379566E+01
  0.205246550326E+01  0.125000000000E+01  0.306828197606E+01  0.397245519226E+01  0.433168271247E+01  0.250000000000E+01  0.375000000000E+01
  0.500000000000E+01  0.500000000000E+01  0.500000000000E+01  0.500000000000E+01  0.500000000000E+01
  0.000000000000E+00  0.000000000000E+00  0.000000000000E+00  0.380991906500E+00  0.000000000000E+00  0.343629824950E+00  0.585286157424E+00
  0.579373264282E+00  0.000000000000E+00  0.501056069140E+00  0.508460362676E+00  0.435373026572E+00  0.572640041190E+00  0.537002098944E+00
  0.568922553870E+00  0.514994090651E+00  0.508247257160E+00  0.527252853130E+00  0.567446661127E+00  0.531657143909E+00  0.505981016593E+00
  0.520795579399E+00  0.443624103833E+00  0.490663730453E+00  0.492155873749E+00  0.501390784676E+00  0.467732355362E+00  0.488212087362E+00
  0.490002767114E+00  0.491352304715E+00  0.486075475228E+00  0.490036479234E+00  0.495098264817E+00
  0.999993487379E+00  0.999993690057E+00  0.999993543115E+00  0.989539055875E+00  0.999993137282E+00  0.985524707174E+00  0.989838908967E+00
  0.991798516580E+00  0.999992721792E+00  0.984411112416E+00  0.985091906406E+00  0.984689080896E+00  0.990058464829E+00  0.100289621837E+01
  0.999855369243E+00  0.100485306649E+01  0.100121554699E+01  0.100055642931E+01  0.997896793475E+00  0.100350029570E+01  0.100058068723E+01
  0.101093276247E+01  0.104043292670E+01  0.100326475367E+01  0.100254498742E+01  0.100045587387E+01  0.100976788415E+01  0.100405369352E+01
  0.100192656835E+01  0.100045434508E+01  0.100058774183E+01  0.100109993754E+01  0.100176112495E+01
 -0.502382334910E-03 -0.415002657263E-03 -0.244518119537E-03  0.716410654468E-02  0.748426081109E-03  0.220936339230E-01 -0.104721300845E-02
  0.753291218968E-03  0.809216849378E-03  0.100152008360E-01 -0.125763281882E-02 -0.159746925389E-02 -0.960099629971E-03 -0.807927271742E-03
 -0.567194821694E-03 -0.524239439590E-03 -0.392190695534E-03 -0.420308852124E-03 -0.818735165590E-03 -0.115721424376E-02 -0.630538136354E-03
  0.627533345189E-03  0.704793912054E-02 -0.780392645758E-03 -0.119109968091E-02 -0.712397783856E-03 -0.646833300118E-03 -0.158910499964E-02
 -0.482855727815E-02 -0.614840009556E-03 -0.231095625724E-02 -0.436227941302E-02 -0.511118654258E-02
  0.146107836579E-03 -0.300397919947E-04  0.456926380294E-05  0.128210716307E-02 -0.103673140746E-03  0.275850691740E-02 -0.399449314454E-04
 -0.605304020801E-04  0.919290681472E-04  0.118862410852E-02  0.283782936827E-03  0.583171380614E-04  0.145327761167E-03  0.206086320414E-03
  0.129392000923E-03  0.122334367404E-03  0.137994254372E-03  0.110202847220E-03  0.136340998113E-04 -0.141128330003E-03  0.234697039526E-04
 -0.612864559046E-04  0.927866353890E-03 -0.732390048824E-04 -0.153563587376E-03  0.508682745334E-04 -0.156473293508E-03 -0.330742354664E-03
 -0.866327235086E-03  0.286101600820E-04 -0.236942626293E-03 -0.683764158323E-03 -0.105631629524E-02
 -0.383949418571E-04  0.109539332170E-04  0.624216200246E-04  0.190803278645E-03  0.321715361309E-04  0.274426569435E-03 -0.172243819052E-04
  0.979278710966E-05 -0.659886238398E-04  0.100882288629E-03 -0.128355458054E-04 -0.506918329306E-04  0.104528623097E-05  0.136612014296E-05
  0.174089475427E-05 -0.276780344626E-05  0.216687919546E-07 -0.146396998625E-05  0.514427440825E-05  0.944137464453E-05 -0.372975912241E-05
  0.694171427314E-05 -0.243243464315E-04  0.296481809239E-05 -0.787914878374E-06 -0.155137633250E-05 -0.472453626178E-05 -0.210760637108E-05
 -0.779846841037E-06 -0.643827822209E-06 -0.301965181241E-06  0.202140787982E-07  0.898755263890E-06
 -0.312924502772E-04 -0.495644126778E-04 -0.883614567844E-04  0.273602401785E-03 -0.196363761793E-03  0.601805246256E-04  0.366432758029E-03
  0.490295829139E-03 -0.148299508213E-03  0.225037067104E-03  0.591163722526E-04  0.248840013440E-03  0.135638993299E-03  0.539830032546E-04
  0.128662452473E-03  0.426721753257E-04  0.114239375679E-03  0.164891473735E-03  0.203920528109E-03  0.190700923693E-03  0.175565697202E-03
  0.347281929169E-03  0.188368678529E-03  0.201280306697E-03  0.165639252054E-03  0.155269846066E-03  0.313786489415E-03  0.199778192314E-03
  0.113850765875E-03  0.649126897328E-04  0.138615421103E-03  0.149250647156E-03  0.737136297011E-04
  0.114872216019E-03  0.482243638705E-03  0.108990072187E-02 -0.322442788255E-02  0.961799767004E-03 -0.941947146714E-02  0.335194481798E-03
 -0.288073502053E-03 -0.318121855231E-03 -0.410418944109E-02  0.273830535694E-03  0.484116619102E-03  0.235066026856E-03  0.155503941356E-03
  0.110255034442E-03  0.106382599278E-03  0.585135729380E-04  0.763924858321E-04  0.242289325386E-03  0.420949535192E-03  0.183591201015E-03
 -0.246144390859E-03 -0.285539075282E-02  0.268747181834E-03  0.445084451080E-03  0.202653699156E-03  0.235388377491E-03  0.641315562151E-03
  0.196013529850E-02  0.186920114237E-03  0.868913729080E-03  0.173538500674E-02  0.211930612140E-02
        15         7        19        19
         8        20        19        19
        18        19        21        21
         7         4         8         8
         3         6         4         4
        19         7         8         8
        19        18        15        15
        14        13        15        15
         8        22        20        20
        27        24        22        22
        19        20        21        21
        32        26        21        21
        17        18        26        26
        17        16        15        15
        25        29        21        21
        12         7        13        13
        10         8         6         6
        25        20        24        24
         4         6         8         8
        12         2         4         4
        10        23        22        22
        26        31        17        17
        30        16        17        17
         4         7        12        12
        13        11        12        12
        21        20        25        25
        24        28        25        25
        22         8        10        10
         6         5        10        10
        31        26        32        32
         4         2         3         3
         5         6         3         3
        11        13        14        14
        22        23        27        27
        28        24        27        27
        15        13         7         7
         2        12         1         1
        29        25        33        33
        23        10         9         9
        21        26        18        18
        16        14        15        15
        18        17        15        15
        29        32        21        21
        22        24        20        20
        28        33        25        25
        11         1        12        12
        31        30        17        17
         5         9        10        10
zone t="boundary 3 bc-3", solutiontime= 0.1000000E+02, strandid=1003, i=33, j=48, f=feblock
  0.375000000000E+01  0.250000000000E+01  0.500000000000E+01  0.403552511878E+01  0.288078410721E+01  0.125000000000E+01  0.190974100652E+01
  0.500000000000E+01  0.326683758169E+01  0.423153924130E+01  0.201431602454E+01  0.000000000000E+00  0.963108083381E+00  0.500000000000E+01
  0.267000324704E+01  0.385533350601E+01  0.893127759452E+00  0.154774304040E+01  0.000000000000E+00  0.500000000000E+01  0.315249557942E+01
  0.218329375016E+01  0.398173246726E+01  0.000000000000E+00  0.698517061619E+00  0.964171764089E+00  0.125000000000E+01  0.000000000000E+00
  0.500000000000E+01  0.310324758057E+01  0.250000000000E+01  0.375000000000E+01  0.000000000000E+00
  0.250000000000E+01  0.250000000000E+01  0.250000000000E+01  0.250000000000E+01  0.250000000000E+01  0.250000000000E+01  0.250000000000E+01
  0.250000000000E+01  0.250000000000E+01  0.250000000000E+01  0.250000000000E+01  0.250000000000E+01  0.250000000000E+01  0.250000000000E+01
  0.250000000000E+01  0.250000000000E+01  0.250000000000E+01  0.250000000000E+01  0.250000000000E+01  0.250000000000E+01  0.250000000000E+01
  0.250000000000E+01  0.250000000000E+01  0.250000000000E+01  0.250000000000E+01  0.250000000000E+01  0.250000000000E+01  0.250000000000E+01
  0.250000000000E+01  0.250000000000E+01  0.250000000000E+01  0.250000000000E+01  0.250000000000E+01
  0.000000000000E+00  0.000000000000E+00  0.000000000000E+00  0.101201586758E+01  0.904659890645E+00  0.000000000000E+00  0.717002441913E+00
  0.125000000000E+01  0.188609243358E+01  0.191586535653E+01  0.176246431481E+01  0.000000000000E+00  0.961328577125E+00  0.250000000000E+01
  0.285047954584E+01  0.293121848150E+01  0.205246550326E+01  0.292817774674E+01  0.125000000000E+01  0.375000000000E+01  0.363585050272E+01
  0.395907379566E+01  0.406975391361E+01  0.250000000000E+01  0.306828197606E+01  0.397245519226E+01  0.500000000000E+01  0.375000000000E+01
  0.500000000000E+01  0.433168271247E+01  0.500000000000E+01  0.500000000000E+01  0.500000000000E+01
  0.000000000000E+00  0.000000000000E+00  0.000000000000E+00  0.443767745459E+00  0.402286944574E+00  0.000000000000E+00  0.377550369545E+00
  0.509232128688E+00  0.575832179754E+00  0.573707405285E+00  0.562554064412E+00  0.000000000000E+00  0.490563299840E+00  0.534527096543E+00
  0.556586982170E+00  0.564391577749E+00  0.522730517385E+00  0.522052000170E+00  0.441238348384E+00  0.517182331791E+00  0.524228630763E+00
  0.503687457534E+00  0.509488571178E+00  0.469814974359E+00  0.495614442414E+00  0.494483780212E+00  0.488562428343E+00  0.488961654628E+00
  0.492980744788E+00  0.499005552222E+00  0.486460936507E+00  0.484596927548E+00  0.495346592024E+00
  0.999989339439E+00  0.999989408764E+00  0.999989626853E+00  0.981541895460E+00  0.988773990194E+00  0.999989827144E+00  0.982469462434E+00
  0.984104309047E+00  0.990427545862E+00  0.990355285694E+00  0.994362997073E+00  0.999990295028E+00  0.988652071037E+00  0.100368369414E+01
  0.999769197113E+00  0.100118501219E+01  0.100834885320E+01  0.100252111043E+01  0.102982719499E+01  0.100443319461E+01  0.100199536635E+01
  0.100082056599E+01  0.100138192342E+01  0.100826277309E+01  0.100298787130E+01  0.100192389555E+01  0.100215267510E+01  0.100355660048E+01
  0.100047670023E+01  0.100056591053E+01  0.100126820231E+01  0.100066573360E+01  0.100179336279E+01
 -0.330686365527E-03  0.208232362377E-03 -0.405405453998E-03  0.194776130087E-02  0.967554807676E-02  0.578025651605E-03  0.938103688945E-02
 -0.142891566011E-02 -0.843725636977E-03 -0.940739923484E-03  0.154037707168E-02  0.872552765699E-03  0.630755679549E-02 -0.735822311302E-03
 -0.825000654495E-03 -0.616351876787E-03  0.243987568876E-03 -0.828666682194E-03  0.448241838440E-02 -0.518080310193E-03 -0.334428418051E-03
 -0.546094655190E-03 -0.393994780416E-03 -0.172876796190E-03 -0.745001442216E-03 -0.139253898414E-02 -0.420102773101E-02 -0.170219702880E-02
 -0.491499526623E-03 -0.642594836142E-03 -0.397011717972E-02 -0.220563698015E-02 -0.503156742786E-02
 -0.525417972861E-04 -0.690026188002E-04  0.109516581096E-03  0.676825675286E-03  0.140116902455E-02 -0.111879543514E-03  0.112156966353E-02
  0.244357506574E-03  0.236102331239E-04  0.150833893140E-03  0.248046492061E-04  0.392399864117E-04  0.489667583489E-03  0.192459508645E-03
  0.601044657788E-05  0.115643347671E-03 -0.140212472319E-03 -0.825098283126E-04  0.643109692026E-03  0.125131746722E-03  0.120211626141E-03
  0.459127866434E-04  0.130026896316E-03 -0.101328946571E-03 -0.160724753351E-03 -0.185304239189E-03 -0.737053730369E-03 -0.370672514402E-03
  0.466653601045E-04  0.597814874522E-04 -0.607275399544E-03 -0.220861990806E-03 -0.102591723545E-02
 -0.115742531359E-04  0.766723248152E-05  0.721189873920E-05 -0.562680684447E-04 -0.178302725950E-03  0.493291195724E-04 -0.603276882399E-05
 -0.191820004108E-05 -0.151603172598E-04  0.123318283687E-05 -0.129766750395E-04  0.608524608387E-04  0.604112327242E-04  0.479853703644E-05
  0.516152636614E-06  0.146714530768E-05 -0.263979255577E-04 -0.965405445332E-05  0.185709724950E-04  0.262216949216E-05  0.123950838484E-05
  0.679841614069E-05  0.421842515548E-06 -0.138178230954E-05 -0.637536304337E-05  0.200818584554E-05  0.258270305595E-05 -0.989135114206E-06
  0.910794333016E-06  0.230420646730E-06  0.718704293362E-06  0.497322547459E-07 -0.383364588176E-06
 -0.781814707224E-04 -0.148640434066E-03 -0.285466636634E-04  0.786277005082E-04  0.164478133642E-03 -0.125785014621E-03  0.356841921285E-04
  0.408537751147E-04  0.295588450578E-03  0.126146612783E-03  0.438981495660E-03 -0.213057629718E-03  0.123866317750E-03  0.534783917660E-04
  0.154885088399E-03  0.125324655155E-03  0.344583701255E-03  0.164111132229E-03 -0.188876287888E-03  0.515735113973E-04  0.154093485629E-03
  0.153569820590E-03  0.115893510476E-03  0.239557270599E-03  0.228085385767E-03  0.152562398956E-03  0.117266203733E-03  0.196884747546E-03
  0.581809943117E-04  0.148413140687E-03  0.146564036072E-03  0.133472482866E-03  0.698468338605E-04
  0.114915002863E-02  0.595916287929E-03  0.191183367803E-03 -0.107236116894E-02 -0.422990710392E-02  0.541056928448E-04 -0.393019338317E-02
  0.357538406702E-03  0.252538821506E-03  0.232235408579E-03 -0.601570830348E-03 -0.708371316868E-03 -0.249149906362E-02  0.138794090412E-03
  0.253444653249E-03  0.134759962408E-03 -0.883274959836E-04  0.286146083404E-03 -0.185044508536E-02  0.102664371621E-03  0.432203461210E-04
  0.147662301271E-03  0.631973879456E-04  0.639405749729E-04  0.272524381611E-03  0.527117234239E-03  0.169561264516E-02  0.690143192140E-03
  0.138410799191E-03  0.176807791325E-03  0.157252903888E-02  0.827147312812E-03  0.208492269255E-02
        15         9        16        16
        15        18        11        11
        22        15        21        21
        11         5         9         9
         5         7         2         2
        11         9        15        15
        16        21        15        15
        16        10        14        14
        18        17        11        11
        17        25        24        24
        22        18        15        15
        22        30        31        31
        30        21        23        23
        16        20        23        23
        22        27        26        26
        10         9         4         4
         7        11        13        13
        25        18        26        26
        11         7         5         5
         5         1         4         4
        17        19        13        13
        23        32        30        30
        23        20        29        29
         4         9         5         5
         4         8        10        10
        26        18        22        22
        26        28        25        25
        13        11        17        17
        13         6         7         7
        31        30        32        32
         2         1         5         5
         2         7         6         6
        14        10         8         8
        24        19        17        17
        24        25        28        28
         9        10        16        16
         3         4         1         1
        33        26        27        27
        12        13        19        19
        21        30        22        22
        16        14        20        20
        16        23        21        21
        22        31        27        27
        18        25        17        17
        26        33        28        28
         4         3         8         8
        23        29        32        32
        13        12         6         6
zone t="boundary 4 bc-4", solutiontime= 0.1000000E+02, strandid=1004, i=32, j=46, f=feblock
  0.125000000000E+01  0.219251206392E+01  0.103724302461E+01  0.500000000000E+01  0.250000000000E+01  0.375000000000E+01  0.404200324774E+01
  0.500000000000E+01  0.000000000000E+00  0.310152362409E+01  0.202479342020E+01  0.324151231464E+01  0.922061490191E+00  0.000000000000E+00
  0.299062775774E+01  0.394624082883E+01  0.500000000000E+01  0.409252726285E+01  0.500000000000E+01  0.429310310915E+01  0.175434191980E+01
  0.284428995242E+01  0.000000000000E+00  0.000000000000E+00  0.715990576545E+00  0.930412228790E+00  0.125000000000E+01  0.187029682677E+01
  0.500000000000E+01  0.375000000000E+01  0.250000000000E+01  0.000000000000E+00
  0.250000000000E+01  0.157686156160E+01  0.146289271009E+01  0.250000000000E+01  0.250000000000E+01  0.250000000000E+01  0.155830813274E+01
  0.125000000000E+01  0.250000000000E+01  0.177790177481E+01  0.477386199275E+00  0.742988685424E+00  0.308372018325E+00  0.125000000000E+01
 -0.487811078581E+00 -0.144524380962E+01 -0.125000000000E+01 -0.345533899378E+00  0.000000000000E+00  0.627766083140E+00 -0.739814786992E+00
 -0.158811787973E+01  0.000000000000E+00 -0.125000000000E+01 -0.600232012419E+00 -0.154800130438E+01 -0.250000000000E+01 -0.178862290564E+01
 -0.250000000000E+01 -0.250000000000E+01 -0.250000000000E+01 -0.250000000000E+01
  0.500000000000E+01  0.500000000000E+01  0.500000000000E+01  0.500000000000E+01  0.500000000000E+01  0.500000000000E+01  0.500000000000E+01
  0.500000000000E+01  0.500000000000E+01  0.500000000000E+01  0.500000000000E+01  0.500000000000E+01  0.500000000000E+01  0.500000000000E+01
  0.500000000000E+01  0.500000000000E+01  0.500000000000E+01  0.500000000000E+01  0.500000000000E+01  0.500000000000E+01  0.500000000000E+01
  0.500000000000E+01  0.500000000000E+01  0.500000000000E+01  0.500000000000E+01  0.500000000000E+01  0.500000000000E+01  0.500000000000E+01
  0.500000000000E+01  0.500000000000E+01  0.500000000000E+01  0.500000000000E+01
  0.488562428343E+00  0.488873127044E+00  0.490562939264E+00  0.492980744788E+00  0.486460936507E+00  0.484596927548E+00  0.485347896276E+00
  0.494163542317E+00  0.495346592024E+00  0.486528232758E+00  0.487819998460E+00  0.487068916091E+00  0.494045904395E+00  0.496127394917E+00
  0.487612357629E+00  0.483219722850E+00  0.492395510969E+00  0.487214141159E+00  0.494738985333E+00  0.487958525499E+00  0.489677249447E+00
  0.488029107105E+00  0.497246279768E+00  0.496059270892E+00  0.494951052257E+00  0.492800373677E+00  0.490002767114E+00  0.490005124553E+00
  0.491352304715E+00  0.486075475228E+00  0.490036479234E+00  0.495098264817E+00
  0.100215267510E+01  0.100152652958E+01  0.100178347660E+01  0.100047670023E+01  0.100126820231E+01  0.100066573360E+01  0.100025357725E+01
  0.100050391679E+01  0.100179336279E+01  0.100112367258E+01  0.100133045248E+01  0.100072432973E+01  0.100164366725E+01  0.100168844809E+01
  0.100096274503E+01  0.100000874853E+01  0.100082864314E+01  0.100022269190E+01  0.100062146074E+01  0.100023497311E+01  0.100174635719E+01
  0.100098855496E+01  0.100118726928E+01  0.100134171022E+01  0.100132635956E+01  0.100179873777E+01  0.100192656835E+01  0.100163748619E+01
  0.100045434508E+01  0.100058774183E+01  0.100109993754E+01  0.100176112495E+01
 -0.420102773101E-02 -0.407984697477E-02 -0.400749231855E-02 -0.491499526623E-03 -0.397011717972E-02 -0.220563698015E-02 -0.152405504450E-02
 -0.488935345765E-03 -0.503156742786E-02 -0.329259554759E-02 -0.441771513177E-02 -0.316734791470E-02 -0.481199168399E-02 -0.531540890307E-02
 -0.357034930804E-02 -0.150011982887E-02 -0.587394849690E-03 -0.191400537633E-02 -0.467916227172E-03 -0.188247584057E-02 -0.543875055969E-02
 -0.334651977790E-02 -0.588906919674E-02 -0.536373570293E-02 -0.559688771684E-02 -0.465784153397E-02 -0.482855727815E-02 -0.513084603754E-02
 -0.614840009556E-03 -0.231095625724E-02 -0.436227941302E-02 -0.511118654258E-02