title="tecplot geometry and solution file"
variables = x y z mach temperature lambda1 lambda2 lambda3 lambda4 lambda5
zone t="boundary 1 bc-1", solutiontime= 0.1000000E+02, strandid=1001, i=32, j=46, f=feblock
 -0.547468544169E-02  0.000000000000E+00 -0.567606031243E-02  0.000000000000E+00  0.000000000000E+00  0.000000000000E+00 -0.525159244851E-02
 -0.425776897977E-02  0.000000000000E+00  0.000000000000E+00  0.000000000000E+00  0.000000000000E+00  0.000000000000E+00  0.000000000000E+00
  0.000000000000E+00  0.000000000000E+00 -0.338395986572E-02  0.000000000000E+00  0.000000000000E+00  0.000000000000E+00  0.000000000000E+00
  0.000000000000E+00  0.000000000000E+00  0.000000000000E+00  0.000000000000E+00  0.000000000000E+00  0.000000000000E+00  0.000000000000E+00
  0.000000000000E+00  0.000000000000E+00  0.000000000000E+00  0.000000000000E+00
  0.250494197117E+01  0.250494197117E+01  0.127822156907E+01  0.146289271009E+01  0.157686156160E+01  0.308372018325E+00  0.261948602442E-01
 -0.122573481164E+01 -0.600232012419E+00  0.250494197117E+01  0.477386199275E+00  0.742988685424E+00 -0.739814786992E+00  0.177790177481E+01
  0.155830813274E+01  0.250494197117E+01 -0.249658903664E+01 -0.154800130438E+01 -0.487811078581E+00  0.250494197117E+01  0.627766083140E+00
 -0.345533899378E+00 -0.178862290564E+01 -0.158811787973E+01  0.125000000000E+01 -0.249658903664E+01 -0.144524380962E+01  0.000000000000E+00
 -0.125000000000E+01 -0.249658903664E+01 -0.249658903664E+01 -0.249658903664E+01
  0.803813859866E-04  0.125000000000E+01  0.822460170216E-04  0.103724302461E+01  0.219251206392E+01  0.922061490191E+00  0.103872438719E-03
  0.341545874231E-04  0.715990576545E+00  0.250000000000E+01  0.202479342020E+01  0.324151231464E+01  0.175434191980E+01  0.310152362409E+01
  0.404200324774E+01  0.375000000000E+01  0.810725962649E-04  0.930412228790E+00  0.299062775774E+01  0.500000000000E+01  0.429310310915E+01
  0.409252726285E+01  0.187029682677E+01  0.284428995242E+01  0.500000000000E+01  0.125000000000E+01  0.394624082883E+01  0.500000000000E+01
  0.500000000000E+01  0.250000000000E+01  0.375000000000E+01  0.500000000000E+01
  0.000000000000E+00  0.440672136512E+00  0.000000000000E+00  0.474618025820E+00  0.460125068601E+00  0.468639320143E+00  0.000000000000E+00
  0.000000000000E+00  0.402534623939E+00  0.469886789982E+00  0.464193107367E+00  0.478749739491E+00  0.489555756507E+00  0.483130037990E+00
  0.488002902366E+00  0.489035017215E+00  0.000000000000E+00  0.465237698331E+00  0.473759127176E+00  0.495364848064E+00  0.490293257191E+00
  0.486276632093E+00  0.445850265191E+00  0.464356446519E+00  0.496127940578E+00  0.443891909404E+00  0.486928147025E+00  0.497248366859E+00
  0.496055083747E+00  0.467740399690E+00  0.488187228171E+00  0.495089980244E+00
  0.999990300362E+00  0.102982970104E+01  0.999990762612E+00  0.104241436388E+01  0.101187663318E+01  0.102516400612E+01  0.999991420552E+00
  0.999992171067E+00  0.103882325429E+01  0.100825795511E+01  0.101253536096E+01  0.100301645575E+01  0.102705594255E+01  0.100604114309E+01
  0.100244532432E+01  0.100354817652E+01  0.999992724186E+00  0.103209991946E+01  0.100459425771E+01  0.100178625606E+01  0.100260326526E+01
  0.100234745937E+01  0.101657167924E+01  0.100620610961E+01  0.100168369530E+01  0.104025009063E+01  0.100303477791E+01  0.100118721261E+01
  0.100134451878E+01  0.100976460100E+01  0.100405634212E+01  0.100176433139E+01
  0.361317725263E-02  0.257031128547E-01 -0.557954097479E-03 -0.316191777229E-02  0.611594191783E-01 -0.165422885473E-01 -0.121312831872E-01
 -0.526679129401E-02 -0.245899005347E-01  0.510491929815E-01  0.885985130362E-01 -0.563624095922E-02  0.104511302276E+00 -0.139815977243E-01
 -0.546647063608E-01 -0.573194893519E-01 -0.641084044768E-02 -0.254073178057E-01  0.107463658112E-01  0.213897110557E-01 -0.481503211027E-01
 -0.539203927046E-01  0.675643845739E-01  0.101466926218E-01  0.141749591444E-01 -0.245614850840E-01 -0.605442765567E-01  0.146570179346E-01
  0.402508533398E-02  0.364244270857E-01 -0.553250255975E-01  0.746261035218E-02
  0.783367715640E-03  0.285313714255E-02  0.145253710685E-02 -0.306336959701E-02  0.935876613133E-02 -0.483414153652E-02  0.908442714472E-04
  0.616412455521E-03 -0.451764175303E-02  0.853875272005E-02  0.134431878318E-01 -0.171111215775E-02  0.173622621179E-01 -0.300362997869E-02
 -0.922818886839E-02 -0.977419727220E-02  0.487696479490E-03 -0.535718385561E-02  0.133028921679E-02  0.756230967740E-02 -0.820026058198E-02
 -0.100204207378E-01  0.109830322984E-01  0.114826591443E-02  0.506517189446E-02 -0.577064292396E-02 -0.107681449508E-01  0.466900799059E-02
  0.390653917577E-02  0.558574027636E-02 -0.103728343700E-01  0.533056208666E-02
  0.225956789728E-03 -0.835441232588E-04  0.160341825720E-02  0.157463776663E-02  0.625824574626E-03  0.300247215595E-02  0.278335193234E-03
 -0.599858228215E-03 -0.105860395856E-02  0.266764621056E-04  0.729218054313E-03  0.285062435164E-03 -0.140049914237E-02  0.109678764090E-02
  0.447536261622E-03  0.116609733373E-04  0.396255113967E-03 -0.168268191870E-02 -0.714781123612E-03  0.202732866799E-04 -0.944940224340E-04
 -0.293541131105E-03 -0.123241886777E-02 -0.164780758655E-03 -0.763550376611E-03 -0.125484663395E-03 -0.222901026238E-03  0.392616632923E-06
  0.403796405628E-03 -0.529421792403E-04 -0.152781195681E-03 -0.830259588420E-05
  0.125356588781E-03 -0.143241676265E-03  0.839997655297E-03  0.248802259297E-02  0.231025023407E-02 -0.149172130454E-02  0.186134661830E-02
  0.955737872825E-03 -0.396385469552E-02  0.861332749854E-03  0.158705881088E-02  0.418729390922E-02  0.189882636091E-02  0.304705306268E-02
  0.206468964012E-02  0.231042902404E-02  0.121282838560E-02 -0.227197922714E-02  0.273872171410E-02  0.132242273939E-02  0.147042665000E-02
  0.171105697533E-02  0.162889720148E-02  0.417394175585E-02  0.669652466698E-03  0.170678243282E-02  0.218435207148E-02  0.812578554025E-03
  0.878575325213E-03  0.309509195698E-02  0.326475652879E-02  0.885088592600E-03
 -0.294886709822E-02 -0.105532347321E-01 -0.736051259689E-04  0.182103021149E-02 -0.252805407009E-01  0.600619272437E-02  0.752797788566E-02
  0.284216802456E-02  0.860583470004E-02 -0.213019850017E-01 -0.366694231146E-01  0.207914961004E-02 -0.432321864077E-01  0.562737108511E-02
  0.222468711494E-01  0.232895145951E-01  0.278508336288E-02  0.975464903878E-02 -0.479509281387E-02 -0.975784821929E-02  0.196808404689E-01
  0.221470491289E-01 -0.280370402051E-01 -0.465218974219E-02 -0.640324356774E-02  0.992230298413E-02  0.247715519097E-01 -0.666500409756E-02
 -0.240437224057E-02 -0.154508445611E-01  0.227670089851E-01 -0.398057471182E-02
        12        19        11        11
        11         5        12        12
        10        14         5         5
        19        13        11        11
        19        24        13        13
        30        23        24        24
        19        12        22        22
        28        22        21        21
        11        13         6         6
         7         6         9         9
        15        12        14        14
        18        13        23        23
        15        25        21        21
        27        19        22        22
        18         8         9         9
        27        31        24        24
         4        11         6         6
         5        14        12        12
         4         2         5         5
        21        12        15        15
        14        16        15        15
        24        19        27        27
        22        29        27        27
        23        26        18        18
        17         8        18        18
         5        11         4         4
         6         3         4         4
        26        23        30        30
         5         2        10        10
        16        14        10        10
         3         6         7         7
        21        25        28        28
        29        22        28        28
         6        13         9         9
         2         4         1         1
        31        27        32        32
        25        15        20        20
        24        23        13        13
         8         7         9         9
        13        18         9         9
        31        30        24        24
        12        21        22        22
        29        32        27        27
         3         1         4         4
        26        17        18        18
        16        20        15        15
zone t="boundary 2 bc-2", solutiontime= 0.1000000E+02, strandid=1002, i=33, j=48, f=feblock
  0.500195253374E+01  0.375034811161E+01  0.249861146299E+01  0.288036674177E+01  0.124717526933E+01  0.190856698521E+01  0.326577190273E+01
  0.201394856120E+01 -0.338395986572E-02  0.962374249381E+00  0.500000000000E+01  0.403430190008E+01  0.423029563807E+01  0.500000000000E+01
  0.385439188940E+01  0.500000000000E+01  0.398133433176E+01  0.315200081417E+01  0.266958028869E+01  0.154798029824E+01  0.218327860466E+01
  0.893688440338E+00  0.000000000000E+00  0.699009761768E+00  0.964460899052E+00  0.310303671659E+01  0.000000000000E+00  0.000000000000E+00
  0.125000000000E+01  0.500000000000E+01  0.375000000000E+01  0.250000000000E+01  0.000000000000E+00
 -0.249658903664E+01 -0.249658903664E+01 -0.249658903664E+01 -0.249658903664E+01 -0.249658903664E+01 -0.249658903664E+01 -0.249658903664E+01
 -0.249658903664E+01 -0.249658903664E+01 -0.249658903664E+01 -0.249658903664E+01 -0.249658903664E+01 -0.249658903664E+01 -0.249658903664E+01
 -0.249658903664E+01 -0.249658903664E+01 -0.249658903664E+01 -0.249658903664E+01 -0.249658903664E+01 -0.249658903664E+01 -0.249658903664E+01
 -0.249658903664E+01 -0.249658903664E+01 -0.249658903664E+01 -0.249658903664E+01 -0.249658903664E+01 -0.249658903664E+01 -0.249658903664E+01
 -0.249658903664E+01 -0.249658903664E+01 -0.249658903664E+01 -0.249658903664E+01 -0.249658903664E+01
  0.108225889030E-03  0.145875369682E-03  0.100893326425E-03  0.901663374396E+00  0.110858761917E-03  0.714928318829E+00  0.188140648011E+01
  0.175892165504E+01  0.810725962649E-04  0.957504300331E+00  0.125000000000E+01  0.100596698996E+01  0.191313519089E+01  0.250000000000E+01
  0.292898096716E+01  0.375000000000E+01  0.406883369524E+01  0.363389289944E+01  0.284756860985E+01  0.292582308120E+01  0.395754054931E+01
  0.205027256979E+01  0.125000000000E+01  0.306703272692E+01  0.397155766662E+01  0.433068622168E+01  0.250000000000E+01  0.375000000000E+01
  0.500000000000E+01  0.500000000000E+01  0.500000000000E+01  0.500000000000E+01  0.500000000000E+01
  0.000000000000E+00  0.000000000000E+00  0.000000000000E+00  0.380534933893E+00  0.000000000000E+00  0.343213081171E+00  0.585244496925E+00
  0.579499344205E+00  0.000000000000E+00  0.500959578913E+00  0.508769460148E+00  0.434312419771E+00  0.572817919451E+00  0.537160208080E+00
  0.569105645782E+00  0.515014970171E+00  0.508256765061E+00  0.527354036988E+00  0.567656182489E+00  0.531857069084E+00  0.506013391179E+00
  0.521044573739E+00  0.443891909404E+00  0.490703078146E+00  0.492147926412E+00  0.501388000320E+00  0.467740399690E+00  0.488187228171E+00
  0.489959820989E+00  0.491323935798E+00  0.486019442841E+00  0.489980976742E+00  0.495089980244E+00
  0.999993488485E+00  0.999993690942E+00  0.999993544242E+00  0.989596674085E+00  0.999993139053E+00  0.985604091028E+00  0.989839488847E+00
  0.991730617690E+00  0.999992724186E+00  0.984220387528E+00  0.985139981863E+00  0.984817712566E+00  0.990066477090E+00  0.100292374828E+01
  0.999857731400E+00  0.100487268684E+01  0.100122724769E+01  0.100056983810E+01  0.997888256964E+00  0.100350942201E+01  0.100059365414E+01
  0.101090707434E+01  0.104025009063E+01  0.100327959733E+01  0.100254952730E+01  0.100046804572E+01  0.100976460100E+01  0.100405634212E+01
  0.100192626091E+01  0.100045827286E+01  0.100058947226E+01  0.100110091494E+01  0.100176433139E+01
 -0.918600484789E-03 -0.114488569225E-02  0.145744781705E-02  0.157256759411E-01 -0.211329579035E-02 -0.887029557150E-01  0.105832771218E-02
  0.327576801443E-01 -0.641084044768E-02 -0.600060199745E-02 -0.617818663317E-02  0.344535817867E-01 -0.880363134188E-02  0.649985551105E-03
 -0.335020659161E-02 -0.574997308416E-03 -0.319879073138E-02 -0.615503146951E-02 -0.951000359354E-02  0.142300082885E-03 -0.230596337229E-01
  0.298898733375E-01 -0.245614850840E-01 -0.162399241220E-01 -0.403929705468E-01 -0.962664349584E-02  0.364244270857E-01 -0.553250255975E-01
  0.166692593390E-01 -0.713643727527E-02 -0.588505765363E-02  0.692565028557E-02  0.746261035218E-02
  0.480766142092E-03  0.392458721951E-03  0.382214600127E-03  0.106774677328E-02  0.146582599527E-02 -0.122239771809E-01  0.102778367809E-02
  0.673163522917E-02  0.487696479490E-03 -0.148852429934E-02 -0.289148548365E-03  0.715607612802E-02 -0.124758687547E-02  0.100919520411E-02
  0.588713836628E-03  0.674099082086E-03  0.152409475832E-03  0.493675359761E-03  0.581601217650E-03  0.164073753081E-02 -0.265902244824E-02
  0.556826589101E-02 -0.577064292396E-02 -0.314935824368E-02 -0.595024682434E-02 -0.888433683297E-03  0.558574027636E-02 -0.103728343700E-01
  0.824022575576E-02 -0.518707390641E-03  0.467727678064E-03  0.476656328460E-02  0.533056208666E-02
 -0.246596850083E-03 -0.158577362909E-03 -0.130109832262E-03  0.584668559476E-03  0.255622457627E-03  0.345645913676E-04  0.815964278852E-04
  0.296944567332E-03  0.396255113967E-03  0.964406538654E-04 -0.750757668206E-04  0.284678577114E-03 -0.791099534675E-04 -0.113049606094E-04
  0.268094937197E-05 -0.177930981648E-04 -0.697263146636E-04  0.763903267521E-04  0.127535802188E-03  0.843397265801E-04 -0.137724175797E-04
  0.156063319996E-03 -0.125484663395E-03 -0.116107235452E-03 -0.771881687071E-04  0.268399084709E-04 -0.529421792403E-04 -0.152781195681E-03
  0.744849213372E-04 -0.303879148512E-04 -0.333679678789E-05  0.427854021569E-05 -0.830259588420E-05
 -0.779598186212E-05 -0.209343698099E-03 -0.525991982493E-03 -0.157047722509E-02  0.374160429302E-03 -0.248953355272E-02 -0.237176645348E-03
  0.981607377711E-03  0.121282838560E-02  0.604013584174E-04  0.462318662727E-03 -0.891753053357E-03  0.871072175165E-05  0.885305359532E-04
 -0.220322484296E-03  0.303909676036E-03  0.277939755402E-03 -0.104737947925E-04 -0.456680437673E-03  0.132030894223E-02 -0.501777358531E-03
  0.348138897261E-02  0.170678243282E-02  0.329790049336E-02  0.103676477766E-02 -0.288268345362E-03  0.309509195698E-02  0.326475652879E-02
  0.705794447592E-04  0.581143230450E-03  0.665359415313E-03  0.704824395317E-03  0.885088592600E-03
 -0.194646680171E-03  0.130914745080E-02  0.132317432330E-02 -0.691819899187E-02  0.451966659112E-02  0.362934359829E-01 -0.908202207949E-03
 -0.145578090311E-01  0.278508336288E-02  0.197122784067E-02  0.213614509097E-02 -0.153333166414E-01  0.334857292025E-02 -0.810175650114E-03
  0.774164351228E-03 -0.170327975918E-03  0.950914483292E-03  0.188986519915E-02  0.298241384212E-02 -0.961988898198E-03  0.904804757731E-02
 -0.131072472026E-01  0.992230298413E-02  0.643078296282E-02  0.163503130145E-01  0.365981415760E-02 -0.154508445611E-01  0.227670089851E-01
 -0.827013001456E-02  0.257381901883E-02  0.175293696664E-02 -0.416259993111E-02 -0.398057471182E-02
        15         7        19        19
         8        20        19        19
        18        19        21        21
         7         4         8         8
         3         6         4         4
        19         7         8         8
        19        18        15        15
        14        13        15        15
         8        22        20        20
        27        24        22        22
        19        20        21        21
        32        26        21        21
        17        18        26        26
        17        16        15        15
        25        29        21        21
        12         7        13        13
        10         8         6         6
        25        20        24        24
         4         6         8         8
        12         2         4         4
        10        23        22        22
        26        31        17        17
        30        16        17        17
         4         7        12        12
        13        11        12        12
        21        20        25        25
        24        28        25        25
        22         8        10        10
         6         5        10        10
        31        26        32        32
         4         2         3         3
         5         6         3         3
        11        13        14        14
        22        23        27        27
        28        24        27        27
        15        13         7         7
         2        12         1         1
        29        25        33        33
        23        10         9         9
        21        26        18        18
        16        14        15        15
        18        17        15        15
        29        32        21        21
        22        24        20        20
        28        33        25        25
        11         1        12        12
        31        30        17        17
         5         9        10        10
zone t="boundary 3 bc-3", solutiontime= 0.1000000E+02, strandid=1003, i=33, j=48, f=feblock
  0.375059096892E+01  0.249769609313E+01  0.500322133174E+01  0.403612218725E+01  0.287976772365E+01  0.124541910518E+01  0.190552237404E+01
  0.500000000000E+01  0.326671104552E+01  0.423253755448E+01  0.201271136506E+01 -0.547468544169E-02  0.958895643487E+00  0.500000000000E+01
  0.266968147299E+01  0.385584487271E+01  0.890374214836E+00  0.154654013699E+01  0.000000000000E+00  0.500000000000E+01  0.315261136744E+01
  0.218304199515E+01  0.398195307895E+01  0.000000000000E+00  0.697379952124E+00  0.963757277315E+00  0.125000000000E+01  0.000000000000E+00
  0.500000000000E+01  0.310330738524E+01  0.250000000000E+01  0.375000000000E+01  0.000000000000E+00
  0.250494197117E+01  0.250494197117E+01  0.250494197117E+01  0.250494197117E+01  0.250494197117E+01  0.250494197117E+01  0.250494197117E+01
  0.250494197117E+01  0.250494197117E+01  0.250494197117E+01  0.250494197117E+01  0.250494197117E+01  0.250494197117E+01  0.250494197117E+01
  0.250494197117E+01  0.250494197117E+01  0.250494197117E+01  0.250494197117E+01  0.250494197117E+01  0.250494197117E+01  0.250494197117E+01
  0.250494197117E+01  0.250494197117E+01  0.250494197117E+01  0.250494197117E+01  0.250494197117E+01  0.250494197117E+01  0.250494197117E+01
  0.250494197117E+01  0.250494197117E+01  0.250494197117E+01  0.250494197117E+01  0.250494197117E+01
  0.135649900494E-03  0.110129816467E-03  0.966887303890E-04  0.101756752009E+01  0.908094589218E+00  0.103942505801E-03  0.722629083213E+00
  0.125000000000E+01  0.188965661746E+01  0.191862696980E+01  0.176708239098E+01  0.803813859866E-04  0.969652551954E+00  0.250000000000E+01
  0.285339433501E+01  0.293325058812E+01  0.205656223819E+01  0.293157016932E+01  0.125000000000E+01  0.375000000000E+01  0.363766838842E+01
  0.396069444983E+01  0.407056385475E+01  0.250000000000E+01  0.307031995245E+01  0.397359820314E+01  0.500000000000E+01  0.375000000000E+01
  0.500000000000E+01  0.433260781310E+01  0.500000000000E+01  0.500000000000E+01  0.500000000000E+01
  0.000000000000E+00  0.000000000000E+00  0.000000000000E+00  0.444961626928E+00  0.402838316190E+00  0.000000000000E+00  0.379029001549E+00
  0.508827846411E+00  0.575719767468E+00  0.573484231916E+00  0.562571091033E+00  0.000000000000E+00  0.491643474339E+00  0.534340493553E+00
  0.556353506125E+00  0.564141623675E+00  0.522489639030E+00  0.521815314100E+00  0.440672136512E+00  0.517132480923E+00  0.524064820256E+00
  0.503612613683E+00  0.509416634110E+00  0.469886789982E+00  0.495646532245E+00  0.494503101969E+00  0.488630053423E+00  0.489035017215E+00
  0.492985464012E+00  0.498953669977E+00  0.486505314975E+00  0.484610387305E+00  0.495364848064E+00
  0.999989345567E+00  0.999989414891E+00  0.999989632591E+00  0.981375695393E+00  0.988672653297E+00  0.999989832933E+00  0.982271891095E+00
  0.984075644303E+00  0.990406052732E+00  0.990320090376E+00  0.994390331428E+00  0.999990300362E+00  0.988743428079E+00  0.100365390733E+01
  0.999774597300E+00  0.100117529834E+01  0.100830077599E+01  0.100251293722E+01  0.102982970104E+01  0.100442054131E+01  0.100199281310E+01
  0.100081994749E+01  0.100137956774E+01  0.100825795511E+01  0.100297377722E+01  0.100191712118E+01  0.100214790177E+01  0.100354817652E+01
  0.100047567419E+01  0.100056574043E+01  0.100126719373E+01  0.100066769089E+01  0.100178625606E+01
 -0.133273526832E-02 -0.287251581708E-02 -0.206731577017E-02  0.137485144640E-01 -0.363977447703E-01 -0.433044829119E-03 -0.135200298693E-01
 -0.767569869043E-02 -0.294933472200E-03 -0.602911300117E-02  0.318931523869E-02  0.361317725263E-02  0.332160904109E-01 -0.209226239356E-02
 -0.781388011644E-02 -0.143110158766E-02  0.503979230603E-01 -0.667035129430E-02  0.257031128547E-01 -0.186249203707E-02  0.162928572888E-02
 -0.177555273419E-01 -0.392326426421E-02  0.510491929815E-01 -0.177345379904E-01 -0.345532323401E-01  0.247849697111E-01 -0.573194893519E-01
 -0.787035707495E-02 -0.103483393362E-01  0.221916122268E-01 -0.142179994817E-01  0.213897110557E-01
  0.455207956074E-03  0.939741504063E-03  0.428002069264E-03  0.573825856170E-02 -0.279157203793E-02 -0.494207956512E-03 -0.750929156248E-03
  0.697205373149E-03  0.353881847094E-03 -0.314172482954E-04  0.243229370173E-02  0.783367715640E-03  0.370561276175E-02  0.840160624441E-03
 -0.279986244041E-03  0.122943756702E-02  0.116846039115E-01 -0.255717079040E-03  0.285313714255E-02  0.501254700744E-03  0.153888244871E-02
 -0.237139028150E-02  0.230776192491E-03  0.853875272005E-02 -0.220838187288E-02 -0.540948406937E-02  0.893081891365E-02 -0.977419727220E-02
 -0.563788657761E-03 -0.102985027580E-02  0.720415671161E-02 -0.887542338140E-03  0.756230967740E-02
 -0.330475601423E-04  0.612442068600E-04  0.254250721096E-05 -0.503292406320E-03 -0.516731488621E-03  0.354736131243E-03 -0.544343167820E-04
  0.289869812072E-04  0.529261570194E-04  0.732727075307E-04  0.101035487984E-03  0.225956789728E-03  0.679622164247E-04 -0.209041542967E-04
  0.367085285377E-04 -0.100502336348E-04 -0.412772687000E-03 -0.121588481790E-04 -0.835441232588E-04  0.237814584556E-04  0.970711954266E-04
  0.180659117485E-04  0.572865516867E-04  0.266764621056E-04 -0.868825931499E-04 -0.114869257495E-03  0.848496553641E-05  0.116609733373E-04
  0.995391462936E-05  0.817242958070E-04 -0.347092304648E-04  0.244154546605E-04  0.202732866799E-04
 -0.443192983257E-03 -0.699142311310E-04 -0.132693569974E-04 -0.223011504686E-02 -0.107313588998E-02  0.140594515624E-04  0.129263383832E-02
  0.908339947880E-03  0.155222378367E-03  0.505777634906E-03  0.979013494478E-03  0.125356588781E-03  0.564618292542E-03  0.296158797418E-03
 -0.937769541167E-04 -0.790787731179E-04  0.131395926539E-02  0.199166158945E-02 -0.143241676265E-03  0.284059918096E-03 -0.215748488475E-03
 -0.442616130622E-03  0.331061906380E-03  0.861332749854E-03  0.342834145204E-02  0.135799117692E-02 -0.111801885431E-03  0.231042902404E-02
  0.529502571920E-03 -0.370816716089E-03  0.473904113055E-03  0.701930402785E-03  0.132242273939E-02
  0.562449680241E-02  0.433796978835E-02  0.118426223031E-02 -0.763275854503E-02  0.140298206400E-01  0.134145898505E-02  0.498848531594E-02
  0.218274527654E-02 -0.273451449232E-03  0.185324651969E-02 -0.215064783088E-02 -0.294886709822E-02 -0.136578789159E-01  0.198936998840E-03
  0.263844460501E-02 -0.148980216937E-03 -0.220828139795E-01  0.206643506135E-02 -0.105532347321E-01  0.339152470312E-03 -0.126158541135E-02
  0.696738389180E-02  0.118406861333E-02 -0.213019850017E-01  0.691140629896E-02  0.140547745174E-01 -0.114260719042E-01  0.232895145951E-01
  0.287594789849E-02  0.393087515040E-02 -0.105402821607E-01  0.507773137819E-02 -0.975784821929E-02
        15         9        16        16
        15        18        11        11
        22        15        21        21
        11         5         9         9
         5         7         2         2
        11         9        15        15
        16        21        15        15
        16        10        14        14
        18        17        11        11
        17        25        24        24
        22        18        15        15
        22        30        31        31
        30        21        23        23
        16        20        23        23
        22        27        26        26
        10         9         4         4
         7        11        13        13
        25        18        26        26
        11         7         5         5
         5         1         4         4
        17        19        13        13
        23        32        30        30
        23        20        29        29
         4         9         5         5
         4         8        10        10
        26        18        22        22
        26        28        25        25
        13        11        17        17
        13         6         7         7
        31        30        32        32
         2         1         5         5
         2         7         6         6
        14        10         8         8
        24        19        17        17
        24        25        28        28
         9        10        16        16
         3         4         1         1
        33        26        27        27
        12        13        19        19
        21        30        22        22
        16        14        20        20
        16        23        21        21
        22        31        27        27
        18        25        17        17
        26        33        28        28
         4         3         8         8
        23        29        32        32
        13        12         6         6
zone t="boundary 4 bc-4", solutiontime= 0.1000000E+02, strandid=1004, i=32, j=46, f=feblock
  0.125000000000E+01  0.219251206392E+01  0.103724302461E+01  0.500000000000E+01  0.250000000000E+01  0.375000000000E+01  0.404200324774E+01
  0.500000000000E+01  0.000000000000E+00  0.310152362409E+01  0.202479342020E+01  0.324151231464E+01  0.922061490191E+00  0.000000000000E+00
  0.299062775774E+01  0.394624082883E+01  0.500000000000E+01  0.409252726285E+01  0.500000000000E+01  0.429310310915E+01  0.175434191980E+01
  0.284428995242E+01  0.000000000000E+00  0.000000000000E+00  0.715990576545E+00  0.930412228790E+00  0.125000000000E+01  0.187029682677E+01
  0.500000000000E+01  0.375000000000E+01  0.250000000000E+01  0.000000000000E+00
  0.250494197117E+01  0.157686156160E+01  0.146289271009E+01  0.250494197117E+01  0.250494197117E+01  0.250494197117E+01  0.155830813274E+01
  0.125000000000E+01  0.250494197117E+01  0.177790177481E+01  0.477386199275E+00  0.742988685424E+00  0.308372018325E+00  0.125000000000E+01
 -0.487811078581E+00 -0.144524380962E+01 -0.125000000000E+01 -0.345533899378E+00  0.000000000000E+00  0.627766083140E+00 -0.739814786992E+00
 -0.158811787973E+01  0.000000000000E+00 -0.125000000000E+01 -0.600232012419E+00 -0.154800130438E+01 -0.249658903664E+01 -0.178862290564E+01
 -0.249658903664E+01 -0.249658903664E+01 -0.249658903664E+01 -0.249658903664E+01
  0.500000000000E+01  0.500000000000E+01  0.500000000000E+01  0.500000000000E+01  0.500000000000E+01  0.500000000000E+01  0.500000000000E+01
  0.500000000000E+01  0.500000000000E+01  0.500000000000E+01  0.500000000000E+01  0.500000000000E+01  0.500000000000E+01  0.500000000000E+01
  0.500000000000E+01  0.500000000000E+01  0.500000000000E+01  0.500000000000E+01  0.500000000000E+01  0.500000000000E+01  0.500000000000E+01
  0.500000000000E+01  0.500000000000E+01  0.500000000000E+01  0.500000000000E+01  0.500000000000E+01  0.500000000000E+01  0.500000000000E+01
  0.500000000000E+01  0.500000000000E+01  0.500000000000E+01  0.500000000000E+01
  0.488630053423E+00  0.488907200673E+00  0.490613524454E+00  0.492985464012E+00  0.486505314975E+00  0.484610387305E+00  0.485346346417E+00
  0.494164094826E+00  0.495364848064E+00  0.486544301825E+00  0.487826539497E+00  0.487053944491E+00  0.494057895498E+00  0.496127940578E+00
  0.487590739712E+00  0.483169495133E+00  0.492384717662E+00  0.487198320547E+00  0.494738341209E+00  0.487947262281E+00  0.489650836219E+00
  0.487975047811E+00  0.497248366859E+00  0.496055083747E+00  0.494947818077E+00  0.492777844524E+00  0.489959820989E+00  0.489963118744E+00
  0.491323935798E+00  0.486019442841E+00  0.489980976742E+00  0.495089980244E+00
  0.100214790177E+01  0.100152376261E+01  0.100177920363E+01  0.100047567419E+01  0.100126719373E+01  0.100066769089E+01  0.100025509248E+01
  0.100050308878E+01  0.100178625606E+01  0.100112381228E+01  0.100132857256E+01  0.100072299640E+01  0.100164084009E+01  0.100168369530E+01
  0.100096380429E+01  0.100001109262E+01  0.100083219162E+01  0.100022379580E+01  0.100062130449E+01  0.100023379273E+01  0.100174737467E+01
  0.100099023681E+01  0.100118721261E+01  0.100134451878E+01  0.100132726122E+01  0.100179980273E+01  0.100192626091E+01  0.100163810987E+01
  0.100045827286E+01  0.100058947226E+01  0.100110091494E+01  0.100176433139E+01
  0.247849697111E-01  0.272449769519E-01  0.189647661178E-01 -0.787035707495E-02  0.221916122268E-01 -0.142179994817E-01 -0.140573526739E-01
 -0.479166606826E-02  0.213897110557E-01  0.120571900520E-01  0.292170161260E-01 -0.285447088442E-02  0.301596165780E-01  0.141749591444E-01
  0.568992430438E-02 -0.431094935964E-02 -0.433376965987E-02 -0.133431402220E-01 -0.483470787374E-02 -0.178154941015E-01  0.424107901792E-01
  0.135384058955E-01  0.146570179346E-01  0.402508533398E-02  0.189721778793E-01  0.123016182195E-01  0.166692593390E-01  0.251023059317E-01
 -0.713643727527E-02 -0.588505765363E-02  0.692565028557E-02  0.746261035218E-02