title="tecplot geometry and solution file"
variables = x y z mach temperature lambda1 lambda2 lambda3 lambda4 lambda5
zone t="boundary 1 bc-1", solutiontime= 0.8000000E+02, strandid=1001, i=32, j=46, f=feblock
 -0.547468544169E-02  0.000000000000E+00 -0.567606031243E-02  0.000000000000E+00  0.000000000000E+00  0.000000000000E+00 -0.525159244851E-02
 -0.425776897977E-02  0.000000000000E+00  0.000000000000E+00  0.000000000000E+00  0.000000000000E+00  0.000000000000E+00  0.000000000000E+00
  0.000000000000E+00  0.000000000000E+00 -0.338395986572E-02  0.000000000000E+00  0.000000000000E+00  0.000000000000E+00  0.000000000000E+00
  0.000000000000E+00  0.000000000000E+00  0.000000000000E+00  0.000000000000E+00  0.000000000000E+00  0.000000000000E+00  0.000000000000E+00
  0.000000000000E+00  0.000000000000E+00  0.000000000000E+00  0.000000000000E+00
  0.250494197117E+01  0.250494197117E+01  0.127822156907E+01  0.146289271009E+01  0.157686156160E+01  0.308372018325E+00  0.261948602442E-01
 -0.122573481164E+01 -0.600232012419E+00  0.250494197117E+01  0.477386199275E+00  0.742988685424E+00 -0.739814786992E+00  0.177790177481E+01
  0.155830813274E+01  0.250494197117E+01 -0.249658903664E+01 -0.154800130438E+01 -0.487811078581E+00  0.250494197117E+01  0.627766083140E+00
 -0.345533899378E+00 -0.178862290564E+01 -0.158811787973E+01  0.125000000000E+01 -0.249658903664E+01 -0.144524380962E+01  0.000000000000E+00
 -0.125000000000E+01 -0.249658903664E+01 -0.249658903664E+01 -0.249658903664E+01
  0.803813859866E-04  0.125000000000E+01  0.822460170216E-04  0.103724302461E+01  0.219251206392E+01  0.922061490191E+00  0.103872438719E-03
  0.341545874231E-04  0.715990576545E+00  0.250000000000E+01  0.202479342020E+01  0.324151231464E+01  0.175434191980E+01  0.310152362409E+01
  0.404200324774E+01  0.375000000000E+01  0.810725962649E-04  0.930412228790E+00  0.299062775774E+01  0.500000000000E+01  0.429310310915E+01
  0.409252726285E+01  0.187029682677E+01  0.284428995242E+01  0.500000000000E+01  0.125000000000E+01  0.394624082883E+01  0.500000000000E+01
  0.500000000000E+01  0.250000000000E+01  0.375000000000E+01  0.500000000000E+01
  0.000000000000E+00  0.440672136512E+00  0.000000000000E+00  0.474618025820E+00  0.460125068601E+00  0.468639320143E+00  0.000000000000E+00
  0.000000000000E+00  0.402534623939E+00  0.469886789982E+00  0.464193107367E+00  0.478749739491E+00  0.489555756507E+00  0.483130037990E+00
  0.488002902366E+00  0.489035017215E+00  0.000000000000E+00  0.465237698331E+00  0.473759127176E+00  0.495364848064E+00  0.490293257191E+00
  0.486276632093E+00  0.445850265191E+00  0.464356446519E+00  0.496127940578E+00  0.443891909404E+00  0.486928147025E+00  0.497248366859E+00
  0.496055083747E+00  0.467740399690E+00  0.488187228171E+00  0.495089980244E+00
  0.999990300362E+00  0.102982970104E+01  0.999990762612E+00  0.104241436388E+01  0.101187663318E+01  0.102516400612E+01  0.999991420552E+00
  0.999992171067E+00  0.103882325429E+01  0.100825795511E+01  0.101253536096E+01  0.100301645575E+01  0.102705594255E+01  0.100604114309E+01
  0.100244532432E+01  0.100354817652E+01  0.999992724186E+00  0.103209991946E+01  0.100459425771E+01  0.100178625606E+01  0.100260326526E+01
  0.100234745937E+01  0.101657167924E+01  0.100620610961E+01  0.100168369530E+01  0.104025009063E+01  0.100303477791E+01  0.100118721261E+01
  0.100134451878E+01  0.100976460100E+01  0.100405634212E+01  0.100176433139E+01
  0.610129923157E-02  0.306716106237E-01  0.698494811002E-02  0.492836781010E-01  0.346862140962E-02  0.587059676692E-01  0.512165754457E-02
  0.170598237744E-02  0.582732515060E-01 -0.164995248811E-02  0.389953022017E-02 -0.701958835005E-02  0.329293713895E-02 -0.389670498763E-02
 -0.933379102890E-02 -0.931134384883E-02  0.308604613612E-02  0.385674840414E-01 -0.515851101417E-02 -0.339852406069E-01 -0.121361466895E-01
 -0.812690830843E-02  0.186574583309E-02 -0.443745070470E-02 -0.351890939634E-01  0.248759635701E-01 -0.633150307085E-02 -0.387855910290E-01
 -0.342302824127E-01 -0.361021497168E-02 -0.697141732469E-02 -0.321706553792E-01
  0.239193326917E-03  0.444690398232E-02  0.331468286808E-03  0.629797491174E-02  0.165103214952E-03  0.888125468305E-02  0.361485945866E-03
  0.321555625320E-03  0.868020724264E-02 -0.782603191216E-03  0.347082570937E-03 -0.148142156176E-02 -0.971839056425E-04 -0.114287151670E-02
 -0.182978752030E-02 -0.204919605611E-02  0.284324142957E-03  0.601318340482E-02 -0.103416907429E-02 -0.697903121638E-02 -0.240637991498E-02
 -0.155610076925E-02 -0.207720129244E-03 -0.851542818327E-03 -0.736738763639E-02  0.306409075733E-02 -0.124804099445E-02 -0.814802116410E-02
 -0.716145285261E-02 -0.904775856445E-03 -0.148496440411E-02 -0.669180331106E-02
  0.405817013833E-03  0.128356928183E-03  0.546884956731E-03  0.125031024537E-02  0.147352991388E-03  0.606722009809E-03  0.467396497342E-03
 -0.174854009352E-03 -0.333211382432E-04 -0.133078976079E-04  0.128347566092E-03  0.133156986333E-03 -0.140617285830E-03  0.250991469269E-04
 -0.495600635426E-04 -0.287138092269E-05 -0.245073121654E-03 -0.794134828401E-03  0.152612189832E-04  0.332386566714E-05 -0.320427903760E-04
 -0.381293599389E-04 -0.165275890566E-04 -0.137082725761E-03  0.897585184601E-04 -0.102521553902E-03 -0.785938434192E-04 -0.171187279687E-04
 -0.755962526222E-04 -0.219850907033E-04 -0.801657741797E-05  0.654904337172E-05
 -0.147369373185E-02 -0.134232842437E-02 -0.160704540355E-02 -0.713595501669E-05  0.142118690354E-02  0.153397996439E-02 -0.899993146320E-03
 -0.786601353678E-03  0.108729783716E-02  0.155237099238E-02  0.289652917283E-02  0.159507312470E-02  0.319732235190E-02  0.148279149112E-02
  0.109559100510E-02  0.128763660643E-02 -0.609660945806E-03  0.916844701335E-03  0.183380067558E-02  0.461658998545E-03  0.101739773896E-02
  0.121216203770E-02  0.217918277937E-02  0.148770175063E-02  0.443203164509E-03  0.112530544650E-02  0.111191379004E-02  0.419535720093E-03
  0.501268772357E-03  0.168637885739E-02  0.113900508956E-02  0.491825438434E-03
 -0.487347767014E-02 -0.126325489267E-01 -0.665636108550E-02 -0.197247323844E-01 -0.144244375395E-02 -0.243687324580E-01  0.325552969158E-03
  0.104266197927E-02 -0.242167463532E-01  0.663711704682E-03 -0.170497238571E-02  0.274439659530E-02 -0.142036269141E-02  0.153547866448E-02
  0.372763476823E-02  0.375539611760E-02 -0.101640115958E-02 -0.161237573424E-01  0.191163866022E-02  0.141084867250E-01  0.490135939277E-02
  0.321411058636E-02 -0.897667918664E-03  0.158959200775E-02  0.146345874710E-01 -0.101412322943E-01  0.246913203389E-02  0.161775574022E-01
  0.142445456148E-01  0.131292039401E-02  0.276987760925E-02  0.133525624661E-01
        12        19        11        11
        11         5        12        12
        10        14         5         5
        19        13        11        11
        19        24        13        13
        30        23        24        24
        19        12        22        22
        28        22        21        21
        11        13         6         6
         7         6         9         9
        15        12        14        14
        18        13        23        23
        15        25        21        21
        27        19        22        22
        18         8         9         9
        27        31        24        24
         4        11         6         6
         5        14        12        12
         4         2         5         5
        21        12        15        15
        14        16        15        15
        24        19        27        27
        22        29        27        27
        23        26        18        18
        17         8        18        18
         5        11         4         4
         6         3         4         4
        26        23        30        30
         5         2        10        10
        16        14        10        10
         3         6         7         7
        21        25        28        28
        29        22        28        28
         6        13         9         9
         2         4         1         1
        31        27        32        32
        25        15        20        20
        24        23        13        13
         8         7         9         9
        13        18         9         9
        31        30        24        24
        12        21        22        22
        29        32        27        27
         3         1         4         4
        26        17        18        18
        16        20        15        15
zone t="boundary 2 bc-2", solutiontime= 0.8000000E+02, strandid=1002, i=33, j=48, f=feblock
  0.500195253374E+01  0.375034811161E+01  0.249861146299E+01  0.288036674177E+01  0.124717526933E+01  0.190856698521E+01  0.326577190273E+01
  0.201394856120E+01 -0.338395986572E-02  0.962374249381E+00  0.500000000000E+01  0.403430190008E+01  0.423029563807E+01  0.500000000000E+01
  0.385439188940E+01  0.500000000000E+01  0.398133433176E+01  0.315200081417E+01  0.266958028869E+01  0.154798029824E+01  0.218327860466E+01
  0.893688440338E+00  0.000000000000E+00  0.699009761768E+00  0.964460899052E+00  0.310303671659E+01  0.000000000000E+00  0.000000000000E+00
  0.125000000000E+01  0.500000000000E+01  0.375000000000E+01  0.250000000000E+01  0.000000000000E+00
 -0.249658903664E+01 -0.249658903664E+01 -0.249658903664E+01 -0.249658903664E+01 -0.249658903664E+01 -0.249658903664E+01 -0.249658903664E+01
 -0.249658903664E+01 -0.249658903664E+01 -0.249658903664E+01 -0.249658903664E+01 -0.249658903664E+01 -0.249658903664E+01 -0.249658903664E+01
 -0.249658903664E+01 -0.249658903664E+01 -0.249658903664E+01 -0.249658903664E+01 -0.249658903664E+01 -0.249658903664E+01 -0.249658903664E+01
 -0.249658903664E+01 -0.249658903664E+01 -0.249658903664E+01 -0.249658903664E+01 -0.249658903664E+01 -0.249658903664E+01 -0.249658903664E+01
 -0.249658903664E+01 -0.249658903664E+01 -0.249658903664E+01 -0.249658903664E+01 -0.249658903664E+01
  0.108225889030E-03  0.145875369682E-03  0.100893326425E-03  0.901663374396E+00  0.110858761917E-03  0.714928318829E+00  0.188140648011E+01
  0.175892165504E+01  0.810725962649E-04  0.957504300331E+00  0.125000000000E+01  0.100596698996E+01  0.191313519089E+01  0.250000000000E+01
  0.292898096716E+01  0.375000000000E+01  0.406883369524E+01  0.363389289944E+01  0.284756860985E+01  0.292582308120E+01  0.395754054931E+01
  0.205027256979E+01  0.125000000000E+01  0.306703272692E+01  0.397155766662E+01  0.433068622168E+01  0.250000000000E+01  0.375000000000E+01
  0.500000000000E+01  0.500000000000E+01  0.500000000000E+01  0.500000000000E+01  0.500000000000E+01
  0.000000000000E+00  0.000000000000E+00  0.000000000000E+00  0.380534933893E+00  0.000000000000E+00  0.343213081171E+00  0.585244496925E+00
  0.579499344205E+00  0.000000000000E+00  0.500959578913E+00  0.508769460148E+00  0.434312419771E+00  0.572817919451E+00  0.537160208080E+00
  0.569105645782E+00  0.515014970171E+00  0.508256765061E+00  0.527354036988E+00  0.567656182489E+00  0.531857069084E+00  0.506013391179E+00
  0.521044573739E+00  0.443891909404E+00  0.490703078146E+00  0.492147926412E+00  0.501388000320E+00  0.467740399690E+00  0.488187228171E+00
  0.489959820989E+00  0.491323935798E+00  0.486019442841E+00  0.489980976742E+00  0.495089980244E+00
  0.999993488485E+00  0.999993690942E+00  0.999993544242E+00  0.989596674085E+00  0.999993139053E+00  0.985604091028E+00  0.989839488847E+00
  0.991730617690E+00  0.999992724186E+00  0.984220387528E+00  0.985139981863E+00  0.984817712566E+00  0.990066477090E+00  0.100292374828E+01
  0.999857731400E+00  0.100487268684E+01  0.100122724769E+01  0.100056983810E+01  0.997888256964E+00  0.100350942201E+01  0.100059365414E+01
  0.101090707434E+01  0.104025009063E+01  0.100327959733E+01  0.100254952730E+01  0.100046804572E+01  0.100976460100E+01  0.100405634212E+01
  0.100192626091E+01  0.100045827286E+01  0.100058947226E+01  0.100110091494E+01  0.100176433139E+01
 -0.252330487985E-02 -0.197836621918E-02 -0.121459745550E-02  0.238871103678E-01  0.241586183429E-02  0.783249452317E-01 -0.513268757302E-02
  0.945451835321E-03  0.308604613612E-02  0.364110479651E-01 -0.659539632478E-02 -0.762573666114E-02 -0.517678828870E-02 -0.442551220353E-02
 -0.325421247546E-02 -0.297003834969E-02 -0.218678533298E-02 -0.253089911146E-02 -0.418838460860E-02 -0.501215374491E-02 -0.329352939101E-02
  0.131166697441E-02  0.248759635701E-01 -0.338760318623E-02 -0.608983159182E-02 -0.396506082796E-02 -0.361021497168E-02 -0.697141732469E-02
 -0.289373546356E-01 -0.345683964680E-02 -0.132315415466E-01 -0.254248108700E-01 -0.321706553792E-01
  0.688017511872E-03 -0.192413016175E-03  0.186016240092E-04  0.410457408100E-02 -0.447445722309E-03  0.973191000778E-02 -0.195190583080E-04
 -0.387698634820E-03  0.284324142957E-03  0.429782599037E-02  0.149329781353E-02  0.510347909384E-04  0.758601268613E-03  0.113146538024E-02
  0.753199109993E-03  0.696408258660E-03  0.834179969160E-03  0.695142164410E-03  0.255886701527E-03 -0.423834842691E-03  0.298491588973E-03
 -0.360628104825E-03  0.306409075733E-02 -0.230052333501E-03 -0.701311823253E-03  0.411793463582E-03 -0.904775856445E-03 -0.148496440411E-02
 -0.520556008572E-02  0.174285302857E-03 -0.132936078694E-02 -0.395250281848E-02 -0.669180331106E-02
 -0.155436671340E-03  0.411018472123E-04  0.241698283970E-03  0.557908594343E-03  0.128340268133E-03  0.973142448723E-03 -0.761032398790E-04
  0.867706105507E-05 -0.245073121654E-03  0.373150048718E-03 -0.884472288911E-04 -0.284864284995E-03  0.530084589277E-05  0.835654753906E-05
  0.687429676563E-05 -0.133548072044E-04  0.161898470100E-05 -0.712032418502E-05  0.115808381017E-04  0.276324966197E-04 -0.169170412967E-04
  0.289642108719E-04 -0.102521553902E-03  0.546518315755E-05 -0.265980731126E-05 -0.591907525608E-05 -0.219850907033E-04 -0.801657741797E-05
 -0.261298599766E-05 -0.238092428718E-05  0.519556989689E-06  0.173538146354E-05  0.654904337172E-05
 -0.198495091288E-03 -0.204935691330E-03 -0.309701015721E-03  0.103425720448E-02 -0.716684376673E-03  0.224343025044E-03  0.156042882142E-02
  0.208716680347E-02 -0.609660945806E-03  0.980861977541E-03  0.298756006124E-03  0.109217568302E-02  0.626931682745E-03  0.283381856072E-03
  0.647019655416E-03  0.236866149710E-03  0.629141876963E-03  0.888584560173E-03  0.105425390243E-02  0.109568967135E-02  0.102596602962E-02
  0.165897305258E-02  0.112530544650E-02  0.116587722307E-02  0.102754449177E-02  0.886970795847E-03  0.168637885739E-02  0.113900508956E-02
  0.691322975399E-03  0.368551788925E-03  0.801729858300E-03  0.869536662297E-03  0.491825438434E-03
  0.718496137699E-03  0.197892363826E-02  0.342981611483E-02 -0.108863607969E-01  0.409105199343E-02 -0.335473621283E-01  0.152391574454E-02
 -0.485558408504E-03 -0.101640115958E-02 -0.150873566558E-01  0.142552991602E-02  0.231557469684E-02  0.127166490871E-02  0.848554399132E-03
  0.635872435272E-03  0.600567938317E-03  0.300582602964E-03  0.460749713535E-03  0.114878653649E-02  0.170376538073E-02  0.880390894267E-03
 -0.598242611680E-03 -0.101412322943E-01  0.109205819413E-02  0.222182643505E-02  0.108182189641E-02  0.131292039401E-02  0.276987760925E-02
  0.117573806015E-01  0.104473869541E-02  0.496518308879E-02  0.101091202133E-01  0.133525624661E-01
        15         7        19        19
         8        20        19        19
        18        19        21        21
         7         4         8         8
         3         6         4         4
        19         7         8         8
        19        18        15        15
        14        13        15        15
         8        22        20        20
        27        24        22        22
        19        20        21        21
        32        26        21        21
        17        18        26        26
        17        16        15        15
        25        29        21        21
        12         7        13        13
        10         8         6         6
        25        20        24        24
         4         6         8         8
        12         2         4         4
        10        23        22        22
        26        31        17        17
        30        16        17        17
         4         7        12        12
        13        11        12        12
        21        20        25        25
        24        28        25        25
        22         8        10        10
         6         5        10        10
        31        26        32        32
         4         2         3         3
         5         6         3         3
        11        13        14        14
        22        23        27        27
        28        24        27        27
        15        13         7         7
         2        12         1         1
        29        25        33        33
        23        10         9         9
        21        26        18        18
        16        14        15        15
        18        17        15        15
        29        32        21        21
        22        24        20        20
        28        33        25        25
        11         1        12        12
        31        30        17        17
         5         9        10        10
zone t="boundary 3 bc-3", solutiontime= 0.8000000E+02, strandid=1003, i=33, j=48, f=feblock
  0.375059096892E+01  0.249769609313E+01  0.500322133174E+01  0.403612218725E+01  0.287976772365E+01  0.124541910518E+01  0.190552237404E+01
  0.500000000000E+01  0.326671104552E+01  0.423253755448E+01  0.201271136506E+01 -0.547468544169E-02  0.958895643487E+00  0.500000000000E+01
  0.266968147299E+01  0.385584487271E+01  0.890374214836E+00  0.154654013699E+01  0.000000000000E+00  0.500000000000E+01  0.315261136744E+01
  0.218304199515E+01  0.398195307895E+01  0.000000000000E+00  0.697379952124E+00  0.963757277315E+00  0.125000000000E+01  0.000000000000E+00
  0.500000000000E+01  0.310330738524E+01  0.250000000000E+01  0.375000000000E+01  0.000000000000E+00
  0.250494197117E+01  0.250494197117E+01  0.250494197117E+01  0.250494197117E+01  0.250494197117E+01  0.250494197117E+01  0.250494197117E+01
  0.250494197117E+01  0.250494197117E+01  0.250494197117E+01  0.250494197117E+01  0.250494197117E+01  0.250494197117E+01  0.250494197117E+01
  0.250494197117E+01  0.250494197117E+01  0.250494197117E+01  0.250494197117E+01  0.250494197117E+01  0.250494197117E+01  0.250494197117E+01
  0.250494197117E+01  0.250494197117E+01  0.250494197117E+01  0.250494197117E+01  0.250494197117E+01  0.250494197117E+01  0.250494197117E+01
  0.250494197117E+01  0.250494197117E+01  0.250494197117E+01  0.250494197117E+01  0.250494197117E+01
  0.135649900494E-03  0.110129816467E-03  0.966887303890E-04  0.101756752009E+01  0.908094589218E+00  0.103942505801E-03  0.722629083213E+00
  0.125000000000E+01  0.188965661746E+01  0.191862696980E+01  0.176708239098E+01  0.803813859866E-04  0.969652551954E+00  0.250000000000E+01
  0.285339433501E+01  0.293325058812E+01  0.205656223819E+01  0.293157016932E+01  0.125000000000E+01  0.375000000000E+01  0.363766838842E+01
  0.396069444983E+01  0.407056385475E+01  0.250000000000E+01  0.307031995245E+01  0.397359820314E+01  0.500000000000E+01  0.375000000000E+01
  0.500000000000E+01  0.433260781310E+01  0.500000000000E+01  0.500000000000E+01  0.500000000000E+01
  0.000000000000E+00  0.000000000000E+00  0.000000000000E+00  0.444961626928E+00  0.402838316190E+00  0.000000000000E+00  0.379029001549E+00
  0.508827846411E+00  0.575719767468E+00  0.573484231916E+00  0.562571091033E+00  0.000000000000E+00  0.491643474339E+00  0.534340493553E+00
  0.556353506125E+00  0.564141623675E+00  0.522489639030E+00  0.521815314100E+00  0.440672136512E+00  0.517132480923E+00  0.524064820256E+00
  0.503612613683E+00  0.509416634110E+00  0.469886789982E+00  0.495646532245E+00  0.494503101969E+00  0.488630053423E+00  0.489035017215E+00
  0.492985464012E+00  0.498953669977E+00  0.486505314975E+00  0.484610387305E+00  0.495364848064E+00
  0.999989345567E+00  0.999989414891E+00  0.999989632591E+00  0.981375695393E+00  0.988672653297E+00  0.999989832933E+00  0.982271891095E+00
  0.984075644303E+00  0.990406052732E+00  0.990320090376E+00  0.994390331428E+00  0.999990300362E+00  0.988743428079E+00  0.100365390733E+01
  0.999774597300E+00  0.100117529834E+01  0.100830077599E+01  0.100251293722E+01  0.102982970104E+01  0.100442054131E+01  0.100199281310E+01
  0.100081994749E+01  0.100137956774E+01  0.100825795511E+01  0.100297377722E+01  0.100191712118E+01  0.100214790177E+01  0.100354817652E+01
  0.100047567419E+01  0.100056574043E+01  0.100126719373E+01  0.100066769089E+01  0.100178625606E+01
 -0.170696781093E-02  0.132207098469E-02 -0.282319814776E-02  0.156157645454E-01  0.610978512553E-01  0.384271911397E-02  0.607949817600E-01
 -0.967038351252E-02 -0.492433189508E-02 -0.609281629921E-02  0.101025527408E-01  0.610129923157E-02  0.411699539853E-01 -0.462840409746E-02
 -0.535308342884E-02 -0.380336337613E-02  0.118122449314E-02 -0.517337283980E-02  0.306716106237E-01 -0.315202917412E-02 -0.230353518608E-02
 -0.315301299453E-02 -0.240355617273E-02 -0.164995248811E-02 -0.450961514726E-02 -0.833683372753E-02 -0.256245148119E-01 -0.931134384883E-02
 -0.298751388310E-02 -0.367456420426E-02 -0.239580416088E-01 -0.129989983806E-01 -0.339852406069E-01
 -0.395706375252E-03 -0.383848318679E-03  0.702864381486E-03  0.442188960368E-02  0.844024571414E-02 -0.799463922076E-03  0.752240678050E-02
  0.158570834953E-02 -0.850342442879E-04  0.835479248906E-03  0.183789324941E-03  0.239193326917E-03  0.310158472432E-02  0.121100861907E-02
 -0.766596856859E-04  0.632353598178E-03 -0.114683435794E-02 -0.543420199386E-03  0.444690398232E-02  0.772751443126E-03  0.668048133604E-03
  0.362296837763E-03  0.780343585692E-03 -0.782603191216E-03 -0.105759982690E-02 -0.104813600987E-02 -0.454526566479E-02 -0.204919605611E-02
  0.271633104973E-03  0.430051219335E-03 -0.371580940286E-02 -0.129185096307E-02 -0.697903121638E-02
 -0.747356301429E-04  0.397315439016E-04  0.956353283444E-04 -0.296472223118E-03 -0.858454514722E-03  0.335336086337E-03 -0.127837820126E-04
  0.190251300485E-05 -0.958302749829E-04  0.160419381860E-04 -0.808274813718E-04  0.405817013833E-03  0.465368245225E-03  0.352475359065E-04
 -0.404503459395E-05  0.485518927468E-05 -0.158968074542E-03 -0.597025643256E-04  0.128356928183E-03  0.197179186337E-04  0.966534892972E-05
  0.428264679439E-04  0.767429864957E-06 -0.133078976079E-04 -0.361591557927E-04  0.121955584787E-04  0.171304915475E-04 -0.287138092269E-05
  0.691913432986E-05 -0.250032992476E-06  0.391636229006E-05 -0.101222743543E-05  0.332386566714E-05
 -0.462498246205E-03 -0.866064420719E-03 -0.242260646898E-03  0.654618284398E-03  0.104382873165E-02 -0.834678373180E-03  0.330680330343E-03
  0.374351332397E-03  0.191563528317E-02  0.929875309611E-03  0.277649581538E-02 -0.147369373185E-02  0.912458119836E-03  0.371744568987E-03
  0.986686446977E-03  0.826358489188E-03  0.233921775327E-02  0.105018211313E-02 -0.134232842437E-02  0.329609220071E-03  0.949354444862E-03
  0.981439911423E-03  0.710057364954E-03  0.155237099238E-02  0.151209461090E-02  0.101233619582E-02  0.727848779765E-03  0.128763660643E-02
  0.350540760945E-03  0.922613889980E-03  0.882361350174E-03  0.804643227966E-03  0.461658998545E-03
  0.706470113936E-02  0.301234404066E-02  0.132765211792E-02 -0.812540872759E-02 -0.264541833128E-01  0.190755533924E-03 -0.255324627074E-01
  0.246326728164E-02  0.152867514339E-02  0.157349615928E-02 -0.394621570146E-02 -0.487347767014E-02 -0.162213645598E-01  0.871128915867E-03
  0.169074160854E-02  0.862120609155E-03 -0.353966076029E-03  0.179123004606E-02 -0.126325489267E-01  0.618591539072E-03  0.381131310014E-03
  0.812845953287E-03  0.391873473172E-03  0.663711704682E-03  0.165145867293E-02  0.313655177398E-02  0.103597311998E-01  0.375539611760E-02
  0.846625039028E-03  0.970824197625E-03  0.950677384240E-02  0.486632875215E-02  0.141084867250E-01
        15         9        16        16
        15        18        11        11
        22        15        21        21
        11         5         9         9
         5         7         2         2
        11         9        15        15
        16        21        15        15
        16        10        14        14
        18        17        11        11
        17        25        24        24
        22        18        15        15
        22        30        31        31
        30        21        23        23
        16        20        23        23
        22        27        26        26
        10         9         4         4
         7        11        13        13
        25        18        26        26
        11         7         5         5
         5         1         4         4
        17        19        13        13
        23        32        30        30
        23        20        29        29
         4         9         5         5
         4         8        10        10
        26        18        22        22
        26        28        25        25
        13        11        17        17
        13         6         7         7
        31        30        32        32
         2         1         5         5
         2         7         6         6
        14        10         8         8
        24        19        17        17
        24        25        28        28
         9        10        16        16
         3         4         1         1
        33        26        27        27
        12        13        19        19
        21        30        22        22
        16        14        20        20
        16        23        21        21
        22        31        27        27
        18        25        17        17
        26        33        28        28
         4         3         8         8
        23        29        32        32
        13        12         6         6
zone t="boundary 4 bc-4", solutiontime= 0.8000000E+02, strandid=1004, i=32, j=46, f=feblock
  0.125000000000E+01  0.219251206392E+01  0.103724302461E+01  0.500000000000E+01  0.250000000000E+01  0.375000000000E+01  0.404200324774E+01
  0.500000000000E+01  0.000000000000E+00  0.310152362409E+01  0.202479342020E+01  0.324151231464E+01  0.922061490191E+00  0.000000000000E+00
  0.299062775774E+01  0.394624082883E+01  0.500000000000E+01  0.409252726285E+01  0.500000000000E+01  0.429310310915E+01  0.175434191980E+01
  0.284428995242E+01  0.000000000000E+00  0.000000000000E+00  0.715990576545E+00  0.930412228790E+00  0.125000000000E+01  0.187029682677E+01
  0.500000000000E+01  0.375000000000E+01  0.250000000000E+01  0.000000000000E+00
  0.250494197117E+01  0.157686156160E+01  0.146289271009E+01  0.250494197117E+01  0.250494197117E+01  0.250494197117E+01  0.155830813274E+01
  0.125000000000E+01  0.250494197117E+01  0.177790177481E+01  0.477386199275E+00  0.742988685424E+00  0.308372018325E+00  0.125000000000E+01
 -0.487811078581E+00 -0.144524380962E+01 -0.125000000000E+01 -0.345533899378E+00  0.000000000000E+00  0.627766083140E+00 -0.739814786992E+00
 -0.158811787973E+01  0.000000000000E+00 -0.125000000000E+01 -0.600232012419E+00 -0.154800130438E+01 -0.249658903664E+01 -0.178862290564E+01
 -0.249658903664E+01 -0.249658903664E+01 -0.249658903664E+01 -0.249658903664E+01
  0.500000000000E+01  0.500000000000E+01  0.500000000000E+01  0.500000000000E+01  0.500000000000E+01  0.500000000000E+01  0.500000000000E+01
  0.500000000000E+01  0.500000000000E+01  0.500000000000E+01  0.500000000000E+01  0.500000000000E+01  0.500000000000E+01  0.500000000000E+01
  0.500000000000E+01  0.500000000000E+01  0.500000000000E+01  0.500000000000E+01  0.500000000000E+01  0.500000000000E+01  0.500000000000E+01
  0.500000000000E+01  0.500000000000E+01  0.500000000000E+01  0.500000000000E+01  0.500000000000E+01  0.500000000000E+01  0.500000000000E+01
  0.500000000000E+01  0.500000000000E+01  0.500000000000E+01  0.500000000000E+01
  0.488630053423E+00  0.488907200673E+00  0.490613524454E+00  0.492985464012E+00  0.486505314975E+00  0.484610387305E+00  0.485346346417E+00
  0.494164094826E+00  0.495364848064E+00  0.486544301825E+00  0.487826539497E+00  0.487053944491E+00  0.494057895498E+00  0.496127940578E+00
  0.487590739712E+00  0.483169495133E+00  0.492384717662E+00  0.487198320547E+00  0.494738341209E+00  0.487947262281E+00  0.489650836219E+00
  0.487975047811E+00  0.497248366859E+00  0.496055083747E+00  0.494947818077E+00  0.492777844524E+00  0.489959820989E+00  0.489963118744E+00
  0.491323935798E+00  0.486019442841E+00  0.489980976742E+00  0.495089980244E+00
  0.100214790177E+01  0.100152376261E+01  0.100177920363E+01  0.100047567419E+01  0.100126719373E+01  0.100066769089E+01  0.100025509248E+01
  0.100050308878E+01  0.100178625606E+01  0.100112381228E+01  0.100132857256E+01  0.100072299640E+01  0.100164084009E+01  0.100168369530E+01
  0.100096380429E+01  0.100001109262E+01  0.100083219162E+01  0.100022379580E+01  0.100062130449E+01  0.100023379273E+01  0.100174737467E+01
  0.100099023681E+01  0.100118721261E+01  0.100134451878E+01  0.100132726122E+01  0.100179980273E+01  0.100192626091E+01  0.100163810987E+01
  0.100045827286E+01  0.100058947226E+01  0.100110091494E+01  0.100176433139E+01
 -0.256245148119E-01 -0.248591199382E-01 -0.255304624306E-01 -0.298751388310E-02 -0.239580416088E-01 -0.129989983806E-01 -0.903607575216E-02
 -0.297344858116E-02 -0.339852406069E-01 -0.199239759583E-01 -0.267203004487E-01 -0.187255428136E-01 -0.311246160028E-01 -0.351890939634E-01
 -0.211045816269E-01 -0.870183009293E-02 -0.336852039816E-02 -0.110807153182E-01 -0.276169308561E-02 -0.110691221787E-01 -0.328852466145E-01
 -0.198616239446E-01 -0.387855910290E-01 -0.342302824127E-01 -0.360581885386E-01 -0.289171087425E-01 -0.289373546356E-01 -0.306010681252E-01
 -0.345683964680E-02 -0.132315415466E-01 -0.254248108700E-01 -0.321706553792E-01