title="tecplot geometry and solution file"
variables = x y z mach temperature lambda1 lambda2 lambda3 lambda4 lambda5
zone t="boundary 1 bc-1", solutiontime= 0.6000000E+02, strandid=1001, i=32, j=46, f=feblock
  0.000000000000E+00  0.000000000000E+00  0.000000000000E+00  0.000000000000E+00  0.000000000000E+00  0.000000000000E+00  0.000000000000E+00
  0.000000000000E+00  0.000000000000E+00  0.000000000000E+00  0.000000000000E+00  0.000000000000E+00  0.000000000000E+00  0.000000000000E+00
  0.000000000000E+00  0.000000000000E+00  0.000000000000E+00  0.000000000000E+00  0.000000000000E+00  0.000000000000E+00  0.000000000000E+00
  0.000000000000E+00  0.000000000000E+00  0.000000000000E+00  0.000000000000E+00  0.000000000000E+00  0.000000000000E+00  0.000000000000E+00
  0.000000000000E+00  0.000000000000E+00  0.000000000000E+00  0.000000000000E+00
  0.250000000000E+01  0.250000000000E+01  0.125000000000E+01  0.146289271009E+01  0.157686156160E+01  0.308372018325E+00  0.000000000000E+00
 -0.125000000000E+01 -0.600232012419E+00  0.250000000000E+01  0.477386199275E+00  0.742988685424E+00 -0.739814786992E+00  0.177790177481E+01
  0.155830813274E+01  0.250000000000E+01 -0.250000000000E+01 -0.154800130438E+01 -0.487811078581E+00  0.250000000000E+01  0.627766083140E+00
 -0.345533899378E+00 -0.178862290564E+01 -0.158811787973E+01  0.125000000000E+01 -0.250000000000E+01 -0.144524380962E+01  0.000000000000E+00
 -0.125000000000E+01 -0.250000000000E+01 -0.250000000000E+01 -0.250000000000E+01
  0.000000000000E+00  0.125000000000E+01  0.000000000000E+00  0.103724302461E+01  0.219251206392E+01  0.922061490191E+00  0.000000000000E+00
  0.000000000000E+00  0.715990576545E+00  0.250000000000E+01  0.202479342020E+01  0.324151231464E+01  0.175434191980E+01  0.310152362409E+01
  0.404200324774E+01  0.375000000000E+01  0.000000000000E+00  0.930412228790E+00  0.299062775774E+01  0.500000000000E+01  0.429310310915E+01
  0.409252726285E+01  0.187029682677E+01  0.284428995242E+01  0.500000000000E+01  0.125000000000E+01  0.394624082883E+01  0.500000000000E+01
  0.500000000000E+01  0.250000000000E+01  0.375000000000E+01  0.500000000000E+01
  0.000000000000E+00  0.441238348384E+00  0.000000000000E+00  0.475214987021E+00  0.460123708856E+00  0.468827815405E+00  0.000000000000E+00
  0.000000000000E+00  0.402302516798E+00  0.469814974359E+00  0.464411128942E+00  0.478714034184E+00  0.489298241651E+00  0.483068557888E+00
  0.487930073118E+00  0.488961654628E+00  0.000000000000E+00  0.464775721414E+00  0.473795651891E+00  0.495346592024E+00  0.490266103446E+00
  0.486286083902E+00  0.445717618051E+00  0.464382274634E+00  0.496127394917E+00  0.443624103833E+00  0.486964461957E+00  0.497246279768E+00
  0.496059270892E+00  0.467732355362E+00  0.488212087362E+00  0.495098264817E+00
  0.999990295028E+00  0.102982719499E+01  0.999990757903E+00  0.104247294232E+01  0.101190080524E+01  0.102520618293E+01  0.999991416700E+00
  0.999992168096E+00  0.103891223624E+01  0.100826277309E+01  0.101252833877E+01  0.100300548289E+01  0.102702865700E+01  0.100605563290E+01
  0.100244400478E+01  0.100355660048E+01  0.999992721792E+00  0.103239739214E+01  0.100459524090E+01  0.100179336279E+01  0.100260305842E+01
  0.100234966417E+01  0.101657153079E+01  0.100617544692E+01  0.100168844809E+01  0.104043292670E+01  0.100303376377E+01  0.100118726928E+01
  0.100134171022E+01  0.100976788415E+01  0.100405369352E+01  0.100176112495E+01
  0.955881622947E-03  0.510687815642E-02  0.111037662651E-02  0.808618305288E-02  0.573303592146E-03  0.101159493474E-01  0.878790152035E-03
  0.410952200602E-03  0.993662970447E-02 -0.297963742580E-03  0.670239390354E-03 -0.117619270063E-02  0.688224644247E-03 -0.636778614144E-03
 -0.161751463057E-02 -0.160606575132E-02  0.690154097695E-03  0.782007030763E-02 -0.927460612142E-03 -0.599703060380E-02 -0.211706344001E-02
 -0.140919271181E-02  0.153766018652E-03 -0.832309880107E-03 -0.620748209981E-02  0.468403552594E-02 -0.109871857913E-02 -0.686171975383E-02
 -0.608847785858E-02 -0.736376319635E-03 -0.119060342025E-02 -0.573072770090E-02
  0.503033229720E-04  0.739890772526E-03  0.683430148289E-04  0.103934451583E-02  0.268017130965E-04  0.152050481449E-02  0.723029350957E-04
  0.677259886824E-04  0.144710919638E-02 -0.134544201829E-03  0.594311170506E-04 -0.248024498339E-03 -0.119540090030E-04 -0.189945611964E-03
 -0.318453262666E-03 -0.353420598543E-03  0.540880485717E-04  0.119970758658E-02 -0.180692306139E-03 -0.123218525272E-02 -0.421480381287E-03
 -0.270078605609E-03 -0.693366811915E-04 -0.155692709858E-03 -0.130016340494E-02  0.565542051218E-03 -0.215059793759E-03 -0.144263484253E-02
 -0.127533017465E-02 -0.171040347504E-03 -0.252629977890E-03 -0.119425463388E-02
  0.581191352143E-04  0.205532484741E-04  0.806543648164E-04  0.202522715291E-03  0.262814347352E-04  0.107749376908E-03  0.630937759684E-04
 -0.364090287884E-04  0.193241375993E-04 -0.205669379584E-05  0.397881064268E-04  0.288754271757E-04  0.133617201924E-04  0.686019892708E-05
 -0.508361016363E-05 -0.494179526462E-06 -0.494544578275E-04 -0.111919803638E-03  0.157532735646E-04  0.439808553059E-06 -0.128396195230E-06
 -0.742062385645E-06  0.113618104540E-04 -0.129401320876E-04  0.194238382471E-04 -0.196918576115E-04 -0.104083828850E-04  0.243970871736E-05
 -0.888833171754E-05 -0.398608918283E-05 -0.184879345094E-05  0.117344875378E-05
 -0.240772846501E-03 -0.199260876175E-03 -0.266624251244E-03 -0.123254720130E-05  0.239664787797E-03  0.243383978001E-03 -0.151984890415E-03
 -0.155572980526E-03  0.105174064644E-03  0.265311919126E-03  0.489473583709E-03  0.275458448893E-03  0.570203605456E-03  0.252594050949E-03
  0.188928336229E-03  0.219320447051E-03 -0.122998095187E-03  0.184666439074E-03  0.326684396003E-03  0.804987495539E-04  0.177764927805E-03
  0.214898917918E-03  0.429211688155E-03  0.276289896101E-03  0.776398858821E-04  0.225364224082E-03  0.202288877233E-03  0.735824094832E-04
  0.891346580708E-04  0.318132664566E-03  0.207375166367E-03  0.885313852294E-04
 -0.726233649285E-03 -0.210589221692E-02 -0.103417365420E-02 -0.324191536678E-02 -0.240787410357E-03 -0.418778161376E-02  0.323881518010E-05
  0.125531031814E-03 -0.408952770347E-02  0.117739208450E-03 -0.293675478791E-03  0.458915730467E-03 -0.289075798591E-03  0.249770892114E-03
  0.646039015846E-03  0.647516425539E-03 -0.196973367598E-03 -0.325032380972E-02  0.344702115764E-03  0.248996050493E-02  0.855090735402E-03
  0.557070607237E-03 -0.826814951468E-04  0.300744229531E-03  0.258184001356E-02 -0.189572763632E-02  0.427810384760E-03  0.286229734786E-02
  0.253394108147E-02  0.273751753933E-03  0.472491468426E-03  0.237879280336E-02
        12        19        11        11
        11         5        12        12
        10        14         5         5
        19        13        11        11
        19        24        13        13
        30        23        24        24
        19        12        22        22
        28        22        21        21
        11        13         6         6
         7         6         9         9
        15        12        14        14
        18        13        23        23
        15        25        21        21
        27        19        22        22
        18         8         9         9
        27        31        24        24
         4        11         6         6
         5        14        12        12
         4         2         5         5
        21        12        15        15
        14        16        15        15
        24        19        27        27
        22        29        27        27
        23        26        18        18
        17         8        18        18
         5        11         4         4
         6         3         4         4
        26        23        30        30
         5         2        10        10
        16        14        10        10
         3         6         7         7
        21        25        28        28
        29        22        28        28
         6        13         9         9
         2         4         1         1
        31        27        32        32
        25        15        20        20
        24        23        13        13
         8         7         9         9
        13        18         9         9
        31        30        24        24
        12        21        22        22
        29        32        27        27
         3         1         4         4
        26        17        18        18
        16        20        15        15
zone t="boundary 2 bc-2", solutiontime= 0.6000000E+02, strandid=1002, i=33, j=48, f=feblock
  0.500000000000E+01  0.375000000000E+01  0.250000000000E+01  0.288078410721E+01  0.125000000000E+01  0.190974100652E+01  0.326683758169E+01
  0.201431602454E+01  0.000000000000E+00  0.963108083381E+00  0.500000000000E+01  0.403552511878E+01  0.423153924130E+01  0.500000000000E+01
  0.385533350601E+01  0.500000000000E+01  0.398173246726E+01  0.315249557942E+01  0.267000324704E+01  0.154774304040E+01  0.218329375016E+01
  0.893127759452E+00  0.000000000000E+00  0.698517061619E+00  0.964171764089E+00  0.310324758057E+01  0.000000000000E+00  0.000000000000E+00
  0.125000000000E+01  0.500000000000E+01  0.375000000000E+01  0.250000000000E+01  0.000000000000E+00
 -0.250000000000E+01 -0.250000000000E+01 -0.250000000000E+01 -0.250000000000E+01 -0.250000000000E+01 -0.250000000000E+01 -0.250000000000E+01
 -0.250000000000E+01 -0.250000000000E+01 -0.250000000000E+01 -0.250000000000E+01 -0.250000000000E+01 -0.250000000000E+01 -0.250000000000E+01
 -0.250000000000E+01 -0.250000000000E+01 -0.250000000000E+01 -0.250000000000E+01 -0.250000000000E+01 -0.250000000000E+01 -0.250000000000E+01
 -0.250000000000E+01 -0.250000000000E+01 -0.250000000000E+01 -0.250000000000E+01 -0.250000000000E+01 -0.250000000000E+01 -0.250000000000E+01
 -0.250000000000E+01 -0.250000000000E+01 -0.250000000000E+01 -0.250000000000E+01 -0.250000000000E+01
  0.000000000000E+00  0.000000000000E+00  0.000000000000E+00  0.904659890645E+00  0.000000000000E+00  0.717002441913E+00  0.188609243358E+01
  0.176246431481E+01  0.000000000000E+00  0.961328577125E+00  0.125000000000E+01  0.101201586758E+01  0.191586535653E+01  0.250000000000E+01
  0.293121848150E+01  0.375000000000E+01  0.406975391361E+01  0.363585050272E+01  0.285047954584E+01  0.292817774674E+01  0.395907379566E+01
  0.205246550326E+01  0.125000000000E+01  0.306828197606E+01  0.397245519226E+01  0.433168271247E+01  0.250000000000E+01  0.375000000000E+01
  0.500000000000E+01  0.500000000000E+01  0.500000000000E+01  0.500000000000E+01  0.500000000000E+01
  0.000000000000E+00  0.000000000000E+00  0.000000000000E+00  0.380991906500E+00  0.000000000000E+00  0.343629824950E+00  0.585286157424E+00
  0.579373264282E+00  0.000000000000E+00  0.501056069140E+00  0.508460362676E+00  0.435373026572E+00  0.572640041190E+00  0.537002098944E+00
  0.568922553870E+00  0.514994090651E+00  0.508247257160E+00  0.527252853130E+00  0.567446661127E+00  0.531657143909E+00  0.505981016593E+00
  0.520795579399E+00  0.443624103833E+00  0.490663730453E+00  0.492155873749E+00  0.501390784676E+00  0.467732355362E+00  0.488212087362E+00
  0.490002767114E+00  0.491352304715E+00  0.486075475228E+00  0.490036479234E+00  0.495098264817E+00
  0.999993487379E+00  0.999993690057E+00  0.999993543115E+00  0.989539055875E+00  0.999993137282E+00  0.985524707174E+00  0.989838908967E+00
  0.991798516580E+00  0.999992721792E+00  0.984411112416E+00  0.985091906406E+00  0.984689080896E+00  0.990058464829E+00  0.100289621837E+01
  0.999855369243E+00  0.100485306649E+01  0.100121554699E+01  0.100055642931E+01  0.997896793475E+00  0.100350029570E+01  0.100058068723E+01
  0.101093276247E+01  0.104043292670E+01  0.100326475367E+01  0.100254498742E+01  0.100045587387E+01  0.100976788415E+01  0.100405369352E+01
  0.100192656835E+01  0.100045434508E+01  0.100058774183E+01  0.100109993754E+01  0.100176112495E+01
 -0.376253432682E-03 -0.355559209228E-03 -0.393993417357E-03  0.174857776473E-02  0.452236327875E-03  0.143303932993E-01 -0.824087004444E-03
 -0.459307240711E-03  0.690154097695E-03  0.688229352726E-02 -0.110245041634E-02 -0.107758393573E-02 -0.900275229667E-03 -0.745612298662E-03
 -0.572890143600E-03 -0.515908021013E-03 -0.383691121781E-03 -0.439698928706E-03 -0.630434202790E-03 -0.788441466805E-03 -0.574657280844E-03
  0.337729739328E-04  0.468403552594E-02 -0.573867250180E-03 -0.104291541581E-02 -0.701659949704E-03 -0.736376319635E-03 -0.119060342025E-02
 -0.517095373794E-02 -0.604954734720E-03 -0.234293792730E-02 -0.452612386966E-02 -0.573072770090E-02
  0.997507849338E-04 -0.792006519735E-05  0.110382626355E-04  0.489504199877E-03 -0.109656711718E-03  0.192072833406E-02  0.829945783581E-04
 -0.883724454783E-04  0.540880485717E-04  0.828198060378E-03  0.242341042198E-03  0.815524725010E-04  0.142911926038E-03  0.192141199428E-03
  0.143118857158E-03  0.121454198430E-03  0.151191645273E-03  0.133256574239E-03  0.975202317280E-04 -0.300720937751E-04  0.602750259246E-04
 -0.880246666234E-04  0.565542051218E-03 -0.229555377204E-04 -0.113050019339E-03  0.784156311904E-04 -0.171040347504E-03 -0.252629977890E-03
 -0.929996850898E-03  0.312320998426E-04 -0.233521341098E-03 -0.701402665832E-03 -0.119425463388E-02
 -0.210272792675E-04  0.486958329526E-05  0.347289281249E-04  0.673047470899E-04  0.205827089517E-04  0.197106818809E-03 -0.635674570555E-05
 -0.403394076533E-06 -0.494544578275E-04  0.914774604763E-04 -0.138624254976E-04 -0.337940000518E-04 -0.199470581808E-06  0.137901257064E-05
  0.585665371863E-06 -0.213945374259E-05  0.588905622449E-06 -0.188161284451E-05 -0.422875687458E-06  0.402685344108E-05 -0.274825055323E-05
  0.654327731808E-05 -0.196918576115E-04  0.208830445994E-06 -0.554506316059E-06 -0.955159595930E-06 -0.398608918283E-05 -0.184879345094E-05
 -0.235803423241E-06 -0.395028541132E-06 -0.632028817884E-08  0.422658818614E-06  0.117344875378E-05
 -0.356826257652E-04 -0.190362357454E-04 -0.412514949228E-04  0.201882049899E-03 -0.138611279107E-03  0.137128266149E-03  0.214294153164E-03
  0.370609268791E-03 -0.122998095187E-03  0.230907750143E-03  0.340348144920E-04  0.112772966482E-03  0.887930968833E-04  0.438120994181E-04
  0.107064742068E-03  0.396620556027E-04  0.109207690605E-03  0.160761564088E-03  0.185740780798E-03  0.202390678171E-03  0.187836118517E-03
  0.334810900537E-03  0.225364224082E-03  0.220214592704E-03  0.189895426158E-03  0.159557383022E-03  0.318132664566E-03  0.207375166367E-03
  0.125357166179E-03  0.645239917303E-04  0.142210233523E-03  0.155595167897E-03  0.885313852294E-04
  0.101896851779E-03  0.192231894888E-03  0.490051701068E-03 -0.907984349115E-03  0.103704452207E-02 -0.622139911242E-02  0.209769449193E-03
  0.147441149013E-03 -0.196973367598E-03 -0.286534903626E-02  0.241306928187E-03  0.288922315600E-03  0.218194481052E-03  0.142167960501E-03
  0.108892316596E-03  0.103992414312E-03  0.510851601162E-04  0.752176726473E-04  0.147590560573E-03  0.253632491267E-03  0.150250160947E-03
 -0.242586563122E-04 -0.189572763632E-02  0.179679523684E-03  0.377155718898E-03  0.189552566699E-03  0.273751753933E-03  0.472491468426E-03
  0.210077773917E-02  0.182513078836E-03  0.878710279446E-03  0.179904805718E-02  0.237879280336E-02
        15         7        19        19
         8        20        19        19
        18        19        21        21
         7         4         8         8
         3         6         4         4
        19         7         8         8
        19        18        15        15
        14        13        15        15
         8        22        20        20
        27        24        22        22
        19        20        21        21
        32        26        21        21
        17        18        26        26
        17        16        15        15
        25        29        21        21
        12         7        13        13
        10         8         6         6
        25        20        24        24
         4         6         8         8
        12         2         4         4
        10        23        22        22
        26        31        17        17
        30        16        17        17
         4         7        12        12
        13        11        12        12
        21        20        25        25
        24        28        25        25
        22         8        10        10
         6         5        10        10
        31        26        32        32
         4         2         3         3
         5         6         3         3
        11        13        14        14
        22        23        27        27
        28        24        27        27
        15        13         7         7
         2        12         1         1
        29        25        33        33
        23        10         9         9
        21        26        18        18
        16        14        15        15
        18        17        15        15
        29        32        21        21
        22        24        20        20
        28        33        25        25
        11         1        12        12
        31        30        17        17
         5         9        10        10
zone t="boundary 3 bc-3", solutiontime= 0.6000000E+02, strandid=1003, i=33, j=48, f=feblock
  0.375000000000E+01  0.250000000000E+01  0.500000000000E+01  0.403552511878E+01  0.288078410721E+01  0.125000000000E+01  0.190974100652E+01
  0.500000000000E+01  0.326683758169E+01  0.423153924130E+01  0.201431602454E+01  0.000000000000E+00  0.963108083381E+00  0.500000000000E+01
  0.267000324704E+01  0.385533350601E+01  0.893127759452E+00  0.154774304040E+01  0.000000000000E+00  0.500000000000E+01  0.315249557942E+01
  0.218329375016E+01  0.398173246726E+01  0.000000000000E+00  0.698517061619E+00  0.964171764089E+00  0.125000000000E+01  0.000000000000E+00
  0.500000000000E+01  0.310324758057E+01  0.250000000000E+01  0.375000000000E+01  0.000000000000E+00
  0.250000000000E+01  0.250000000000E+01  0.250000000000E+01  0.250000000000E+01  0.250000000000E+01  0.250000000000E+01  0.250000000000E+01
  0.250000000000E+01  0.250000000000E+01  0.250000000000E+01  0.250000000000E+01  0.250000000000E+01  0.250000000000E+01  0.250000000000E+01
  0.250000000000E+01  0.250000000000E+01  0.250000000000E+01  0.250000000000E+01  0.250000000000E+01  0.250000000000E+01  0.250000000000E+01
  0.250000000000E+01  0.250000000000E+01  0.250000000000E+01  0.250000000000E+01  0.250000000000E+01  0.250000000000E+01  0.250000000000E+01
  0.250000000000E+01  0.250000000000E+01  0.250000000000E+01  0.250000000000E+01  0.250000000000E+01
  0.000000000000E+00  0.000000000000E+00  0.000000000000E+00  0.101201586758E+01  0.904659890645E+00  0.000000000000E+00  0.717002441913E+00
  0.125000000000E+01  0.188609243358E+01  0.191586535653E+01  0.176246431481E+01  0.000000000000E+00  0.961328577125E+00  0.250000000000E+01
  0.285047954584E+01  0.293121848150E+01  0.205246550326E+01  0.292817774674E+01  0.125000000000E+01  0.375000000000E+01  0.363585050272E+01
  0.395907379566E+01  0.406975391361E+01  0.250000000000E+01  0.306828197606E+01  0.397245519226E+01  0.500000000000E+01  0.375000000000E+01
  0.500000000000E+01  0.433168271247E+01  0.500000000000E+01  0.500000000000E+01  0.500000000000E+01
  0.000000000000E+00  0.000000000000E+00  0.000000000000E+00  0.443767745459E+00  0.402286944574E+00  0.000000000000E+00  0.377550369545E+00
  0.509232128688E+00  0.575832179754E+00  0.573707405285E+00  0.562554064412E+00  0.000000000000E+00  0.490563299840E+00  0.534527096543E+00
  0.556586982170E+00  0.564391577749E+00  0.522730517385E+00  0.522052000170E+00  0.441238348384E+00  0.517182331791E+00  0.524228630763E+00
  0.503687457534E+00  0.509488571178E+00  0.469814974359E+00  0.495614442414E+00  0.494483780212E+00  0.488562428343E+00  0.488961654628E+00
  0.492980744788E+00  0.499005552222E+00  0.486460936507E+00  0.484596927548E+00  0.495346592024E+00
  0.999989339439E+00  0.999989408764E+00  0.999989626853E+00  0.981541895460E+00  0.988773990194E+00  0.999989827144E+00  0.982469462434E+00
  0.984104309047E+00  0.990427545862E+00  0.990355285694E+00  0.994362997073E+00  0.999990295028E+00  0.988652071037E+00  0.100368369414E+01
  0.999769197113E+00  0.100118501219E+01  0.100834885320E+01  0.100252111043E+01  0.102982719499E+01  0.100443319461E+01  0.100199536635E+01
  0.100082056599E+01  0.100138192342E+01  0.100826277309E+01  0.100298787130E+01  0.100192389555E+01  0.100215267510E+01  0.100355660048E+01
  0.100047670023E+01  0.100056591053E+01  0.100126820231E+01  0.100066573360E+01  0.100179336279E+01
 -0.305412569708E-03  0.132307386781E-03 -0.476667359872E-03  0.185148585861E-02  0.878067932395E-02  0.685313473689E-03  0.109940560041E-01
 -0.159454493271E-02 -0.914909247852E-03 -0.103454319208E-02  0.126660835160E-02  0.955881622947E-03  0.717784107453E-02 -0.799539120630E-03
 -0.890383003756E-03 -0.658884746572E-03  0.186636312987E-03 -0.907765704300E-03  0.510687815642E-02 -0.548949369368E-03 -0.407512461013E-03
 -0.541895260942E-03 -0.419374695804E-03 -0.297963742580E-03 -0.759274344687E-03 -0.146044613234E-02 -0.450924970248E-02 -0.160606575132E-02
 -0.521208044263E-03 -0.643510021302E-03 -0.421020340342E-02 -0.227710562457E-02 -0.599703060380E-02
 -0.583378872446E-04 -0.637798643216E-04  0.115594814278E-03  0.605570286377E-03  0.124811892525E-02 -0.138236883709E-03  0.137397614273E-02
  0.276132574597E-03 -0.100121831839E-04  0.149420201926E-03 -0.356323979358E-04  0.503033229720E-04  0.536653657698E-03  0.209138594657E-03
  0.198876543637E-06  0.114466743706E-03 -0.197645227275E-03 -0.986291524939E-04  0.739890772526E-03  0.134642306945E-03  0.120697900574E-03
  0.670093066627E-04  0.138567994844E-03 -0.134544201829E-03 -0.176223421061E-03 -0.185055788518E-03 -0.798750122880E-03 -0.353420598543E-03
  0.477949372325E-04  0.786007026237E-04 -0.649516952954E-03 -0.224640178998E-03 -0.123218525272E-02
 -0.110060225126E-04  0.389875776964E-05  0.205007347428E-04 -0.281216235844E-04 -0.109859539844E-03  0.444830765399E-04 -0.282174294704E-04
  0.223658535414E-05 -0.130427742119E-04  0.437460594680E-05 -0.466207518618E-05  0.581191352143E-04  0.548250647428E-04  0.575220622922E-05
 -0.515049781680E-06  0.904686828587E-06 -0.258243497790E-04 -0.103677991429E-04  0.205532484741E-04  0.335885740051E-05  0.135144180254E-05
  0.792890679657E-05  0.840140621852E-07 -0.205669379584E-05 -0.554240076227E-05  0.288854701896E-05  0.286498716803E-05 -0.494179526462E-06
  0.118988801637E-05 -0.586671666546E-07  0.656087923929E-06 -0.143848270981E-06  0.439808553059E-06
 -0.638979941881E-04 -0.145910333775E-03 -0.404962737749E-04  0.106453880344E-03  0.179543737765E-03 -0.149297563423E-03  0.637939920771E-04
  0.557833828738E-04  0.308287117489E-03  0.153620520791E-03  0.476247826862E-03 -0.240772846501E-03  0.143547647043E-03  0.628581604094E-04
  0.170525521131E-03  0.140733372732E-03  0.396018240493E-03  0.179653869548E-03 -0.199260876175E-03  0.562151615881E-04  0.164970131224E-03
  0.172566437494E-03  0.122876538835E-03  0.265311919126E-03  0.256519034293E-03  0.175801522540E-03  0.128364762870E-03  0.219320447051E-03
  0.611159897771E-04  0.161033883809E-03  0.155514115197E-03  0.141172147848E-03  0.804987495539E-04
  0.984845592554E-03  0.615833776053E-03  0.204710633593E-03 -0.102761474415E-02 -0.382993387483E-02  0.779565256774E-04 -0.464744367207E-02
  0.396742473658E-03  0.282345714538E-03  0.262833881159E-03 -0.484877853651E-03 -0.726233649285E-03 -0.282590610275E-02  0.150605492299E-03
  0.274026164793E-03  0.147651814174E-03 -0.532164403089E-04  0.315970110195E-03 -0.210589221692E-02  0.107730151426E-03  0.669639672412E-04
  0.137214429924E-03  0.675352415641E-04  0.117739208450E-03  0.276636687489E-03  0.549713746484E-03  0.182274578672E-02  0.647516425539E-03
  0.147524698952E-03  0.169033113344E-03  0.166976398592E-02  0.851938764830E-03  0.248996050493E-02
        15         9        16        16
        15        18        11        11
        22        15        21        21
        11         5         9         9
         5         7         2         2
        11         9        15        15
        16        21        15        15
        16        10        14        14
        18        17        11        11
        17        25        24        24
        22        18        15        15
        22        30        31        31
        30        21        23        23
        16        20        23        23
        22        27        26        26
        10         9         4         4
         7        11        13        13
        25        18        26        26
        11         7         5         5
         5         1         4         4
        17        19        13        13
        23        32        30        30
        23        20        29        29
         4         9         5         5
         4         8        10        10
        26        18        22        22
        26        28        25        25
        13        11        17        17
        13         6         7         7
        31        30        32        32
         2         1         5         5
         2         7         6         6
        14        10         8         8
        24        19        17        17
        24        25        28        28
         9        10        16        16
         3         4         1         1
        33        26        27        27
        12        13        19        19
        21        30        22        22
        16        14        20        20
        16        23        21        21
        22        31        27        27
        18        25        17        17
        26        33        28        28
         4         3         8         8
        23        29        32        32
        13        12         6         6
zone t="boundary 4 bc-4", solutiontime= 0.6000000E+02, strandid=1004, i=32, j=46, f=feblock
  0.125000000000E+01  0.219251206392E+01  0.103724302461E+01  0.500000000000E+01  0.250000000000E+01  0.375000000000E+01  0.404200324774E+01
  0.500000000000E+01  0.000000000000E+00  0.310152362409E+01  0.202479342020E+01  0.324151231464E+01  0.922061490191E+00  0.000000000000E+00
  0.299062775774E+01  0.394624082883E+01  0.500000000000E+01  0.409252726285E+01  0.500000000000E+01  0.429310310915E+01  0.175434191980E+01
  0.284428995242E+01  0.000000000000E+00  0.000000000000E+00  0.715990576545E+00  0.930412228790E+00  0.125000000000E+01  0.187029682677E+01
  0.500000000000E+01  0.375000000000E+01  0.250000000000E+01  0.000000000000E+00
  0.250000000000E+01  0.157686156160E+01  0.146289271009E+01  0.250000000000E+01  0.250000000000E+01  0.250000000000E+01  0.155830813274E+01
  0.125000000000E+01  0.250000000000E+01  0.177790177481E+01  0.477386199275E+00  0.742988685424E+00  0.308372018325E+00  0.125000000000E+01
 -0.487811078581E+00 -0.144524380962E+01 -0.125000000000E+01 -0.345533899378E+00  0.000000000000E+00  0.627766083140E+00 -0.739814786992E+00
 -0.158811787973E+01  0.000000000000E+00 -0.125000000000E+01 -0.600232012419E+00 -0.154800130438E+01 -0.250000000000E+01 -0.178862290564E+01
 -0.250000000000E+01 -0.250000000000E+01 -0.250000000000E+01 -0.250000000000E+01
  0.500000000000E+01  0.500000000000E+01  0.500000000000E+01  0.500000000000E+01  0.500000000000E+01  0.500000000000E+01  0.500000000000E+01
  0.500000000000E+01  0.500000000000E+01  0.500000000000E+01  0.500000000000E+01  0.500000000000E+01  0.500000000000E+01  0.500000000000E+01
  0.500000000000E+01  0.500000000000E+01  0.500000000000E+01  0.500000000000E+01  0.500000000000E+01  0.500000000000E+01  0.500000000000E+01
  0.500000000000E+01  0.500000000000E+01  0.500000000000E+01  0.500000000000E+01  0.500000000000E+01  0.500000000000E+01  0.500000000000E+01
  0.500000000000E+01  0.500000000000E+01  0.500000000000E+01  0.500000000000E+01
  0.488562428343E+00  0.488873127044E+00  0.490562939264E+00  0.492980744788E+00  0.486460936507E+00  0.484596927548E+00  0.485347896276E+00
  0.494163542317E+00  0.495346592024E+00  0.486528232758E+00  0.487819998460E+00  0.487068916091E+00  0.494045904395E+00  0.496127394917E+00
  0.487612357629E+00  0.483219722850E+00  0.492395510969E+00  0.487214141159E+00  0.494738985333E+00  0.487958525499E+00  0.489677249447E+00
  0.488029107105E+00  0.497246279768E+00  0.496059270892E+00  0.494951052257E+00  0.492800373677E+00  0.490002767114E+00  0.490005124553E+00
  0.491352304715E+00  0.486075475228E+00  0.490036479234E+00  0.495098264817E+00
  0.100215267510E+01  0.100152652958E+01  0.100178347660E+01  0.100047670023E+01  0.100126820231E+01  0.100066573360E+01  0.100025357725E+01
  0.100050391679E+01  0.100179336279E+01  0.100112367258E+01  0.100133045248E+01  0.100072432973E+01  0.100164366725E+01  0.100168844809E+01
  0.100096274503E+01  0.100000874853E+01  0.100082864314E+01  0.100022269190E+01  0.100062146074E+01  0.100023497311E+01  0.100174635719E+01
  0.100098855496E+01  0.100118726928E+01  0.100134171022E+01  0.100132635956E+01  0.100179873777E+01  0.100192656835E+01  0.100163748619E+01
  0.100045434508E+01  0.100058774183E+01  0.100109993754E+01  0.100176112495E+01
 -0.450924970248E-02 -0.437693074009E-02 -0.450605699732E-02 -0.521208044263E-03 -0.421020340342E-02 -0.227710562457E-02 -0.158333066051E-02
 -0.518489557265E-03 -0.599703060380E-02 -0.349449276381E-02 -0.471568091208E-02 -0.329520931526E-02 -0.551025275661E-02 -0.620748209981E-02
 -0.372974177913E-02 -0.153752875328E-02 -0.588368466023E-03 -0.195155857371E-02 -0.482445660267E-03 -0.194396956740E-02 -0.583837785698E-02
 -0.353074703442E-02 -0.686171975383E-02 -0.608847785858E-02 -0.640652558536E-02 -0.515834812249E-02 -0.517095373794E-02 -0.545501684270E-02
 -0.604954734720E-03 -0.234293792730E-02 -0.452612386966E-02 -0.573072770090E-02