title="tecplot geometry and solution file"
variables = x y z mach temperature lambda1 lambda2 lambda3 lambda4 lambda5
zone t="boundary 1 bc-1", solutiontime= 0.5000000E+02, strandid=1001, i=32, j=46, f=feblock
  0.000000000000E+00  0.000000000000E+00  0.000000000000E+00  0.000000000000E+00  0.000000000000E+00  0.000000000000E+00  0.000000000000E+00
  0.000000000000E+00  0.000000000000E+00  0.000000000000E+00  0.000000000000E+00  0.000000000000E+00  0.000000000000E+00  0.000000000000E+00
  0.000000000000E+00  0.000000000000E+00  0.000000000000E+00  0.000000000000E+00  0.000000000000E+00  0.000000000000E+00  0.000000000000E+00
  0.000000000000E+00  0.000000000000E+00  0.000000000000E+00  0.000000000000E+00  0.000000000000E+00  0.000000000000E+00  0.000000000000E+00
  0.000000000000E+00  0.000000000000E+00  0.000000000000E+00  0.000000000000E+00
  0.250000000000E+01  0.250000000000E+01  0.125000000000E+01  0.146289271009E+01  0.157686156160E+01  0.308372018325E+00  0.000000000000E+00
 -0.125000000000E+01 -0.600232012419E+00  0.250000000000E+01  0.477386199275E+00  0.742988685424E+00 -0.739814786992E+00  0.177790177481E+01
  0.155830813274E+01  0.250000000000E+01 -0.250000000000E+01 -0.154800130438E+01 -0.487811078581E+00  0.250000000000E+01  0.627766083140E+00
 -0.345533899378E+00 -0.178862290564E+01 -0.158811787973E+01  0.125000000000E+01 -0.250000000000E+01 -0.144524380962E+01  0.000000000000E+00
 -0.125000000000E+01 -0.250000000000E+01 -0.250000000000E+01 -0.250000000000E+01
  0.000000000000E+00  0.125000000000E+01  0.000000000000E+00  0.103724302461E+01  0.219251206392E+01  0.922061490191E+00  0.000000000000E+00
  0.000000000000E+00  0.715990576545E+00  0.250000000000E+01  0.202479342020E+01  0.324151231464E+01  0.175434191980E+01  0.310152362409E+01
  0.404200324774E+01  0.375000000000E+01  0.000000000000E+00  0.930412228790E+00  0.299062775774E+01  0.500000000000E+01  0.429310310915E+01
  0.409252726285E+01  0.187029682677E+01  0.284428995242E+01  0.500000000000E+01  0.125000000000E+01  0.394624082883E+01  0.500000000000E+01
  0.500000000000E+01  0.250000000000E+01  0.375000000000E+01  0.500000000000E+01
  0.000000000000E+00  0.441238348384E+00  0.000000000000E+00  0.475214987021E+00  0.460123708856E+00  0.468827815405E+00  0.000000000000E+00
  0.000000000000E+00  0.402302516798E+00  0.469814974359E+00  0.464411128942E+00  0.478714034184E+00  0.489298241651E+00  0.483068557888E+00
  0.487930073118E+00  0.488961654628E+00  0.000000000000E+00  0.464775721414E+00  0.473795651891E+00  0.495346592024E+00  0.490266103446E+00
  0.486286083902E+00  0.445717618051E+00  0.464382274634E+00  0.496127394917E+00  0.443624103833E+00  0.486964461957E+00  0.497246279768E+00
  0.496059270892E+00  0.467732355362E+00  0.488212087362E+00  0.495098264817E+00
  0.999990295028E+00  0.102982719499E+01  0.999990757903E+00  0.104247294232E+01  0.101190080524E+01  0.102520618293E+01  0.999991416700E+00
  0.999992168096E+00  0.103891223624E+01  0.100826277309E+01  0.101252833877E+01  0.100300548289E+01  0.102702865700E+01  0.100605563290E+01
  0.100244400478E+01  0.100355660048E+01  0.999992721792E+00  0.103239739214E+01  0.100459524090E+01  0.100179336279E+01  0.100260305842E+01
  0.100234966417E+01  0.101657153079E+01  0.100617544692E+01  0.100168844809E+01  0.104043292670E+01  0.100303376377E+01  0.100118726928E+01
  0.100134171022E+01  0.100976788415E+01  0.100405369352E+01  0.100176112495E+01
  0.955881596982E-03  0.510687802382E-02  0.111037663386E-02  0.808618305091E-02  0.573303694856E-03  0.101159496628E-01  0.878790190653E-03
  0.410952181309E-03  0.993662981470E-02 -0.297963682610E-03  0.670239313050E-03 -0.117619286306E-02  0.688224644901E-03 -0.636778568644E-03
 -0.161751443235E-02 -0.160606574490E-02  0.690154088634E-03  0.782006978545E-02 -0.927460757331E-03 -0.599703097620E-02 -0.211706281578E-02
 -0.140919205329E-02  0.153766106949E-03 -0.832309831296E-03 -0.620748288934E-02  0.468403595453E-02 -0.109871844015E-02 -0.686172107299E-02
 -0.608847822811E-02 -0.736376342344E-03 -0.119060332818E-02 -0.573072802679E-02
  0.503033220616E-04  0.739890736872E-03  0.683430108037E-04  0.103934450372E-02  0.268017367128E-04  0.152050488058E-02  0.723029337263E-04
  0.677259876510E-04  0.144710919882E-02 -0.134544188577E-03  0.594311046503E-04 -0.248024528878E-03 -0.119540127529E-04 -0.189945600175E-03
 -0.318453230283E-03 -0.353420593807E-03  0.540880517522E-04  0.119970749515E-02 -0.180692336943E-03 -0.123218530955E-02 -0.421480238620E-03
 -0.270078437254E-03 -0.693366588107E-04 -0.155692705230E-03 -0.130016355222E-02  0.565542141958E-03 -0.215059787309E-03 -0.144263510879E-02
 -0.127533023012E-02 -0.171040346948E-03 -0.252629970007E-03 -0.119425465907E-02
  0.581191341096E-04  0.205532480771E-04  0.806543588274E-04  0.202522678918E-03  0.262814354989E-04  0.107749341298E-03  0.630937771493E-04
 -0.364090254079E-04  0.193241169721E-04 -0.205669352794E-05  0.397881098685E-04  0.288754340095E-04  0.133617225145E-04  0.686020114785E-05
 -0.508360875972E-05 -0.494177725810E-06 -0.494544580490E-04 -0.111919781968E-03  0.157532792335E-04  0.439809561968E-06 -0.128371938309E-06
 -0.742059514094E-06  0.113617923221E-04 -0.129401395721E-04  0.194238255394E-04 -0.196918563768E-04 -0.104083926731E-04  0.243970274132E-05
 -0.888833432909E-05 -0.398608960868E-05 -0.184879444880E-05  0.117344828090E-05
 -0.240772841402E-03 -0.199260847583E-03 -0.266624252333E-03 -0.123253883028E-05  0.239664789900E-03  0.243383982778E-03 -0.151984896657E-03
 -0.155572976170E-03  0.105174086846E-03  0.265311928831E-03  0.489473589461E-03  0.275458424853E-03  0.570203630975E-03  0.252594048278E-03
  0.188928337700E-03  0.219320463608E-03 -0.122998094897E-03  0.184666437247E-03  0.326684389138E-03  0.804987475381E-04  0.177764963458E-03
  0.214898943273E-03  0.429211683548E-03  0.276289889543E-03  0.776399007161E-04  0.225364208982E-03  0.202288881437E-03  0.735824399441E-04
  0.891346673706E-04  0.318132657765E-03  0.207375185954E-03  0.885313860974E-04
 -0.726233626101E-03 -0.210589215843E-02 -0.103417366249E-02 -0.324191536434E-02 -0.240787455437E-03 -0.418778174251E-02  0.323879124290E-05
  0.125531051866E-03 -0.408952774818E-02  0.117739182108E-03 -0.293675448647E-03  0.458915800049E-03 -0.289075798779E-03  0.249770872505E-03
  0.646038929497E-03  0.647516420226E-03 -0.196973361138E-03 -0.325032359620E-02  0.344702177304E-03  0.248996066136E-02  0.855090460015E-03
  0.557070314519E-03 -0.826815330085E-04  0.300744209252E-03  0.258184034424E-02 -0.189572781569E-02  0.427810327642E-03  0.286229790559E-02
  0.253394123714E-02  0.273751762466E-03  0.472491427179E-03  0.237879293701E-02
        12        19        11        11
        11         5        12        12
        10        14         5         5
        19        13        11        11
        19        24        13        13
        30        23        24        24
        19        12        22        22
        28        22        21        21
        11        13         6         6
         7         6         9         9
        15        12        14        14
        18        13        23        23
        15        25        21        21
        27        19        22        22
        18         8         9         9
        27        31        24        24
         4        11         6         6
         5        14        12        12
         4         2         5         5
        21        12        15        15
        14        16        15        15
        24        19        27        27
        22        29        27        27
        23        26        18        18
        17         8        18        18
         5        11         4         4
         6         3         4         4
        26        23        30        30
         5         2        10        10
        16        14        10        10
         3         6         7         7
        21        25        28        28
        29        22        28        28
         6        13         9         9
         2         4         1         1
        31        27        32        32
        25        15        20        20
        24        23        13        13
         8         7         9         9
        13        18         9         9
        31        30        24        24
        12        21        22        22
        29        32        27        27
         3         1         4         4
        26        17        18        18
        16        20        15        15
zone t="boundary 2 bc-2", solutiontime= 0.5000000E+02, strandid=1002, i=33, j=48, f=feblock
  0.500000000000E+01  0.375000000000E+01  0.250000000000E+01  0.288078410721E+01  0.125000000000E+01  0.190974100652E+01  0.326683758169E+01
  0.201431602454E+01  0.000000000000E+00  0.963108083381E+00  0.500000000000E+01  0.403552511878E+01  0.423153924130E+01  0.500000000000E+01
  0.385533350601E+01  0.500000000000E+01  0.398173246726E+01  0.315249557942E+01  0.267000324704E+01  0.154774304040E+01  0.218329375016E+01
  0.893127759452E+00  0.000000000000E+00  0.698517061619E+00  0.964171764089E+00  0.310324758057E+01  0.000000000000E+00  0.000000000000E+00
  0.125000000000E+01  0.500000000000E+01  0.375000000000E+01  0.250000000000E+01  0.000000000000E+00
 -0.250000000000E+01 -0.250000000000E+01 -0.250000000000E+01 -0.250000000000E+01 -0.250000000000E+01 -0.250000000000E+01 -0.250000000000E+01
 -0.250000000000E+01 -0.250000000000E+01 -0.250000000000E+01 -0.250000000000E+01 -0.250000000000E+01 -0.250000000000E+01 -0.250000000000E+01
 -0.250000000000E+01 -0.250000000000E+01 -0.250000000000E+01 -0.250000000000E+01 -0.250000000000E+01 -0.250000000000E+01 -0.250000000000E+01
 -0.250000000000E+01 -0.250000000000E+01 -0.250000000000E+01 -0.250000000000E+01 -0.250000000000E+01 -0.250000000000E+01 -0.250000000000E+01
 -0.250000000000E+01 -0.250000000000E+01 -0.250000000000E+01 -0.250000000000E+01 -0.250000000000E+01
  0.000000000000E+00  0.000000000000E+00  0.000000000000E+00  0.904659890645E+00  0.000000000000E+00  0.717002441913E+00  0.188609243358E+01
  0.176246431481E+01  0.000000000000E+00  0.961328577125E+00  0.125000000000E+01  0.101201586758E+01  0.191586535653E+01  0.250000000000E+01
  0.293121848150E+01  0.375000000000E+01  0.406975391361E+01  0.363585050272E+01  0.285047954584E+01  0.292817774674E+01  0.395907379566E+01
  0.205246550326E+01  0.125000000000E+01  0.306828197606E+01  0.397245519226E+01  0.433168271247E+01  0.250000000000E+01  0.375000000000E+01
  0.500000000000E+01  0.500000000000E+01  0.500000000000E+01  0.500000000000E+01  0.500000000000E+01
  0.000000000000E+00  0.000000000000E+00  0.000000000000E+00  0.380991906500E+00  0.000000000000E+00  0.343629824950E+00  0.585286157424E+00
  0.579373264282E+00  0.000000000000E+00  0.501056069140E+00  0.508460362676E+00  0.435373026572E+00  0.572640041190E+00  0.537002098944E+00
  0.568922553870E+00  0.514994090651E+00  0.508247257160E+00  0.527252853130E+00  0.567446661127E+00  0.531657143909E+00  0.505981016593E+00
  0.520795579399E+00  0.443624103833E+00  0.490663730453E+00  0.492155873749E+00  0.501390784676E+00  0.467732355362E+00  0.488212087362E+00
  0.490002767114E+00  0.491352304715E+00  0.486075475228E+00  0.490036479234E+00  0.495098264817E+00
  0.999993487379E+00  0.999993690057E+00  0.999993543115E+00  0.989539055875E+00  0.999993137282E+00  0.985524707174E+00  0.989838908967E+00
  0.991798516580E+00  0.999992721792E+00  0.984411112416E+00  0.985091906406E+00  0.984689080896E+00  0.990058464829E+00  0.100289621837E+01
  0.999855369243E+00  0.100485306649E+01  0.100121554699E+01  0.100055642931E+01  0.997896793475E+00  0.100350029570E+01  0.100058068723E+01
  0.101093276247E+01  0.104043292670E+01  0.100326475367E+01  0.100254498742E+01  0.100045587387E+01  0.100976788415E+01  0.100405369352E+01
  0.100192656835E+01  0.100045434508E+01  0.100058774183E+01  0.100109993754E+01  0.100176112495E+01
 -0.376253421922E-03 -0.355559209363E-03 -0.393993431484E-03  0.174857774266E-02  0.452236327782E-03  0.143303933975E-01 -0.824086939881E-03
 -0.459307191912E-03  0.690154088634E-03  0.688229353071E-02 -0.110245045539E-02 -0.107758359728E-02 -0.900275302772E-03 -0.745612288004E-03
 -0.572890152583E-03 -0.515908015583E-03 -0.383691136139E-03 -0.439698929238E-03 -0.630434252214E-03 -0.788441417685E-03 -0.574657212441E-03
  0.337727659898E-04  0.468403595453E-02 -0.573867206575E-03 -0.104291535998E-02 -0.701659920780E-03 -0.736376342344E-03 -0.119060332818E-02
 -0.517095391441E-02 -0.604954742922E-03 -0.234293793480E-02 -0.452612385822E-02 -0.573072802679E-02
  0.997507830040E-04 -0.792006106596E-05  0.110382616683E-04  0.489504205645E-03 -0.109656712146E-03  0.192072834470E-02  0.829945962387E-04
 -0.883724246002E-04  0.540880517522E-04  0.828198060971E-03  0.242341032412E-03  0.815525485994E-04  0.142911906580E-03  0.192141201633E-03
  0.143118857333E-03  0.121454199300E-03  0.151191641921E-03  0.133256574470E-03  0.975202283050E-04 -0.300720656927E-04  0.602750344576E-04
 -0.880246901193E-04  0.565542141958E-03 -0.229555193094E-04 -0.113050022014E-03  0.784156325595E-04 -0.171040346948E-03 -0.252629970007E-03
 -0.929996882602E-03  0.312320990387E-04 -0.233521338634E-03 -0.701402650101E-03 -0.119425465907E-02
 -0.210272804160E-04  0.486958165392E-05  0.347289270852E-04  0.673047481204E-04  0.205827105133E-04  0.197106820973E-03 -0.635674443318E-05
 -0.403393043230E-06 -0.494544580490E-04  0.914774618327E-04 -0.138624256836E-04 -0.337939969399E-04 -0.199471378363E-06  0.137901259353E-05
  0.585665128306E-06 -0.213945359059E-05  0.588905381109E-06 -0.188161272705E-05 -0.422876111938E-06  0.402685404876E-05 -0.274824982484E-05
  0.654327773924E-05 -0.196918563768E-04  0.208832267024E-06 -0.554506612834E-06 -0.955159580642E-06 -0.398608960868E-05 -0.184879444880E-05
 -0.235803939047E-06 -0.395028532395E-06 -0.632047724914E-08  0.422659053174E-06  0.117344828090E-05
 -0.356826264040E-04 -0.190362356188E-04 -0.412514934133E-04  0.201882049460E-03 -0.138611280196E-03  0.137128267114E-03  0.214294147238E-03
  0.370609264652E-03 -0.122998094897E-03  0.230907740035E-03  0.340348135180E-04  0.112772939761E-03  0.887930960780E-04  0.438120990031E-04
  0.107064741954E-03  0.396620557582E-04  0.109207689853E-03  0.160761564838E-03  0.185740778212E-03  0.202390683042E-03  0.187836117633E-03
  0.334810912376E-03  0.225364208982E-03  0.220214597578E-03  0.189895433726E-03  0.159557381487E-03  0.318132657765E-03  0.207375185954E-03
  0.125357165737E-03  0.645239919978E-04  0.142210234628E-03  0.155595169873E-03  0.885313860974E-04
  0.101896843024E-03  0.192231890700E-03  0.490051702876E-03 -0.907984342431E-03  0.103704452095E-02 -0.622139915464E-02  0.209769419940E-03
  0.147441124751E-03 -0.196973361138E-03 -0.286534903858E-02  0.241306945481E-03  0.288922166117E-03  0.218194513680E-03  0.142167955967E-03
  0.108892319404E-03  0.103992412066E-03  0.510851661697E-04  0.752176722255E-04  0.147590579797E-03  0.253632465116E-03  0.150250132332E-03
 -0.242585729691E-04 -0.189572781569E-02  0.179679502600E-03  0.377155697018E-03  0.189552555202E-03  0.273751762466E-03  0.472491427179E-03
  0.210077781373E-02  0.182513081853E-03  0.878710281302E-03  0.179904804906E-02  0.237879293701E-02
        15         7        19        19
         8        20        19        19
        18        19        21        21
         7         4         8         8
         3         6         4         4
        19         7         8         8
        19        18        15        15
        14        13        15        15
         8        22        20        20
        27        24        22        22
        19        20        21        21
        32        26        21        21
        17        18        26        26
        17        16        15        15
        25        29        21        21
        12         7        13        13
        10         8         6         6
        25        20        24        24
         4         6         8         8
        12         2         4         4
        10        23        22        22
        26        31        17        17
        30        16        17        17
         4         7        12        12
        13        11        12        12
        21        20        25        25
        24        28        25        25
        22         8        10        10
         6         5        10        10
        31        26        32        32
         4         2         3         3
         5         6         3         3
        11        13        14        14
        22        23        27        27
        28        24        27        27
        15        13         7         7
         2        12         1         1
        29        25        33        33
        23        10         9         9
        21        26        18        18
        16        14        15        15
        18        17        15        15
        29        32        21        21
        22        24        20        20
        28        33        25        25
        11         1        12        12
        31        30        17        17
         5         9        10        10
zone t="boundary 3 bc-3", solutiontime= 0.5000000E+02, strandid=1003, i=33, j=48, f=feblock
  0.375000000000E+01  0.250000000000E+01  0.500000000000E+01  0.403552511878E+01  0.288078410721E+01  0.125000000000E+01  0.190974100652E+01
  0.500000000000E+01  0.326683758169E+01  0.423153924130E+01  0.201431602454E+01  0.000000000000E+00  0.963108083381E+00  0.500000000000E+01
  0.267000324704E+01  0.385533350601E+01  0.893127759452E+00  0.154774304040E+01  0.000000000000E+00  0.500000000000E+01  0.315249557942E+01
  0.218329375016E+01  0.398173246726E+01  0.000000000000E+00  0.698517061619E+00  0.964171764089E+00  0.125000000000E+01  0.000000000000E+00
  0.500000000000E+01  0.310324758057E+01  0.250000000000E+01  0.375000000000E+01  0.000000000000E+00
  0.250000000000E+01  0.250000000000E+01  0.250000000000E+01  0.250000000000E+01  0.250000000000E+01  0.250000000000E+01  0.250000000000E+01
  0.250000000000E+01  0.250000000000E+01  0.250000000000E+01  0.250000000000E+01  0.250000000000E+01  0.250000000000E+01  0.250000000000E+01
  0.250000000000E+01  0.250000000000E+01  0.250000000000E+01  0.250000000000E+01  0.250000000000E+01  0.250000000000E+01  0.250000000000E+01
  0.250000000000E+01  0.250000000000E+01  0.250000000000E+01  0.250000000000E+01  0.250000000000E+01  0.250000000000E+01  0.250000000000E+01
  0.250000000000E+01  0.250000000000E+01  0.250000000000E+01  0.250000000000E+01  0.250000000000E+01
  0.000000000000E+00  0.000000000000E+00  0.000000000000E+00  0.101201586758E+01  0.904659890645E+00  0.000000000000E+00  0.717002441913E+00
  0.125000000000E+01  0.188609243358E+01  0.191586535653E+01  0.176246431481E+01  0.000000000000E+00  0.961328577125E+00  0.250000000000E+01
  0.285047954584E+01  0.293121848150E+01  0.205246550326E+01  0.292817774674E+01  0.125000000000E+01  0.375000000000E+01  0.363585050272E+01
  0.395907379566E+01  0.406975391361E+01  0.250000000000E+01  0.306828197606E+01  0.397245519226E+01  0.500000000000E+01  0.375000000000E+01
  0.500000000000E+01  0.433168271247E+01  0.500000000000E+01  0.500000000000E+01  0.500000000000E+01
  0.000000000000E+00  0.000000000000E+00  0.000000000000E+00  0.443767745459E+00  0.402286944574E+00  0.000000000000E+00  0.377550369545E+00
  0.509232128688E+00  0.575832179754E+00  0.573707405285E+00  0.562554064412E+00  0.000000000000E+00  0.490563299840E+00  0.534527096543E+00
  0.556586982170E+00  0.564391577749E+00  0.522730517385E+00  0.522052000170E+00  0.441238348384E+00  0.517182331791E+00  0.524228630763E+00
  0.503687457534E+00  0.509488571178E+00  0.469814974359E+00  0.495614442414E+00  0.494483780212E+00  0.488562428343E+00  0.488961654628E+00
  0.492980744788E+00  0.499005552222E+00  0.486460936507E+00  0.484596927548E+00  0.495346592024E+00
  0.999989339439E+00  0.999989408764E+00  0.999989626853E+00  0.981541895460E+00  0.988773990194E+00  0.999989827144E+00  0.982469462434E+00
  0.984104309047E+00  0.990427545862E+00  0.990355285694E+00  0.994362997073E+00  0.999990295028E+00  0.988652071037E+00  0.100368369414E+01
  0.999769197113E+00  0.100118501219E+01  0.100834885320E+01  0.100252111043E+01  0.102982719499E+01  0.100443319461E+01  0.100199536635E+01
  0.100082056599E+01  0.100138192342E+01  0.100826277309E+01  0.100298787130E+01  0.100192389555E+01  0.100215267510E+01  0.100355660048E+01
  0.100047670023E+01  0.100056591053E+01  0.100126820231E+01  0.100066573360E+01  0.100179336279E+01
 -0.305412550322E-03  0.132307388977E-03 -0.476667361329E-03  0.185148615642E-02  0.878067918052E-02  0.685313466817E-03  0.109940558854E-01
 -0.159454498097E-02 -0.914909184977E-03 -0.103454324996E-02  0.126660842506E-02  0.955881596982E-03  0.717784080100E-02 -0.799539116678E-03
 -0.890383033827E-03 -0.658884748299E-03  0.186636302510E-03 -0.907765673626E-03  0.510687802382E-02 -0.548949369032E-03 -0.407512474929E-03
 -0.541895231235E-03 -0.419374718472E-03 -0.297963682610E-03 -0.759274405769E-03 -0.146044613341E-02 -0.450924979351E-02 -0.160606574490E-02
 -0.521208052247E-03 -0.643510002477E-03 -0.421020344569E-02 -0.227710560367E-02 -0.599703097620E-02
 -0.583378864678E-04 -0.637798630514E-04  0.115594811498E-03  0.605570302531E-03  0.124811884412E-02 -0.138236875317E-03  0.137397607639E-02
  0.276132561364E-03 -0.100121642560E-04  0.149420185166E-03 -0.356323930774E-04  0.503033220616E-04  0.536653557495E-03  0.209138597631E-03
  0.198875701729E-06  0.114466745750E-03 -0.197645240829E-03 -0.986291395700E-04  0.739890736872E-03  0.134642307631E-03  0.120697899545E-03
  0.670093184295E-04  0.138567990682E-03 -0.134544188577E-03 -0.176223427296E-03 -0.185055782791E-03 -0.798750169039E-03 -0.353420593807E-03
  0.477949365336E-04  0.786007095297E-04 -0.649516952091E-03 -0.224640172713E-03 -0.123218530955E-02
 -0.110060220206E-04  0.389875795574E-05  0.205007337342E-04 -0.281216225199E-04 -0.109859535463E-03  0.444830768970E-04 -0.282174295382E-04
  0.223658538695E-05 -0.130427756752E-04  0.437460666559E-05 -0.466207635100E-05  0.581191341096E-04  0.548250707947E-04  0.575220627916E-05
 -0.515050179026E-06  0.904686758550E-06 -0.258243421982E-04 -0.103677982332E-04  0.205532480771E-04  0.335885726571E-05  0.135144191002E-05
  0.792890626691E-05  0.840140967212E-07 -0.205669352794E-05 -0.554240023739E-05  0.288854727313E-05  0.286498718480E-05 -0.494177725810E-06
  0.118988796931E-05 -0.586671486947E-07  0.656087127691E-06 -0.143848240595E-06  0.439809561968E-06
 -0.638979973069E-04 -0.145910331355E-03 -0.404962720986E-04  0.106453869750E-03  0.179543752650E-03 -0.149297562708E-03  0.637940060369E-04
  0.557833882164E-04  0.308287117846E-03  0.153620520333E-03  0.476247835312E-03 -0.240772841402E-03  0.143547658559E-03  0.628581600319E-04
  0.170525521479E-03  0.140733371588E-03  0.396018242694E-03  0.179653878150E-03 -0.199260847583E-03  0.562151621423E-04  0.164970129653E-03
  0.172566439840E-03  0.122876538944E-03  0.265311928831E-03  0.256519049069E-03  0.175801531592E-03  0.128364768997E-03  0.219320463608E-03
  0.611159897533E-04  0.161033884484E-03  0.155514115869E-03  0.141172149653E-03  0.804987475381E-04
  0.984845586832E-03  0.615833777898E-03  0.204710640911E-03 -0.102761486339E-02 -0.382993380520E-02  0.779565220182E-04 -0.464744361382E-02
  0.396742496320E-03  0.282345684409E-03  0.262833907196E-03 -0.484877885565E-03 -0.726233626101E-03 -0.282590597772E-02  0.150605489690E-03
  0.274026176000E-03  0.147651813852E-03 -0.532164344754E-04  0.315970095358E-03 -0.210589215843E-02  0.107730150962E-03  0.669639723827E-04
  0.137214415349E-03  0.675352507965E-04  0.117739182108E-03  0.276636713755E-03  0.549713744323E-03  0.182274583008E-02  0.647516420226E-03
  0.147524701926E-03  0.169033103918E-03  0.166976400259E-02  0.851938754925E-03  0.248996066136E-02
        15         9        16        16
        15        18        11        11
        22        15        21        21
        11         5         9         9
         5         7         2         2
        11         9        15        15
        16        21        15        15
        16        10        14        14
        18        17        11        11
        17        25        24        24
        22        18        15        15
        22        30        31        31
        30        21        23        23
        16        20        23        23
        22        27        26        26
        10         9         4         4
         7        11        13        13
        25        18        26        26
        11         7         5         5
         5         1         4         4
        17        19        13        13
        23        32        30        30
        23        20        29        29
         4         9         5         5
         4         8        10        10
        26        18        22        22
        26        28        25        25
        13        11        17        17
        13         6         7         7
        31        30        32        32
         2         1         5         5
         2         7         6         6
        14        10         8         8
        24        19        17        17
        24        25        28        28
         9        10        16        16
         3         4         1         1
        33        26        27        27
        12        13        19        19
        21        30        22        22
        16        14        20        20
        16        23        21        21
        22        31        27        27
        18        25        17        17
        26        33        28        28
         4         3         8         8
        23        29        32        32
        13        12         6         6
zone t="boundary 4 bc-4", solutiontime= 0.5000000E+02, strandid=1004, i=32, j=46, f=feblock
  0.125000000000E+01  0.219251206392E+01  0.103724302461E+01  0.500000000000E+01  0.250000000000E+01  0.375000000000E+01  0.404200324774E+01
  0.500000000000E+01  0.000000000000E+00  0.310152362409E+01  0.202479342020E+01  0.324151231464E+01  0.922061490191E+00  0.000000000000E+00
  0.299062775774E+01  0.394624082883E+01  0.500000000000E+01  0.409252726285E+01  0.500000000000E+01  0.429310310915E+01  0.175434191980E+01
  0.284428995242E+01  0.000000000000E+00  0.000000000000E+00  0.715990576545E+00  0.930412228790E+00  0.125000000000E+01  0.187029682677E+01
  0.500000000000E+01  0.375000000000E+01  0.250000000000E+01  0.000000000000E+00
  0.250000000000E+01  0.157686156160E+01  0.146289271009E+01  0.250000000000E+01  0.250000000000E+01  0.250000000000E+01  0.155830813274E+01
  0.125000000000E+01  0.250000000000E+01  0.177790177481E+01  0.477386199275E+00  0.742988685424E+00  0.308372018325E+00  0.125000000000E+01
 -0.487811078581E+00 -0.144524380962E+01 -0.125000000000E+01 -0.345533899378E+00  0.000000000000E+00  0.627766083140E+00 -0.739814786992E+00
 -0.158811787973E+01  0.000000000000E+00 -0.125000000000E+01 -0.600232012419E+00 -0.154800130438E+01 -0.250000000000E+01 -0.178862290564E+01
 -0.250000000000E+01 -0.250000000000E+01 -0.250000000000E+01 -0.250000000000E+01
  0.500000000000E+01  0.500000000000E+01  0.500000000000E+01  0.500000000000E+01  0.500000000000E+01  0.500000000000E+01  0.500000000000E+01
  0.500000000000E+01  0.500000000000E+01  0.500000000000E+01  0.500000000000E+01  0.500000000000E+01  0.500000000000E+01  0.500000000000E+01
  0.500000000000E+01  0.500000000000E+01  0.500000000000E+01  0.500000000000E+01  0.500000000000E+01  0.500000000000E+01  0.500000000000E+01
  0.500000000000E+01  0.500000000000E+01  0.500000000000E+01  0.500000000000E+01  0.500000000000E+01  0.500000000000E+01  0.500000000000E+01
  0.500000000000E+01  0.500000000000E+01  0.500000000000E+01  0.500000000000E+01
  0.488562428343E+00  0.488873127044E+00  0.490562939264E+00  0.492980744788E+00  0.486460936507E+00  0.484596927548E+00  0.485347896276E+00
  0.494163542317E+00  0.495346592024E+00  0.486528232758E+00  0.487819998460E+00  0.487068916091E+00  0.494045904395E+00  0.496127394917E+00
  0.487612357629E+00  0.483219722850E+00  0.492395510969E+00  0.487214141159E+00  0.494738985333E+00  0.487958525499E+00  0.489677249447E+00
  0.488029107105E+00  0.497246279768E+00  0.496059270892E+00  0.494951052257E+00  0.492800373677E+00  0.490002767114E+00  0.490005124553E+00
  0.491352304715E+00  0.486075475228E+00  0.490036479234E+00  0.495098264817E+00
  0.100215267510E+01  0.100152652958E+01  0.100178347660E+01  0.100047670023E+01  0.100126820231E+01  0.100066573360E+01  0.100025357725E+01
  0.100050391679E+01  0.100179336279E+01  0.100112367258E+01  0.100133045248E+01  0.100072432973E+01  0.100164366725E+01  0.100168844809E+01
  0.100096274503E+01  0.100000874853E+01  0.100082864314E+01  0.100022269190E+01  0.100062146074E+01  0.100023497311E+01  0.100174635719E+01
  0.100098855496E+01  0.100118726928E+01  0.100134171022E+01  0.100132635956E+01  0.100179873777E+01  0.100192656835E+01  0.100163748619E+01
  0.100045434508E+01  0.100058774183E+01  0.100109993754E+01  0.100176112495E+01
 -0.450924979351E-02 -0.437693085201E-02 -0.450605708631E-02 -0.521208052247E-03 -0.421020344569E-02 -0.227710560367E-02 -0.158333064124E-02
 -0.518489564024E-03 -0.599703097620E-02 -0.349449284994E-02 -0.471568087524E-02 -0.329520939324E-02 -0.551025315315E-02 -0.620748288934E-02
 -0.372974190723E-02 -0.153752874231E-02 -0.588368470480E-03 -0.195155857279E-02 -0.482445659952E-03 -0.194396957991E-02 -0.583837804941E-02
 -0.353074714349E-02 -0.686172107299E-02 -0.608847822811E-02 -0.640652566276E-02 -0.515834818547E-02 -0.517095391441E-02 -0.545501700268E-02
 -0.604954742922E-03 -0.234293793480E-02 -0.452612385822E-02 -0.573072802679E-02