title="tecplot geometry and solution file"
variables = x y z mach temperature lambda1 lambda2 lambda3 lambda4 lambda5
zone t="boundary 1 bc-1", solutiontime= 0.3000000E+02, strandid=1001, i=32, j=46, f=feblock
  0.000000000000E+00  0.000000000000E+00  0.000000000000E+00  0.000000000000E+00  0.000000000000E+00  0.000000000000E+00  0.000000000000E+00
  0.000000000000E+00  0.000000000000E+00  0.000000000000E+00  0.000000000000E+00  0.000000000000E+00  0.000000000000E+00  0.000000000000E+00
  0.000000000000E+00  0.000000000000E+00  0.000000000000E+00  0.000000000000E+00  0.000000000000E+00  0.000000000000E+00  0.000000000000E+00
  0.000000000000E+00  0.000000000000E+00  0.000000000000E+00  0.000000000000E+00  0.000000000000E+00  0.000000000000E+00  0.000000000000E+00
  0.000000000000E+00  0.000000000000E+00  0.000000000000E+00  0.000000000000E+00
  0.250000000000E+01  0.250000000000E+01  0.125000000000E+01  0.146289271009E+01  0.157686156160E+01  0.308372018325E+00  0.000000000000E+00
 -0.125000000000E+01 -0.600232012419E+00  0.250000000000E+01  0.477386199275E+00  0.742988685424E+00 -0.739814786992E+00  0.177790177481E+01
  0.155830813274E+01  0.250000000000E+01 -0.250000000000E+01 -0.154800130438E+01 -0.487811078581E+00  0.250000000000E+01  0.627766083140E+00
 -0.345533899378E+00 -0.178862290564E+01 -0.158811787973E+01  0.125000000000E+01 -0.250000000000E+01 -0.144524380962E+01  0.000000000000E+00
 -0.125000000000E+01 -0.250000000000E+01 -0.250000000000E+01 -0.250000000000E+01
  0.000000000000E+00  0.125000000000E+01  0.000000000000E+00  0.103724302461E+01  0.219251206392E+01  0.922061490191E+00  0.000000000000E+00
  0.000000000000E+00  0.715990576545E+00  0.250000000000E+01  0.202479342020E+01  0.324151231464E+01  0.175434191980E+01  0.310152362409E+01
  0.404200324774E+01  0.375000000000E+01  0.000000000000E+00  0.930412228790E+00  0.299062775774E+01  0.500000000000E+01  0.429310310915E+01
  0.409252726285E+01  0.187029682677E+01  0.284428995242E+01  0.500000000000E+01  0.125000000000E+01  0.394624082883E+01  0.500000000000E+01
  0.500000000000E+01  0.250000000000E+01  0.375000000000E+01  0.500000000000E+01
  0.000000000000E+00  0.441238348384E+00  0.000000000000E+00  0.475214987021E+00  0.460123708856E+00  0.468827815405E+00  0.000000000000E+00
  0.000000000000E+00  0.402302516798E+00  0.469814974359E+00  0.464411128942E+00  0.478714034184E+00  0.489298241651E+00  0.483068557888E+00
  0.487930073118E+00  0.488961654628E+00  0.000000000000E+00  0.464775721414E+00  0.473795651891E+00  0.495346592024E+00  0.490266103446E+00
  0.486286083902E+00  0.445717618051E+00  0.464382274634E+00  0.496127394917E+00  0.443624103833E+00  0.486964461957E+00  0.497246279768E+00
  0.496059270892E+00  0.467732355362E+00  0.488212087362E+00  0.495098264817E+00
  0.999990295028E+00  0.102982719499E+01  0.999990757903E+00  0.104247294232E+01  0.101190080524E+01  0.102520618293E+01  0.999991416700E+00
  0.999992168096E+00  0.103891223624E+01  0.100826277309E+01  0.101252833877E+01  0.100300548289E+01  0.102702865700E+01  0.100605563290E+01
  0.100244400478E+01  0.100355660048E+01  0.999992721792E+00  0.103239739214E+01  0.100459524090E+01  0.100179336279E+01  0.100260305842E+01
  0.100234966417E+01  0.101657153079E+01  0.100617544692E+01  0.100168844809E+01  0.104043292670E+01  0.100303376377E+01  0.100118726928E+01
  0.100134171022E+01  0.100976788415E+01  0.100405369352E+01  0.100176112495E+01
  0.955873353778E-03  0.510667589184E-02  0.111041399334E-02  0.808609332966E-02  0.573280872398E-03  0.101162758388E-01  0.878823473489E-03
  0.410950148082E-03  0.993668482971E-02 -0.297875150647E-03  0.670064805404E-03 -0.117594121192E-02  0.687914895384E-03 -0.636665822686E-03
 -0.161767077610E-02 -0.160578369159E-02  0.690151627339E-03  0.781991778797E-02 -0.927313421400E-03 -0.599713297985E-02 -0.211726560797E-02
 -0.140870556112E-02  0.153849984099E-03 -0.832344647331E-03 -0.620749444404E-02  0.468424824555E-02 -0.109868443167E-02 -0.686198307533E-02
 -0.608890643502E-02 -0.736308536832E-03 -0.119057016224E-02 -0.573073954396E-02
  0.503036660658E-04  0.739846669153E-03  0.683420557266E-04  0.103931710145E-02  0.267959252821E-04  0.152056361717E-02  0.723048000207E-04
  0.677245440482E-04  0.144711248694E-02 -0.134530806182E-03  0.594066365147E-04 -0.247973109706E-03 -0.120161288119E-04 -0.189932261307E-03
 -0.318538758036E-03 -0.353377784125E-03  0.540878331904E-04  0.119967815564E-02 -0.180656016175E-03 -0.123213039952E-02 -0.421570569735E-03
 -0.270006324819E-03 -0.693223340671E-04 -0.155707560048E-03 -0.130010859441E-02  0.565580250161E-03 -0.215082148612E-03 -0.144261004606E-02
 -0.127538566225E-02 -0.171026251670E-03 -0.252635090218E-03 -0.119422243054E-02
  0.581147898062E-04  0.205521526586E-04  0.806497341711E-04  0.202496943710E-03  0.262773974593E-04  0.107744873504E-03  0.630983381800E-04
 -0.364062235348E-04  0.193217985379E-04 -0.205758886368E-05  0.397806926805E-04  0.288926681240E-04  0.133662927108E-04  0.686066055904E-05
 -0.508819182832E-05 -0.495413991047E-06 -0.494542720010E-04 -0.111909114043E-03  0.157584589721E-04  0.438518872161E-06 -0.110478698627E-06
 -0.723909026702E-06  0.113688421494E-04 -0.129338226352E-04  0.194105457856E-04 -0.196915109018E-04 -0.103981854331E-04  0.239429533045E-05
 -0.891792404394E-05 -0.398639373595E-05 -0.184901783649E-05  0.117342514659E-05
 -0.240771762078E-03 -0.199274350714E-03 -0.266633288803E-03 -0.125861030139E-05  0.239643635886E-03  0.243377688465E-03 -0.151990168635E-03
 -0.155571260638E-03  0.105170262346E-03  0.265305011347E-03  0.489485325635E-03  0.275454397811E-03  0.570211100222E-03  0.252591529340E-03
  0.188941235607E-03  0.219353511251E-03 -0.122997093840E-03  0.184669850663E-03  0.326686750143E-03  0.804822657834E-04  0.177783829205E-03
  0.214923092590E-03  0.429208631548E-03  0.276287704887E-03  0.776255552527E-04  0.225367931237E-03  0.202283001234E-03  0.735690172202E-04
  0.891310480380E-04  0.318127686265E-03  0.207377782357E-03  0.885252148755E-04
 -0.726224608887E-03 -0.210580624900E-02 -0.103421557669E-02 -0.324187548734E-02 -0.240776377390E-03 -0.418791425500E-02  0.322282927859E-05
  0.125534458759E-03 -0.408954744297E-02  0.117703937515E-03 -0.293602552093E-03  0.458810433392E-03 -0.288945771587E-03  0.249726804580E-03
  0.646116943155E-03  0.647398144780E-03 -0.196971050692E-03 -0.325025957621E-02  0.344639338992E-03  0.248999441132E-02  0.855186811330E-03
  0.556870021031E-03 -0.827163371904E-04  0.300759094720E-03  0.258183877997E-02 -0.189581440370E-02  0.427801125041E-03  0.286239935251E-02
  0.253411883270E-02  0.273723876942E-03  0.472478855465E-03  0.237879466874E-02
        12        19        11        11
        11         5        12        12
        10        14         5         5
        19        13        11        11
        19        24        13        13
        30        23        24        24
        19        12        22        22
        28        22        21        21
        11        13         6         6
         7         6         9         9
        15        12        14        14
        18        13        23        23
        15        25        21        21
        27        19        22        22
        18         8         9         9
        27        31        24        24
         4        11         6         6
         5        14        12        12
         4         2         5         5
        21        12        15        15
        14        16        15        15
        24        19        27        27
        22        29        27        27
        23        26        18        18
        17         8        18        18
         5        11         4         4
         6         3         4         4
        26        23        30        30
         5         2        10        10
        16        14        10        10
         3         6         7         7
        21        25        28        28
        29        22        28        28
         6        13         9         9
         2         4         1         1
        31        27        32        32
        25        15        20        20
        24        23        13        13
         8         7         9         9
        13        18         9         9
        31        30        24        24
        12        21        22        22
        29        32        27        27
         3         1         4         4
        26        17        18        18
        16        20        15        15
zone t="boundary 2 bc-2", solutiontime= 0.3000000E+02, strandid=1002, i=33, j=48, f=feblock
  0.500000000000E+01  0.375000000000E+01  0.250000000000E+01  0.288078410721E+01  0.125000000000E+01  0.190974100652E+01  0.326683758169E+01
  0.201431602454E+01  0.000000000000E+00  0.963108083381E+00  0.500000000000E+01  0.403552511878E+01  0.423153924130E+01  0.500000000000E+01
  0.385533350601E+01  0.500000000000E+01  0.398173246726E+01  0.315249557942E+01  0.267000324704E+01  0.154774304040E+01  0.218329375016E+01
  0.893127759452E+00  0.000000000000E+00  0.698517061619E+00  0.964171764089E+00  0.310324758057E+01  0.000000000000E+00  0.000000000000E+00
  0.125000000000E+01  0.500000000000E+01  0.375000000000E+01  0.250000000000E+01  0.000000000000E+00
 -0.250000000000E+01 -0.250000000000E+01 -0.250000000000E+01 -0.250000000000E+01 -0.250000000000E+01 -0.250000000000E+01 -0.250000000000E+01
 -0.250000000000E+01 -0.250000000000E+01 -0.250000000000E+01 -0.250000000000E+01 -0.250000000000E+01 -0.250000000000E+01 -0.250000000000E+01
 -0.250000000000E+01 -0.250000000000E+01 -0.250000000000E+01 -0.250000000000E+01 -0.250000000000E+01 -0.250000000000E+01 -0.250000000000E+01
 -0.250000000000E+01 -0.250000000000E+01 -0.250000000000E+01 -0.250000000000E+01 -0.250000000000E+01 -0.250000000000E+01 -0.250000000000E+01
 -0.250000000000E+01 -0.250000000000E+01 -0.250000000000E+01 -0.250000000000E+01 -0.250000000000E+01
  0.000000000000E+00  0.000000000000E+00  0.000000000000E+00  0.904659890645E+00  0.000000000000E+00  0.717002441913E+00  0.188609243358E+01
  0.176246431481E+01  0.000000000000E+00  0.961328577125E+00  0.125000000000E+01  0.101201586758E+01  0.191586535653E+01  0.250000000000E+01
  0.293121848150E+01  0.375000000000E+01  0.406975391361E+01  0.363585050272E+01  0.285047954584E+01  0.292817774674E+01  0.395907379566E+01
  0.205246550326E+01  0.125000000000E+01  0.306828197606E+01  0.397245519226E+01  0.433168271247E+01  0.250000000000E+01  0.375000000000E+01
  0.500000000000E+01  0.500000000000E+01  0.500000000000E+01  0.500000000000E+01  0.500000000000E+01
  0.000000000000E+00  0.000000000000E+00  0.000000000000E+00  0.380991906500E+00  0.000000000000E+00  0.343629824950E+00  0.585286157424E+00
  0.579373264282E+00  0.000000000000E+00  0.501056069140E+00  0.508460362676E+00  0.435373026572E+00  0.572640041190E+00  0.537002098944E+00
  0.568922553870E+00  0.514994090651E+00  0.508247257160E+00  0.527252853130E+00  0.567446661127E+00  0.531657143909E+00  0.505981016593E+00
  0.520795579399E+00  0.443624103833E+00  0.490663730453E+00  0.492155873749E+00  0.501390784676E+00  0.467732355362E+00  0.488212087362E+00
  0.490002767114E+00  0.491352304715E+00  0.486075475228E+00  0.490036479234E+00  0.495098264817E+00
  0.999993487379E+00  0.999993690057E+00  0.999993543115E+00  0.989539055875E+00  0.999993137282E+00  0.985524707174E+00  0.989838908967E+00
  0.991798516580E+00  0.999992721792E+00  0.984411112416E+00  0.985091906406E+00  0.984689080896E+00  0.990058464829E+00  0.100289621837E+01
  0.999855369243E+00  0.100485306649E+01  0.100121554699E+01  0.100055642931E+01  0.997896793475E+00  0.100350029570E+01  0.100058068723E+01
  0.101093276247E+01  0.104043292670E+01  0.100326475367E+01  0.100254498742E+01  0.100045587387E+01  0.100976788415E+01  0.100405369352E+01
  0.100192656835E+01  0.100045434508E+01  0.100058774183E+01  0.100109993754E+01  0.100176112495E+01
 -0.376247420046E-03 -0.355557981265E-03 -0.393990397886E-03  0.174863496420E-02  0.452229475620E-03  0.143301884508E-01 -0.824062015966E-03
 -0.459254168019E-03  0.690151627339E-03  0.688225795564E-02 -0.110246458332E-02 -0.107742301644E-02 -0.900303627388E-03 -0.745604908931E-03
 -0.572895593560E-03 -0.515904904115E-03 -0.383686272918E-03 -0.439705385315E-03 -0.630410110058E-03 -0.788375778379E-03 -0.574662570285E-03
  0.338093476104E-04  0.468424824555E-02 -0.573850260345E-03 -0.104293484776E-02 -0.701637899841E-03 -0.736308536832E-03 -0.119057016224E-02
 -0.517120093941E-02 -0.604961620232E-03 -0.234294958000E-02 -0.452617900971E-02 -0.573073954396E-02
  0.997499019821E-04 -0.791868989267E-05  0.110385892279E-04  0.489510387994E-03 -0.109655639784E-03  0.192069336388E-02  0.829998821602E-04
 -0.883575586716E-04  0.540878331904E-04  0.828188616890E-03  0.242335298865E-03  0.815856654302E-04  0.142902722831E-03  0.192141629688E-03
  0.143118873655E-03  0.121453840778E-03  0.151190344016E-03  0.133253516045E-03  0.975364725959E-04 -0.300519253941E-04  0.602589845869E-04
 -0.880149442608E-04  0.565580250161E-03 -0.229556677456E-04 -0.113068851176E-03  0.784089251063E-04 -0.171026251670E-03 -0.252635090218E-03
 -0.930014333048E-03  0.312316863856E-04 -0.233519351581E-03 -0.701390501942E-03 -0.119422243054E-02
 -0.210278051088E-04  0.486901142213E-05  0.347283881287E-04  0.673054623541E-04  0.205823594573E-04  0.197105773400E-03 -0.635611827329E-05
 -0.403015443795E-06 -0.494542720010E-04  0.914759090752E-04 -0.138624353577E-04 -0.337924802014E-04 -0.199885826729E-06  0.137899255286E-05
  0.585642446549E-06 -0.213936120479E-05  0.589001062113E-06 -0.188131980452E-05 -0.422272078319E-06  0.402720815935E-05 -0.274814496088E-05
  0.653985151178E-05 -0.196915109018E-04  0.207257139370E-06 -0.555847574776E-06 -0.955311195509E-06 -0.398639373595E-05 -0.184901783649E-05
 -0.236425821511E-06 -0.394912148011E-06 -0.635973223410E-08  0.422427698576E-06  0.117342514659E-05
 -0.356826251128E-04 -0.190360714335E-04 -0.412518511077E-04  0.201876808168E-03 -0.138609611781E-03  0.137124898167E-03  0.214290162868E-03
  0.370606731020E-03 -0.122997093840E-03  0.230907951713E-03  0.340347085645E-04  0.112761476787E-03  0.887923483151E-04  0.438118185265E-04
  0.107064884975E-03  0.396619510634E-04  0.109206569574E-03  0.160763508005E-03  0.185742758142E-03  0.202395852305E-03  0.187830025500E-03
  0.334815793546E-03  0.225367931237E-03  0.220212754577E-03  0.189886691961E-03  0.159549809749E-03  0.318127686265E-03  0.207377782357E-03
  0.125358591056E-03  0.645247227856E-04  0.142210455576E-03  0.155598483588E-03  0.885252148755E-04
  0.101893230236E-03  0.192230756227E-03  0.490048664634E-03 -0.908008012226E-03  0.103704614121E-02 -0.622131206447E-02  0.209758933744E-03
  0.147417105113E-03 -0.196971050692E-03 -0.286533432757E-02  0.241314233796E-03  0.288852472441E-03  0.218207820893E-03  0.142165342187E-03
  0.108894212530E-03  0.103991606565E-03  0.510837621735E-04  0.752203386106E-04  0.147577349666E-03  0.253601973062E-03  0.150255781698E-03
 -0.242742888856E-04 -0.189581440370E-02  0.179672395149E-03  0.377166866539E-03  0.189546260534E-03  0.273723876942E-03  0.472478855465E-03
  0.210087514709E-02  0.182515507073E-03  0.878713833302E-03  0.179906499924E-02  0.237879466874E-02
        15         7        19        19
         8        20        19        19
        18        19        21        21
         7         4         8         8
         3         6         4         4
        19         7         8         8
        19        18        15        15
        14        13        15        15
         8        22        20        20
        27        24        22        22
        19        20        21        21
        32        26        21        21
        17        18        26        26
        17        16        15        15
        25        29        21        21
        12         7        13        13
        10         8         6         6
        25        20        24        24
         4         6         8         8
        12         2         4         4
        10        23        22        22
        26        31        17        17
        30        16        17        17
         4         7        12        12
        13        11        12        12
        21        20        25        25
        24        28        25        25
        22         8        10        10
         6         5        10        10
        31        26        32        32
         4         2         3         3
         5         6         3         3
        11        13        14        14
        22        23        27        27
        28        24        27        27
        15        13         7         7
         2        12         1         1
        29        25        33        33
        23        10         9         9
        21        26        18        18
        16        14        15        15
        18        17        15        15
        29        32        21        21
        22        24        20        20
        28        33        25        25
        11         1        12        12
        31        30        17        17
         5         9        10        10
zone t="boundary 3 bc-3", solutiontime= 0.3000000E+02, strandid=1003, i=33, j=48, f=feblock
  0.375000000000E+01  0.250000000000E+01  0.500000000000E+01  0.403552511878E+01  0.288078410721E+01  0.125000000000E+01  0.190974100652E+01
  0.500000000000E+01  0.326683758169E+01  0.423153924130E+01  0.201431602454E+01  0.000000000000E+00  0.963108083381E+00  0.500000000000E+01
  0.267000324704E+01  0.385533350601E+01  0.893127759452E+00  0.154774304040E+01  0.000000000000E+00  0.500000000000E+01  0.315249557942E+01
  0.218329375016E+01  0.398173246726E+01  0.000000000000E+00  0.698517061619E+00  0.964171764089E+00  0.125000000000E+01  0.000000000000E+00
  0.500000000000E+01  0.310324758057E+01  0.250000000000E+01  0.375000000000E+01  0.000000000000E+00
  0.250000000000E+01  0.250000000000E+01  0.250000000000E+01  0.250000000000E+01  0.250000000000E+01  0.250000000000E+01  0.250000000000E+01
  0.250000000000E+01  0.250000000000E+01  0.250000000000E+01  0.250000000000E+01  0.250000000000E+01  0.250000000000E+01  0.250000000000E+01
  0.250000000000E+01  0.250000000000E+01  0.250000000000E+01  0.250000000000E+01  0.250000000000E+01  0.250000000000E+01  0.250000000000E+01
  0.250000000000E+01  0.250000000000E+01  0.250000000000E+01  0.250000000000E+01  0.250000000000E+01  0.250000000000E+01  0.250000000000E+01
  0.250000000000E+01  0.250000000000E+01  0.250000000000E+01  0.250000000000E+01  0.250000000000E+01
  0.000000000000E+00  0.000000000000E+00  0.000000000000E+00  0.101201586758E+01  0.904659890645E+00  0.000000000000E+00  0.717002441913E+00
  0.125000000000E+01  0.188609243358E+01  0.191586535653E+01  0.176246431481E+01  0.000000000000E+00  0.961328577125E+00  0.250000000000E+01
  0.285047954584E+01  0.293121848150E+01  0.205246550326E+01  0.292817774674E+01  0.125000000000E+01  0.375000000000E+01  0.363585050272E+01
  0.395907379566E+01  0.406975391361E+01  0.250000000000E+01  0.306828197606E+01  0.397245519226E+01  0.500000000000E+01  0.375000000000E+01
  0.500000000000E+01  0.433168271247E+01  0.500000000000E+01  0.500000000000E+01  0.500000000000E+01
  0.000000000000E+00  0.000000000000E+00  0.000000000000E+00  0.443767745459E+00  0.402286944574E+00  0.000000000000E+00  0.377550369545E+00
  0.509232128688E+00  0.575832179754E+00  0.573707405285E+00  0.562554064412E+00  0.000000000000E+00  0.490563299840E+00  0.534527096543E+00
  0.556586982170E+00  0.564391577749E+00  0.522730517385E+00  0.522052000170E+00  0.441238348384E+00  0.517182331791E+00  0.524228630763E+00
  0.503687457534E+00  0.509488571178E+00  0.469814974359E+00  0.495614442414E+00  0.494483780212E+00  0.488562428343E+00  0.488961654628E+00
  0.492980744788E+00  0.499005552222E+00  0.486460936507E+00  0.484596927548E+00  0.495346592024E+00
  0.999989339439E+00  0.999989408764E+00  0.999989626853E+00  0.981541895460E+00  0.988773990194E+00  0.999989827144E+00  0.982469462434E+00
  0.984104309047E+00  0.990427545862E+00  0.990355285694E+00  0.994362997073E+00  0.999990295028E+00  0.988652071037E+00  0.100368369414E+01
  0.999769197113E+00  0.100118501219E+01  0.100834885320E+01  0.100252111043E+01  0.102982719499E+01  0.100443319461E+01  0.100199536635E+01
  0.100082056599E+01  0.100138192342E+01  0.100826277309E+01  0.100298787130E+01  0.100192389555E+01  0.100215267510E+01  0.100355660048E+01
  0.100047670023E+01  0.100056591053E+01  0.100126820231E+01  0.100066573360E+01  0.100179336279E+01
 -0.305393396291E-03  0.132301056058E-03 -0.476666838951E-03  0.185174794633E-02  0.878025480390E-02  0.685304823754E-03  0.109935708319E-01
 -0.159458945086E-02 -0.914816917427E-03 -0.103459184600E-02  0.126662078307E-02  0.955873353778E-03  0.717758751942E-02 -0.799529574516E-03
 -0.890384238669E-03 -0.658891188133E-03  0.186650477513E-03 -0.907800680971E-03  0.510667589184E-02 -0.548948498592E-03 -0.407506110686E-03
 -0.541925244008E-03 -0.419389388965E-03 -0.297875150647E-03 -0.759342983238E-03 -0.146035625311E-02 -0.450941762637E-02 -0.160578369159E-02
 -0.521209669527E-03 -0.643483875610E-03 -0.421019746854E-02 -0.227712980727E-02 -0.599713297985E-02
 -0.583352891506E-04 -0.637741838917E-04  0.115591023482E-03  0.605592826750E-03  0.124801560411E-02 -0.138234778207E-03  0.137384979151E-02
  0.276117677868E-03 -0.999056502978E-05  0.149404045326E-03 -0.356377517246E-04  0.503036660658E-04  0.536571499843E-03  0.209140184349E-03
  0.203389175535E-06  0.114465485423E-03 -0.197666718217E-03 -0.986385864114E-04  0.739846669153E-03  0.134641814191E-03  0.120702383864E-03
  0.669979669399E-04  0.138564071728E-03 -0.134530806182E-03 -0.176267013481E-03 -0.185037152790E-03 -0.798803104889E-03 -0.353377784125E-03
  0.477955022048E-04  0.785998316234E-04 -0.649485485745E-03 -0.224642682404E-03 -0.123213039952E-02
 -0.110058344699E-04  0.389843961381E-05  0.204995178207E-04 -0.281211913194E-04 -0.109854161279E-03  0.444820319227E-04 -0.282152861943E-04
  0.223668372448E-05 -0.130440768967E-04  0.437524910318E-05 -0.466237037345E-05  0.581147898062E-04  0.548296402819E-04  0.575223132008E-05
 -0.515535083415E-06  0.904542338330E-06 -0.258208712052E-04 -0.103661932977E-04  0.205521526586E-04  0.335877187208E-05  0.135126172091E-05
  0.792916129334E-05  0.842335003247E-07 -0.205758886368E-05 -0.554217733022E-05  0.288950306799E-05  0.286697111308E-05 -0.495413991047E-06
  0.118989421751E-05 -0.584399855811E-07  0.655971452680E-06 -0.143562293422E-06  0.438518872161E-06
 -0.639005344850E-04 -0.145904791996E-03 -0.404943238216E-04  0.106439003138E-03  0.179543514652E-03 -0.149293689652E-03  0.638077748161E-04
  0.557883655311E-04  0.308283361854E-03  0.153620078043E-03  0.476238479495E-03 -0.240771762078E-03  0.143564407270E-03  0.628571567333E-04
  0.170524556209E-03  0.140731480447E-03  0.396036501724E-03  0.179652859221E-03 -0.199274350714E-03  0.562152291609E-04  0.164970582095E-03
  0.172561800451E-03  0.122876738855E-03  0.265305011347E-03  0.256526275113E-03  0.175790897128E-03  0.128368958317E-03  0.219353511251E-03
  0.611161483570E-04  0.161029033252E-03  0.155514891450E-03  0.141172679558E-03  0.804822657834E-04
  0.984835688854E-03  0.615839562408E-03  0.204717200898E-03 -0.102772068419E-02 -0.382974743502E-02  0.779647814013E-04 -0.464722808498E-02
  0.396764712955E-03  0.282304591253E-03  0.262856898296E-03 -0.484883038830E-03 -0.726224608887E-03 -0.282579216101E-02  0.150601669190E-03
  0.274025710689E-03  0.147654603661E-03 -0.532185651564E-04  0.315985173460E-03 -0.210580624900E-02  0.107730052341E-03  0.669600844074E-04
  0.137228239462E-03  0.675417370129E-04  0.117703937515E-03  0.276673124342E-03  0.549675979881E-03  0.182282079156E-02  0.647398144780E-03
  0.147525011957E-03  0.169023455562E-03  0.166975493164E-02  0.851947879793E-03  0.248999441132E-02
        15         9        16        16
        15        18        11        11
        22        15        21        21
        11         5         9         9
         5         7         2         2
        11         9        15        15
        16        21        15        15
        16        10        14        14
        18        17        11        11
        17        25        24        24
        22        18        15        15
        22        30        31        31
        30        21        23        23
        16        20        23        23
        22        27        26        26
        10         9         4         4
         7        11        13        13
        25        18        26        26
        11         7         5         5
         5         1         4         4
        17        19        13        13
        23        32        30        30
        23        20        29        29
         4         9         5         5
         4         8        10        10
        26        18        22        22
        26        28        25        25
        13        11        17        17
        13         6         7         7
        31        30        32        32
         2         1         5         5
         2         7         6         6
        14        10         8         8
        24        19        17        17
        24        25        28        28
         9        10        16        16
         3         4         1         1
        33        26        27        27
        12        13        19        19
        21        30        22        22
        16        14        20        20
        16        23        21        21
        22        31        27        27
        18        25        17        17
        26        33        28        28
         4         3         8         8
        23        29        32        32
        13        12         6         6
zone t="boundary 4 bc-4", solutiontime= 0.3000000E+02, strandid=1004, i=32, j=46, f=feblock
  0.125000000000E+01  0.219251206392E+01  0.103724302461E+01  0.500000000000E+01  0.250000000000E+01  0.375000000000E+01  0.404200324774E+01
  0.500000000000E+01  0.000000000000E+00  0.310152362409E+01  0.202479342020E+01  0.324151231464E+01  0.922061490191E+00  0.000000000000E+00
  0.299062775774E+01  0.394624082883E+01  0.500000000000E+01  0.409252726285E+01  0.500000000000E+01  0.429310310915E+01  0.175434191980E+01
  0.284428995242E+01  0.000000000000E+00  0.000000000000E+00  0.715990576545E+00  0.930412228790E+00  0.125000000000E+01  0.187029682677E+01
  0.500000000000E+01  0.375000000000E+01  0.250000000000E+01  0.000000000000E+00
  0.250000000000E+01  0.157686156160E+01  0.146289271009E+01  0.250000000000E+01  0.250000000000E+01  0.250000000000E+01  0.155830813274E+01
  0.125000000000E+01  0.250000000000E+01  0.177790177481E+01  0.477386199275E+00  0.742988685424E+00  0.308372018325E+00  0.125000000000E+01
 -0.487811078581E+00 -0.144524380962E+01 -0.125000000000E+01 -0.345533899378E+00  0.000000000000E+00  0.627766083140E+00 -0.739814786992E+00
 -0.158811787973E+01  0.000000000000E+00 -0.125000000000E+01 -0.600232012419E+00 -0.154800130438E+01 -0.250000000000E+01 -0.178862290564E+01
 -0.250000000000E+01 -0.250000000000E+01 -0.250000000000E+01 -0.250000000000E+01
  0.500000000000E+01  0.500000000000E+01  0.500000000000E+01  0.500000000000E+01  0.500000000000E+01  0.500000000000E+01  0.500000000000E+01
  0.500000000000E+01  0.500000000000E+01  0.500000000000E+01  0.500000000000E+01  0.500000000000E+01  0.500000000000E+01  0.500000000000E+01
  0.500000000000E+01  0.500000000000E+01  0.500000000000E+01  0.500000000000E+01  0.500000000000E+01  0.500000000000E+01  0.500000000000E+01
  0.500000000000E+01  0.500000000000E+01  0.500000000000E+01  0.500000000000E+01  0.500000000000E+01  0.500000000000E+01  0.500000000000E+01
  0.500000000000E+01  0.500000000000E+01  0.500000000000E+01  0.500000000000E+01
  0.488562428343E+00  0.488873127044E+00  0.490562939264E+00  0.492980744788E+00  0.486460936507E+00  0.484596927548E+00  0.485347896276E+00
  0.494163542317E+00  0.495346592024E+00  0.486528232758E+00  0.487819998460E+00  0.487068916091E+00  0.494045904395E+00  0.496127394917E+00
  0.487612357629E+00  0.483219722850E+00  0.492395510969E+00  0.487214141159E+00  0.494738985333E+00  0.487958525499E+00  0.489677249447E+00
  0.488029107105E+00  0.497246279768E+00  0.496059270892E+00  0.494951052257E+00  0.492800373677E+00  0.490002767114E+00  0.490005124553E+00
  0.491352304715E+00  0.486075475228E+00  0.490036479234E+00  0.495098264817E+00
  0.100215267510E+01  0.100152652958E+01  0.100178347660E+01  0.100047670023E+01  0.100126820231E+01  0.100066573360E+01  0.100025357725E+01
  0.100050391679E+01  0.100179336279E+01  0.100112367258E+01  0.100133045248E+01  0.100072432973E+01  0.100164366725E+01  0.100168844809E+01
  0.100096274503E+01  0.100000874853E+01  0.100082864314E+01  0.100022269190E+01  0.100062146074E+01  0.100023497311E+01  0.100174635719E+01
  0.100098855496E+01  0.100118726928E+01  0.100134171022E+01  0.100132635956E+01  0.100179873777E+01  0.100192656835E+01  0.100163748619E+01
  0.100045434508E+01  0.100058774183E+01  0.100109993754E+01  0.100176112495E+01
 -0.450941762637E-02 -0.437687432099E-02 -0.450618281087E-02 -0.521209669527E-03 -0.421019746854E-02 -0.227712980727E-02 -0.158332069081E-02
 -0.518493456820E-03 -0.599713297985E-02 -0.349458776833E-02 -0.471588400516E-02 -0.329520751619E-02 -0.551071678804E-02 -0.620749444404E-02
 -0.372973965285E-02 -0.153753677463E-02 -0.588366333925E-03 -0.195158401778E-02 -0.482439600538E-03 -0.194397078978E-02 -0.583834063271E-02
 -0.353078135753E-02 -0.686198307533E-02 -0.608890643502E-02 -0.640730507795E-02 -0.515837458476E-02 -0.517120093941E-02 -0.545510636917E-02
 -0.604961620232E-03 -0.234294958000E-02 -0.452617900971E-02 -0.573073954396E-02