title="tecplot geometry and solution file"
variables = x y z mach temperature lambda1 lambda2 lambda3 lambda4 lambda5
zone t="boundary 1 bc-1", solutiontime= 0.7000000E+02, strandid=1001, i=32, j=46, f=feblock
  0.000000000000E+00  0.000000000000E+00  0.000000000000E+00  0.000000000000E+00  0.000000000000E+00  0.000000000000E+00  0.000000000000E+00
  0.000000000000E+00  0.000000000000E+00  0.000000000000E+00  0.000000000000E+00  0.000000000000E+00  0.000000000000E+00  0.000000000000E+00
  0.000000000000E+00  0.000000000000E+00  0.000000000000E+00  0.000000000000E+00  0.000000000000E+00  0.000000000000E+00  0.000000000000E+00
  0.000000000000E+00  0.000000000000E+00  0.000000000000E+00  0.000000000000E+00  0.000000000000E+00  0.000000000000E+00  0.000000000000E+00
  0.000000000000E+00  0.000000000000E+00  0.000000000000E+00  0.000000000000E+00
  0.250000000000E+01  0.250000000000E+01  0.125000000000E+01  0.146289271009E+01  0.157686156160E+01  0.308372018325E+00  0.000000000000E+00
 -0.125000000000E+01 -0.600232012419E+00  0.250000000000E+01  0.477386199275E+00  0.742988685424E+00 -0.739814786992E+00  0.177790177481E+01
  0.155830813274E+01  0.250000000000E+01 -0.250000000000E+01 -0.154800130438E+01 -0.487811078581E+00  0.250000000000E+01  0.627766083140E+00
 -0.345533899378E+00 -0.178862290564E+01 -0.158811787973E+01  0.125000000000E+01 -0.250000000000E+01 -0.144524380962E+01  0.000000000000E+00
 -0.125000000000E+01 -0.250000000000E+01 -0.250000000000E+01 -0.250000000000E+01
  0.000000000000E+00  0.125000000000E+01  0.000000000000E+00  0.103724302461E+01  0.219251206392E+01  0.922061490191E+00  0.000000000000E+00
  0.000000000000E+00  0.715990576545E+00  0.250000000000E+01  0.202479342020E+01  0.324151231464E+01  0.175434191980E+01  0.310152362409E+01
  0.404200324774E+01  0.375000000000E+01  0.000000000000E+00  0.930412228790E+00  0.299062775774E+01  0.500000000000E+01  0.429310310915E+01
  0.409252726285E+01  0.187029682677E+01  0.284428995242E+01  0.500000000000E+01  0.125000000000E+01  0.394624082883E+01  0.500000000000E+01
  0.500000000000E+01  0.250000000000E+01  0.375000000000E+01  0.500000000000E+01
  0.000000000000E+00  0.441238348384E+00  0.000000000000E+00  0.475214987021E+00  0.460123708856E+00  0.468827815405E+00  0.000000000000E+00
  0.000000000000E+00  0.402302516798E+00  0.469814974359E+00  0.464411128942E+00  0.478714034184E+00  0.489298241651E+00  0.483068557888E+00
  0.487930073118E+00  0.488961654628E+00  0.000000000000E+00  0.464775721414E+00  0.473795651891E+00  0.495346592024E+00  0.490266103446E+00
  0.486286083902E+00  0.445717618051E+00  0.464382274634E+00  0.496127394917E+00  0.443624103833E+00  0.486964461957E+00  0.497246279768E+00
  0.496059270892E+00  0.467732355362E+00  0.488212087362E+00  0.495098264817E+00
  0.999990295028E+00  0.102982719499E+01  0.999990757903E+00  0.104247294232E+01  0.101190080524E+01  0.102520618293E+01  0.999991416700E+00
  0.999992168096E+00  0.103891223624E+01  0.100826277309E+01  0.101252833877E+01  0.100300548289E+01  0.102702865700E+01  0.100605563290E+01
  0.100244400478E+01  0.100355660048E+01  0.999992721792E+00  0.103239739214E+01  0.100459524090E+01  0.100179336279E+01  0.100260305842E+01
  0.100234966417E+01  0.101657153079E+01  0.100617544692E+01  0.100168844809E+01  0.104043292670E+01  0.100303376377E+01  0.100118726928E+01
  0.100134171022E+01  0.100976788415E+01  0.100405369352E+01  0.100176112495E+01
  0.955881623276E-03  0.510687815724E-02  0.111037662655E-02  0.808618305416E-02  0.573303589676E-03  0.101159493427E-01  0.878790151710E-03
  0.410952201618E-03  0.993662970348E-02 -0.297963742782E-03  0.670239391124E-03 -0.117619269505E-02  0.688224636818E-03 -0.636778614123E-03
 -0.161751463999E-02 -0.160606574967E-02  0.690154098337E-03  0.782007033150E-02 -0.927460607337E-03 -0.599703059077E-02 -0.211706346083E-02
 -0.140919271919E-02  0.153766016731E-03 -0.832309880464E-03 -0.620748208012E-02  0.468403550387E-02 -0.109871858695E-02 -0.686171972223E-02
 -0.608847784972E-02 -0.736376314070E-03 -0.119060342434E-02 -0.573072769245E-02
  0.503033230069E-04  0.739890773104E-03  0.683430149080E-04  0.103934451631E-02  0.268017124480E-04  0.152050481322E-02  0.723029351629E-04
  0.677259886511E-04  0.144710919658E-02 -0.134544201960E-03  0.594311171070E-04 -0.248024497179E-03 -0.119540104436E-04 -0.189945612250E-03
 -0.318453264849E-03 -0.353420598626E-03  0.540880484687E-04  0.119970759056E-02 -0.180692304992E-03 -0.123218524935E-02 -0.421480386366E-03
 -0.270078607819E-03 -0.693366816462E-04 -0.155692710133E-03 -0.130016340057E-02  0.565542047079E-03 -0.215059795172E-03 -0.144263483599E-02
 -0.127533017327E-02 -0.171040346671E-03 -0.252629978757E-03 -0.119425463226E-02
  0.581191352008E-04  0.205532484905E-04  0.806543648609E-04  0.202522716028E-03  0.262814346950E-04  0.107749377708E-03  0.630937759264E-04
 -0.364090288564E-04  0.193241382619E-04 -0.205669380697E-05  0.397881059858E-04  0.288754272623E-04  0.133617201154E-04  0.686019891334E-05
 -0.508361010809E-05 -0.494179577312E-06 -0.494544578607E-04 -0.111919804102E-03  0.157532731685E-04  0.439808505489E-06 -0.128396259887E-06
 -0.742062049218E-06  0.113618108721E-04 -0.129401317725E-04  0.194238380680E-04 -0.196918576942E-04 -0.104083824923E-04  0.243970799611E-05
 -0.888833232323E-05 -0.398608915317E-05 -0.184879341140E-05  0.117344877921E-05
 -0.240772846606E-03 -0.199260876821E-03 -0.266624251270E-03 -0.123254729915E-05  0.239664787602E-03  0.243383978182E-03 -0.151984890342E-03
 -0.155572980702E-03  0.105174063945E-03  0.265311918567E-03  0.489473583937E-03  0.275458449488E-03  0.570203604570E-03  0.252594050894E-03
  0.188928336312E-03  0.219320446832E-03 -0.122998095195E-03  0.184666439949E-03  0.326684396163E-03  0.804987494085E-04  0.177764927222E-03
  0.214898917566E-03  0.429211688144E-03  0.276289896163E-03  0.776398853696E-04  0.225364224264E-03  0.202288876845E-03  0.735824087187E-04
  0.891346577827E-04  0.318132664641E-03  0.207375165972E-03  0.885313850340E-04
 -0.726233649552E-03 -0.210589221735E-02 -0.103417365417E-02 -0.324191536734E-02 -0.240787409253E-03 -0.418778161180E-02  0.323881553919E-05
  0.125531031010E-03 -0.408952770300E-02  0.117739208578E-03 -0.293675479051E-03  0.458915728082E-03 -0.289075795451E-03  0.249770892150E-03
  0.646039019979E-03  0.647516424923E-03 -0.196973367821E-03 -0.325032381947E-02  0.344702113701E-03  0.248996049928E-02  0.855090744586E-03
  0.557070610663E-03 -0.826814942980E-04  0.300744229730E-03  0.258184000521E-02 -0.189572762716E-02  0.427810388105E-03  0.286229733444E-02
  0.253394107775E-02  0.273751751667E-03  0.472491470242E-03  0.237879279976E-02
        12        19        11        11
        11         5        12        12
        10        14         5         5
        19        13        11        11
        19        24        13        13
        30        23        24        24
        19        12        22        22
        28        22        21        21
        11        13         6         6
         7         6         9         9
        15        12        14        14
        18        13        23        23
        15        25        21        21
        27        19        22        22
        18         8         9         9
        27        31        24        24
         4        11         6         6
         5        14        12        12
         4         2         5         5
        21        12        15        15
        14        16        15        15
        24        19        27        27
        22        29        27        27
        23        26        18        18
        17         8        18        18
         5        11         4         4
         6         3         4         4
        26        23        30        30
         5         2        10        10
        16        14        10        10
         3         6         7         7
        21        25        28        28
        29        22        28        28
         6        13         9         9
         2         4         1         1
        31        27        32        32
        25        15        20        20
        24        23        13        13
         8         7         9         9
        13        18         9         9
        31        30        24        24
        12        21        22        22
        29        32        27        27
         3         1         4         4
        26        17        18        18
        16        20        15        15
zone t="boundary 2 bc-2", solutiontime= 0.7000000E+02, strandid=1002, i=33, j=48, f=feblock
  0.500000000000E+01  0.375000000000E+01  0.250000000000E+01  0.288078410721E+01  0.125000000000E+01  0.190974100652E+01  0.326683758169E+01
  0.201431602454E+01  0.000000000000E+00  0.963108083381E+00  0.500000000000E+01  0.403552511878E+01  0.423153924130E+01  0.500000000000E+01
  0.385533350601E+01  0.500000000000E+01  0.398173246726E+01  0.315249557942E+01  0.267000324704E+01  0.154774304040E+01  0.218329375016E+01
  0.893127759452E+00  0.000000000000E+00  0.698517061619E+00  0.964171764089E+00  0.310324758057E+01  0.000000000000E+00  0.000000000000E+00
  0.125000000000E+01  0.500000000000E+01  0.375000000000E+01  0.250000000000E+01  0.000000000000E+00
 -0.250000000000E+01 -0.250000000000E+01 -0.250000000000E+01 -0.250000000000E+01 -0.250000000000E+01 -0.250000000000E+01 -0.250000000000E+01
 -0.250000000000E+01 -0.250000000000E+01 -0.250000000000E+01 -0.250000000000E+01 -0.250000000000E+01 -0.250000000000E+01 -0.250000000000E+01
 -0.250000000000E+01 -0.250000000000E+01 -0.250000000000E+01 -0.250000000000E+01 -0.250000000000E+01 -0.250000000000E+01 -0.250000000000E+01
 -0.250000000000E+01 -0.250000000000E+01 -0.250000000000E+01 -0.250000000000E+01 -0.250000000000E+01 -0.250000000000E+01 -0.250000000000E+01
 -0.250000000000E+01 -0.250000000000E+01 -0.250000000000E+01 -0.250000000000E+01 -0.250000000000E+01
  0.000000000000E+00  0.000000000000E+00  0.000000000000E+00  0.904659890645E+00  0.000000000000E+00  0.717002441913E+00  0.188609243358E+01
  0.176246431481E+01  0.000000000000E+00  0.961328577125E+00  0.125000000000E+01  0.101201586758E+01  0.191586535653E+01  0.250000000000E+01
  0.293121848150E+01  0.375000000000E+01  0.406975391361E+01  0.363585050272E+01  0.285047954584E+01  0.292817774674E+01  0.395907379566E+01
  0.205246550326E+01  0.125000000000E+01  0.306828197606E+01  0.397245519226E+01  0.433168271247E+01  0.250000000000E+01  0.375000000000E+01
  0.500000000000E+01  0.500000000000E+01  0.500000000000E+01  0.500000000000E+01  0.500000000000E+01
  0.000000000000E+00  0.000000000000E+00  0.000000000000E+00  0.380991906500E+00  0.000000000000E+00  0.343629824950E+00  0.585286157424E+00
  0.579373264282E+00  0.000000000000E+00  0.501056069140E+00  0.508460362676E+00  0.435373026572E+00  0.572640041190E+00  0.537002098944E+00
  0.568922553870E+00  0.514994090651E+00  0.508247257160E+00  0.527252853130E+00  0.567446661127E+00  0.531657143909E+00  0.505981016593E+00
  0.520795579399E+00  0.443624103833E+00  0.490663730453E+00  0.492155873749E+00  0.501390784676E+00  0.467732355362E+00  0.488212087362E+00
  0.490002767114E+00  0.491352304715E+00  0.486075475228E+00  0.490036479234E+00  0.495098264817E+00
  0.999993487379E+00  0.999993690057E+00  0.999993543115E+00  0.989539055875E+00  0.999993137282E+00  0.985524707174E+00  0.989838908967E+00
  0.991798516580E+00  0.999992721792E+00  0.984411112416E+00  0.985091906406E+00  0.984689080896E+00  0.990058464829E+00  0.100289621837E+01
  0.999855369243E+00  0.100485306649E+01  0.100121554699E+01  0.100055642931E+01  0.997896793475E+00  0.100350029570E+01  0.100058068723E+01
  0.101093276247E+01  0.104043292670E+01  0.100326475367E+01  0.100254498742E+01  0.100045587387E+01  0.100976788415E+01  0.100405369352E+01
  0.100192656835E+01  0.100045434508E+01  0.100058774183E+01  0.100109993754E+01  0.100176112495E+01
 -0.376253433135E-03 -0.355559209304E-03 -0.393993416950E-03  0.174857776509E-02  0.452236327864E-03  0.143303932993E-01 -0.824087007591E-03
 -0.459307242523E-03  0.690154098337E-03  0.688229352416E-02 -0.110245041475E-02 -0.107758395135E-02 -0.900275226316E-03 -0.745612299246E-03
 -0.572890143270E-03 -0.515908021198E-03 -0.383691121449E-03 -0.439698928367E-03 -0.630434201871E-03 -0.788441468476E-03 -0.574657281357E-03
  0.337729812508E-04  0.468403550387E-02 -0.573867249070E-03 -0.104291541751E-02 -0.701659949999E-03 -0.736376314070E-03 -0.119060342434E-02
 -0.517095374137E-02 -0.604954734565E-03 -0.234293792730E-02 -0.452612386991E-02 -0.573072769245E-02
  0.997507850272E-04 -0.792006536219E-05  0.110382626660E-04  0.489504199743E-03 -0.109656711727E-03  0.192072833433E-02  0.829945775491E-04
 -0.883724460648E-04  0.540880484687E-04  0.828198059640E-03  0.242341042677E-03  0.815524691113E-04  0.142911927009E-03  0.192141199332E-03
  0.143118857203E-03  0.121454198398E-03  0.151191645396E-03  0.133256574311E-03  0.975202318413E-04 -0.300720946560E-04  0.602750257997E-04
 -0.880246649827E-04  0.565542047079E-03 -0.229555379955E-04 -0.113050019868E-03  0.784156311516E-04 -0.171040346671E-03 -0.252629978757E-03
 -0.929996851230E-03  0.312320998523E-04 -0.233521341155E-03 -0.701402666034E-03 -0.119425463226E-02
 -0.210272792276E-04  0.486958335934E-05  0.347289281756E-04  0.673047470514E-04  0.205827088605E-04  0.197106818726E-03 -0.635674576439E-05
 -0.403394114308E-06 -0.494544578607E-04  0.914774603155E-04 -0.138624254917E-04 -0.337940001939E-04 -0.199470547902E-06  0.137901257044E-05
  0.585665382591E-06 -0.213945374786E-05  0.588905633248E-06 -0.188161283463E-05 -0.422875662664E-06  0.402685342539E-05 -0.274825056550E-05
  0.654327729391E-05 -0.196918576942E-04  0.208830398228E-06 -0.554506324137E-06 -0.955159588317E-06 -0.398608915317E-05 -0.184879341140E-05
 -0.235803429446E-06 -0.395028539215E-06 -0.632028209856E-08  0.422658808418E-06  0.117344877921E-05
 -0.356826257563E-04 -0.190362357356E-04 -0.412514949746E-04  0.201882049958E-03 -0.138611279093E-03  0.137128266275E-03  0.214294153475E-03
  0.370609268986E-03 -0.122998095195E-03  0.230907750247E-03  0.340348145060E-04  0.112772967666E-03  0.887930969197E-04  0.438120994390E-04
  0.107064742117E-03  0.396620555916E-04  0.109207690628E-03  0.160761564128E-03  0.185740780897E-03  0.202390678210E-03  0.187836118453E-03
  0.334810900257E-03  0.225364224264E-03  0.220214592772E-03  0.189895426003E-03  0.159557383012E-03  0.318132664641E-03  0.207375165972E-03
  0.125357166183E-03  0.645239917293E-04  0.142210233515E-03  0.155595167905E-03  0.885313850340E-04
  0.101896852100E-03  0.192231895084E-03  0.490051701038E-03 -0.907984349220E-03  0.103704452205E-02 -0.622139911242E-02  0.209769450588E-03
  0.147441149864E-03 -0.196973367821E-03 -0.286534903485E-02  0.241306927443E-03  0.288922322447E-03  0.218194479523E-03  0.142167960736E-03
  0.108892316470E-03  0.103992414387E-03  0.510851599621E-04  0.752176725122E-04  0.147590560203E-03  0.253632492120E-03  0.150250161188E-03
 -0.242586594190E-04 -0.189572762716E-02  0.179679523324E-03  0.377155719671E-03  0.189552566827E-03  0.273751751667E-03  0.472491470242E-03
  0.210077774052E-02  0.182513078781E-03  0.878710279458E-03  0.179904805730E-02  0.237879279976E-02
        15         7        19        19
         8        20        19        19
        18        19        21        21
         7         4         8         8
         3         6         4         4
        19         7         8         8
        19        18        15        15
        14        13        15        15
         8        22        20        20
        27        24        22        22
        19        20        21        21
        32        26        21        21
        17        18        26        26
        17        16        15        15
        25        29        21        21
        12         7        13        13
        10         8         6         6
        25        20        24        24
         4         6         8         8
        12         2         4         4
        10        23        22        22
        26        31        17        17
        30        16        17        17
         4         7        12        12
        13        11        12        12
        21        20        25        25
        24        28        25        25
        22         8        10        10
         6         5        10        10
        31        26        32        32
         4         2         3         3
         5         6         3         3
        11        13        14        14
        22        23        27        27
        28        24        27        27
        15        13         7         7
         2        12         1         1
        29        25        33        33
        23        10         9         9
        21        26        18        18
        16        14        15        15
        18        17        15        15
        29        32        21        21
        22        24        20        20
        28        33        25        25
        11         1        12        12
        31        30        17        17
         5         9        10        10
zone t="boundary 3 bc-3", solutiontime= 0.7000000E+02, strandid=1003, i=33, j=48, f=feblock
  0.375000000000E+01  0.250000000000E+01  0.500000000000E+01  0.403552511878E+01  0.288078410721E+01  0.125000000000E+01  0.190974100652E+01
  0.500000000000E+01  0.326683758169E+01  0.423153924130E+01  0.201431602454E+01  0.000000000000E+00  0.963108083381E+00  0.500000000000E+01
  0.267000324704E+01  0.385533350601E+01  0.893127759452E+00  0.154774304040E+01  0.000000000000E+00  0.500000000000E+01  0.315249557942E+01
  0.218329375016E+01  0.398173246726E+01  0.000000000000E+00  0.698517061619E+00  0.964171764089E+00  0.125000000000E+01  0.000000000000E+00
  0.500000000000E+01  0.310324758057E+01  0.250000000000E+01  0.375000000000E+01  0.000000000000E+00
  0.250000000000E+01  0.250000000000E+01  0.250000000000E+01  0.250000000000E+01  0.250000000000E+01  0.250000000000E+01  0.250000000000E+01
  0.250000000000E+01  0.250000000000E+01  0.250000000000E+01  0.250000000000E+01  0.250000000000E+01  0.250000000000E+01  0.250000000000E+01
  0.250000000000E+01  0.250000000000E+01  0.250000000000E+01  0.250000000000E+01  0.250000000000E+01  0.250000000000E+01  0.250000000000E+01
  0.250000000000E+01  0.250000000000E+01  0.250000000000E+01  0.250000000000E+01  0.250000000000E+01  0.250000000000E+01  0.250000000000E+01
  0.250000000000E+01  0.250000000000E+01  0.250000000000E+01  0.250000000000E+01  0.250000000000E+01
  0.000000000000E+00  0.000000000000E+00  0.000000000000E+00  0.101201586758E+01  0.904659890645E+00  0.000000000000E+00  0.717002441913E+00
  0.125000000000E+01  0.188609243358E+01  0.191586535653E+01  0.176246431481E+01  0.000000000000E+00  0.961328577125E+00  0.250000000000E+01
  0.285047954584E+01  0.293121848150E+01  0.205246550326E+01  0.292817774674E+01  0.125000000000E+01  0.375000000000E+01  0.363585050272E+01
  0.395907379566E+01  0.406975391361E+01  0.250000000000E+01  0.306828197606E+01  0.397245519226E+01  0.500000000000E+01  0.375000000000E+01
  0.500000000000E+01  0.433168271247E+01  0.500000000000E+01  0.500000000000E+01  0.500000000000E+01
  0.000000000000E+00  0.000000000000E+00  0.000000000000E+00  0.443767745459E+00  0.402286944574E+00  0.000000000000E+00  0.377550369545E+00
  0.509232128688E+00  0.575832179754E+00  0.573707405285E+00  0.562554064412E+00  0.000000000000E+00  0.490563299840E+00  0.534527096543E+00
  0.556586982170E+00  0.564391577749E+00  0.522730517385E+00  0.522052000170E+00  0.441238348384E+00  0.517182331791E+00  0.524228630763E+00
  0.503687457534E+00  0.509488571178E+00  0.469814974359E+00  0.495614442414E+00  0.494483780212E+00  0.488562428343E+00  0.488961654628E+00
  0.492980744788E+00  0.499005552222E+00  0.486460936507E+00  0.484596927548E+00  0.495346592024E+00
  0.999989339439E+00  0.999989408764E+00  0.999989626853E+00  0.981541895460E+00  0.988773990194E+00  0.999989827144E+00  0.982469462434E+00
  0.984104309047E+00  0.990427545862E+00  0.990355285694E+00  0.994362997073E+00  0.999990295028E+00  0.988652071037E+00  0.100368369414E+01
  0.999769197113E+00  0.100118501219E+01  0.100834885320E+01  0.100252111043E+01  0.102982719499E+01  0.100443319461E+01  0.100199536635E+01
  0.100082056599E+01  0.100138192342E+01  0.100826277309E+01  0.100298787130E+01  0.100192389555E+01  0.100215267510E+01  0.100355660048E+01
  0.100047670023E+01  0.100056591053E+01  0.100126820231E+01  0.100066573360E+01  0.100179336279E+01
 -0.305412570264E-03  0.132307386415E-03 -0.476667359852E-03  0.185148585060E-02  0.878067932186E-02  0.685313473699E-03  0.109940560030E-01
 -0.159454493170E-02 -0.914909248972E-03 -0.103454319081E-02  0.126660834935E-02  0.955881623276E-03  0.717784107551E-02 -0.799539120738E-03
 -0.890383003079E-03 -0.658884746477E-03  0.186636312442E-03 -0.907765704964E-03  0.510687815724E-02 -0.548949369396E-03 -0.407512460937E-03
 -0.541895260805E-03 -0.419374695073E-03 -0.297963742782E-03 -0.759274341385E-03 -0.146044613234E-02 -0.450924970476E-02 -0.160606574967E-02
 -0.521208044055E-03 -0.643510021222E-03 -0.421020340348E-02 -0.227710562537E-02 -0.599703059077E-02
 -0.583378872240E-04 -0.637798642749E-04  0.115594814337E-03  0.605570286169E-03  0.124811892688E-02 -0.138236883845E-03  0.137397614398E-02
  0.276132574917E-03 -0.100121835963E-04  0.149420202322E-03 -0.356323977755E-04  0.503033230069E-04  0.536653659362E-03  0.209138594585E-03
  0.198876511451E-06  0.114466743679E-03 -0.197645226909E-03 -0.986291529890E-04  0.739890773104E-03  0.134642306930E-03  0.120697900592E-03
  0.670093062758E-04  0.138567995003E-03 -0.134544201960E-03 -0.176223420741E-03 -0.185055788983E-03 -0.798750122614E-03 -0.353420598626E-03
  0.477949372636E-04  0.786007024908E-04 -0.649516953063E-03 -0.224640179254E-03 -0.123218524935E-02
 -0.110060225274E-04  0.389875774628E-05  0.205007347638E-04 -0.281216236244E-04 -0.109859539940E-03  0.444830765160E-04 -0.282174294780E-04
  0.223658535358E-05 -0.130427741719E-04  0.437460593061E-05 -0.466207514556E-05  0.581191352008E-04  0.548250646541E-04  0.575220622734E-05
 -0.515049775859E-06  0.904686826175E-06 -0.258243498796E-04 -0.103677991632E-04  0.205532484905E-04  0.335885740371E-05  0.135144179687E-05
  0.792890681652E-05  0.840140546330E-07 -0.205669380697E-05 -0.554240077184E-05  0.288854700786E-05  0.286498719000E-05 -0.494179577312E-06
  0.118988801561E-05 -0.586671650888E-07  0.656087952268E-06 -0.143848271406E-06  0.439808505489E-06
 -0.638979940983E-04 -0.145910333793E-03 -0.404962738143E-04  0.106453880518E-03  0.179543737159E-03 -0.149297563447E-03  0.637939916432E-04
  0.557833827367E-04  0.308287117455E-03  0.153620520810E-03  0.476247826419E-03 -0.240772846606E-03  0.143547646529E-03  0.628581604108E-04
  0.170525521184E-03  0.140733372759E-03  0.396018240220E-03  0.179653869396E-03 -0.199260876821E-03  0.562151615711E-04  0.164970131264E-03
  0.172566437360E-03  0.122876538852E-03  0.265311918567E-03  0.256519033808E-03  0.175801522246E-03  0.128364762701E-03  0.219320446832E-03
  0.611159897849E-04  0.161033883736E-03  0.155514115197E-03  0.141172147814E-03  0.804987494085E-04
  0.984845592617E-03  0.615833776089E-03  0.204710633405E-03 -0.102761474100E-02 -0.382993387426E-02  0.779565257613E-04 -0.464744367190E-02
  0.396742473159E-03  0.282345715106E-03  0.262833880579E-03 -0.484877852770E-03 -0.726233649552E-03 -0.282590610342E-02  0.150605492365E-03
  0.274026164552E-03  0.147651814155E-03 -0.532164401446E-04  0.315970110556E-03 -0.210589221735E-02  0.107730151441E-03  0.669639672141E-04
  0.137214429972E-03  0.675352412558E-04  0.117739208578E-03  0.276636686135E-03  0.549713746613E-03  0.182274578756E-02  0.647516424923E-03
  0.147524698871E-03  0.169033113364E-03  0.166976398594E-02  0.851938765198E-03  0.248996049928E-02
        15         9        16        16
        15        18        11        11
        22        15        21        21
        11         5         9         9
         5         7         2         2
        11         9        15        15
        16        21        15        15
        16        10        14        14
        18        17        11        11
        17        25        24        24
        22        18        15        15
        22        30        31        31
        30        21        23        23
        16        20        23        23
        22        27        26        26
        10         9         4         4
         7        11        13        13
        25        18        26        26
        11         7         5         5
         5         1         4         4
        17        19        13        13
        23        32        30        30
        23        20        29        29
         4         9         5         5
         4         8        10        10
        26        18        22        22
        26        28        25        25
        13        11        17        17
        13         6         7         7
        31        30        32        32
         2         1         5         5
         2         7         6         6
        14        10         8         8
        24        19        17        17
        24        25        28        28
         9        10        16        16
         3         4         1         1
        33        26        27        27
        12        13        19        19
        21        30        22        22
        16        14        20        20
        16        23        21        21
        22        31        27        27
        18        25        17        17
        26        33        28        28
         4         3         8         8
        23        29        32        32
        13        12         6         6
zone t="boundary 4 bc-4", solutiontime= 0.7000000E+02, strandid=1004, i=32, j=46, f=feblock
  0.125000000000E+01  0.219251206392E+01  0.103724302461E+01  0.500000000000E+01  0.250000000000E+01  0.375000000000E+01  0.404200324774E+01
  0.500000000000E+01  0.000000000000E+00  0.310152362409E+01  0.202479342020E+01  0.324151231464E+01  0.922061490191E+00  0.000000000000E+00
  0.299062775774E+01  0.394624082883E+01  0.500000000000E+01  0.409252726285E+01  0.500000000000E+01  0.429310310915E+01  0.175434191980E+01
  0.284428995242E+01  0.000000000000E+00  0.000000000000E+00  0.715990576545E+00  0.930412228790E+00  0.125000000000E+01  0.187029682677E+01
  0.500000000000E+01  0.375000000000E+01  0.250000000000E+01  0.000000000000E+00
  0.250000000000E+01  0.157686156160E+01  0.146289271009E+01  0.250000000000E+01  0.250000000000E+01  0.250000000000E+01  0.155830813274E+01
  0.125000000000E+01  0.250000000000E+01  0.177790177481E+01  0.477386199275E+00  0.742988685424E+00  0.308372018325E+00  0.125000000000E+01
 -0.487811078581E+00 -0.144524380962E+01 -0.125000000000E+01 -0.345533899378E+00  0.000000000000E+00  0.627766083140E+00 -0.739814786992E+00
 -0.158811787973E+01  0.000000000000E+00 -0.125000000000E+01 -0.600232012419E+00 -0.154800130438E+01 -0.250000000000E+01 -0.178862290564E+01
 -0.250000000000E+01 -0.250000000000E+01 -0.250000000000E+01 -0.250000000000E+01
  0.500000000000E+01  0.500000000000E+01  0.500000000000E+01  0.500000000000E+01  0.500000000000E+01  0.500000000000E+01  0.500000000000E+01
  0.500000000000E+01  0.500000000000E+01  0.500000000000E+01  0.500000000000E+01  0.500000000000E+01  0.500000000000E+01  0.500000000000E+01
  0.500000000000E+01  0.500000000000E+01  0.500000000000E+01  0.500000000000E+01  0.500000000000E+01  0.500000000000E+01  0.500000000000E+01
  0.500000000000E+01  0.500000000000E+01  0.500000000000E+01  0.500000000000E+01  0.500000000000E+01  0.500000000000E+01  0.500000000000E+01
  0.500000000000E+01  0.500000000000E+01  0.500000000000E+01  0.500000000000E+01
  0.488562428343E+00  0.488873127044E+00  0.490562939264E+00  0.492980744788E+00  0.486460936507E+00  0.484596927548E+00  0.485347896276E+00
  0.494163542317E+00  0.495346592024E+00  0.486528232758E+00  0.487819998460E+00  0.487068916091E+00  0.494045904395E+00  0.496127394917E+00
  0.487612357629E+00  0.483219722850E+00  0.492395510969E+00  0.487214141159E+00  0.494738985333E+00  0.487958525499E+00  0.489677249447E+00
  0.488029107105E+00  0.497246279768E+00  0.496059270892E+00  0.494951052257E+00  0.492800373677E+00  0.490002767114E+00  0.490005124553E+00
  0.491352304715E+00  0.486075475228E+00  0.490036479234E+00  0.495098264817E+00
  0.100215267510E+01  0.100152652958E+01  0.100178347660E+01  0.100047670023E+01  0.100126820231E+01  0.100066573360E+01  0.100025357725E+01
  0.100050391679E+01  0.100179336279E+01  0.100112367258E+01  0.100133045248E+01  0.100072432973E+01  0.100164366725E+01  0.100168844809E+01
  0.100096274503E+01  0.100000874853E+01  0.100082864314E+01  0.100022269190E+01  0.100062146074E+01  0.100023497311E+01  0.100174635719E+01
  0.100098855496E+01  0.100118726928E+01  0.100134171022E+01  0.100132635956E+01  0.100179873777E+01  0.100192656835E+01  0.100163748619E+01
  0.100045434508E+01  0.100058774183E+01  0.100109993754E+01  0.100176112495E+01
 -0.450924970476E-02 -0.437693073785E-02 -0.450605699709E-02 -0.521208044055E-03 -0.421020340348E-02 -0.227710562537E-02 -0.158333066109E-02
 -0.518489557067E-03 -0.599703059077E-02 -0.349449276287E-02 -0.471568091387E-02 -0.329520931354E-02 -0.551025274949E-02 -0.620748208012E-02
 -0.372974177642E-02 -0.153752875340E-02 -0.588368465883E-03 -0.195155857442E-02 -0.482445660059E-03 -0.194396956698E-02 -0.583837784657E-02
 -0.353074703342E-02 -0.686171972223E-02 -0.608847784972E-02 -0.640652558445E-02 -0.515834812058E-02 -0.517095374137E-02 -0.545501684084E-02
 -0.604954734565E-03 -0.234293792730E-02 -0.452612386991E-02 -0.573072769245E-02