title="tecplot geometry and solution file"
variables = x y z rho u v w p mach temperature
zone t="boundary 1 bc-1", solutiontime= 0.1000000E+02, strandid=1001, i=32, j=46, f=feblock
 -0.547474056487E-02  0.000000000000E+00 -0.567611624958E-02  0.000000000000E+00  0.000000000000E+00  0.000000000000E+00 -0.525163921411E-02
 -0.425780132113E-02  0.000000000000E+00  0.000000000000E+00  0.000000000000E+00  0.000000000000E+00  0.000000000000E+00  0.000000000000E+00
  0.000000000000E+00  0.000000000000E+00 -0.338397966069E-02  0.000000000000E+00  0.000000000000E+00  0.000000000000E+00  0.000000000000E+00
  0.000000000000E+00  0.000000000000E+00  0.000000000000E+00  0.000000000000E+00  0.000000000000E+00  0.000000000000E+00  0.000000000000E+00
  0.000000000000E+00  0.000000000000E+00  0.000000000000E+00  0.000000000000E+00
  0.250494200279E+01  0.250494200279E+01  0.127822173056E+01  0.146289271009E+01  0.157686156160E+01  0.308372018325E+00  0.261950021518E-01
 -0.122573468580E+01 -0.600232012419E+00  0.250494200279E+01  0.477386199275E+00  0.742988685424E+00 -0.739814786992E+00  0.177790177481E+01
  0.155830813274E+01  0.250494200279E+01 -0.249658901845E+01 -0.154800130438E+01 -0.487811078581E+00  0.250494200279E+01  0.627766083140E+00
 -0.345533899378E+00 -0.178862290564E+01 -0.158811787973E+01  0.125000000000E+01 -0.249658901845E+01 -0.144524380962E+01  0.000000000000E+00
 -0.125000000000E+01 -0.249658901845E+01 -0.249658901845E+01 -0.249658901845E+01
  0.803607698199E-04  0.125000000000E+01  0.822308844189E-04  0.103724302461E+01  0.219251206392E+01  0.922061490191E+00  0.103863096908E-03
  0.341502722739E-04  0.715990576545E+00  0.250000000000E+01  0.202479342020E+01  0.324151231464E+01  0.175434191980E+01  0.310152362409E+01
  0.404200324774E+01  0.375000000000E+01  0.810737457067E-04  0.930412228790E+00  0.299062775774E+01  0.500000000000E+01  0.429310310915E+01
  0.409252726285E+01  0.187029682677E+01  0.284428995242E+01  0.500000000000E+01  0.125000000000E+01  0.394624082883E+01  0.500000000000E+01
  0.500000000000E+01  0.250000000000E+01  0.375000000000E+01  0.500000000000E+01
  0.134581845681E+01  0.106312786989E+01  0.142646220243E+01  0.108603555362E+01  0.103193143195E+01  0.120125327739E+01  0.164492543194E+01
  0.149367174581E+01  0.123489206655E+01  0.102375886378E+01  0.102853531800E+01  0.101305824657E+01  0.103303337769E+01  0.101449419685E+01
  0.100654386958E+01  0.100814700563E+01  0.144691814879E+01  0.116346840909E+01  0.101490013596E+01  0.100302385930E+01  0.100674564524E+01
  0.100734562894E+01  0.104651967120E+01  0.101926586479E+01  0.100390186040E+01  0.106506750293E+01  0.100787242583E+01  0.100324012945E+01
  0.100346066190E+01  0.102865940449E+01  0.100959982110E+01  0.100377758573E+01
  0.000000000000E+00  0.445733201847E+00  0.000000000000E+00  0.466990377720E+00  0.463441931970E+00  0.443727283964E+00  0.000000000000E+00
  0.000000000000E+00  0.379546454247E+00  0.472098420264E+00  0.466817955345E+00  0.479428184956E+00  0.489831067523E+00  0.484529996984E+00
  0.488060498887E+00  0.489700561276E+00  0.000000000000E+00  0.451203945804E+00  0.474742345980E+00  0.496302468046E+00  0.490995916931E+00
  0.486736199789E+00  0.449433726499E+00  0.466739291463E+00  0.497461034997E+00  0.445461798165E+00  0.487484461415E+00  0.498085545217E+00
  0.496750891524E+00  0.469811818444E+00  0.489090502672E+00  0.495691663852E+00
  0.000000000000E+00  0.000000000000E+00  0.000000000000E+00  0.171591432671E-01 -0.213949522977E-02  0.325103492329E-01  0.000000000000E+00
  0.000000000000E+00 -0.693393889058E-02  0.000000000000E+00  0.417891055164E-02 -0.516710705084E-02 -0.424411181384E-02  0.505754395878E-04
 -0.791517986317E-03  0.000000000000E+00  0.000000000000E+00 -0.800272266861E-02  0.436580415948E-03  0.000000000000E+00 -0.211498930227E-02
 -0.137459155573E-02  0.159640157234E-02 -0.189567609235E-02 -0.436106216319E-03  0.000000000000E+00 -0.223632063607E-03 -0.421196639050E-03
  0.824964817838E-03  0.000000000000E+00  0.000000000000E+00  0.000000000000E+00
  0.000000000000E+00  0.456654601578E-01  0.000000000000E+00  0.122550633264E+00  0.246567894306E-01  0.166025365340E+00  0.000000000000E+00
  0.000000000000E+00  0.156393698322E+00  0.372155946417E-02  0.268950880768E-01 -0.603785441319E-02  0.757042827047E-01  0.396193020184E-02
  0.330429712384E-03  0.901547280757E-03  0.000000000000E+00  0.140828098483E+00 -0.761784113299E-02  0.451441272025E-02  0.232279747517E-03
 -0.421021732189E-02  0.259717459097E-01 -0.133564043678E-02  0.448979536482E-02  0.845085966537E-01 -0.109901440189E-02  0.320183513899E-02
  0.320319810066E-02  0.273475910230E-02 -0.863005948615E-03  0.447279673468E-02
  0.961298897723E+00  0.782089669514E+00  0.101890157317E+01  0.808203436805E+00  0.745969034796E+00  0.879760066772E+00  0.117494673710E+01
  0.106690838987E+01  0.916144926219E+00  0.737258866197E+00  0.743842694493E+00  0.725824429883E+00  0.757594688611E+00  0.729033385546E+00
  0.720602129878E+00  0.722626899573E+00  0.103351296342E+01  0.857717937446E+00  0.728219126323E+00  0.718048278853E+00  0.721038437324E+00
  0.721191469325E+00  0.759942568919E+00  0.732661787890E+00  0.718495206973E+00  0.791161630723E+00  0.722122554191E+00  0.717619900682E+00
  0.717852325225E+00  0.741845181153E+00  0.724041830817E+00  0.718473429273E+00
  0.000000000000E+00  0.441512245464E+00  0.000000000000E+00  0.473305629257E+00  0.461333229319E+00  0.468985167464E+00  0.000000000000E+00
  0.000000000000E+00  0.402855202142E+00  0.470187260929E+00  0.464718028881E+00  0.478763041523E+00  0.489173367993E+00  0.483083547570E+00
  0.487504799450E+00  0.488846139901E+00  0.000000000000E+00  0.465330926616E+00  0.473729747155E+00  0.495768799957E+00  0.490341455567E+00
  0.486196211059E+00  0.446489882140E+00  0.465272810656E+00  0.496988795425E+00  0.444610966712E+00  0.486737980230E+00  0.497741966890E+00
  0.496382983806E+00  0.467569784084E+00  0.488111108397E+00  0.495197756143E+00
  0.100000000000E+01  0.102990954177E+01  0.100000000000E+01  0.104184877535E+01  0.101204073874E+01  0.102531590686E+01  0.100000000000E+01
  0.100000000000E+01  0.103863562772E+01  0.100820852370E+01  0.101248810232E+01  0.100305604863E+01  0.102671664533E+01  0.100606464082E+01
  0.100228416497E+01  0.100350212196E+01  0.100000000000E+01  0.103209086129E+01  0.100453900904E+01  0.100223696682E+01  0.100269002109E+01
  0.100230549282E+01  0.101662646749E+01  0.100633852117E+01  0.100198368928E+01  0.103995876314E+01  0.100307494278E+01  0.100142312041E+01
  0.100152730792E+01  0.100964736149E+01  0.100402014932E+01  0.100207736781E+01
        12        19        11        11
        11         5        12        12
        10        14         5         5
        19        13        11        11
        19        24        13        13
        30        23        24        24
        19        12        22        22
        28        22        21        21
        11        13         6         6
         7         6         9         9
        15        12        14        14
        18        13        23        23
        15        25        21        21
        27        19        22        22
        18         8         9         9
        27        31        24        24
         4        11         6         6
         5        14        12        12
         4         2         5         5
        21        12        15        15
        14        16        15        15
        24        19        27        27
        22        29        27        27
        23        26        18        18
        17         8        18        18
         5        11         4         4
         6         3         4         4
        26        23        30        30
         5         2        10        10
        16        14        10        10
         3         6         7         7
        21        25        28        28
        29        22        28        28
         6        13         9         9
         2         4         1         1
        31        27        32        32
        25        15        20        20
        24        23        13        13
         8         7         9         9
        13        18         9         9
        31        30        24        24
        12        21        22        22
        29        32        27        27
         3         1         4         4
        26        17        18        18
        16        20        15        15
zone t="boundary 2 bc-2", solutiontime= 0.1000000E+02, strandid=1002, i=33, j=48, f=feblock
  0.500195254423E+01  0.375034811300E+01  0.249861145438E+01  0.288036673900E+01  0.124717525201E+01  0.190856697766E+01  0.326577189538E+01
  0.201394855854E+01 -0.338397966069E-02  0.962374244853E+00  0.500000000000E+01  0.403430189219E+01  0.423029563012E+01  0.500000000000E+01
  0.385439188301E+01  0.500000000000E+01  0.398133432895E+01  0.315200081076E+01  0.266958028564E+01  0.154798029969E+01  0.218327860462E+01
  0.893688443498E+00  0.000000000000E+00  0.699009764927E+00  0.964460901017E+00  0.310303671512E+01  0.000000000000E+00  0.000000000000E+00
  0.125000000000E+01  0.500000000000E+01  0.375000000000E+01  0.250000000000E+01  0.000000000000E+00
 -0.249658901845E+01 -0.249658901845E+01 -0.249658901845E+01 -0.249658901845E+01 -0.249658901845E+01 -0.249658901845E+01 -0.249658901845E+01
 -0.249658901845E+01 -0.249658901845E+01 -0.249658901845E+01 -0.249658901845E+01 -0.249658901845E+01 -0.249658901845E+01 -0.249658901845E+01
 -0.249658901845E+01 -0.249658901845E+01 -0.249658901845E+01 -0.249658901845E+01 -0.249658901845E+01 -0.249658901845E+01 -0.249658901845E+01
 -0.249658901845E+01 -0.249658901845E+01 -0.249658901845E+01 -0.249658901845E+01 -0.249658901845E+01 -0.249658901845E+01 -0.249658901845E+01
 -0.249658901845E+01 -0.249658901845E+01 -0.249658901845E+01 -0.249658901845E+01 -0.249658901845E+01
  0.108227028865E-03  0.145876645327E-03  0.100894462691E-03  0.901663357362E+00  0.110859989912E-03  0.714928307555E+00  0.188140645171E+01
  0.175892163320E+01  0.810737457067E-04  0.957504279695E+00  0.125000000000E+01  0.100596695558E+01  0.191313517424E+01  0.250000000000E+01
  0.292898095238E+01  0.375000000000E+01  0.406883368893E+01  0.363389288622E+01  0.284756859045E+01  0.292582306602E+01  0.395754053891E+01
  0.205027255656E+01  0.125000000000E+01  0.306703271908E+01  0.397155766072E+01  0.433068621492E+01  0.250000000000E+01  0.375000000000E+01
  0.500000000000E+01  0.500000000000E+01  0.500000000000E+01  0.500000000000E+01  0.500000000000E+01
  0.832034667778E+00  0.937148497922E+00  0.935718551431E+00  0.968952735450E+00  0.961420289349E+00  0.965441018486E+00  0.983989627945E+00
  0.991460523579E+00  0.144691814879E+01  0.102891240695E+01  0.956228823784E+00  0.962345315139E+00  0.980989003135E+00  0.100487236480E+01
  0.997509152281E+00  0.100976305372E+01  0.100237779022E+01  0.997988482062E+00  0.991410484448E+00  0.100161106235E+01  0.100110101747E+01
  0.101229510142E+01  0.106506750293E+01  0.101062853757E+01  0.100685290209E+01  0.100118076497E+01  0.102865940449E+01  0.100959982110E+01
  0.100532046433E+01  0.100462675268E+01  0.100437247123E+01  0.100326649006E+01  0.100377758573E+01
  0.000000000000E+00  0.000000000000E+00  0.000000000000E+00  0.379453931692E+00  0.000000000000E+00  0.340956055965E+00  0.580130264093E+00
  0.573776531381E+00  0.000000000000E+00  0.489228110084E+00  0.496107412777E+00  0.432930481270E+00  0.567892625707E+00  0.536074162510E+00
  0.567037716857E+00  0.516418356700E+00  0.508568490272E+00  0.528235165925E+00  0.566507929098E+00  0.533106209152E+00  0.506456135915E+00
  0.520907349646E+00  0.445461798165E+00  0.491835662948E+00  0.492590871413E+00  0.501325749604E+00  0.469811818444E+00  0.489090502672E+00
  0.487797994926E+00  0.491932678281E+00  0.485652876907E+00  0.487558919776E+00  0.495691663852E+00
  0.000000000000E+00  0.000000000000E+00  0.000000000000E+00  0.000000000000E+00  0.000000000000E+00  0.000000000000E+00  0.000000000000E+00
  0.000000000000E+00  0.000000000000E+00  0.000000000000E+00  0.000000000000E+00  0.000000000000E+00  0.000000000000E+00  0.000000000000E+00
  0.000000000000E+00  0.000000000000E+00  0.000000000000E+00  0.000000000000E+00  0.000000000000E+00  0.000000000000E+00  0.000000000000E+00
  0.000000000000E+00  0.000000000000E+00  0.000000000000E+00  0.000000000000E+00  0.000000000000E+00  0.000000000000E+00  0.000000000000E+00
  0.000000000000E+00  0.000000000000E+00  0.000000000000E+00  0.000000000000E+00  0.000000000000E+00
  0.000000000000E+00  0.000000000000E+00  0.000000000000E+00 -0.231903757404E-02  0.000000000000E+00  0.183157500357E-01  0.113897546460E-01
  0.448181667575E-01  0.000000000000E+00  0.863017072184E-01 -0.967495515428E-01 -0.216299402915E-01 -0.302108554102E-01 -0.406104100608E-01
 -0.748933004432E-03  0.137279940948E-02  0.141675333164E-02  0.180859637013E-02  0.153423540211E-01  0.288364202511E-01  0.619980906150E-02
  0.554803595561E-01  0.845085966537E-01  0.112140694763E-01  0.663578392336E-02  0.563737940598E-04  0.273475910230E-02 -0.863005948615E-03
  0.373394678211E-02  0.518072868107E-02  0.827892666927E-03  0.940353214744E-03  0.447279673468E-02
  0.594310476985E+00  0.669391784230E+00  0.668370393879E+00  0.684628894885E+00  0.686728778106E+00  0.679400798748E+00  0.696108650471E+00
  0.702417004663E+00  0.103351296342E+01  0.723307336186E+00  0.672996384746E+00  0.676600284246E+00  0.694089125902E+00  0.720051518190E+00
  0.712659458531E+00  0.724718602103E+00  0.716653257669E+00  0.713300488441E+00  0.706706100810E+00  0.717835301259E+00  0.715746580875E+00
  0.730941475422E+00  0.791161630723E+00  0.724280948835E+00  0.721085751703E+00  0.715517475106E+00  0.741845181153E+00  0.724041830817E+00
  0.719818121108E+00  0.717737485640E+00  0.717387961728E+00  0.717297847172E+00  0.718473429273E+00
  0.000000000000E+00  0.000000000000E+00  0.000000000000E+00  0.381528367189E+00  0.000000000000E+00  0.344001201181E+00  0.583044810893E+00
  0.577882873638E+00  0.000000000000E+00  0.500759735001E+00  0.509203722703E+00  0.436912920390E+00  0.571400122978E+00  0.536756284186E+00
  0.566977371160E+00  0.515186200424E+00  0.508332988231E+00  0.528071028413E+00  0.567294427122E+00  0.532992736313E+00  0.506255399158E+00
  0.521024487056E+00  0.444610966712E+00  0.491146555927E+00  0.491984363755E+00  0.501189683473E+00  0.467569784084E+00  0.488111108397E+00
  0.487225028854E+00  0.491909593646E+00  0.485660672566E+00  0.487329033174E+00  0.495197756143E+00
  0.100000000000E+01  0.100000000000E+01  0.100000000000E+01  0.989192163634E+00  0.100000000000E+01  0.985208935641E+00  0.990408926052E+00
  0.991853717965E+00  0.100000000000E+01  0.984175391239E+00  0.985323716677E+00  0.984304057018E+00  0.990556237795E+00  0.100318424585E+01
  0.100021462426E+01  0.100479616402E+01  0.100093454836E+01  0.100063347600E+01  0.997960538702E+00  0.100335295759E+01  0.100094315732E+01
  0.101088908180E+01  0.103995876314E+01  0.100332940410E+01  0.100264899698E+01  0.100054305895E+01  0.100964736149E+01  0.100402014932E+01
  0.100241207188E+01  0.100020477975E+01  0.999970802849E+00  0.100094740130E+01  0.100207736781E+01
        15         7        19        19
         8        20        19        19
        18        19        21        21
         7         4         8         8
         3         6         4         4
        19         7         8         8
        19        18        15        15
        14        13        15        15
         8        22        20        20
        27        24        22        22
        19        20        21        21
        32        26        21        21
        17        18        26        26
        17        16        15        15
        25        29        21        21
        12         7        13        13
        10         8         6         6
        25        20        24        24
         4         6         8         8
        12         2         4         4
        10        23        22        22
        26        31        17        17
        30        16        17        17
         4         7        12        12
        13        11        12        12
        21        20        25        25
        24        28        25        25
        22         8        10        10
         6         5        10        10
        31        26        32        32
         4         2         3         3
         5         6         3         3
        11        13        14        14
        22        23        27        27
        28        24        27        27
        15        13         7         7
         2        12         1         1
        29        25        33        33
        23        10         9         9
        21        26        18        18
        16        14        15        15
        18        17        15        15
        29        32        21        21
        22        24        20        20
        28        33        25        25
        11         1        12        12
        31        30        17        17
         5         9        10        10
zone t="boundary 3 bc-3", solutiontime= 0.1000000E+02, strandid=1003, i=33, j=48, f=feblock
  0.375059098392E+01  0.249769607369E+01  0.500322137760E+01  0.403612219733E+01  0.287976771624E+01  0.124541906061E+01  0.190552233783E+01
  0.500000000000E+01  0.326671104315E+01  0.423253755958E+01  0.201271135125E+01 -0.547474056487E-02  0.958895605968E+00  0.500000000000E+01
  0.266968146968E+01  0.385584487428E+01  0.890374195904E+00  0.154654012874E+01  0.000000000000E+00  0.500000000000E+01  0.315261136710E+01
  0.218304199350E+01  0.398195307939E+01  0.000000000000E+00  0.697379945240E+00  0.963757275263E+00  0.125000000000E+01  0.000000000000E+00
  0.500000000000E+01  0.310330738504E+01  0.250000000000E+01  0.375000000000E+01  0.000000000000E+00
  0.250494200279E+01  0.250494200279E+01  0.250494200279E+01  0.250494200279E+01  0.250494200279E+01  0.250494200279E+01  0.250494200279E+01
  0.250494200279E+01  0.250494200279E+01  0.250494200279E+01  0.250494200279E+01  0.250494200279E+01  0.250494200279E+01  0.250494200279E+01
  0.250494200279E+01  0.250494200279E+01  0.250494200279E+01  0.250494200279E+01  0.250494200279E+01  0.250494200279E+01  0.250494200279E+01
  0.250494200279E+01  0.250494200279E+01  0.250494200279E+01  0.250494200279E+01  0.250494200279E+01  0.250494200279E+01  0.250494200279E+01
  0.250494200279E+01  0.250494200279E+01  0.250494200279E+01  0.250494200279E+01  0.250494200279E+01
  0.135629550312E-03  0.110109130355E-03  0.966678092831E-04  0.101756753754E+01  0.908094590782E+00  0.103921996441E-03  0.722629099369E+00
  0.125000000000E+01  0.188965662536E+01  0.191862697922E+01  0.176708240421E+01  0.803607698199E-04  0.969652586048E+00  0.250000000000E+01
  0.285339434267E+01  0.293325059390E+01  0.205656225445E+01  0.293157018192E+01  0.125000000000E+01  0.375000000000E+01  0.363766839384E+01
  0.396069445518E+01  0.407056385699E+01  0.250000000000E+01  0.307031996065E+01  0.397359820753E+01  0.500000000000E+01  0.375000000000E+01
  0.500000000000E+01  0.433260781587E+01  0.500000000000E+01  0.500000000000E+01  0.500000000000E+01
  0.944172849683E+00  0.947606095666E+00  0.844026212527E+00  0.966187558734E+00  0.980488770855E+00  0.957973935936E+00  0.984291115366E+00
  0.964367797494E+00  0.983018673300E+00  0.984296757599E+00  0.990827204970E+00  0.134581845681E+01  0.101935815305E+01  0.100740500910E+01
  0.993612471813E+00  0.997679460479E+00  0.100791591186E+01  0.100084160178E+01  0.106312786989E+01  0.100619031896E+01  0.100064459149E+01
  0.100253540025E+01  0.100185546408E+01  0.102375886378E+01  0.100881897153E+01  0.100542358017E+01  0.100529415583E+01  0.100814700563E+01
  0.100457004821E+01  0.100189883459E+01  0.100462510604E+01  0.100576766631E+01  0.100302385930E+01
  0.000000000000E+00  0.000000000000E+00  0.000000000000E+00  0.441787346751E+00  0.401109472246E+00  0.000000000000E+00  0.374349989150E+00
  0.495177663900E+00  0.571788554097E+00  0.568538116546E+00  0.558774204814E+00  0.000000000000E+00  0.483778460843E+00  0.533404107272E+00
  0.556175388635E+00  0.563766123197E+00  0.522455186498E+00  0.522656838742E+00  0.445733201847E+00  0.518389267689E+00  0.525037792710E+00
  0.503088390104E+00  0.508833307939E+00  0.472098420264E+00  0.496200167834E+00  0.494386510162E+00  0.486425022119E+00  0.489700561276E+00
  0.493301112922E+00  0.497927457034E+00  0.483709779366E+00  0.484154708438E+00  0.496302468046E+00
  0.000000000000E+00  0.000000000000E+00  0.000000000000E+00  0.000000000000E+00  0.000000000000E+00  0.000000000000E+00  0.000000000000E+00
  0.000000000000E+00  0.000000000000E+00  0.000000000000E+00  0.000000000000E+00  0.000000000000E+00  0.000000000000E+00  0.000000000000E+00
  0.000000000000E+00  0.000000000000E+00  0.000000000000E+00  0.000000000000E+00  0.000000000000E+00  0.000000000000E+00  0.000000000000E+00
  0.000000000000E+00  0.000000000000E+00  0.000000000000E+00  0.000000000000E+00  0.000000000000E+00  0.000000000000E+00  0.000000000000E+00
  0.000000000000E+00  0.000000000000E+00  0.000000000000E+00  0.000000000000E+00  0.000000000000E+00
  0.000000000000E+00  0.000000000000E+00  0.000000000000E+00 -0.225198920979E-01  0.108265689780E-01  0.000000000000E+00  0.179376427992E-01
 -0.979103364898E-01  0.368223849032E-02 -0.377126141491E-01  0.330106255934E-01  0.000000000000E+00  0.649403373312E-01 -0.415300869345E-01
  0.826464660042E-02 -0.597186240743E-02  0.480717679829E-01  0.129146998976E-01  0.456654601578E-01 -0.236422786128E-03 -0.379944394769E-03
  0.200700904617E-02  0.142639401558E-02  0.372155946417E-02  0.100567225648E-01  0.435306594867E-02  0.372458853286E-02  0.901547280757E-03
  0.479397399463E-02  0.678234511216E-03  0.209129786697E-02  0.235133687777E-02  0.451441272025E-02
  0.674409178345E+00  0.676861496904E+00  0.602875866090E+00  0.676789925332E+00  0.691815905698E+00  0.684267097097E+00  0.690378325469E+00
  0.677861961017E+00  0.695358764039E+00  0.696373966595E+00  0.703678723684E+00  0.961298897723E+00  0.719690923699E+00  0.722316412858E+00
  0.709623904112E+00  0.713593236878E+00  0.725967019384E+00  0.716745167439E+00  0.782089669514E+00  0.721787987106E+00  0.716136391561E+00
  0.716782517568E+00  0.716414984014E+00  0.737258866197E+00  0.722647216281E+00  0.719600986654E+00  0.719940824469E+00  0.722626899573E+00
  0.717631113879E+00  0.715917663652E+00  0.718242331157E+00  0.718304968201E+00  0.718048278853E+00
  0.000000000000E+00  0.000000000000E+00  0.000000000000E+00  0.446700600994E+00  0.403722621552E+00  0.000000000000E+00  0.378207396265E+00
  0.508833426630E+00  0.574588411166E+00  0.572520032811E+00  0.561358914075E+00  0.000000000000E+00  0.490965400311E+00  0.534002158937E+00
  0.556275703435E+00  0.563416387670E+00  0.522479648518E+00  0.522138179374E+00  0.441512245464E+00  0.517281886801E+00  0.524528047493E+00
  0.502851661504E+00  0.508549727630E+00  0.470187260929E+00  0.495593408717E+00  0.493910304185E+00  0.485805915740E+00  0.488846139901E+00
  0.493296537458E+00  0.497832054897E+00  0.483494372578E+00  0.484194289657E+00  0.495768799957E+00
  0.100000000000E+01  0.100000000000E+01  0.100000000000E+01  0.980664558243E+00  0.987815767776E+00  0.100000000000E+01  0.981955074640E+00
  0.984071375973E+00  0.990319203589E+00  0.990477257703E+00  0.994270452220E+00  0.100000000000E+01  0.988433054828E+00  0.100380975761E+01
  0.999860100331E+00  0.100135421366E+01  0.100837164607E+01  0.100259944494E+01  0.102990954177E+01  0.100428632924E+01  0.100194510290E+01
  0.100095769621E+01  0.100112342905E+01  0.100820852370E+01  0.100286189232E+01  0.100200691647E+01  0.100260918500E+01  0.100350212196E+01
  0.100011299483E+01  0.100038516316E+01  0.100090994897E+01  0.999860096089E+00  0.100223696682E+01
        15         9        16        16
        15        18        11        11
        22        15        21        21
        11         5         9         9
         5         7         2         2
        11         9        15        15
        16        21        15        15
        16        10        14        14
        18        17        11        11
        17        25        24        24
        22        18        15        15
        22        30        31        31
        30        21        23        23
        16        20        23        23
        22        27        26        26
        10         9         4         4
         7        11        13        13
        25        18        26        26
        11         7         5         5
         5         1         4         4
        17        19        13        13
        23        32        30        30
        23        20        29        29
         4         9         5         5
         4         8        10        10
        26        18        22        22
        26        28        25        25
        13        11        17        17
        13         6         7         7
        31        30        32        32
         2         1         5         5
         2         7         6         6
        14        10         8         8
        24        19        17        17
        24        25        28        28
         9        10        16        16
         3         4         1         1
        33        26        27        27
        12        13        19        19
        21        30        22        22
        16        14        20        20
        16        23        21        21
        22        31        27        27
        18        25        17        17
        26        33        28        28
         4         3         8         8
        23        29        32        32
        13        12         6         6
zone t="boundary 4 bc-4", solutiontime= 0.1000000E+02, strandid=1004, i=32, j=46, f=feblock
  0.125000000000E+01  0.219251206392E+01  0.103724302461E+01  0.500000000000E+01  0.250000000000E+01  0.375000000000E+01  0.404200324774E+01
  0.500000000000E+01  0.000000000000E+00  0.310152362409E+01  0.202479342020E+01  0.324151231464E+01  0.922061490191E+00  0.000000000000E+00
  0.299062775774E+01  0.394624082883E+01  0.500000000000E+01  0.409252726285E+01  0.500000000000E+01  0.429310310915E+01  0.175434191980E+01
  0.284428995242E+01  0.000000000000E+00  0.000000000000E+00  0.715990576545E+00  0.930412228790E+00  0.125000000000E+01  0.187029682677E+01
  0.500000000000E+01  0.375000000000E+01  0.250000000000E+01  0.000000000000E+00
  0.250494200279E+01  0.157686156160E+01  0.146289271009E+01  0.250494200279E+01  0.250494200279E+01  0.250494200279E+01  0.155830813274E+01
  0.125000000000E+01  0.250494200279E+01  0.177790177481E+01  0.477386199275E+00  0.742988685424E+00  0.308372018325E+00  0.125000000000E+01
 -0.487811078581E+00 -0.144524380962E+01 -0.125000000000E+01 -0.345533899378E+00  0.000000000000E+00  0.627766083140E+00 -0.739814786992E+00
 -0.158811787973E+01  0.000000000000E+00 -0.125000000000E+01 -0.600232012419E+00 -0.154800130438E+01 -0.249658901845E+01 -0.178862290564E+01
 -0.249658901845E+01 -0.249658901845E+01 -0.249658901845E+01 -0.249658901845E+01
  0.500000000000E+01  0.500000000000E+01  0.500000000000E+01  0.500000000000E+01  0.500000000000E+01  0.500000000000E+01  0.500000000000E+01
  0.500000000000E+01  0.500000000000E+01  0.500000000000E+01  0.500000000000E+01  0.500000000000E+01  0.500000000000E+01  0.500000000000E+01
  0.500000000000E+01  0.500000000000E+01  0.500000000000E+01  0.500000000000E+01  0.500000000000E+01  0.500000000000E+01  0.500000000000E+01
  0.500000000000E+01  0.500000000000E+01  0.500000000000E+01  0.500000000000E+01  0.500000000000E+01  0.500000000000E+01  0.500000000000E+01
  0.500000000000E+01  0.500000000000E+01  0.500000000000E+01  0.500000000000E+01
  0.100529415583E+01  0.100483099964E+01  0.100456216592E+01  0.100457004821E+01  0.100462510604E+01  0.100576766631E+01  0.100520954944E+01
  0.100476731951E+01  0.100302385930E+01  0.100532815885E+01  0.100476604684E+01  0.100469939038E+01  0.100355935390E+01  0.100390186040E+01
  0.100463052493E+01  0.100327702095E+01  0.100493556740E+01  0.100440238009E+01  0.100471089680E+01  0.100576801276E+01  0.100443745928E+01
  0.100390774021E+01  0.100324012945E+01  0.100346066190E+01  0.100316502659E+01  0.100409909086E+01  0.100532046433E+01  0.100424026663E+01
  0.100462675268E+01  0.100437247123E+01  0.100326649006E+01  0.100377758573E+01
  0.486425022119E+00  0.486743708798E+00  0.489170946159E+00  0.493301112922E+00  0.483709779366E+00  0.484154708438E+00  0.486399009740E+00
  0.494599199364E+00  0.496302468046E+00  0.484712083252E+00  0.486045083747E+00  0.486443793329E+00  0.493007342405E+00  0.497461034997E+00
  0.486357774143E+00  0.485260604359E+00  0.493806539481E+00  0.488643479565E+00  0.495400644566E+00  0.489140938181E+00  0.487227516570E+00
  0.486471192623E+00  0.498085545217E+00  0.496750891524E+00  0.494531844566E+00  0.491628294361E+00  0.487797994926E+00  0.487511486920E+00
  0.491932678281E+00  0.485652876907E+00  0.487558919776E+00  0.495691663852E+00
  0.000000000000E+00  0.305594127802E-03 -0.139621674761E-02  0.000000000000E+00  0.000000000000E+00  0.000000000000E+00  0.820804050303E-03
  0.115861522555E-02  0.000000000000E+00  0.701884767641E-03 -0.339994696681E-03  0.233504107924E-03 -0.197963193688E-02 -0.436106216319E-03
 -0.368528008705E-03 -0.153444558622E-03 -0.171244941354E-03 -0.631252535749E-03  0.123971746093E-03  0.360410006507E-04 -0.531139447086E-03
 -0.772397764543E-04 -0.421196639050E-03  0.824964817838E-03 -0.178625833747E-03  0.146324226540E-02  0.000000000000E+00  0.843833383873E-03
  0.000000000000E+00  0.000000000000E+00  0.000000000000E+00  0.000000000000E+00