# vtk DataFile Version 2.0
FUN3D:global_image_vtk
ASCII
DATASET UNSTRUCTURED_GRID
POINTS 213 double
   -0.5474684000512648E-02    0.6070648124468115E-38    0.2504941970848040E+01
   -0.5705575665590453E-38    0.8036152315549154E-04    0.1399476119275122E-36
    0.1245419106411887E+01    0.4922239232916357E-38    0.2504941970848040E+01
   -0.5705575665590453E-38    0.1039224934583732E-03    0.1358194863008648E-36
    0.2497696093856144E+01    0.2062923826099668E-38    0.2504941970848040E+01
   -0.5705575665590453E-38    0.1101096625120912E-03    0.1310237251923006E-36
    0.3750590968947385E+01   -0.1811689553535641E-38    0.2504941970848040E+01
   -0.5705575665590453E-38    0.1356296644715375E-03    0.1255440619354111E-36
    0.5003221331141003E+01   -0.5249914498488147E-38    0.2504941970848040E+01
   -0.5705575665590453E-38    0.9666850629596260E-04    0.1199606960890545E-36
    0.5004676687070627E+01   -0.5651369624259320E-38    0.1281291200166810E+01
   -0.3393793162473903E-37    0.1637904058281295E-03    0.8717802240369580E-37
    0.5004772672913028E+01   -0.4464102022561237E-38    0.2775079771206900E-01
   -0.3023645871904771E-37    0.1903381719458332E-03    0.5542125863647098E-37
    0.5003581182779526E+01   -0.2262361219632807E-38   -0.1225853509639863E+01
   -0.2678342722727244E-37    0.1607720512330693E-03    0.2451258677294843E-37
    0.5001952533499706E+01    0.3397993512302797E-40   -0.2496589036703122E+01
   -0.4070411305176971E-38    0.1082264561906959E-03   -0.6214053759697341E-38
    0.3750348111565254E+01    0.1061756569420161E-38   -0.2496589036703122E+01
   -0.4070411305176971E-38    0.1458759322537417E-03   -0.4060515545074723E-38
    0.2498611463165949E+01    0.2247595465878152E-38   -0.2496589036703122E+01
   -0.4070411305176971E-38    0.1008939295841792E-03   -0.2151683195574197E-38
    0.1247175269686167E+01    0.3323958546707261E-38   -0.2496589036703122E+01
   -0.4070411305176971E-38    0.1108594433005775E-03   -0.1099909007023613E-39
   -0.3383959456452422E-02    0.3665632976931650E-38   -0.2496589036703122E+01
   -0.4070411305176971E-38    0.8107340188694461E-04    0.2460500463059212E-38
   -0.4257768255051528E-02    0.4792071969927579E-38   -0.1225734811992292E+01
   -0.2914331615757353E-37    0.3415032852276799E-04    0.3617097260685561E-37
   -0.5251591358563785E-02    0.6127586474166594E-38    0.2619485959665169E-01
   -0.3120115755670829E-37    0.1038630433565173E-03    0.7058326083805502E-37
   -0.5676058953458790E-02    0.6726854822260563E-38    0.1278221568051929E+01
   -0.3362774353479817E-37    0.8223141949081609E-04    0.1053163033617425E-36
    0.9003209631709632E+00    0.6561039692781771E-38    0.1608979110802127E+01
   -0.3562805223253114E-37    0.8702534493697612E-04    0.1115335084198826E-36
    0.3983172210537976E+01    0.1901608963185862E-40   -0.1561211905434712E+01
   -0.2660954887633494E-37    0.1757085566183311E-03    0.1840027553407340E-37
    0.4035602038963069E+01   -0.2236471631635896E-38    0.1486760028021675E+01
   -0.3759293729091275E-37    0.1713155172809124E-03    0.9637481786909982E-37
    0.1036613723928655E+01    0.4320421259343227E-38   -0.1455626430409393E+01
   -0.2896960841251949E-37    0.1047155305052371E-03    0.2726994208624439E-37
    0.1094353481638219E+01    0.5848462928073672E-38   -0.2964622019185324E+00
   -0.3133815955837020E-37    0.1260508913513866E-03    0.5841037819864277E-37
    0.7298400280141439E+00    0.6689130264656738E-38    0.6874684735727910E+00
   -0.3338895821240478E-37    0.1044476761002109E-03    0.8662638866619378E-37
    0.1617018660531897E+01    0.6343266212218719E-38    0.8553208009621391E+00
   -0.3515959143913502E-37    0.1529681308248536E-03    0.8835259018735626E-37
    0.2143199663306477E+01    0.3253434857006738E-38   -0.1627128509725854E+01
   -0.2783960439556429E-37    0.1606142493884239E-03    0.2025097751480189E-37
    0.4088840445008724E+01   -0.1737802652521214E-38   -0.4351047837276328E+00
   -0.2984083712764285E-37    0.2719856196209259E-03    0.4631290718863272E-37
    0.2977916511571279E+01    0.2357540007221186E-38   -0.8334991491169921E+00
   -0.2896943059087877E-37    0.2245536622710267E-03    0.3888314443531967E-37
    0.3044093241541800E+01    0.1834517475377660E-38   -0.1814361225642925E+01
   -0.2707982626134807E-37    0.1616979338099675E-03    0.1376570878467607E-37
    0.3427866614949039E+01    0.8909536912355175E-39    0.3813904821561040E+00
   -0.3504555249375375E-37    0.2936844762785936E-03    0.6926116135762355E-37
    0.4313225354709265E+01   -0.3550177750668575E-38    0.5489133357834209E+00
   -0.3389129563952778E-37    0.2312891504840986E-03    0.7078380975662919E-37
    0.1823032738681478E+01    0.4902184378479440E-38    0.1771265191514493E+01
   -0.3796607573142863E-37    0.1836034369728694E-03    0.1128100685098877E-36
    0.2806311152777936E+01    0.2655848582097714E-38    0.1358629371322769E+01
   -0.3849195736117852E-37    0.1943340399406963E-03    0.9781397782066684E-37
    0.1891860876695306E+01    0.4715270156318051E-38   -0.8481310373502644E+00
   -0.3008618930891124E-37    0.1670586249625128E-03    0.4128415723524724E-37
    0.2268769201096036E+01    0.5225070348784929E-38    0.7723691682138865E-01
   -0.3341078424882200E-37    0.2072210200481183E-03    0.6502352244849330E-37
    0.5000000000000000E+01   -0.3306700425771188E-97    0.2504941970848040E+01
   -0.5705575665590453E-38    0.1250000000000000E+01   -0.3306700425771188E-97
    0.5000000000000000E+01   -0.3306700425771188E-97    0.2504941970848040E+01
   -0.5705575665590453E-38    0.2500000000000000E+01   -0.3306700425771188E-97
    0.5000000000000000E+01   -0.3306700425771188E-97    0.2504941970848040E+01
   -0.5705575665590453E-38    0.3750000000000000E+01   -0.3306700425771188E-97
    0.5000000000000000E+01   -0.3306700425771188E-97    0.2504941970848040E+01
   -0.5705575665590453E-38    0.5000000000000000E+01   -0.3306700425771188E-97
    0.3750000000000000E+01   -0.3306700425771188E-97    0.2504941970848040E+01
   -0.5705575665590453E-38    0.5000000000000000E+01   -0.3306700425771188E-97
    0.2500000000000000E+01   -0.3306700425771188E-97    0.2504941970848040E+01
   -0.5705575665590453E-38    0.5000000000000000E+01   -0.3306700425771188E-97
    0.1250000000000000E+01   -0.3306700425771188E-97    0.2504941970848040E+01
   -0.5705575665590453E-38    0.5000000000000000E+01   -0.3306700425771188E-97
   -0.7482709336250354E-67   -0.3306700425771188E-97    0.2504941970848040E+01
   -0.5705575665590453E-38    0.5000000000000000E+01   -0.3306700425771188E-97
   -0.7482709336250354E-67   -0.3306700425771188E-97    0.2504941970848040E+01
   -0.5705575665590453E-38    0.3750000000000000E+01   -0.3306700425771188E-97
   -0.7482709336250354E-67   -0.3306700425771188E-97    0.2504941970848040E+01
   -0.5705575665590453E-38    0.2500000000000000E+01   -0.3306700425771188E-97
   -0.7482709336250354E-67   -0.3306700425771188E-97    0.2504941970848040E+01
   -0.5705575665590453E-38    0.1250000000000000E+01   -0.3306700425771188E-97
    0.9588956439646418E+00    0.9142195946746277E-38    0.2504941970848040E+01
   -0.5705575665590453E-38    0.9696525361883462E+00    0.9578573730029887E-37
    0.3981953078379147E+01    0.3828456067636743E-38    0.2504941970848040E+01
   -0.5705575665590453E-38    0.4070563852496830E+01    0.1344938522836836E-37
    0.4036122187611783E+01   -0.1163759159113032E-38    0.2504941970848040E+01
   -0.5705575665590453E-38    0.1017567503729347E+01    0.9259886559748460E-37
    0.9637572779672603E+00   -0.3264085172288350E-38    0.2504941970848040E+01
   -0.5705575665590453E-38    0.3973598200671861E+01    0.1467438774293448E-37
    0.1546540138039957E+01   -0.3135239508445924E-38    0.2504941970848040E+01
   -0.5705575665590453E-38    0.2931570161805422E+01    0.4505860629472750E-37
    0.6973799533272619E+00   -0.5360839919952685E-38    0.2504941970848040E+01
   -0.5705575665590453E-38    0.3070319948104114E+01    0.2604746831348596E-37
    0.8903742164840395E+00   -0.4488738407951629E-38    0.2504941970848040E+01
   -0.5705575665590453E-38    0.2056562229486379E+01    0.5277908456753983E-37
    0.2183041995434140E+01   -0.6495582866338470E-39    0.2504941970848040E+01
   -0.5705575665590453E-38    0.3960694445914673E+01    0.2338285706729274E-37
    0.3855844871786446E+01    0.6392747867525299E-38    0.2504941970848040E+01
   -0.5705575665590453E-38    0.2933250582275396E+01    0.3441600556982979E-37
    0.3152611367069565E+01    0.3358070808579055E-38    0.2504941970848040E+01
   -0.5705575665590453E-38    0.3637668383620209E+01    0.2857000016122214E-37
    0.3103307384994265E+01    0.2069396691500392E-38    0.2504941970848040E+01
   -0.5705575665590453E-38    0.4332607810697217E+01    0.1436354332792663E-37
    0.3266711045261860E+01    0.5002580039491187E-38    0.2504941970848040E+01
   -0.5705575665590453E-38    0.1889656604892614E+01    0.7517052145760615E-37
    0.4232537553222690E+01    0.7706574268188229E-38    0.2504941970848040E+01
   -0.5705575665590453E-38    0.1918626962519535E+01    0.4159869250641536E-37
    0.1905522374840104E+01    0.7508788250864067E-38    0.2504941970848040E+01
   -0.5705575665590453E-38    0.7226290644647994E+00    0.1159438433360439E-36
    0.2879767724250686E+01    0.2258528578843280E-38    0.2504941970848040E+01
   -0.5705575665590453E-38    0.9080945703900369E+00    0.1155126430921984E-36
    0.2012711365980937E+01    0.9051486826802392E-39    0.2504941970848040E+01
   -0.5705575665590453E-38    0.1767082376922536E+01    0.8609783760891851E-37
    0.2669681473084675E+01    0.2220196074970522E-38    0.2504941970848040E+01
   -0.5705575665590453E-38    0.2853394326351187E+01    0.5222040006593675E-37
    0.5000000000000000E+01   -0.3306700425771188E-97    0.1250000000000000E+01
   -0.3306700425771188E-97    0.5000000000000000E+01   -0.3306700425771188E-97
    0.5000000000000000E+01   -0.3306700425771188E-97   -0.7482709336250354E-67
[...]
POINT_DATA 213
SCALARS rho double 1
LOOKUP_TABLE default
   0.1345847463051552E+01
  -0.1918737850110384E-31
   0.9579832138758591E+00
  -0.1260368890383046E-31
   0.9476160512874533E+00
  -0.8913784228050686E-32
   0.9441851292724120E+00
  -0.6462836934193102E-32
   0.8440428479914364E+00
  -0.4627571100742322E-32
   0.7738154954793967E+00
  -0.4219455263145919E-32
   0.7628661154648713E+00
  -0.4289117562781231E-32
   0.7654090691450061E+00
  -0.4075129336492933E-32
   0.8320454584895661E+00
  -0.4613006750862469E-32
   0.9371563487399529E+00
  -0.6096052946125796E-32
   0.9357248410602808E+00
  -0.8534189566640224E-32
   0.9614266839789554E+00
  -0.1274228808897012E-31
   0.1446943832836139E+01
  -0.2055503652604254E-31
   0.1493699031508138E+01
  -0.1955120033885950E-31
   0.1644963599177100E+01
  -0.2229418410368161E-31
   0.1426492485273907E+01
  -0.1863730539771724E-31
   0.1010233411705344E+01
  -0.1414951892120484E-31
   0.9526582563270494E+00
  -0.6240975934232526E-32
   0.9454148727248579E+00
  -0.5967551510248303E-32
   0.9571158271657725E+00
  -0.1342924567849462E-31
   0.9405256484006532E+00
  -0.1321195630248688E-31
   0.1036292356544881E+01
  -0.1509552530926606E-31
   0.9263187817644525E+00
  -0.1096085723502724E-31
   0.9336358423130080E+00
  -0.9896417699603068E-32
   0.9554137155256930E+00
  -0.6151656358006575E-32
   0.9539852799108012E+00
  -0.7672415426238013E-32
   0.9364135105418862E+00
  -0.7114737617829623E-32
   0.9581188346830912E+00
  -0.6590654785398394E-32
   0.9389650961642284E+00
  -0.5554766596895443E-32
   0.9315569675376851E+00
  -0.1038890835719408E-31
   0.9462892758480775E+00
  -0.8056692061802622E-32
   0.8866659411505498E+00
  -0.1015013913307678E-31
   0.9439275405783903E+00
  -0.9167215844958580E-32
   0.9643710425455151E+00
  -0.3547569999128514E-32
   0.1007404615361091E+01
  -0.1793323273752900E-32
   0.1006190115768793E+01
  -0.1194031223257151E-32
   0.1004571327767044E+01
  -0.1839019523548195E-32
   0.1005769324138635E+01
  -0.3323644969606952E-32
   0.1004626227422204E+01
  -0.3887638301576367E-32
   0.1005294865845139E+01
  -0.3510526476878421E-32
   0.1003023958640893E+01
  -0.2661091531057109E-32
   0.1008147699612479E+01
  -0.4146555808612129E-32
   0.1023760513256970E+01
  -0.6123652731471976E-32
   0.1063128869670685E+01
  -0.7236712752513079E-32
   0.1019361698319929E+01
  -0.9108065863166717E-32
   0.1001855941230870E+01
  -0.2754767579176462E-32
   0.9661923516840967E+00
  -0.5007302372630890E-32
   0.1005424384984892E+01
  -0.4255226885797942E-32
   0.1000842252371752E+01
  -0.5315678171173520E-32
   0.1008820000560720E+01
  -0.5374235934044407E-32
   0.1007916554820709E+01
  -0.6439860930761935E-32
   0.1002536291694966E+01
  -0.4321587766601215E-32
   0.9976793061172874E+00
  -0.3021602109740475E-32
   0.1000645064531554E+01
  -0.3754617394063555E-32
   0.1001899682619664E+01
  -0.3748803872097512E-32
   0.9830198542507347E+00
  -0.4672444999722428E-32
   0.9842977771675355E+00
  -0.3516669722907741E-32
   0.9842964310251706E+00
  -0.8374228132681467E-32
   0.9804936828887965E+00
  -0.6684565646311437E-32
   0.9908281816654438E+00
  -0.5997274019382989E-32
   0.9936127666187369E+00
  -0.4504565134666481E-32
   0.1004768495419418E+01
  -0.1742950003192100E-32
   0.1004711929075038E+01
  -0.1699907132504355E-32
   0.1004936526481589E+01
  -0.1749892774819528E-32
   0.1004627865568470E+01
  -0.1955398736567083E-32
   0.1009763157215298E+01
  -0.1219484854683494E-32
   0.1004872104509457E+01
  -0.1801529751288633E-32
   0.9562308550204582E+00
  -0.3449539313002606E-32
   0.9261071462136014E+00
  -0.3903920829406362E-32
   0.1007945249930529E+01
  -0.1089247950618068E-32
   0.1004505325014725E+01
  -0.1216568548706618E-32
   0.9153333216220694E+00
  -0.3618553748833536E-32
   0.9098644770939185E+00
  -0.3518214681788621E-32
   0.8764086154298946E+00
  -0.3909944967335601E-32
   0.9758865283054715E+00
  -0.2853785216249109E-32
   0.9988689005506944E+00
  -0.2293019841026971E-32
   0.1006358066154964E+01
  -0.1024002789178953E-32
   0.1010949283178844E+01
  -0.1156636484927042E-32
   0.1010342004835013E+01
  -0.1328499611423798E-32
   0.1009108113840300E+01
  -0.9000576590457033E-33
   0.1005929273852364E+01
  -0.1007924985654255E-32
   0.9902169507551274E+00
  -0.2710073103783142E-32
   0.1003887435001767E+01
  -0.1445831988346932E-32
   0.9847343240694224E+00
  -0.2584073797889133E-32
   0.1002888599498305E+01
  -0.1785342048198804E-32
   0.1003902141806868E+01
  -0.2639397279554920E-32
   0.1003240541467419E+01
  -0.2623860307636309E-32
   0.1003461041490619E+01
  -0.2630730593383350E-32
   0.1003777878546917E+01
  -0.2679591497197672E-32
   0.1005321164437262E+01
  -0.3519527161492118E-32
   0.1003267366938536E+01
  -0.3856958511127545E-32
   0.1004373691468234E+01
  -0.3378469281561893E-32
   0.1005211228348124E+01
  -0.3185419783083153E-32
   0.1004099565036097E+01
  -0.3130457774783502E-32
   0.1004562790183014E+01
  -0.3257992853750895E-32
   0.1003278302008890E+01
  -0.3329971279367313E-32
   0.1004403774376238E+01
  -0.3219462369352963E-32
   0.1005769662351679E+01
  -0.2949809329457353E-32
   0.1004700747688043E+01
  -0.3821881037300121E-32
   0.1003908776997519E+01
  -0.3833287759362978E-32
   0.1003165414561747E+01
  -0.2938919838949180E-32
   0.1004438245109622E+01
  -0.3855074391361710E-32
   0.1004241044243461E+01
  -0.3809505485185078E-32
   0.1003559769833696E+01
  -0.3035355712112195E-32
   0.1005329618144224E+01
  -0.3690222940258297E-32
   0.1004832025151482E+01
  -0.3873046816389387E-32
   0.1004767066224331E+01
  -0.3922199678914819E-32
   0.1004631782013594E+01
  -0.3851562345382891E-32
   0.1065068367519449E+01
  -0.7277333212409586E-32
   0.1028661150804263E+01
  -0.6260623642087333E-32
   0.1009600566012290E+01
  -0.4211979491126517E-32
   0.1006544553253228E+01
  -0.3785614840178525E-32
   0.1163472972933698E+01
  -0.8221775862359151E-32
   0.1086036030486498E+01
  -0.6836589937517067E-32
   0.1007873143130991E+01
  -0.3962802889961249E-32
   0.1007346379608965E+01
  -0.3817098607190742E-32
   0.1006746253798941E+01
  -0.3517537035465730E-32
   0.1013059774557798E+01
  -0.5247626189043037E-32
   0.1019267414915679E+01
  -0.5805034188326995E-32
   0.1234901087101971E+01
  -0.9599706540792618E-32
   0.1033034207156971E+01
  -0.6618848175958291E-32
   0.1046522117993269E+01
  -0.7545408756530237E-32
   0.1201260629750204E+01
  -0.8679380633934202E-32
   0.1014495211459110E+01
  -0.5110526731868466E-32
   0.1031933429215694E+01
  -0.6731528798835477E-32
   0.1028537841497191E+01
  -0.7341424657355353E-32
   0.1014901741733921E+01
  -0.5689909341442466E-32
   0.1028915437331735E+01
  -0.8702561633096258E-32
   0.1002378399864525E+01
  -0.2820648601389013E-32
   0.9623483924638684E+00
  -0.5059758796976453E-32
   0.1006853685019214E+01
  -0.4271216127192044E-32
   0.1001611700755852E+01
  -0.5138799198156703E-32
   0.1010629524602865E+01
  -0.5427789728188949E-32
   0.1012295823360857E+01
  -0.6417087137535682E-32
   0.1001101767147425E+01
  -0.4332328343471586E-32
   0.9975092356208839E+00
  -0.3091266481717134E-32
   0.9979889709894105E+00
  -0.3815604266108068E-32
   0.1001181446229994E+01
  -0.3703966765548162E-32
   0.9839903697691605E+00
  -0.4666906038387172E-32
   0.9809896682722890E+00
  -0.3492902220300145E-32
   0.9654445440281728E+00
  -0.8350928383914064E-32
   0.9689561738072093E+00
  -0.6469216799481014E-32
   0.9914613897254043E+00
  -0.5915916685170956E-32
   0.9914108340177279E+00
  -0.4490272344491644E-32
   0.9925236649057372E+00
  -0.4292041705987532E-32
   0.1002002249213367E+01
  -0.4677615576171138E-32
   0.9995287858741937E+00
  -0.5000668851654650E-32
   0.9941182861696500E+00
  -0.5514098596689758E-32
   0.1006978989551853E+01
  -0.5863061714058684E-32
   0.1022350711572028E+01
  -0.6991922806110398E-32
   0.1000843410585701E+01
  -0.6429255231992016E-32
   0.1008945660464255E+01
  -0.4999536029081858E-32
   0.1004989917225247E+01
  -0.4710598772982711E-32
   0.1009111961095291E+01
  -0.5320759510535588E-32
   0.9968480927401192E+00
  -0.6225868248329421E-32
   0.1005611513255833E+01
  -0.9809203589054349E-32
   0.1003588712225694E+01
  -0.4145198255320436E-32
   0.9950743318025785E+00
  -0.4366064225137147E-32
   0.9829501568526455E+00
  -0.4022995905497111E-32
   0.9941107698767104E+00
  -0.3797694400987159E-32
   0.9971236532697700E+00
  -0.3433387908725250E-32
   0.9920146092116382E+00
  -0.2746445765383291E-32
   0.1001295058458630E+01
  -0.4010073498259731E-32
   0.1003231711386934E+01
  -0.4178990761672259E-32
   0.1002210556471311E+01
  -0.3451764298040684E-32
   0.9937258609019379E+00
  -0.2496449011452442E-32
   0.9938075192502297E+00
  -0.3988346651468892E-32
   0.1005161936590548E+01
  -0.4317825281167550E-32
   0.1019889800415449E+01
  -0.6043305805798716E-32
   0.1005459851293696E+01
  -0.5971869145694780E-32
   0.9817738424102415E+00
  -0.5578409498294104E-32
   0.1005186904518525E+01
  -0.3997816507423986E-32
   0.1012407188195828E+01
  -0.5292810409747325E-32
   0.9875290088021136E+00
  -0.7831240195909899E-32
   0.9550660985120946E+00
  -0.8307744045568806E-32
   0.9861615003428801E+00
  -0.5303017281419941E-32
   0.9868011070591670E+00
  -0.5044182912883503E-32
   0.9927036210371442E+00
  -0.7515535984286409E-32
   0.9932924169128532E+00
  -0.5246502546533804E-32
   0.9955809645765228E+00
  -0.9733364862000237E-32
   0.1037417041063171E+01
  -0.6705531153575706E-32
   0.1032701853055394E+01
  -0.8654157713705352E-32
   0.1001488642407011E+01
  -0.2590214360719088E-32
   0.1002042845267759E+01
  -0.3953262795129161E-32
   0.9899390333792982E+00
  -0.2745030379745772E-32
   0.9909043509387836E+00
  -0.3787428388175316E-32
   0.9648404956124362E+00
  -0.3992871652617845E-32
   0.9922999588430276E+00
  -0.2692676633406187E-32
   0.1005773832120076E+01
  -0.2189954784104904E-32
   0.1001760990676514E+01
  -0.2372759963878228E-32
   0.9911420943162212E+00
  -0.4470920109951694E-32
   0.9743182278681228E+00
  -0.4429657606370729E-32
   0.9426527344642115E+00
  -0.4428935284257455E-32
   0.9822967759673432E+00
  -0.5696898335056091E-32
   0.9792621552249742E+00
  -0.4033314784105725E-32
   0.9714795909669479E+00
  -0.7534322063700348E-32
   0.9721751750958744E+00
  -0.5704470678813745E-32
   0.9555671211681694E+00
  -0.3706287997536852E-32
   0.9504707641253425E+00
  -0.4143719560509478E-32
   0.9547850750566861E+00
  -0.5679137302337084E-32
   0.1002970169051286E+01
  -0.4668159199985247E-32
   0.1002618705182105E+01
  -0.4150713932359946E-32
   0.1000680728013656E+01
  -0.3085395974937090E-32
   0.1001155070111881E+01
  -0.2235356708037772E-32
   0.9619364004409692E+00
  -0.5948648352486798E-32
   0.9513909069939536E+00
  -0.5313234005363912E-32
   0.9605792613129075E+00
  -0.5749664558087339E-32
   0.1001017209733741E+01
  -0.3997354178709776E-32
   0.1000589335723093E+01
  -0.3446349640695732E-32
   0.1000952705240142E+01
  -0.2821073699143179E-32
   0.9810362144329686E+00
  -0.4878038328374623E-32
   0.9805501076434654E+00
  -0.7428169134962846E-32
   0.9642381550548412E+00
  -0.6208906542218686E-32
SCALARS u double 1
LOOKUP_TABLE default
   0.0000000000000000E+00
   0.0000000000000000E+00
   0.0000000000000000E+00
   0.0000000000000000E+00
   0.0000000000000000E+00
   0.0000000000000000E+00
   0.0000000000000000E+00
   0.0000000000000000E+00
   0.0000000000000000E+00
   0.0000000000000000E+00
   0.0000000000000000E+00
   0.0000000000000000E+00
   0.0000000000000000E+00
   0.0000000000000000E+00
   0.0000000000000000E+00
   0.0000000000000000E+00
   0.0000000000000000E+00
   0.0000000000000000E+00
   0.0000000000000000E+00
   0.0000000000000000E+00
   0.0000000000000000E+00
   0.0000000000000000E+00
   0.0000000000000000E+00
   0.0000000000000000E+00
   0.0000000000000000E+00
   0.0000000000000000E+00
   0.0000000000000000E+00
   0.0000000000000000E+00
   0.0000000000000000E+00
   0.0000000000000000E+00
   0.0000000000000000E+00
   0.0000000000000000E+00
   0.0000000000000000E+00
   0.0000000000000000E+00
   0.0000000000000000E+00
   0.0000000000000000E+00
   0.0000000000000000E+00
   0.0000000000000000E+00
   0.0000000000000000E+00
   0.0000000000000000E+00
   0.0000000000000000E+00
   0.0000000000000000E+00
   0.0000000000000000E+00
   0.0000000000000000E+00
   0.0000000000000000E+00
   0.0000000000000000E+00
   0.0000000000000000E+00
   0.0000000000000000E+00
   0.0000000000000000E+00
   0.0000000000000000E+00
   0.0000000000000000E+00
   0.0000000000000000E+00
   0.0000000000000000E+00
   0.0000000000000000E+00
   0.0000000000000000E+00
   0.0000000000000000E+00
   0.0000000000000000E+00
   0.0000000000000000E+00
   0.0000000000000000E+00
   0.0000000000000000E+00
   0.0000000000000000E+00
   0.0000000000000000E+00
   0.0000000000000000E+00
   0.0000000000000000E+00
   0.0000000000000000E+00
   0.0000000000000000E+00
   0.4951747964500030E+00
  -0.3501269070418816E-32
   0.5334054044289370E+00
  -0.2563456554854283E-32
   0.5183902184830197E+00
  -0.7284896174480099E-33
   0.4933007513226702E+00
   0.4591621894988522E-33
   0.4841537311431205E+00
   0.4232534455778964E-32
   0.4837083549673981E+00
   0.5500769800134994E-32
   0.4864235928616213E+00
   0.4998827492317040E-32
   0.4963019878725535E+00
   0.2899474061178731E-32
   0.4896997289557194E+00
   0.4135421409821392E-32
   0.4720968001854886E+00
   0.6044782557769075E-32
   0.4457318665184006E+00
   0.7233066612505486E-32
   0.4837802750725108E+00
   0.3490263621457813E-32
   0.5088329727902463E+00
   0.2904807740330411E-32
   0.4417841525449253E+00
  -0.3169966228335119E-32
   0.4943855684897205E+00
   0.4644722270441740E-32
   0.5226564017523744E+00
   0.5293156656440679E-32
   0.4961993693745543E+00
   0.5278034136823405E-32
   0.5224547333326429E+00
   0.6106685082479223E-32
   0.5030874721282377E+00
   0.5051840539501574E-32
   0.5637666003411109E+00
   0.1532325167244741E-32
   0.5250375247428051E+00
   0.4114104688066359E-32
   0.4979265983533073E+00
   0.4720617207878507E-32
   0.5717883094378559E+00
  -0.1308030793716411E-33
   0.5685375352624575E+00
  -0.1897605968324726E-32
   0.3743507621186403E+00
  -0.9297820887722156E-33
   0.4011084128055629E+00
  -0.2598909480744411E-32
   0.5587748696908130E+00
   0.2568376167884710E-32
   0.5561754266915031E+00
   0.3806237369529495E-32
   0.4945989661755608E+00
   0.2237880819696562E-33
   0.4954005286090916E+00
   0.1668641067267249E-33
   0.4938065223127553E+00
   0.3583881108333006E-33
   0.4919324123246197E+00
   0.4329671861504222E-33
   0.5164190121802082E+00
  -0.7982786944852904E-33
   0.5360751131050668E+00
  -0.2541049867669355E-32
   0.4961055987017157E+00
  -0.3477740194881149E-32
   0.4527367951386382E+00
  -0.2999321411213044E-32
   0.5124276505130445E+00
  -0.6362578275870001E-33
   0.5107124793426733E+00
  -0.3029678886918930E-33
   0.4792870869696897E+00
  -0.3248836853367755E-32
   0.4943863891537529E+00
  -0.3230391354978944E-32
   0.4612127214601184E+00
  -0.2778366230532176E-32
   0.5255372282351862E+00
  -0.3558648275787682E-32
   0.5301046781052903E+00
  -0.3015243018716518E-32
   0.5123696485384704E+00
  -0.5297002916327544E-33
   0.5330388711202508E+00
  -0.1891949375860977E-32
   0.5309943268637290E+00
  -0.1696273219478515E-32
   0.5300472850923358E+00
  -0.1205094954179225E-32
   0.5056187889470090E+00
  -0.4775879106578484E-33
   0.5282442550924544E+00
  -0.3395998472122134E-32
   0.5402229355633194E+00
  -0.1998325929238752E-32
   0.5370234239622232E+00
  -0.3341743217411324E-32
   0.5377825281863771E+00
  -0.2922240235971087E-32
   0.4974606837538145E+00
   0.2677744283612166E-32
   0.4980851864023401E+00
   0.2645080559666797E-32
   0.4967504735001568E+00
   0.2712914049596305E-32
   0.4956911641674872E+00
   0.2906669863055173E-32
   0.4877966455454837E+00
   0.4890545784837734E-32
   0.4875575687085154E+00
   0.5420955351529204E-32
   0.4856520579136451E+00
   0.3951572984149724E-32
   0.4863981105308459E+00
   0.3736623782538476E-32
   0.4916272520085909E+00
   0.4246950003510664E-32
   0.4891697598525368E+00
   0.4518146882464923E-32
   0.4852599337753432E+00
   0.3773004062495737E-32
   0.4886428678600400E+00
   0.3564144353548837E-32
   0.4891402746243551E+00
   0.2956090254373528E-32
   0.4864426414264189E+00
   0.5163007717708308E-32
   0.4864699746454064E+00
   0.5166646645820797E-32
   0.4945310264441685E+00
   0.3762230137759171E-32
   0.4872260596483364E+00
   0.5386125237024275E-32
   0.4875100294013399E+00
   0.5404256255552342E-32
   0.4930063833300130E+00
   0.4102480700639748E-32
   0.4847108568841977E+00
   0.5128399697767969E-32
   0.4867422658398469E+00
   0.5532358764825263E-32
   0.4860436375562933E+00
   0.5526601329744539E-32
   0.4863565747753218E+00
   0.5181851945210606E-32
   0.4454606632907969E+00
   0.7254848534426936E-32
   0.4698101991884361E+00
   0.6094899156603501E-32
   0.4890897038158797E+00
   0.4227202990568819E-32
   0.4880595351193696E+00
   0.3790549445059668E-32
   0.4512010055518022E+00
   0.7040703188249676E-32
   0.4669893431821954E+00
   0.7146971337540522E-32
   0.4874835574937505E+00
   0.3926962138076171E-32
   0.4867352659083266E+00
   0.3679576672388779E-32
   0.4909951648931956E+00
   0.3394211252307578E-32
   0.4794267389194500E+00
   0.5116064641121411E-32
   0.4667377803724959E+00
   0.5842142589997977E-32
   0.3795415563869119E+00
   0.7327541673654304E-32
   0.4898306865222844E+00
   0.7256866821813172E-32
   0.4494317620208294E+00
   0.7046349636815416E-32
   0.4437234139299214E+00
   0.7344175620824897E-32
   0.4845288954643588E+00
   0.5074814559956910E-32
   0.4634401941711265E+00
   0.6622751943704665E-32
   0.4668162879381499E+00
   0.7120964708272267E-32
   0.4747407768078953E+00
   0.5590387901257070E-32
   0.4892293461905289E+00
   0.3053047056560818E-32
   0.5085682635849282E+00
   0.2737206630812601E-32
   0.4329280442019636E+00
  -0.3093658747156489E-32
   0.4925899611646098E+00
   0.4586229452346018E-32
   0.5331061363328933E+00
   0.5222744015513887E-32
   0.4918348353007838E+00
   0.5314316007675943E-32
   0.5209070578009845E+00
   0.5877153850810805E-32
   0.5064553859530941E+00
   0.4942844459355646E-32
   0.5670379996974173E+00
   0.1541923074828368E-32
   0.5282350393567785E+00
   0.3965311613274819E-32
   0.5013250804266326E+00
   0.4424948428789610E-32
   0.5801297612865248E+00
  -0.2965012801606950E-33
   0.5678919642080746E+00
  -0.1865624252537285E-32
   0.3409555177142133E+00
  -0.1524688987455375E-32
   0.3794524739176849E+00
  -0.2510975599323530E-32
   0.5737769649558749E+00
   0.2700685827296449E-32
   0.5665081621572602E+00
   0.3804932804485093E-32
   0.5691589902019331E+00
   0.3986687801875710E-32
   0.5290221997540082E+00
   0.5265812534308704E-32
   0.5445343037496327E+00
   0.5486741256662320E-32
   0.5714111208423484E+00
   0.4830109250984049E-32
   0.5384370757072027E+00
   0.6625301270885761E-32
   0.5474782394851603E+00
   0.5620759952006808E-32
   0.5819050926121851E+00
   0.3596877235819202E-32
   0.4926511204198534E+00
   0.5230533812905645E-32
   0.5037021388487269E+00
   0.5098075087417899E-32
   0.4962855301968178E+00
   0.5393638162907348E-32
   0.5557692849161116E+00
   0.4822043473748890E-32
   0.4757920972533782E+00
   0.1618147372406484E-32
   0.4943998861783506E+00
   0.5026070132608963E-32
   0.5489460900739375E+00
   0.4325114143163405E-32
   0.5871294809401301E+00
   0.5422357701515791E-33
   0.5824506515209626E+00
   0.2170841735081465E-32
   0.5457627746292689E+00
   0.3561572067164896E-32
   0.5777915784398493E+00
  -0.4584719129147491E-33
   0.5100938959579659E+00
   0.4952461750831461E-32
   0.5023395426680632E+00
   0.5238269045285463E-32
   0.5027306357967539E+00
   0.4240101555780355E-32
   0.5661394883630795E+00
   0.5822801801450772E-33
   0.5558767657619809E+00
   0.4186776618933854E-32
   0.4944232628283673E+00
   0.4938187611260588E-32
   0.5502214031138596E+00
   0.6378411759473600E-32
   0.5510032459997136E+00