# vtk DataFile Version 2.0
FUN3D:global_image_vtk
ASCII
DATASET UNSTRUCTURED_GRID
POINTS 213 double
   -0.5474238059504593E-02    0.2504942121173606E+01    0.8105550996138845E-04
    0.1245420063214956E+01    0.2504942121173606E+01    0.1051110799572806E-03
    0.2497696576329003E+01    0.2504942121173606E+01    0.1107916248165162E-03
    0.3750591986574023E+01    0.2504942121173606E+01    0.1368046305401370E-03
    0.5003221880247612E+01    0.2504942121173606E+01    0.9733523344461412E-04
    0.5004677745410214E+01    0.1281291877273527E+01    0.1649128333390525E-03
    0.5004773223164809E+01    0.2775194235895184E-01    0.1909167401678421E-03
    0.5003582213732991E+01   -0.1225852894964910E+01    0.1618071321506640E-03
    0.5001953045688033E+01   -0.2496588899954337E+01    0.1087184661237438E-03
    0.3750349114452023E+01   -0.2496588899954337E+01    0.1468710028767738E-03
    0.2498611955860786E+01   -0.2496588899954337E+01    0.1013914036254580E-03
    0.1247176253529147E+01   -0.2496588899954337E+01    0.1118597702464406E-03
   -0.3383478115785162E-02   -0.2496588899954337E+01    0.8157707488508294E-04
   -0.4256799575230417E-02   -0.1225734204378883E+01    0.3520054752117923E-04
   -0.5251137157060333E-02    0.2619598345569623E-01    0.1044613540432247E-03
   -0.5675113931366790E-02    0.1278222211771627E+01    0.8337742971856075E-04
    0.9003214086382191E+00    0.1608980275733105E+01    0.8768012080222140E-04
    0.3983173220881041E+01   -0.1561211296856023E+01    0.1767351954316807E-03
    0.4035602566125262E+01    0.1486761229513980E+01    0.1719506678095471E-03
    0.1036614696945808E+01   -0.1455625819023465E+01    0.1057538994854988E-03
    0.1094353938944835E+01   -0.2964610713744223E+00    0.1266326919438919E-03
    0.7298409754953697E+00    0.6874691188446064E+00    0.1055682047596805E-03
    0.1617019110904462E+01    0.8553219657949420E+00    0.1535917835092513E-03
    0.2143200645120234E+01   -0.1627127901290524E+01    0.1616433273473870E-03
    0.4088840970379843E+01   -0.4351036471404206E+00    0.2725522799659061E-03
    0.2977917500432660E+01   -0.8334985271277852E+00    0.2256092970106246E-03
    0.3044093736197656E+01   -0.1814360118269820E+01    0.1622179478026195E-03
    0.3427867617085304E+01    0.3813911574464904E+00    0.2947830712452789E-03
    0.4313225896320023E+01    0.5489145083257441E+00    0.2318893475642810E-03
    0.1823033699632841E+01    0.1771265881755795E+01    0.1847610807679521E-03
    0.2806311635978372E+01    0.1358630571504235E+01    0.1949713312552745E-03
    0.1891861844560957E+01   -0.8481304128925676E+00    0.1681170219251225E-03
    0.2268769663417530E+01    0.7723807075737751E-01    0.2078128221064531E-03
    0.5000000000000000E+01    0.2504942121173606E+01    0.1250000000000000E+01
    0.5000000000000000E+01    0.2504942121173606E+01    0.2500000000000000E+01
    0.5000000000000000E+01    0.2504942121173606E+01    0.3750000000000000E+01
    0.5000000000000000E+01    0.2504942121173606E+01    0.5000000000000000E+01
    0.3750000000000000E+01    0.2504942121173606E+01    0.5000000000000000E+01
    0.2500000000000000E+01    0.2504942121173606E+01    0.5000000000000000E+01
    0.1250000000000000E+01    0.2504942121173606E+01    0.5000000000000000E+01
    0.0000000000000000E+00    0.2504942121173606E+01    0.5000000000000000E+01
    0.0000000000000000E+00    0.2504942121173606E+01    0.3750000000000000E+01
    0.0000000000000000E+00    0.2504942121173606E+01    0.2500000000000000E+01
    0.0000000000000000E+00    0.2504942121173606E+01    0.1250000000000000E+01
    0.9588960232678365E+00    0.2504942121173606E+01    0.9696535532560123E+00
    0.3981953158675398E+01    0.2504942121173606E+01    0.4070564028128234E+01
    0.4036122731989218E+01    0.2504942121173606E+01    0.1017568485776355E+01
    0.9637572610381536E+00    0.2504942121173606E+01    0.3973598359643718E+01
    0.1546540203381565E+01    0.2504942121173606E+01    0.2931570647607445E+01
    0.6973799401951974E+00    0.2504942121173606E+01    0.3070320208910558E+01
    0.8903742641014867E+00    0.2504942121173606E+01    0.2056562761496198E+01
    0.2183042030268335E+01    0.2504942121173606E+01    0.3960694715225206E+01
    0.3855845062374691E+01    0.2504942121173606E+01    0.2933250999658540E+01
    0.3152611483537012E+01    0.2504942121173606E+01    0.3637668731320943E+01
    0.3103307439881850E+01    0.2504942121173606E+01    0.4332607988887993E+01
    0.3266711411018349E+01    0.2504942121173606E+01    0.1889657368794828E+01
    0.4232537829854345E+01    0.2504942121173606E+01    0.1918627448997642E+01
    0.1905523002123984E+01    0.2504942121173606E+01    0.7226301643477122E+00
    0.2879768331147496E+01    0.2504942121173606E+01    0.9080955730319548E+00
    0.2012711713120236E+01    0.2504942121173606E+01    0.1767083234625423E+01
    0.2669681657745518E+01    0.2504942121173606E+01    0.2853394900149151E+01
    0.5000000000000000E+01    0.1250000000000000E+01    0.5000000000000000E+01
    0.5000000000000000E+01    0.0000000000000000E+00    0.5000000000000000E+01
    0.5000000000000000E+01   -0.1250000000000000E+01    0.5000000000000000E+01
    0.5000000000000000E+01   -0.2496588899954337E+01    0.5000000000000000E+01
    0.5000000000000000E+01   -0.2496588899954337E+01    0.3750000000000000E+01
    0.5000000000000000E+01   -0.2496588899954337E+01    0.2500000000000000E+01
    0.5000000000000000E+01   -0.2496588899954337E+01    0.1250000000000000E+01
    0.5000000000000000E+01    0.1578994732800803E+01    0.9058375365086910E+00
    0.5000000000000000E+01   -0.1583989954232354E+01    0.3982050490726493E+01
    0.5000000000000000E+01    0.1453322699199022E+01    0.4033849428301197E+01
    0.5000000000000000E+01   -0.1479596339503735E+01    0.1040505887381675E+01
    0.5000000000000000E+01   -0.3227322616384110E+00    0.1099454400140349E+01
    0.5000000000000000E+01    0.6593508822075582E+00    0.7354504170366591E+00
    0.5000000000000000E+01    0.8256214013940779E+00    0.1622302608453282E+01
    0.5000000000000000E+01   -0.1650070333782557E+01    0.2145871574390382E+01
    0.5000000000000000E+01   -0.4612828702537229E+00    0.4086422318222992E+01
    0.5000000000000000E+01   -0.8579242121530853E+00    0.2979540174134984E+01
    0.5000000000000000E+01   -0.1836846154397680E+01    0.3045064261640043E+01
    0.5000000000000000E+01    0.3508002863614053E+00    0.3428197553792836E+01
    0.5000000000000000E+01    0.5185680230613409E+00    0.4309693860063405E+01
    0.5000000000000000E+01    0.1738996113203182E+01    0.1827272193562204E+01
    0.5000000000000000E+01    0.1325493893339706E+01    0.2808563282768077E+01
    0.5000000000000000E+01   -0.8731419609589618E+00    0.1895995683864404E+01
    0.5000000000000000E+01    0.4906150219227333E-01    0.2273179336307740E+01
    0.0000000000000000E+00    0.1250000000000000E+01    0.5000000000000000E+01
    0.0000000000000000E+00    0.0000000000000000E+00    0.5000000000000000E+01
    0.0000000000000000E+00   -0.1250000000000000E+01    0.5000000000000000E+01
    0.0000000000000000E+00   -0.2496588899954337E+01    0.5000000000000000E+01
    0.1250000000000000E+01   -0.2496588899954337E+01    0.5000000000000000E+01
    0.2500000000000000E+01   -0.2496588899954337E+01    0.5000000000000000E+01
    0.3750000000000000E+01   -0.2496588899954337E+01    0.5000000000000000E+01
    0.4042003247744892E+01    0.1558308132739014E+01    0.5000000000000000E+01
    0.9304122287900499E+00   -0.1548001304379777E+01    0.5000000000000000E+01
    0.1037243024609388E+01    0.1462892710085612E+01    0.5000000000000000E+01
    0.3946240828834967E+01   -0.1445243809615570E+01    0.5000000000000000E+01
    0.4092527262848217E+01   -0.3455338993778935E+00    0.5000000000000000E+01
    0.4293103109154542E+01    0.6277660831404320E+00    0.5000000000000000E+01
    0.3241512314643519E+01    0.7429886854239611E+00    0.5000000000000000E+01
    0.2844289952419609E+01   -0.1588117879734118E+01    0.5000000000000000E+01
    0.7159905765450471E+00   -0.6002320124191652E+00    0.5000000000000000E+01
    0.1754341919796891E+01   -0.7398147869923652E+00    0.5000000000000000E+01
    0.1870296826774691E+01   -0.1788622905643739E+01    0.5000000000000000E+01
    0.9220614901912976E+00    0.3083720183248586E+00    0.5000000000000000E+01
    0.3101523624086016E+01    0.1777901774806180E+01    0.5000000000000000E+01
    0.2192512063922564E+01    0.1576861561598471E+01    0.5000000000000000E+01
    0.2024793420196460E+01    0.4773861992750707E+00    0.5000000000000000E+01
    0.2990627757741975E+01   -0.4878110785814084E+00    0.5000000000000000E+01
    0.0000000000000000E+00   -0.2496588899954337E+01    0.1250000000000000E+01
    0.0000000000000000E+00   -0.2496588899954337E+01    0.2500000000000000E+01
    0.0000000000000000E+00   -0.2496588899954337E+01    0.3750000000000000E+01
    0.0000000000000000E+00    0.1558308132739014E+01    0.4042003247744892E+01
    0.0000000000000000E+00   -0.1548001304379777E+01    0.9304122287900499E+00
    0.0000000000000000E+00    0.1462892710085612E+01    0.1037243024609388E+01
    0.0000000000000000E+00   -0.1445243809615570E+01    0.3946240828834967E+01
    0.0000000000000000E+00   -0.3455338993778935E+00    0.4092527262848217E+01
    0.0000000000000000E+00    0.6277660831404320E+00    0.4293103109154542E+01
    0.0000000000000000E+00    0.7429886854239611E+00    0.3241512314643519E+01
    0.0000000000000000E+00   -0.1588117879734118E+01    0.2844289952419609E+01
    0.0000000000000000E+00   -0.6002320124191652E+00    0.7159905765450471E+00
    0.0000000000000000E+00   -0.7398147869923652E+00    0.1754341919796891E+01
    0.0000000000000000E+00   -0.1788622905643739E+01    0.1870296826774691E+01
    0.0000000000000000E+00    0.3083720183248586E+00    0.9220614901912976E+00
    0.0000000000000000E+00    0.1777901774806180E+01    0.3101523624086016E+01
    0.0000000000000000E+00    0.1576861561598471E+01    0.2192512063922564E+01
[...]
POINT_DATA 213
SCALARS rho double 1
LOOKUP_TABLE default
   0.1219133963429051E+01
   0.9226310609765156E+00
   0.9116406356334177E+00
   0.8987535828162484E+00
   0.7826874075931107E+00
   0.7115139502248500E+00
   0.6993363350180021E+00
   0.7025693630087421E+00
   0.7698483715199026E+00
   0.8909696330454094E+00
   0.8997150475655387E+00
   0.9248314431179825E+00
   0.1299011860681142E+01
   0.1346728265690729E+01
   0.1454804971787189E+01
   0.1286356742123095E+01
   0.9622138344540415E+00
   0.9060825339353467E+00
   0.8989012252843087E+00
   0.9247548976254966E+00
   0.9119637096784931E+00
   0.9859417596960428E+00
   0.8978223109951875E+00
   0.9010680620431401E+00
   0.9082030134003770E+00
   0.9128210107985838E+00
   0.8953899947153968E+00
   0.9139638786363479E+00
   0.8913491856050085E+00
   0.9027237412842080E+00
   0.9077982162162619E+00
   0.8627640324616911E+00
   0.9090649988336489E+00
   0.9515364570825250E+00
   0.1008377970836994E+01
   0.1006992259977620E+01
   0.1000863467385191E+01
   0.1000881031511222E+01
   0.1001118835289660E+01
   0.1002602159149813E+01
   0.1001542904787155E+01
   0.1004881697031393E+01
   0.1016498592410501E+01
   0.1057791538895017E+01
   0.1005273587828937E+01
   0.1000276495176028E+01
   0.9474564083804073E+00
   0.1001988894885453E+01
   0.9982058846915953E+00
   0.1004412434523103E+01
   0.1005165252575732E+01
   0.9992159343838696E+00
   0.9979184476222546E+00
   0.9988425574449614E+00
   0.9987209896209364E+00
   0.9783702062537143E+00
   0.9801219370359113E+00
   0.9643517962830788E+00
   0.9616564760024834E+00
   0.9870097082603595E+00
   0.9923591047456740E+00
   0.1001371511677054E+01
   0.1001670193785528E+01
   0.1001918543576881E+01
   0.1000930900445616E+01
   0.1009975204308916E+01
   0.1006365223650822E+01
   0.9450234915728123E+00
   0.9042803289689038E+00
   0.1007718670990891E+01
   0.1004538759562720E+01
   0.8972278429584349E+00
   0.8933935003403639E+00
   0.8481305923595596E+00
   0.9703665343161236E+00
   0.9992973006840977E+00
   0.1006483189255486E+01
   0.1014462292797242E+01
   0.1012405570240164E+01
   0.1012213218110258E+01
   0.1005510981100188E+01
   0.9863398309845541E+00
   0.1006135418417902E+01
   0.9841398403833655E+00
   0.1006144174479874E+01
   0.1001766665544570E+01
   0.1000916159511717E+01
   0.1001281513441002E+01
   0.1001832098741925E+01
   0.1002413559290674E+01
   0.1000012703538229E+01
   0.1000323478806014E+01
   0.1000337108679220E+01
   0.1001811719857078E+01
   0.1002008356658459E+01
   0.9989487699795098E+00
   0.1000213315601716E+01
   0.1000839577961519E+01
   0.1000240555894615E+01
   0.1000178369696339E+01
   0.1001023259350449E+01
   0.1001412845856070E+01
   0.1001114328330651E+01
   0.1001500786493599E+01
   0.1001063170654426E+01
   0.1001374301736424E+01
   0.1001007161193985E+01
   0.1000371477808867E+01
   0.1060651583787575E+01
   0.1020334376628711E+01
   0.1005949625378539E+01
   0.1003369784477043E+01
   0.1141354412992388E+01
   0.1083286226028258E+01
   0.1004327241774207E+01
   0.1003795923229736E+01
   0.1003700707025435E+01
   0.1006590273192320E+01
   0.1012099176323110E+01
   0.1192715891698735E+01
   0.1028281966779510E+01
   0.1034490308590184E+01
   0.1168860358686005E+01
   0.1009803248679241E+01
   0.1023219940346409E+01
   0.1017195563369655E+01
   0.1007878893233569E+01
   0.1013794540891623E+01
   0.1000310974922588E+01
   0.9455919236877089E+00
   0.1003344089048771E+01
   0.9990183386436493E+00
   0.1006137401731383E+01
   0.1009057557482651E+01
   0.9979417450283404E+00
   0.9976046470627477E+00
   0.9960969149438346E+00
   0.9983734616093751E+00
   0.9808779079756560E+00
   0.9778642297407624E+00
   0.9482522195922495E+00
   0.9510715786609096E+00
   0.9878722294069039E+00
   0.9902132082578581E+00
   0.9926388173752732E+00
   0.9998960174182167E+00
   0.9986994471517250E+00
   0.9946796658901028E+00
   0.1006737368818642E+01
   0.1020944602634075E+01
   0.9978085980252372E+00
   0.1004741202572058E+01
   0.1001356993542816E+01
   0.1004761492866239E+01
   0.9953199494245707E+00
   0.9852685782422353E+00
   0.1000275777446591E+01
   0.9939691682342220E+00
   0.9818671835241847E+00
   0.9942176430168576E+00
   0.9968740775980637E+00
   0.9929869573065534E+00
   0.9986781848254465E+00
   0.1000045068042349E+01
   0.9997580525301013E+00
   0.9953543320234938E+00
   0.9934386716272176E+00
   0.1001359469150908E+01
   0.1018100524273674E+01
   0.1002754628258958E+01
   0.9807211739409105E+00
   0.1001888907320987E+01
   0.1008094099467393E+01
   0.9703595375883197E+00
   0.9431718483270009E+00
   0.9845791641617980E+00
   0.9845643938828660E+00
   0.9759362672526810E+00
   0.9907790634591633E+00
   0.9774204715364454E+00
   0.1033863770954706E+01
   0.1021196229336485E+01
   0.1000259156673694E+01
   0.9991305163600370E+00
   0.9911078286112714E+00
   0.9906909219975292E+00
   0.9575615830068752E+00
   0.9924950562207739E+00
   0.1006124751132541E+01
   0.1001959833088175E+01
   0.9898349748827243E+00
   0.9657116703192267E+00
   0.9211022876627089E+00
   0.9725771536359377E+00
   0.9782276454739032E+00
   0.9569318906108611E+00
   0.9618613261260452E+00
   0.9492266124225078E+00
   0.9375011355697139E+00
   0.9320227682432792E+00
   0.9993330747772192E+00
   0.9994471207748715E+00
   0.9988476041930273E+00
   0.1001937804885094E+01
   0.9401059273588737E+00
   0.9260636638095999E+00
   0.9376810880458244E+00
   0.9982716762141217E+00
   0.9982359079272480E+00
   0.1000512418387484E+01
   0.9796499017239962E+00
   0.9713011572071274E+00
   0.9459752443899432E+00
SCALARS u double 1
LOOKUP_TABLE default
   0.0000000000000000E+00
   0.0000000000000000E+00
   0.0000000000000000E+00
   0.0000000000000000E+00
   0.0000000000000000E+00
   0.0000000000000000E+00
   0.0000000000000000E+00
   0.0000000000000000E+00
   0.0000000000000000E+00
   0.0000000000000000E+00
   0.0000000000000000E+00
   0.0000000000000000E+00
   0.0000000000000000E+00
   0.0000000000000000E+00
   0.0000000000000000E+00
   0.0000000000000000E+00
   0.0000000000000000E+00
   0.0000000000000000E+00
   0.0000000000000000E+00
   0.0000000000000000E+00
   0.0000000000000000E+00
   0.0000000000000000E+00
   0.0000000000000000E+00
   0.0000000000000000E+00
   0.0000000000000000E+00
   0.0000000000000000E+00
   0.0000000000000000E+00
   0.0000000000000000E+00
   0.0000000000000000E+00
   0.0000000000000000E+00
   0.0000000000000000E+00
   0.0000000000000000E+00
   0.0000000000000000E+00
   0.5056111510566128E+00
   0.5281605592012109E+00
   0.5144099579796202E+00
   0.4943194035899988E+00
   0.4882422459595698E+00
   0.4892483694637779E+00
   0.4916752329855191E+00
   0.4984279629132861E+00
   0.4933346997362800E+00
   0.4791760456738461E+00
   0.4525318982792499E+00
   0.4746543795036415E+00
   0.5096985574875755E+00
   0.4534877514357320E+00
   0.4980288766208443E+00
   0.5238762806828527E+00
   0.4996139900094262E+00
   0.5241467634066437E+00
   0.5063100248067128E+00
   0.5614642510108265E+00
   0.5255972082997666E+00
   0.5011924296700468E+00
   0.5716356150675436E+00
   0.5700289692602045E+00
   0.3695027827735821E+00
   0.4046414302749864E+00
   0.5549314488939835E+00
   0.5551722280108130E+00
   0.4951205738357835E+00
   0.4954806468895024E+00
   0.4935452937106785E+00
   0.4926688062575245E+00
   0.5127171466067139E+00
   0.5312458872151956E+00
   0.5064716763930275E+00
   0.4711115813422752E+00
   0.5093705888231542E+00
   0.5083269495311417E+00
   0.4965792613398586E+00
   0.5104316833738178E+00
   0.4872304323355347E+00
   0.5300667760276950E+00
   0.5273088952633748E+00
   0.5090845509675922E+00
   0.5260823181976547E+00
   0.5251038733824771E+00
   0.5237638080698144E+00
   0.5036432013529890E+00
   0.5284184950529878E+00
   0.5340750615695300E+00
   0.5374446768645875E+00
   0.5320535562191595E+00
   0.4993740613541502E+00
   0.4999787996157860E+00
   0.4987794429609449E+00
   0.4979278729196771E+00
   0.4931093645160885E+00
   0.4930548393395829E+00
   0.4891291093280685E+00
   0.4898905233845052E+00
   0.4957723273026235E+00
   0.4936868008806971E+00
   0.4880624489475944E+00
   0.4911091761476486E+00
   0.4916623027974412E+00
   0.4911296126612511E+00
   0.4915626720652164E+00
   0.4978751282676511E+00
   0.4929589527774381E+00
   0.4932955441531950E+00
   0.4968039429107192E+00
   0.4896419024641304E+00
   0.4922092982217199E+00
   0.4917270825470782E+00
   0.4912642052998928E+00
   0.4518181560089353E+00
   0.4774603840742799E+00
   0.4928759069741707E+00
   0.4919282106861597E+00
   0.4651127786962845E+00
   0.4721718407591827E+00
   0.4914612813014362E+00
   0.4907488234056949E+00
   0.4941411263714885E+00
   0.4856010673986968E+00
   0.4738958720889610E+00
   0.4021416032155012E+00
   0.4922266771828457E+00
   0.4592954332034059E+00
   0.4600222581372990E+00
   0.4894474814136440E+00
   0.4711677065638806E+00
   0.4746340407178697E+00
   0.4817459893701123E+00
   0.4809665987086209E+00
   0.5088539501318696E+00
   0.4462503648137284E+00
   0.4962883763317351E+00
   0.5325957711255407E+00
   0.4954414224539838E+00
   0.5220030085322312E+00
   0.5090998231449495E+00
   0.5649650929726159E+00
   0.5280921405364599E+00
   0.5039011445706274E+00
   0.5819075071415287E+00
   0.5710399207193826E+00
   0.3419342635194385E+00
   0.3865039313209354E+00
   0.5704914874475020E+00
   0.5644744900396338E+00
   0.5680346561633335E+00
   0.5294479059700627E+00
   0.5447824595864648E+00
   0.5697500077918078E+00
   0.5403841526895354E+00
   0.5487297346257970E+00
   0.5786968325956577E+00
   0.4958869425603537E+00
   0.5066931525702499E+00
   0.4997870770566457E+00
   0.5529598964266125E+00
   0.4599360030629275E+00
   0.4984308906602148E+00
   0.5487190558534508E+00
   0.5873570360260906E+00
   0.5807065609890241E+00
   0.5451131274690934E+00
   0.5754256965184562E+00
   0.5124462081286498E+00
   0.5057331498040970E+00
   0.5050566463849442E+00
   0.5629545426288938E+00
   0.5551490835663725E+00
   0.4981552541894793E+00
   0.5484856436204436E+00
   0.5484565058672922E+00
   0.5637703171008631E+00
   0.4954125563094230E+00
   0.4963030353184511E+00
   0.3930080862557704E+00
   0.3747079775613825E+00
   0.5576770904226213E+00
   0.5730765645922797E+00
   0.4176972652720117E+00
   0.5803204990158031E+00
   0.4200525841065610E+00
   0.5390551723174007E+00
   0.4999185763168775E+00
   0.5110593853811738E+00
   0.5070779602029318E+00
   0.5706483351749374E+00
   0.5839061971643452E+00
   0.5446003018727322E+00
   0.5636689200615824E+00
   0.5322662084734564E+00
   0.5311672018412216E+00
   0.5557836331624408E+00
   0.5546870634936231E+00
   0.4419483599866239E+00
   0.5275706573749458E+00
   0.5790627439488054E+00
   0.3423578821649272E+00
   0.4809122117738868E+00
   0.5507720962039102E+00
   0.4937081840995280E+00
   0.3129740382467678E+00
   0.5064174857874782E+00
   0.5044805863244969E+00
   0.5133348753079210E+00
   0.5375017459781182E+00
   0.3546191810539153E+00
   0.3596718545935775E+00
   0.3330904825626306E+00
   0.5089456050062536E+00
   0.5137483063679289E+00
   0.5315413087841288E+00
   0.5847273161711506E+00
   0.4639013567707563E+00
   0.3664172587241043E+00
SCALARS v double 1
LOOKUP_TABLE default
   0.0000000000000000E+00
   0.0000000000000000E+00
   0.0000000000000000E+00
   0.0000000000000000E+00
   0.0000000000000000E+00
   0.0000000000000000E+00
   0.0000000000000000E+00
   0.0000000000000000E+00
   0.0000000000000000E+00
   0.0000000000000000E+00
   0.0000000000000000E+00
   0.0000000000000000E+00
   0.0000000000000000E+00
   0.0000000000000000E+00
   0.0000000000000000E+00
   0.0000000000000000E+00
   0.0000000000000000E+00
   0.0000000000000000E+00
   0.0000000000000000E+00
   0.0000000000000000E+00
   0.0000000000000000E+00
   0.0000000000000000E+00
   0.0000000000000000E+00
   0.0000000000000000E+00
   0.0000000000000000E+00
   0.0000000000000000E+00
   0.0000000000000000E+00
   0.0000000000000000E+00
   0.0000000000000000E+00
   0.0000000000000000E+00
   0.0000000000000000E+00
   0.0000000000000000E+00
   0.0000000000000000E+00
   0.0000000000000000E+00
   0.0000000000000000E+00
   0.0000000000000000E+00
   0.0000000000000000E+00
   0.0000000000000000E+00
   0.0000000000000000E+00
   0.0000000000000000E+00
   0.0000000000000000E+00
   0.0000000000000000E+00
   0.0000000000000000E+00
   0.0000000000000000E+00
   0.0000000000000000E+00
   0.0000000000000000E+00
   0.0000000000000000E+00
   0.0000000000000000E+00
   0.0000000000000000E+00
   0.0000000000000000E+00
   0.0000000000000000E+00
   0.0000000000000000E+00
   0.0000000000000000E+00
   0.0000000000000000E+00
   0.0000000000000000E+00
   0.0000000000000000E+00
   0.0000000000000000E+00
   0.0000000000000000E+00
   0.0000000000000000E+00
   0.0000000000000000E+00
   0.0000000000000000E+00
   0.1024686361140532E-02
  -0.1901289742857071E-03
  -0.5496538726721569E-03
   0.0000000000000000E+00
   0.0000000000000000E+00
   0.0000000000000000E+00
   0.0000000000000000E+00
  -0.1794953005234992E-01
   0.4151371653279016E-03
   0.1890796109558078E-02
   0.1481480708013464E-01
  -0.5477952018735153E-02
  -0.5541692119164400E-02
  -0.1106112823881219E-01
   0.4395635885969031E-02
   0.7039160481004491E-03
   0.2941553647074909E-02
   0.1472391119224910E-02
   0.2882395491537776E-02
   0.1829012541823344E-02
  -0.6346680517351629E-02
   0.3347821923443388E-04
   0.4397903390118552E-02
   0.1106767208796531E-03
  -0.3084529237307734E-03
  -0.4041325364658454E-03
   0.6171742108478893E-03
   0.0000000000000000E+00
   0.0000000000000000E+00
   0.0000000000000000E+00
   0.0000000000000000E+00
   0.4338668108222531E-03
   0.1252188446746623E-02
  -0.1212243189968455E-02
  -0.3450431951876571E-03
  -0.9700514531939773E-03
  -0.2921860983028288E-03
  -0.1596382841946010E-03
  -0.2310080462923506E-03
  -0.2522408072512103E-03
  -0.4995331397614311E-03
   0.6717177788217783E-03
  -0.1765921358326357E-02
   0.3634688836443337E-03
   0.1438452765825784E-03
  -0.4084485185189412E-03
  -0.4414763135876995E-03
   0.0000000000000000E+00
   0.0000000000000000E+00
   0.0000000000000000E+00
  -0.1037210990171643E-02
  -0.8639960531331432E-02
   0.1491317589068245E-01
   0.1307883716732852E-03
  -0.1048152831702239E-02
  -0.1798842185588039E-02
  -0.5016099433164742E-02
  -0.1437867390496742E-02
  -0.4112886464233108E-02
  -0.3030468873933891E-02
   0.2205304156864204E-02
   0.2848528200140027E-01
  -0.2237197842162370E-03
  -0.3849590620878784E-02
   0.2893922486812738E-02
   0.9896036594513821E-03
   0.0000000000000000E+00
   0.0000000000000000E+00
   0.0000000000000000E+00
   0.0000000000000000E+00
   0.0000000000000000E+00
   0.0000000000000000E+00
   0.0000000000000000E+00
   0.0000000000000000E+00
   0.0000000000000000E+00
   0.0000000000000000E+00
   0.0000000000000000E+00
   0.0000000000000000E+00
   0.0000000000000000E+00
   0.0000000000000000E+00
   0.0000000000000000E+00
   0.0000000000000000E+00
   0.0000000000000000E+00
   0.4373174278455673E-02
   0.2836896979309217E-02
   0.6897733564173096E-02
   0.5346191832844863E-02
   0.8758326782826989E-02
   0.1213587874735863E-01
  -0.1706165156990987E-03
   0.4586534930289280E-02
   0.2536542433610376E-02
   0.2550506785110575E-02
   0.3067854714146272E-02
  -0.1120608077741802E-01
  -0.5216692098904466E-03
   0.6036783964539326E-02
   0.2496620862997995E-02
   0.2507163577185868E-02
   0.3765434047890980E-02
  -0.2010813179069445E-02
   0.1220976242277122E-02
   0.2667143115491547E-02
   0.1455963649232417E-02
   0.2310225532910945E-02
   0.1654632501380796E-02
   0.1978154765951856E-02
   0.8136251977990443E-02
  -0.3285211472663283E-02
   0.5441931756414915E-02
   0.5515267739508175E-04
  -0.1298777212592575E-03
  -0.1339481440587159E-01
  -0.3508156664604282E-02
  -0.4000357185888972E-02
   0.3739355165929155E-02
  -0.4187827801858673E-02
   0.7368694783397324E-03
  -0.2694859526460906E-01
  -0.2862924276095181E-02
   0.4328041167431096E-02
   0.9019219346587190E-03
   0.2036616677590316E-02
   0.3881436953162560E-02
   0.2065321280612026E-02
   0.2999516906702886E-02
   0.4622697588227467E-02
   0.1845130249865722E-02
   0.5349507820521324E-03
  -0.2591093168808836E-03
  -0.4208002467060192E-02
  -0.4837374653168975E-02
   0.7231170905947195E-03
   0.6731582073365678E-03
  -0.2724695114944989E-03
  -0.3978613242978776E-02
  -0.1297605498934290E-02
  -0.4180664931300899E-02
  -0.7253091066250868E-02
  -0.1738556189587642E-02
   0.6416555492202520E-03
  -0.2174068951143354E-03
   0.8100120525842134E-03
  -0.1536334272317903E-02
   0.7234907153217589E-02
  -0.9844599273316254E-02
  -0.9944296301681524E-05
  -0.3763357712202877E-03
   0.2264162537913748E-02
   0.1177273480935517E-02
   0.1463272416764433E-02
  -0.3737691426490801E-02
SCALARS w double 1
LOOKUP_TABLE default
   0.0000000000000000E+00
   0.0000000000000000E+00
   0.0000000000000000E+00
   0.0000000000000000E+00
   0.0000000000000000E+00
   0.0000000000000000E+00
   0.0000000000000000E+00
   0.0000000000000000E+00
   0.0000000000000000E+00
   0.0000000000000000E+00
   0.0000000000000000E+00
   0.0000000000000000E+00
   0.0000000000000000E+00
   0.0000000000000000E+00
   0.0000000000000000E+00
   0.0000000000000000E+00
   0.0000000000000000E+00
   0.0000000000000000E+00
   0.0000000000000000E+00
   0.0000000000000000E+00
   0.0000000000000000E+00
   0.0000000000000000E+00
   0.0000000000000000E+00
   0.0000000000000000E+00
   0.0000000000000000E+00
   0.0000000000000000E+00
   0.0000000000000000E+00
   0.0000000000000000E+00
   0.0000000000000000E+00
   0.0000000000000000E+00
   0.0000000000000000E+00
   0.0000000000000000E+00
   0.0000000000000000E+00
  -0.1119633479753566E+00
  -0.4943982678724181E-01
  -0.2727918638029666E-02
   0.5008310256837326E-02
  -0.3510477654452708E-03
  -0.7478946205225727E-03
   0.2792941819152317E-03
   0.1872786031478534E-02
   0.4120657910003493E-03
   0.3631940511920944E-02
   0.3915415283347139E-01
   0.5302038899736902E-01
  -0.6377991257650600E-03
  -0.2788999372912899E-01
   0.1801071125066638E-02
   0.1012399223286937E-01
   0.7794483257725442E-02
   0.4347691618270911E-01
  -0.9855619981048982E-03
  -0.9895719943471836E-02
  -0.3405607134976694E-02
  -0.1928654698411919E-02
  -0.5231034869668439E-04
  -0.4492457747266067E-01
   0.1603399462862989E-01
   0.1188228500671562E-01
   0.2882683009763494E-01
   0.4661434228247543E-02
   0.4125867352004294E-02
   0.4483026199848423E-02
   0.4471219480429675E-02
   0.5891904155603395E-02
  -0.4978115647851085E-03
  -0.4763121753871095E-01
  -0.1101063394897114E+00
  -0.1256120161284573E+00
   0.2476610169113881E-02
   0.8887743097091439E-03
  -0.1122957729596303E+00
  -0.1108799288385097E+00
  -0.1107794830781998E+00
  -0.1053208316635584E+00
  -0.7619048689896568E-01
   0.2362427924883748E-02
  -0.2486928665354716E-01
  -0.2066314693882219E-01
  -0.1113775480750040E-01
   0.4207641987572784E-02
  -0.8953453406448593E-01
  -0.3439875248010823E-01
  -0.8998436166059035E-01
  -0.6744616085509696E-01
   0.2358247166938957E-02
   0.1776598124138037E-02
   0.1683072523471459E-02
   0.2514747885983176E-02
   0.6564591562831373E-03
  -0.1370284552884223E-02
  -0.1317727615019045E-02
   0.1224720028885865E-02
   0.2027580948085873E-02
   0.9872118900433053E-03
   0.9656065730606599E-03
   0.1043309015855415E-02
   0.8694420368769423E-03
  -0.1126122034901824E-02
  -0.2101751730657052E-02
   0.2201027971079988E-02
  -0.5890031350044952E-03
  -0.7896091523647083E-03
   0.2261946941788677E-02
  -0.1078351773911054E-02
  -0.6027451901991071E-03
  -0.4760296981753846E-03
  -0.1618301218411800E-02
   0.6928441169909066E-01
   0.2333185043709270E-02
  -0.1085197164945631E-02
  -0.8318546205745991E-03
   0.1153153229305889E+00
   0.1030930481023124E+00
  -0.1798403036347727E-02
  -0.4520556187607901E-02
  -0.7740219090727599E-03
  -0.6734597087949832E-02
  -0.2019712813810364E-02
   0.1271883432318535E+00
   0.6393889629507471E-01
   0.2261661376756590E-01
   0.1351372669197556E+00