# vtk DataFile Version 2.0
FUN3D:global_image_vtk
ASCII
DATASET UNSTRUCTURED_GRID
POINTS 213 double
   -0.5474238059504603E-02    0.2504942121173606E+01    0.8105550996138860E-04
    0.1245420063214956E+01    0.2504942121173606E+01    0.1051110799572809E-03
    0.2497696576329003E+01    0.2504942121173606E+01    0.1107916248165164E-03
    0.3750591986574023E+01    0.2504942121173606E+01    0.1368046305401372E-03
    0.5003221880247612E+01    0.2504942121173606E+01    0.9733523344461431E-04
    0.5004677745410214E+01    0.1281291877273527E+01    0.1649128333390527E-03
    0.5004773223164809E+01    0.2775194235895190E-01    0.1909167401678425E-03
    0.5003582213732991E+01   -0.1225852894964910E+01    0.1618071321506643E-03
    0.5001953045688033E+01   -0.2496588899954337E+01    0.1087184661237440E-03
    0.3750349114452023E+01   -0.2496588899954337E+01    0.1468710028767740E-03
    0.2498611955860786E+01   -0.2496588899954337E+01    0.1013914036254582E-03
    0.1247176253529147E+01   -0.2496588899954337E+01    0.1118597702464409E-03
   -0.3383478115785169E-02   -0.2496588899954337E+01    0.8157707488508309E-04
   -0.4256799575230425E-02   -0.1225734204378883E+01    0.3520054752117929E-04
   -0.5251137157060341E-02    0.2619598345569628E-01    0.1044613540432249E-03
   -0.5675113931366800E-02    0.1278222211771627E+01    0.8337742971856088E-04
    0.9003214086382191E+00    0.1608980275733105E+01    0.8768012080222159E-04
    0.3983173220881041E+01   -0.1561211296856023E+01    0.1767351954316810E-03
    0.4035602566125262E+01    0.1486761229513980E+01    0.1719506678095473E-03
    0.1036614696945808E+01   -0.1455625819023465E+01    0.1057538994854991E-03
    0.1094353938944835E+01   -0.2964610713744223E+00    0.1266326919438921E-03
    0.7298409754953697E+00    0.6874691188446063E+00    0.1055682047596808E-03
    0.1617019110904462E+01    0.8553219657949420E+00    0.1535917835092516E-03
    0.2143200645120234E+01   -0.1627127901290524E+01    0.1616433273473873E-03
    0.4088840970379843E+01   -0.4351036471404206E+00    0.2725522799659064E-03
    0.2977917500432660E+01   -0.8334985271277852E+00    0.2256092970106250E-03
    0.3044093736197656E+01   -0.1814360118269820E+01    0.1622179478026198E-03
    0.3427867617085304E+01    0.3813911574464904E+00    0.2947830712452794E-03
    0.4313225896320023E+01    0.5489145083257441E+00    0.2318893475642814E-03
    0.1823033699632841E+01    0.1771265881755795E+01    0.1847610807679524E-03
    0.2806311635978372E+01    0.1358630571504235E+01    0.1949713312552748E-03
    0.1891861844560957E+01   -0.8481304128925676E+00    0.1681170219251228E-03
    0.2268769663417530E+01    0.7723807075737756E-01    0.2078128221064535E-03
    0.5000000000000000E+01    0.2504942121173606E+01    0.1250000000000000E+01
    0.5000000000000000E+01    0.2504942121173606E+01    0.2500000000000000E+01
    0.5000000000000000E+01    0.2504942121173606E+01    0.3750000000000000E+01
    0.5000000000000000E+01    0.2504942121173606E+01    0.5000000000000000E+01
    0.3750000000000000E+01    0.2504942121173606E+01    0.5000000000000000E+01
    0.2500000000000000E+01    0.2504942121173606E+01    0.5000000000000000E+01
    0.1250000000000000E+01    0.2504942121173606E+01    0.5000000000000000E+01
    0.0000000000000000E+00    0.2504942121173606E+01    0.5000000000000000E+01
    0.0000000000000000E+00    0.2504942121173606E+01    0.3750000000000000E+01
    0.0000000000000000E+00    0.2504942121173606E+01    0.2500000000000000E+01
    0.0000000000000000E+00    0.2504942121173606E+01    0.1250000000000000E+01
    0.9588960232678366E+00    0.2504942121173606E+01    0.9696535532560123E+00
    0.3981953158675399E+01    0.2504942121173606E+01    0.4070564028128235E+01
    0.4036122731989218E+01    0.2504942121173606E+01    0.1017568485776355E+01
    0.9637572610381538E+00    0.2504942121173606E+01    0.3973598359643718E+01
    0.1546540203381565E+01    0.2504942121173606E+01    0.2931570647607446E+01
    0.6973799401951976E+00    0.2504942121173606E+01    0.3070320208910558E+01
    0.8903742641014867E+00    0.2504942121173606E+01    0.2056562761496198E+01
    0.2183042030268336E+01    0.2504942121173606E+01    0.3960694715225206E+01
    0.3855845062374691E+01    0.2504942121173606E+01    0.2933250999658541E+01
    0.3152611483537013E+01    0.2504942121173606E+01    0.3637668731320943E+01
    0.3103307439881851E+01    0.2504942121173606E+01    0.4332607988887994E+01
    0.3266711411018350E+01    0.2504942121173606E+01    0.1889657368794829E+01
    0.4232537829854345E+01    0.2504942121173606E+01    0.1918627448997642E+01
    0.1905523002123984E+01    0.2504942121173606E+01    0.7226301643477123E+00
    0.2879768331147496E+01    0.2504942121173606E+01    0.9080955730319548E+00
    0.2012711713120237E+01    0.2504942121173606E+01    0.1767083234625423E+01
    0.2669681657745519E+01    0.2504942121173606E+01    0.2853394900149152E+01
    0.5000000000000000E+01    0.1250000000000000E+01    0.5000000000000000E+01
    0.5000000000000000E+01    0.0000000000000000E+00    0.5000000000000000E+01
    0.5000000000000000E+01   -0.1250000000000000E+01    0.5000000000000000E+01
    0.5000000000000000E+01   -0.2496588899954337E+01    0.5000000000000000E+01
    0.5000000000000000E+01   -0.2496588899954337E+01    0.3750000000000000E+01
    0.5000000000000000E+01   -0.2496588899954337E+01    0.2500000000000000E+01
    0.5000000000000000E+01   -0.2496588899954337E+01    0.1250000000000000E+01
    0.5000000000000000E+01    0.1578994732800803E+01    0.9058375365086910E+00
    0.5000000000000000E+01   -0.1583989954232354E+01    0.3982050490726493E+01
    0.5000000000000000E+01    0.1453322699199022E+01    0.4033849428301197E+01
    0.5000000000000000E+01   -0.1479596339503735E+01    0.1040505887381675E+01
    0.5000000000000000E+01   -0.3227322616384110E+00    0.1099454400140349E+01
    0.5000000000000000E+01    0.6593508822075582E+00    0.7354504170366591E+00
    0.5000000000000000E+01    0.8256214013940779E+00    0.1622302608453282E+01
    0.5000000000000000E+01   -0.1650070333782557E+01    0.2145871574390382E+01
    0.5000000000000000E+01   -0.4612828702537229E+00    0.4086422318222992E+01
    0.5000000000000000E+01   -0.8579242121530853E+00    0.2979540174134984E+01
    0.5000000000000000E+01   -0.1836846154397680E+01    0.3045064261640043E+01
    0.5000000000000000E+01    0.3508002863614053E+00    0.3428197553792836E+01
    0.5000000000000000E+01    0.5185680230613409E+00    0.4309693860063405E+01
    0.5000000000000000E+01    0.1738996113203182E+01    0.1827272193562204E+01
    0.5000000000000000E+01    0.1325493893339706E+01    0.2808563282768077E+01
    0.5000000000000000E+01   -0.8731419609589618E+00    0.1895995683864404E+01
    0.5000000000000000E+01    0.4906150219227333E-01    0.2273179336307740E+01
    0.0000000000000000E+00    0.1250000000000000E+01    0.5000000000000000E+01
    0.0000000000000000E+00    0.0000000000000000E+00    0.5000000000000000E+01
    0.0000000000000000E+00   -0.1250000000000000E+01    0.5000000000000000E+01
    0.0000000000000000E+00   -0.2496588899954337E+01    0.5000000000000000E+01
    0.1250000000000000E+01   -0.2496588899954337E+01    0.5000000000000000E+01
    0.2500000000000000E+01   -0.2496588899954337E+01    0.5000000000000000E+01
    0.3750000000000000E+01   -0.2496588899954337E+01    0.5000000000000000E+01
    0.4042003247744892E+01    0.1558308132739014E+01    0.5000000000000000E+01
    0.9304122287900499E+00   -0.1548001304379777E+01    0.5000000000000000E+01
    0.1037243024609388E+01    0.1462892710085612E+01    0.5000000000000000E+01
    0.3946240828834967E+01   -0.1445243809615570E+01    0.5000000000000000E+01
    0.4092527262848217E+01   -0.3455338993778935E+00    0.5000000000000000E+01
    0.4293103109154542E+01    0.6277660831404320E+00    0.5000000000000000E+01
    0.3241512314643519E+01    0.7429886854239611E+00    0.5000000000000000E+01
    0.2844289952419609E+01   -0.1588117879734118E+01    0.5000000000000000E+01
    0.7159905765450471E+00   -0.6002320124191652E+00    0.5000000000000000E+01
    0.1754341919796891E+01   -0.7398147869923652E+00    0.5000000000000000E+01
    0.1870296826774691E+01   -0.1788622905643739E+01    0.5000000000000000E+01
    0.9220614901912976E+00    0.3083720183248586E+00    0.5000000000000000E+01
    0.3101523624086016E+01    0.1777901774806180E+01    0.5000000000000000E+01
    0.2192512063922564E+01    0.1576861561598471E+01    0.5000000000000000E+01
    0.2024793420196460E+01    0.4773861992750707E+00    0.5000000000000000E+01
    0.2990627757741975E+01   -0.4878110785814084E+00    0.5000000000000000E+01
    0.0000000000000000E+00   -0.2496588899954337E+01    0.1250000000000000E+01
    0.0000000000000000E+00   -0.2496588899954337E+01    0.2500000000000000E+01
    0.0000000000000000E+00   -0.2496588899954337E+01    0.3750000000000000E+01
    0.0000000000000000E+00    0.1558308132739014E+01    0.4042003247744892E+01
    0.0000000000000000E+00   -0.1548001304379777E+01    0.9304122287900499E+00
    0.0000000000000000E+00    0.1462892710085612E+01    0.1037243024609388E+01
    0.0000000000000000E+00   -0.1445243809615570E+01    0.3946240828834967E+01
    0.0000000000000000E+00   -0.3455338993778935E+00    0.4092527262848217E+01
    0.0000000000000000E+00    0.6277660831404320E+00    0.4293103109154542E+01
    0.0000000000000000E+00    0.7429886854239611E+00    0.3241512314643519E+01
    0.0000000000000000E+00   -0.1588117879734118E+01    0.2844289952419609E+01
    0.0000000000000000E+00   -0.6002320124191652E+00    0.7159905765450471E+00
    0.0000000000000000E+00   -0.7398147869923652E+00    0.1754341919796891E+01
    0.0000000000000000E+00   -0.1788622905643739E+01    0.1870296826774691E+01
    0.0000000000000000E+00    0.3083720183248586E+00    0.9220614901912976E+00
    0.0000000000000000E+00    0.1777901774806180E+01    0.3101523624086016E+01
    0.0000000000000000E+00    0.1576861561598471E+01    0.2192512063922564E+01
[...]
POINT_DATA 213
SCALARS rho double 1
LOOKUP_TABLE default
   0.1219599847328682E+01
   0.9221794058828132E+00
   0.9104476022142971E+00
   0.8966768251027061E+00
   0.7819488797835643E+00
   0.7116573731555418E+00
   0.6990710581389012E+00
   0.7029547332474059E+00
   0.7687354998034779E+00
   0.8895233151693666E+00
   0.8987463242578470E+00
   0.9249601612743041E+00
   0.1300246625475062E+01
   0.1348040337874369E+01
   0.1456337811714622E+01
   0.1286719272032159E+01
   0.9619641717454629E+00
   0.9047653821841682E+00
   0.8972301344711849E+00
   0.9249192643132441E+00
   0.9126331847840266E+00
   0.9866006459572981E+00
   0.8974308226210392E+00
   0.8999717064777296E+00
   0.9067475461198706E+00
   0.9112478018731111E+00
   0.8943866254747265E+00
   0.9125850844684389E+00
   0.8902529732080913E+00
   0.9018652373106691E+00
   0.9063596966345232E+00
   0.8623951208006320E+00
   0.9078065531982612E+00
   0.9506821658358389E+00
   0.1008490981483782E+01
   0.1006976759604412E+01
   0.1000145908107151E+01
   0.1000492867754325E+01
   0.1001010367813539E+01
   0.1002467256251233E+01
   0.1001944765530237E+01
   0.1004886098331253E+01
   0.1016625229737395E+01
   0.1058313577189102E+01
   0.1005436810052661E+01
   0.1000007367966737E+01
   0.9457700116618857E+00
   0.1002042271040490E+01
   0.9982829477746394E+00
   0.1004492521980712E+01
   0.1005371620305455E+01
   0.9993111957382751E+00
   0.9978002655248631E+00
   0.9988040146772742E+00
   0.9987211948646539E+00
   0.9780928879472522E+00
   0.9796706119446873E+00
   0.9639504552781207E+00
   0.9601301107927727E+00
   0.9867991678811113E+00
   0.9922400499722639E+00
   0.1000342976883876E+01
   0.1000541450463934E+01
   0.1000671132692333E+01
   0.9998284136655173E+00
   0.1009782299617841E+01
   0.1007174226433516E+01
   0.9448363251533390E+00
   0.9034576473071597E+00
   0.1007039899884180E+01
   0.1004193124995636E+01
   0.8965165398184155E+00
   0.8926680333472363E+00
   0.8470449578327460E+00
   0.9708428976465400E+00
   0.1000202436724744E+01
   0.1006091578055703E+01
   0.1015639766118125E+01
   0.1012987276012689E+01
   0.1012861698415714E+01
   0.1005118613079257E+01
   0.9863622630565566E+00
   0.1006593490637681E+01
   0.9849764752998309E+00
   0.1008140577022164E+01
   0.1001902606762122E+01
   0.1000777963010854E+01
   0.1001300678501110E+01
   0.1001842923599165E+01
   0.1002348925293699E+01
   0.1000286868720514E+01
   0.1000192913044996E+01
   0.9997755912524937E+00
   0.1001746393751520E+01
   0.1001907943428327E+01
   0.9986523960422341E+00
   0.9995364894059059E+00
   0.9999232338562465E+00
   0.1000198765518493E+01
   0.1000442939592832E+01
   0.1001058840909511E+01
   0.1001457790994792E+01
   0.1001331326784387E+01
   0.1001525817231354E+01
   0.1000861175313386E+01
   0.1001344303716785E+01
   0.1001108533942698E+01
   0.1000543852134558E+01
   0.1060180617754358E+01
   0.1020434860588742E+01
   0.1005937368106094E+01
   0.1003463834302260E+01
   0.1142067406624655E+01
   0.1083370546394114E+01
   0.1004378518375051E+01
   0.1003909103929338E+01
   0.1003789602170129E+01
   0.1006675433928061E+01
   0.1012240643202373E+01
   0.1193114811429371E+01
   0.1028000796711263E+01
   0.1034785391640425E+01
   0.1169417193264522E+01
   0.1009874388389462E+01
   0.1023546154041588E+01
   0.1017121970421412E+01
   0.1007875022970257E+01
   0.1013904373655879E+01
   0.1000120418635100E+01
   0.9442367417343620E+00
   0.1003512213706983E+01
   0.9988676218488068E+00
   0.1006433379429532E+01
   0.1009136817055650E+01
   0.9979418388928775E+00
   0.9977846781476164E+00
   0.9961676187232188E+00
   0.9984778139064223E+00
   0.9810175218278290E+00
   0.9780877491823682E+00
   0.9479693444945146E+00
   0.9505423761064538E+00
   0.9877989959042812E+00
   0.9899199047796495E+00
   0.9925444319445947E+00
   0.9998150142216274E+00
   0.9986044228531910E+00
   0.9946495905348550E+00
   0.1006783296200931E+01
   0.1021195787488638E+01
   0.9979991438160946E+00
   0.1004785936415572E+01
   0.1001443252698236E+01
   0.1004870016025442E+01
   0.9952898755710690E+00
   0.9853957206019688E+00
   0.1000226005432401E+01
   0.9938930093951304E+00
   0.9819631277393869E+00
   0.9943515123265683E+00
   0.9968775124993520E+00
   0.9937161304808243E+00
   0.9987031064089859E+00
   0.1000033242056104E+01
   0.9996686256199747E+00
   0.9958480415126312E+00
   0.9933618021980423E+00
   0.1001379812093512E+01
   0.1018342564314800E+01
   0.1002761159239590E+01
   0.9806466549531283E+00
   0.1001874256719156E+01
   0.1008205820120656E+01
   0.9702345875545413E+00
   0.9431323785610015E+00
   0.9846786244949673E+00
   0.9843645533558765E+00
   0.9754696395259285E+00
   0.9908380286790375E+00
   0.9779133238322569E+00
   0.1033958399192907E+01
   0.1021656809015416E+01
   0.1000033003594639E+01
   0.9991734263249415E+00
   0.9919055309458816E+00
   0.9907248469472775E+00
   0.9574014470119088E+00
   0.9930506894497899E+00
   0.1006289132936873E+01
   0.1002044037296765E+01
   0.9896477851413997E+00
   0.9652799764861260E+00
   0.9203406739375793E+00
   0.9724368585817554E+00
   0.9781836941239656E+00
   0.9559726742705181E+00
   0.9617645522363312E+00
   0.9490309777938821E+00
   0.9366912156297188E+00
   0.9303104428305616E+00
   0.9992919116707826E+00
   0.9994619460587272E+00
   0.9988025026849443E+00
   0.1002017073512620E+01
   0.9391477751831052E+00
   0.9239054545559189E+00
   0.9359217308647642E+00
   0.9984137870394080E+00
   0.9983444517807956E+00
   0.1000450519095490E+01
   0.9793848401498056E+00
   0.9713545770541747E+00
   0.9447096424440956E+00
SCALARS u double 1
LOOKUP_TABLE default
   0.0000000000000000E+00
   0.0000000000000000E+00
   0.0000000000000000E+00
   0.0000000000000000E+00
   0.0000000000000000E+00
   0.0000000000000000E+00
   0.0000000000000000E+00
   0.0000000000000000E+00
   0.0000000000000000E+00
   0.0000000000000000E+00
   0.0000000000000000E+00
   0.0000000000000000E+00
   0.0000000000000000E+00
   0.0000000000000000E+00
   0.0000000000000000E+00
   0.0000000000000000E+00
   0.0000000000000000E+00
   0.0000000000000000E+00
   0.0000000000000000E+00
   0.0000000000000000E+00
   0.0000000000000000E+00
   0.0000000000000000E+00
   0.0000000000000000E+00
   0.0000000000000000E+00
   0.0000000000000000E+00
   0.0000000000000000E+00
   0.0000000000000000E+00
   0.0000000000000000E+00
   0.0000000000000000E+00
   0.0000000000000000E+00
   0.0000000000000000E+00
   0.0000000000000000E+00
   0.0000000000000000E+00
   0.5044656903898553E+00
   0.5290124930426806E+00
   0.5144832572906449E+00
   0.4932265017010037E+00
   0.4881035012780330E+00
   0.4912132747426705E+00
   0.4932012166378377E+00
   0.4982359617729735E+00
   0.4935755422821709E+00
   0.4788817863086235E+00
   0.4518340336700241E+00
   0.4750762525901093E+00
   0.5097784007470156E+00
   0.4511936249337310E+00
   0.4980813360592335E+00
   0.5232695211730349E+00
   0.4995198830536610E+00
   0.5239976506052809E+00
   0.5062462138450803E+00
   0.5621720071307681E+00
   0.5246973149720676E+00
   0.5014415373176897E+00
   0.5724415335636832E+00
   0.5707004861061067E+00
   0.3697809147339817E+00
   0.4030359400076168E+00
   0.5559039502518019E+00
   0.5550071819466068E+00
   0.4941866650672552E+00
   0.4946225565989988E+00
   0.4922550862783776E+00
   0.4916952747439211E+00
   0.5126203631790899E+00
   0.5320037788134414E+00
   0.5051851625286160E+00
   0.4700274067080168E+00
   0.5096958299813782E+00
   0.5089633501794423E+00
   0.4955096564959808E+00
   0.5091188830145394E+00
   0.4859970910613509E+00
   0.5290197060877804E+00
   0.5276939232848011E+00
   0.5095384273638400E+00
   0.5265023598512183E+00
   0.5255836758275034E+00
   0.5249264251170929E+00
   0.5039105664233787E+00
   0.5284460063802525E+00
   0.5353830962952418E+00
   0.5371546784768323E+00
   0.5324039289514987E+00
   0.4987533150745800E+00
   0.4995693369483270E+00
   0.4985678139369915E+00
   0.4978564012347153E+00
   0.4945363857933672E+00
   0.4946354305936365E+00
   0.4894932224007607E+00
   0.4881854190505185E+00
   0.4965709397757313E+00
   0.4946579517674049E+00
   0.4860622945617952E+00
   0.4896816146711844E+00
   0.4900401266289078E+00
   0.4911767803613342E+00
   0.4926166693313093E+00
   0.4981835109475552E+00
   0.4946289712234784E+00
   0.4948395049679252E+00
   0.4976378124739426E+00
   0.4907933211664229E+00
   0.4936012185506161E+00
   0.4927628989754599E+00
   0.4920515022126739E+00
   0.4513309363017041E+00
   0.4773809535968157E+00
   0.4929577584574785E+00
   0.4922016469185630E+00
   0.4645164809386619E+00
   0.4729120201254010E+00
   0.4915211041516211E+00
   0.4906741972586122E+00
   0.4940153722179157E+00
   0.4854929932457825E+00
   0.4731445423369132E+00
   0.4017685471898949E+00
   0.4925810694400075E+00
   0.4586089220906100E+00
   0.4595049385633025E+00
   0.4895104425761738E+00
   0.4701583226222867E+00
   0.4742234730782722E+00
   0.4816343180284368E+00
   0.4809632103270340E+00
   0.5081955858826021E+00
   0.4436620753433253E+00
   0.4960916971667334E+00
   0.5314783312836923E+00
   0.4949806814818399E+00
   0.5219301812084900E+00
   0.5081293875027891E+00
   0.5664001800935875E+00
   0.5269142316686208E+00
   0.5035387254430287E+00
   0.5834535547899360E+00
   0.5720240708529198E+00
   0.3408860850620764E+00
   0.3851958193984558E+00
   0.5717595527732051E+00
   0.5645095919122074E+00
   0.5689243656795787E+00
   0.5291696344229401E+00
   0.5449155646839171E+00
   0.5701880074196946E+00
   0.5404097087772550E+00
   0.5487779277247875E+00
   0.5790108245111750E+00
   0.4955235659400913E+00
   0.5064965485247004E+00
   0.4994484932757970E+00
   0.5533092780492380E+00
   0.4597902255498316E+00
   0.4983751361480125E+00
   0.5489762877901020E+00
   0.5894376704470271E+00
   0.5821700686358101E+00
   0.5457059854081512E+00
   0.5785146415275549E+00
   0.5122043889152751E+00
   0.5055088200028761E+00
   0.5048980713288532E+00
   0.5645297534821843E+00
   0.5552265529361700E+00
   0.4977583770672118E+00
   0.5488209132205492E+00
   0.5486892393524339E+00
   0.5643387883274557E+00
   0.4955121596271234E+00
   0.4958798377286164E+00
   0.3908414082382795E+00
   0.3725910136963059E+00
   0.5584900730671656E+00
   0.5739392830332019E+00
   0.4177439141147238E+00
   0.5813083292469415E+00
   0.4186000555941852E+00
   0.5391903660058983E+00
   0.4993239713526602E+00
   0.5113858610697288E+00
   0.5070195031028684E+00
   0.5732639955683829E+00
   0.5857709372023837E+00
   0.5448206114407323E+00
   0.5657063047773410E+00
   0.5320308531621132E+00
   0.5310303352128304E+00
   0.5561915822943989E+00
   0.5552162283788891E+00
   0.4401002077378195E+00
   0.5282987991564478E+00
   0.5807280150196341E+00
   0.3397138445742022E+00
   0.4812261833273337E+00
   0.5510168073093773E+00
   0.4924432660618847E+00
   0.3108744811393319E+00
   0.5051822071250106E+00
   0.5043571406830902E+00
   0.5129608745719281E+00
   0.5385848727299951E+00
   0.3519685692558954E+00
   0.3560463096685484E+00
   0.3308150954456677E+00
   0.5084554631856565E+00
   0.5125571449076705E+00
   0.5314307725012380E+00
   0.5857979184954716E+00
   0.4640826204500625E+00
   0.3627236060001101E+00
SCALARS v double 1
LOOKUP_TABLE default
   0.0000000000000000E+00
   0.0000000000000000E+00
   0.0000000000000000E+00
   0.0000000000000000E+00
   0.0000000000000000E+00
   0.0000000000000000E+00
   0.0000000000000000E+00
   0.0000000000000000E+00
   0.0000000000000000E+00
   0.0000000000000000E+00
   0.0000000000000000E+00
   0.0000000000000000E+00
   0.0000000000000000E+00
   0.0000000000000000E+00
   0.0000000000000000E+00
   0.0000000000000000E+00
   0.0000000000000000E+00
   0.0000000000000000E+00
   0.0000000000000000E+00
   0.0000000000000000E+00
   0.0000000000000000E+00
   0.0000000000000000E+00
   0.0000000000000000E+00
   0.0000000000000000E+00
   0.0000000000000000E+00
   0.0000000000000000E+00
   0.0000000000000000E+00
   0.0000000000000000E+00
   0.0000000000000000E+00
   0.0000000000000000E+00
   0.0000000000000000E+00
   0.0000000000000000E+00
   0.0000000000000000E+00
   0.0000000000000000E+00
   0.0000000000000000E+00
   0.0000000000000000E+00
   0.0000000000000000E+00
   0.0000000000000000E+00
   0.0000000000000000E+00
   0.0000000000000000E+00
   0.0000000000000000E+00
   0.0000000000000000E+00
   0.0000000000000000E+00
   0.0000000000000000E+00
   0.0000000000000000E+00
   0.0000000000000000E+00
   0.0000000000000000E+00
   0.0000000000000000E+00
   0.0000000000000000E+00
   0.0000000000000000E+00
   0.0000000000000000E+00
   0.0000000000000000E+00
   0.0000000000000000E+00
   0.0000000000000000E+00
   0.0000000000000000E+00
   0.0000000000000000E+00
   0.0000000000000000E+00
   0.0000000000000000E+00
   0.0000000000000000E+00
   0.0000000000000000E+00
   0.0000000000000000E+00
   0.6334718128194364E-03
  -0.1412099380578024E-02
  -0.1391682312894246E-02
   0.0000000000000000E+00
   0.0000000000000000E+00
   0.0000000000000000E+00
   0.0000000000000000E+00
  -0.1867976117101948E-01
   0.2777572207674606E-03
   0.2206620937709268E-02
   0.1490279323438969E-01
  -0.5368581302847600E-02
  -0.6642072490517616E-02
  -0.1142209583642133E-01
   0.4788839761318889E-02
   0.5371999432041497E-03
   0.3195638698497647E-02
   0.1530304081674280E-02
   0.3473816443670719E-02
   0.1704917236989238E-02
  -0.6356075002498639E-02
   0.7681777561237972E-03
   0.4869150637670539E-02
   0.6121851183798596E-03
   0.6959001192307024E-04
  -0.1767234187038253E-03
   0.6082840857259995E-03
   0.0000000000000000E+00
   0.0000000000000000E+00
   0.0000000000000000E+00
   0.0000000000000000E+00
   0.1212938577424983E-03
   0.1423635159757010E-02
  -0.1108799093809360E-02
  -0.9188931819728344E-03
  -0.2101544767898522E-02
  -0.1220496592477977E-02
  -0.8986449871311120E-03
  -0.6448413754023030E-03
  -0.2472688498490877E-04
  -0.5341986122450463E-03
   0.7240122115954839E-03
  -0.1570798846050437E-02
   0.1025651309054780E-03
  -0.1214700840175058E-03
  -0.8743259019763028E-03
  -0.8885258552308240E-03
   0.0000000000000000E+00
   0.0000000000000000E+00
   0.0000000000000000E+00
  -0.1091309526340009E-02
  -0.8502815690501937E-02
   0.1568985767617187E-01
   0.2148691185950448E-03
  -0.1053392362798053E-02
  -0.1673614064303324E-02
  -0.5281082648776386E-02
  -0.1235969565569271E-02
  -0.3701279612972841E-02
  -0.3032656229679874E-02
   0.2127153996429648E-02
   0.2880603328359331E-01
  -0.1724499618782283E-03
  -0.4260465253323882E-02
   0.2498516951917164E-02
   0.9550992356160148E-03
   0.0000000000000000E+00
   0.0000000000000000E+00
   0.0000000000000000E+00
   0.0000000000000000E+00
   0.0000000000000000E+00
   0.0000000000000000E+00
   0.0000000000000000E+00
   0.0000000000000000E+00
   0.0000000000000000E+00
   0.0000000000000000E+00
   0.0000000000000000E+00
   0.0000000000000000E+00
   0.0000000000000000E+00
   0.0000000000000000E+00
   0.0000000000000000E+00
   0.0000000000000000E+00
   0.0000000000000000E+00
   0.4670202132433672E-02
   0.2763278147250393E-02
   0.6893741607902061E-02
   0.5630442559639491E-02
   0.8687055483855980E-02
   0.1244114692320719E-01
   0.4866778793843259E-03
   0.4364182680320877E-02
   0.2406603537237620E-02
   0.2332211071457254E-02
   0.3176373710374609E-02
  -0.1059585764506150E-01
  -0.4893827835324994E-03
   0.6038349870914402E-02
   0.2600382306657233E-02
   0.2269793785833810E-02
   0.3837924332921248E-02
  -0.2020265190604834E-02
   0.9170004725972510E-03
   0.2371044817824345E-02
   0.1154922383594599E-02
   0.2686129643808039E-02
   0.1739854191718980E-02
   0.1798802572309804E-02
   0.8007125038127894E-02
  -0.3375974813954625E-02
   0.5470411164815019E-02
   0.6506742005327342E-04
  -0.3120971978556827E-04
  -0.1328421085473685E-01
  -0.3290558004207220E-02
  -0.3547652338778032E-02
   0.3675146190566127E-02
  -0.3988160131278564E-02
   0.8943884470722064E-03
  -0.2587595523321274E-01
  -0.3070952177444629E-02
   0.4167732909801526E-02
   0.7177101069143028E-03
   0.1825203748726233E-02
   0.4437743653415305E-02
   0.2300336744468253E-02
   0.3389533499235839E-02
   0.5068277793843542E-02
   0.1856652213682570E-02
   0.5820199672431025E-03
  -0.3347065594945691E-03
  -0.4621574814885816E-02
  -0.5498379760100581E-02
   0.4519077259759131E-03
   0.9429294457088525E-03
  -0.7332944364195831E-03
  -0.3869863533878540E-02
  -0.1215987616154741E-02
  -0.3656430657312072E-02
  -0.6898510377349534E-02
  -0.1708647957811072E-02
   0.5357626278849937E-03
  -0.3546521073373314E-03
   0.1111767027165656E-02
  -0.1832587661996637E-02
   0.6956117149818178E-02
  -0.9774614280786095E-02
  -0.1544923444138635E-04
  -0.4080132423781326E-03
   0.2409197586472164E-02
   0.1123359240553187E-02
   0.1298598746429784E-02
  -0.3829000284644342E-02
SCALARS w double 1
LOOKUP_TABLE default
   0.0000000000000000E+00
   0.0000000000000000E+00
   0.0000000000000000E+00
   0.0000000000000000E+00
   0.0000000000000000E+00
   0.0000000000000000E+00
   0.0000000000000000E+00
   0.0000000000000000E+00
   0.0000000000000000E+00
   0.0000000000000000E+00
   0.0000000000000000E+00
   0.0000000000000000E+00
   0.0000000000000000E+00
   0.0000000000000000E+00
   0.0000000000000000E+00
   0.0000000000000000E+00
   0.0000000000000000E+00
   0.0000000000000000E+00
   0.0000000000000000E+00
   0.0000000000000000E+00
   0.0000000000000000E+00
   0.0000000000000000E+00
   0.0000000000000000E+00
   0.0000000000000000E+00
   0.0000000000000000E+00
   0.0000000000000000E+00
   0.0000000000000000E+00
   0.0000000000000000E+00
   0.0000000000000000E+00
   0.0000000000000000E+00
   0.0000000000000000E+00
   0.0000000000000000E+00
   0.0000000000000000E+00
  -0.1144740662543778E+00
  -0.5028453811753249E-01
  -0.2218638980769847E-02
   0.5066013920523508E-02
  -0.6957813335258437E-03
  -0.6076409528242618E-03
   0.5805995237084854E-03
   0.1144807655191743E-02
   0.2440779968112338E-03
   0.3422554557939739E-02
   0.3884463964570571E-01
   0.5360745733947016E-01
  -0.1493570837867425E-02
  -0.2790728420557554E-01
   0.2079827714113740E-02
   0.1059655733435728E-01
   0.8042752794536706E-02
   0.4393892034956122E-01
  -0.4043421978317338E-03
  -0.1058031248837699E-01
  -0.3671503956774775E-02
  -0.2102263041033363E-02
   0.4819757993256773E-03
  -0.4609514486377643E-01
   0.1623618198027403E-01
   0.1240675030888481E-01
   0.2994629252854677E-01
   0.5073340838903174E-02
   0.4321078078947697E-02
   0.4383197545029542E-02
   0.4018273121414068E-02
   0.5466031241482640E-02
  -0.1704969427904958E-03
  -0.4834025067403323E-01
  -0.1122168936443894E+00
  -0.1279822901883327E+00
   0.2784415389173996E-02
   0.1930920249731294E-02
  -0.1150881691336898E+00
  -0.1133080249523446E+00
  -0.1132666420379192E+00
  -0.1072902218391923E+00
  -0.7748709733551011E-01
   0.3027728192673733E-02
  -0.2451875992495526E-01
  -0.2041362445179086E-01
  -0.9927809915790250E-02
   0.5241304084213910E-02
  -0.9129646555701249E-01
  -0.3406073304250741E-01
  -0.9180585731028269E-01
  -0.6776880052055755E-01
   0.1807790374233364E-02
   0.1559385925992097E-02
   0.1426788053140033E-02
   0.2118646043673329E-02
   0.1358295069481849E-02
  -0.1241622773362346E-02
  -0.1475161133051632E-02
   0.1114705428779686E-02
   0.2218159671985193E-02
   0.1202567570078303E-02
  -0.7056145353078068E-04
   0.1919560442481368E-03
   0.8213686035565116E-03
  -0.1576105319822557E-02
  -0.1943018905744985E-02
   0.1965357207878188E-02
  -0.4390927291729531E-04
  -0.4390438444613174E-03
   0.2228746908668040E-02
  -0.1071760765965611E-02
  -0.2024445974011649E-03
  -0.4923311210393412E-03
  -0.1804017664656596E-02
   0.6879534463587712E-01
   0.2330701342467482E-02
  -0.1105205140189307E-02
  -0.7920407574597819E-03
   0.1156184615571372E+00
   0.1039170540400135E+00
  -0.1771013197821809E-02
  -0.4421112934115490E-02
  -0.7493433829759151E-03
  -0.7086036267625885E-02
  -0.2645570610609502E-02
   0.1269924683611129E+00
   0.6360351661475871E-01
   0.2237139358404654E-01
   0.1353419472442809E+00