title="tecplot geometry and solution file"
variables = x y z rho u v w p mach temperature
zone t="boundary 1 bc-1", solutiontime= 0.7000000E+02, strandid=1001, i=32, j=46, f=feblock
  0.000000000000E+00  0.000000000000E+00  0.000000000000E+00  0.000000000000E+00  0.000000000000E+00  0.000000000000E+00  0.000000000000E+00
  0.000000000000E+00  0.000000000000E+00  0.000000000000E+00  0.000000000000E+00  0.000000000000E+00  0.000000000000E+00  0.000000000000E+00
  0.000000000000E+00  0.000000000000E+00  0.000000000000E+00  0.000000000000E+00  0.000000000000E+00  0.000000000000E+00  0.000000000000E+00
  0.000000000000E+00  0.000000000000E+00  0.000000000000E+00  0.000000000000E+00  0.000000000000E+00  0.000000000000E+00  0.000000000000E+00
  0.000000000000E+00  0.000000000000E+00  0.000000000000E+00  0.000000000000E+00
  0.250000000000E+01  0.250000000000E+01  0.125000000000E+01  0.146289271009E+01  0.157686156160E+01  0.308372018325E+00  0.000000000000E+00
 -0.125000000000E+01 -0.600232012419E+00  0.250000000000E+01  0.477386199275E+00  0.742988685424E+00 -0.739814786992E+00  0.177790177481E+01
  0.155830813274E+01  0.250000000000E+01 -0.250000000000E+01 -0.154800130438E+01 -0.487811078581E+00  0.250000000000E+01  0.627766083140E+00
 -0.345533899378E+00 -0.178862290564E+01 -0.158811787973E+01  0.125000000000E+01 -0.250000000000E+01 -0.144524380962E+01  0.000000000000E+00
 -0.125000000000E+01 -0.250000000000E+01 -0.250000000000E+01 -0.250000000000E+01
  0.000000000000E+00  0.125000000000E+01  0.000000000000E+00  0.103724302461E+01  0.219251206392E+01  0.922061490191E+00  0.000000000000E+00
  0.000000000000E+00  0.715990576545E+00  0.250000000000E+01  0.202479342020E+01  0.324151231464E+01  0.175434191980E+01  0.310152362409E+01
  0.404200324774E+01  0.375000000000E+01  0.000000000000E+00  0.930412228790E+00  0.299062775774E+01  0.500000000000E+01  0.429310310915E+01
  0.409252726285E+01  0.187029682677E+01  0.284428995242E+01  0.500000000000E+01  0.125000000000E+01  0.394624082883E+01  0.500000000000E+01
  0.500000000000E+01  0.250000000000E+01  0.375000000000E+01  0.500000000000E+01
  0.134427144784E+01  0.106355395603E+01  0.142583204757E+01  0.108608796981E+01  0.103229115318E+01  0.120095364213E+01  0.164466727465E+01
  0.149409064285E+01  0.123520366946E+01  0.102389313790E+01  0.102809523664E+01  0.101301828692E+01  0.103252946672E+01  0.101471891601E+01
  0.100663883747E+01  0.100830818995E+01  0.144945745010E+01  0.116393552215E+01  0.101462863979E+01  0.100426040824E+01  0.100679807414E+01
  0.100724553330E+01  0.104668119153E+01  0.101938460949E+01  0.100424800571E+01  0.106442280100E+01  0.100789341926E+01  0.100288843769E+01
  0.100334542045E+01  0.102847362136E+01  0.100958665731E+01  0.100399273187E+01
  0.000000000000E+00  0.445481415450E+00  0.000000000000E+00  0.468737856600E+00  0.462182264599E+00  0.443613739145E+00  0.000000000000E+00
  0.000000000000E+00  0.379272522861E+00  0.471738849446E+00  0.466574953504E+00  0.479355157717E+00  0.490159653028E+00  0.484514724159E+00
  0.488524784397E+00  0.489830188433E+00  0.000000000000E+00  0.450653304458E+00  0.474814029978E+00  0.495784888068E+00  0.490899471628E+00
  0.486835368363E+00  0.448668669076E+00  0.465807174734E+00  0.496536481890E+00  0.444686658005E+00  0.487701045705E+00  0.497534090417E+00
  0.496384264468E+00  0.470002878057E+00  0.489199905673E+00  0.495522026774E+00
  0.000000000000E+00  0.000000000000E+00  0.000000000000E+00  0.186085475716E-01 -0.276688487808E-02  0.332952482984E-01  0.000000000000E+00
  0.000000000000E+00 -0.594701645102E-02  0.000000000000E+00  0.356648470953E-02 -0.566638318228E-02 -0.416060189270E-02  0.305514103597E-04
 -0.106175910128E-02  0.000000000000E+00  0.000000000000E+00 -0.764112889785E-02  0.359618942409E-03  0.000000000000E+00 -0.203512296570E-02
 -0.138312914775E-02  0.156561482660E-02 -0.158521019547E-02 -0.638374251759E-04  0.000000000000E+00 -0.283455404571E-04 -0.196339458263E-03
  0.807126799837E-03  0.000000000000E+00  0.000000000000E+00  0.000000000000E+00
  0.000000000000E+00  0.452181757635E-01  0.000000000000E+00  0.123933295685E+00  0.247647172111E-01  0.165644512104E+00  0.000000000000E+00
  0.000000000000E+00  0.155763097401E+00  0.351822589561E-02  0.259783174446E-01 -0.651224679646E-02  0.748997919973E-01  0.371839290848E-02
 -0.149294540334E-03  0.459062477824E-03  0.000000000000E+00  0.140954084601E+00 -0.808565308553E-02  0.237177366008E-02 -0.304305774814E-03
 -0.438193607237E-02  0.255017491569E-01 -0.194957030314E-02  0.308362570192E-02  0.837461434320E-01 -0.121909329131E-02  0.268514648134E-02
  0.264043119327E-02  0.279387073106E-02 -0.834662805646E-03  0.345019193651E-02
  0.960184573282E+00  0.782340562270E+00  0.101844205055E+01  0.808726658134E+00  0.746125892224E+00  0.879446499563E+00  0.117475225637E+01
  0.106719924432E+01  0.916620147502E+00  0.737395238948E+00  0.743553972863E+00  0.725759211449E+00  0.757455251005E+00  0.729188343733E+00
  0.720785048273E+00  0.722781670943E+00  0.103531921525E+01  0.858317141202E+00  0.728065073423E+00  0.718615293911E+00  0.721013448804E+00
  0.721151587158E+00  0.760018786487E+00  0.732628403578E+00  0.718531161659E+00  0.791043235701E+00  0.722107949844E+00  0.717199383082E+00
  0.717636870884E+00  0.741799737515E+00  0.724056580132E+00  0.718400634652E+00
  0.000000000000E+00  0.441238348480E+00  0.000000000000E+00  0.475214987040E+00  0.460123708973E+00  0.468827815485E+00  0.000000000000E+00
  0.000000000000E+00  0.402302516951E+00  0.469814974468E+00  0.464411129051E+00  0.478714034275E+00  0.489298241678E+00  0.483068557966E+00
  0.487930073175E+00  0.488961654687E+00  0.000000000000E+00  0.464775721512E+00  0.473795651988E+00  0.495346592063E+00  0.490266103495E+00
  0.486286083960E+00  0.445717618175E+00  0.464382274733E+00  0.496127394952E+00  0.443624103893E+00  0.486964462015E+00  0.497246279800E+00
  0.496059270926E+00  0.467732355464E+00  0.488212087419E+00  0.495098264854E+00
  0.999990295675E+00  0.102982719492E+01  0.999990758519E+00  0.104247294221E+01  0.101190080521E+01  0.102520618298E+01  0.999991417272E+00
  0.999992168618E+00  0.103891223628E+01  0.100826277305E+01  0.101252833873E+01  0.100300548287E+01  0.102702865689E+01  0.100605563287E+01
  0.100244400476E+01  0.100355660045E+01  0.999992722277E+00  0.103239739214E+01  0.100459524088E+01  0.100179336277E+01  0.100260305840E+01
  0.100234966415E+01  0.101657153075E+01  0.100617544690E+01  0.100168844808E+01  0.104043292660E+01  0.100303376375E+01  0.100118726927E+01
  0.100134171020E+01  0.100976788412E+01  0.100405369350E+01  0.100176112494E+01
        12        19        11        11
        11         5        12        12
        10        14         5         5
        19        13        11        11
        19        24        13        13
        30        23        24        24
        19        12        22        22
        28        22        21        21
        11        13         6         6
         7         6         9         9
        15        12        14        14
        18        13        23        23
        15        25        21        21
        27        19        22        22
        18         8         9         9
        27        31        24        24
         4        11         6         6
         5        14        12        12
         4         2         5         5
        21        12        15        15
        14        16        15        15
        24        19        27        27
        22        29        27        27
        23        26        18        18
        17         8        18        18
         5        11         4         4
         6         3         4         4
        26        23        30        30
         5         2        10        10
        16        14        10        10
         3         6         7         7
        21        25        28        28
        29        22        28        28
         6        13         9         9
         2         4         1         1
        31        27        32        32
        25        15        20        20
        24        23        13        13
         8         7         9         9
        13        18         9         9
        31        30        24        24
        12        21        22        22
        29        32        27        27
         3         1         4         4
        26        17        18        18
        16        20        15        15
zone t="boundary 2 bc-2", solutiontime= 0.7000000E+02, strandid=1002, i=33, j=48, f=feblock
  0.500000000000E+01  0.375000000000E+01  0.250000000000E+01  0.288078410721E+01  0.125000000000E+01  0.190974100652E+01  0.326683758169E+01
  0.201431602454E+01  0.000000000000E+00  0.963108083381E+00  0.500000000000E+01  0.403552511878E+01  0.423153924130E+01  0.500000000000E+01
  0.385533350601E+01  0.500000000000E+01  0.398173246726E+01  0.315249557942E+01  0.267000324704E+01  0.154774304040E+01  0.218329375016E+01
  0.893127759452E+00  0.000000000000E+00  0.698517061619E+00  0.964171764089E+00  0.310324758057E+01  0.000000000000E+00  0.000000000000E+00
  0.125000000000E+01  0.500000000000E+01  0.375000000000E+01  0.250000000000E+01  0.000000000000E+00
 -0.250000000000E+01 -0.250000000000E+01 -0.250000000000E+01 -0.250000000000E+01 -0.250000000000E+01 -0.250000000000E+01 -0.250000000000E+01
 -0.250000000000E+01 -0.250000000000E+01 -0.250000000000E+01 -0.250000000000E+01 -0.250000000000E+01 -0.250000000000E+01 -0.250000000000E+01
 -0.250000000000E+01 -0.250000000000E+01 -0.250000000000E+01 -0.250000000000E+01 -0.250000000000E+01 -0.250000000000E+01 -0.250000000000E+01
 -0.250000000000E+01 -0.250000000000E+01 -0.250000000000E+01 -0.250000000000E+01 -0.250000000000E+01 -0.250000000000E+01 -0.250000000000E+01
 -0.250000000000E+01 -0.250000000000E+01 -0.250000000000E+01 -0.250000000000E+01 -0.250000000000E+01
  0.000000000000E+00  0.000000000000E+00  0.000000000000E+00  0.904659890645E+00  0.000000000000E+00  0.717002441913E+00  0.188609243358E+01
  0.176246431481E+01  0.000000000000E+00  0.961328577125E+00  0.125000000000E+01  0.101201586758E+01  0.191586535653E+01  0.250000000000E+01
  0.293121848150E+01  0.375000000000E+01  0.406975391361E+01  0.363585050272E+01  0.285047954584E+01  0.292817774674E+01  0.395907379566E+01
  0.205246550326E+01  0.125000000000E+01  0.306828197606E+01  0.397245519226E+01  0.433168271247E+01  0.250000000000E+01  0.375000000000E+01
  0.500000000000E+01  0.500000000000E+01  0.500000000000E+01  0.500000000000E+01  0.500000000000E+01
  0.830787403903E+00  0.935297256009E+00  0.934221981803E+00  0.968087712737E+00  0.961719528219E+00  0.964848332009E+00  0.984136201139E+00
  0.991412447161E+00  0.144945745010E+01  0.102921689307E+01  0.955878695950E+00  0.960692919498E+00  0.981487961497E+00  0.100642910902E+01
  0.997912123395E+00  0.100977863888E+01  0.100199481638E+01  0.998063237275E+00  0.991085838850E+00  0.100132719332E+01  0.100094600692E+01
  0.101224609886E+01  0.106442280100E+01  0.101082190536E+01  0.100685258279E+01  0.100118414338E+01  0.102847362136E+01  0.100958665731E+01
  0.100510171617E+01  0.100179475836E+01  0.100266315998E+01  0.100321164516E+01  0.100399273187E+01
  0.000000000000E+00  0.000000000000E+00  0.000000000000E+00  0.378986941074E+00  0.000000000000E+00  0.340639444214E+00  0.582179008622E+00
  0.575195820678E+00  0.000000000000E+00  0.489449421553E+00  0.494741335749E+00  0.431507387046E+00  0.568961825173E+00  0.536179830552E+00
  0.568879739530E+00  0.516235685107E+00  0.508555697341E+00  0.527399281787E+00  0.566648549325E+00  0.531828923407E+00  0.506096459952E+00
  0.520701999331E+00  0.444686658005E+00  0.491339919621E+00  0.492734936127E+00  0.501504484146E+00  0.470002878057E+00  0.489199905673E+00
  0.490458183132E+00  0.491426954408E+00  0.486218276444E+00  0.490304438540E+00  0.495522026774E+00
  0.000000000000E+00  0.000000000000E+00  0.000000000000E+00  0.000000000000E+00  0.000000000000E+00  0.000000000000E+00  0.000000000000E+00
  0.000000000000E+00  0.000000000000E+00  0.000000000000E+00  0.000000000000E+00  0.000000000000E+00  0.000000000000E+00  0.000000000000E+00
  0.000000000000E+00  0.000000000000E+00  0.000000000000E+00  0.000000000000E+00  0.000000000000E+00  0.000000000000E+00  0.000000000000E+00
  0.000000000000E+00  0.000000000000E+00  0.000000000000E+00  0.000000000000E+00  0.000000000000E+00  0.000000000000E+00  0.000000000000E+00
  0.000000000000E+00  0.000000000000E+00  0.000000000000E+00  0.000000000000E+00  0.000000000000E+00
  0.000000000000E+00  0.000000000000E+00  0.000000000000E+00 -0.229669078439E-02  0.000000000000E+00  0.183565246127E-01  0.121122186750E-01
  0.454986543434E-01  0.000000000000E+00  0.870789632291E-01 -0.995426185770E-01 -0.211864966402E-01 -0.306441470889E-01 -0.414442958836E-01
 -0.137883058535E-02  0.259919180518E-02  0.609478582924E-03  0.503572936374E-03  0.150967302193E-01  0.284025719142E-01  0.564163867114E-02
  0.553419832666E-01  0.837461434320E-01  0.110441021141E-01  0.679169186827E-02 -0.758115867453E-03  0.279387073106E-02 -0.834662805646E-03
  0.400708382048E-02  0.602719171232E-02 -0.143884612168E-03  0.120121435780E-02  0.345019193651E-02
  0.593415709757E+00  0.668065253378E+00  0.667297107173E+00  0.684257572446E+00  0.686937806178E+00  0.679201335790E+00  0.695811645431E+00
  0.702343853158E+00  0.103531921525E+01  0.723694676280E+00  0.672591690659E+00  0.675702734315E+00  0.694093188859E+00  0.720959962476E+00
  0.712691281840E+00  0.724770829810E+00  0.716580562960E+00  0.713298992063E+00  0.706429557583E+00  0.717737238966E+00  0.715376602481E+00
  0.730937674980E+00  0.791043235701E+00  0.724372849909E+00  0.721010721381E+00  0.715457540748E+00  0.741799737515E+00  0.724056580132E+00
  0.719312938075E+00  0.715892799201E+00  0.716608905030E+00  0.717367939491E+00  0.718400634652E+00
  0.000000000000E+00  0.000000000000E+00  0.000000000000E+00  0.380991906562E+00  0.000000000000E+00  0.343629824932E+00  0.585286157457E+00
  0.579373264248E+00  0.000000000000E+00  0.501056068996E+00  0.508460362830E+00  0.435373026716E+00  0.572640041244E+00  0.537002098911E+00
  0.568922553855E+00  0.514994090608E+00  0.508247257161E+00  0.527252853134E+00  0.567446661114E+00  0.531657143915E+00  0.505981016627E+00
  0.520795579422E+00  0.443624103893E+00  0.490663730507E+00  0.492155873800E+00  0.501390784710E+00  0.467732355464E+00  0.488212087419E+00
  0.490002767176E+00  0.491352304716E+00  0.486075475275E+00  0.490036479300E+00  0.495098264854E+00
  0.999993487813E+00  0.999993690478E+00  0.999993543545E+00  0.989539056038E+00  0.999993137740E+00  0.985524707417E+00  0.989838908961E+00
  0.991798516587E+00  0.999992722277E+00  0.984411112575E+00  0.985091906444E+00  0.984689081017E+00  0.990058464824E+00  0.100289621835E+01
  0.999855369210E+00  0.100485306647E+01  0.100121554697E+01  0.100055642928E+01  0.997896793444E+00  0.100350029566E+01  0.100058068721E+01
  0.101093276242E+01  0.104043292660E+01  0.100326475366E+01  0.100254498740E+01  0.100045587385E+01  0.100976788412E+01  0.100405369350E+01
  0.100192656833E+01  0.100045434508E+01  0.100058774182E+01  0.100109993752E+01  0.100176112494E+01
        15         7        19        19
         8        20        19        19
        18        19        21        21
         7         4         8         8
         3         6         4         4
        19         7         8         8
        19        18        15        15
        14        13        15        15
         8        22        20        20
        27        24        22        22
        19        20        21        21
        32        26        21        21
        17        18        26        26
        17        16        15        15
        25        29        21        21
        12         7        13        13
        10         8         6         6
        25        20        24        24
         4         6         8         8
        12         2         4         4
        10        23        22        22
        26        31        17        17
        30        16        17        17
         4         7        12        12
        13        11        12        12
        21        20        25        25
        24        28        25        25
        22         8        10        10
         6         5        10        10
        31        26        32        32
         4         2         3         3
         5         6         3         3
        11        13        14        14
        22        23        27        27
        28        24        27        27
        15        13         7         7
         2        12         1         1
        29        25        33        33
        23        10         9         9
        21        26        18        18
        16        14        15        15
        18        17        15        15
        29        32        21        21
        22        24        20        20
        28        33        25        25
        11         1        12        12
        31        30        17        17
         5         9        10        10
zone t="boundary 3 bc-3", solutiontime= 0.7000000E+02, strandid=1003, i=33, j=48, f=feblock
  0.375000000000E+01  0.250000000000E+01  0.500000000000E+01  0.403552511878E+01  0.288078410721E+01  0.125000000000E+01  0.190974100652E+01
  0.500000000000E+01  0.326683758169E+01  0.423153924130E+01  0.201431602454E+01  0.000000000000E+00  0.963108083381E+00  0.500000000000E+01
  0.267000324704E+01  0.385533350601E+01  0.893127759452E+00  0.154774304040E+01  0.000000000000E+00  0.500000000000E+01  0.315249557942E+01
  0.218329375016E+01  0.398173246726E+01  0.000000000000E+00  0.698517061619E+00  0.964171764089E+00  0.125000000000E+01  0.000000000000E+00
  0.500000000000E+01  0.310324758057E+01  0.250000000000E+01  0.375000000000E+01  0.000000000000E+00
  0.250000000000E+01  0.250000000000E+01  0.250000000000E+01  0.250000000000E+01  0.250000000000E+01  0.250000000000E+01  0.250000000000E+01
  0.250000000000E+01  0.250000000000E+01  0.250000000000E+01  0.250000000000E+01  0.250000000000E+01  0.250000000000E+01  0.250000000000E+01
  0.250000000000E+01  0.250000000000E+01  0.250000000000E+01  0.250000000000E+01  0.250000000000E+01  0.250000000000E+01  0.250000000000E+01
  0.250000000000E+01  0.250000000000E+01  0.250000000000E+01  0.250000000000E+01  0.250000000000E+01  0.250000000000E+01  0.250000000000E+01
  0.250000000000E+01  0.250000000000E+01  0.250000000000E+01  0.250000000000E+01  0.250000000000E+01
  0.000000000000E+00  0.000000000000E+00  0.000000000000E+00  0.101201586758E+01  0.904659890645E+00  0.000000000000E+00  0.717002441913E+00
  0.125000000000E+01  0.188609243358E+01  0.191586535653E+01  0.176246431481E+01  0.000000000000E+00  0.961328577125E+00  0.250000000000E+01
  0.285047954584E+01  0.293121848150E+01  0.205246550326E+01  0.292817774674E+01  0.125000000000E+01  0.375000000000E+01  0.363585050272E+01
  0.395907379566E+01  0.406975391361E+01  0.250000000000E+01  0.306828197606E+01  0.397245519226E+01  0.500000000000E+01  0.375000000000E+01
  0.500000000000E+01  0.433168271247E+01  0.500000000000E+01  0.500000000000E+01  0.500000000000E+01
  0.941861271095E+00  0.946296419460E+00  0.843730488943E+00  0.964330993603E+00  0.978820740977E+00  0.956975890958E+00  0.983331403374E+00
  0.963500307767E+00  0.982689307303E+00  0.984243964171E+00  0.990263816085E+00  0.134427144784E+01  0.101918251307E+01  0.100829903951E+01
  0.993456155305E+00  0.997998684816E+00  0.100807808363E+01  0.100072116327E+01  0.106355395603E+01  0.100673529185E+01  0.100058356093E+01
  0.100234980709E+01  0.100178076642E+01  0.102389313790E+01  0.100874208378E+01  0.100528370896E+01  0.100522860292E+01  0.100830818995E+01
  0.100196461760E+01  0.100162012364E+01  0.100413205395E+01  0.100321958151E+01  0.100426040824E+01
  0.000000000000E+00  0.000000000000E+00  0.000000000000E+00  0.439071270169E+00  0.399865812457E+00  0.000000000000E+00  0.373794144906E+00
  0.495017683757E+00  0.573056190110E+00  0.569605109673E+00  0.559932658689E+00  0.000000000000E+00  0.483390704775E+00  0.533822130001E+00
  0.556458763053E+00  0.564688360878E+00  0.522615496387E+00  0.522533036266E+00  0.445481415450E+00  0.518326924719E+00  0.524750915690E+00
  0.503888174339E+00  0.509839746265E+00  0.471738849446E+00  0.496245454615E+00  0.494940396516E+00  0.489076358389E+00  0.489830188433E+00
  0.493064988019E+00  0.499146611983E+00  0.486766642429E+00  0.484757871981E+00  0.495784888068E+00
  0.000000000000E+00  0.000000000000E+00  0.000000000000E+00  0.000000000000E+00  0.000000000000E+00  0.000000000000E+00  0.000000000000E+00
  0.000000000000E+00  0.000000000000E+00  0.000000000000E+00  0.000000000000E+00  0.000000000000E+00  0.000000000000E+00  0.000000000000E+00
  0.000000000000E+00  0.000000000000E+00  0.000000000000E+00  0.000000000000E+00  0.000000000000E+00  0.000000000000E+00  0.000000000000E+00
  0.000000000000E+00  0.000000000000E+00  0.000000000000E+00  0.000000000000E+00  0.000000000000E+00  0.000000000000E+00  0.000000000000E+00
  0.000000000000E+00  0.000000000000E+00  0.000000000000E+00  0.000000000000E+00  0.000000000000E+00
  0.000000000000E+00  0.000000000000E+00  0.000000000000E+00 -0.226115182869E-01  0.111963818228E-01  0.000000000000E+00  0.179816810024E-01
 -0.100761228962E+00  0.390410739202E-02 -0.389325430496E-01  0.340377325562E-01  0.000000000000E+00  0.652293780925E-01 -0.424929713199E-01
  0.843881025693E-02 -0.650994104470E-02  0.490054841038E-01  0.135873483893E-01  0.452181757635E-01  0.737198665305E-03 -0.701222695413E-03
  0.243744355381E-02  0.868929746872E-03  0.351822589561E-02  0.103945255318E-01  0.431655355141E-02  0.337507305847E-02  0.459062477824E-03
  0.572579993965E-02  0.341101686427E-03  0.160978315177E-02  0.569905778569E-03  0.237177366008E-02
  0.672750879282E+00  0.675918855485E+00  0.602658383847E+00  0.676093765349E+00  0.691308921418E+00  0.683547254591E+00  0.690066482568E+00
  0.677274860503E+00  0.695201827844E+00  0.696250865947E+00  0.703344068614E+00  0.960184573282E+00  0.719726358921E+00  0.722866646243E+00
  0.709447759082E+00  0.713700946693E+00  0.726067413935E+00  0.716602922710E+00  0.782340562270E+00  0.722284532348E+00  0.716128636906E+00
  0.716551643738E+00  0.716546536215E+00  0.737395238948E+00  0.722682910914E+00  0.719441264145E+00  0.719566095349E+00  0.722781670943E+00
  0.716030181684E+00  0.715847822139E+00  0.718146783226E+00  0.717062470346E+00  0.718615293911E+00
  0.000000000000E+00  0.000000000000E+00  0.000000000000E+00  0.443767745638E+00  0.402286944593E+00  0.000000000000E+00  0.377550369422E+00
  0.509232128904E+00  0.575832179769E+00  0.573707405343E+00  0.562554064364E+00  0.000000000000E+00  0.490563299657E+00  0.534527096502E+00
  0.556586982171E+00  0.564391577738E+00  0.522730517420E+00  0.522052000194E+00  0.441238348480E+00  0.517182331738E+00  0.524228630774E+00
  0.503687457574E+00  0.509488571180E+00  0.469814974468E+00  0.495614442467E+00  0.494483780263E+00  0.488562428406E+00  0.488961654687E+00
  0.492980744788E+00  0.499005552259E+00  0.486460936574E+00  0.484596927598E+00  0.495346592063E+00
  0.999989340150E+00  0.999989409469E+00  0.999989627545E+00  0.981541895644E+00  0.988773990444E+00  0.999989827821E+00  0.982469462767E+00
  0.984104309112E+00  0.990427545867E+00  0.990355285691E+00  0.994362997078E+00  0.999990295675E+00  0.988652071214E+00  0.100368369411E+01
  0.999769197071E+00  0.100118501214E+01  0.100834885314E+01  0.100252111039E+01  0.102982719492E+01  0.100443319458E+01  0.100199536632E+01
  0.100082056597E+01  0.100138192340E+01  0.100826277305E+01  0.100298787128E+01  0.100192389554E+01  0.100215267508E+01  0.100355660045E+01
  0.100047670023E+01  0.100056591051E+01  0.100126820229E+01  0.100066573359E+01  0.100179336277E+01
        15         9        16        16
        15        18        11        11
        22        15        21        21
        11         5         9         9
         5         7         2         2
        11         9        15        15
        16        21        15        15
        16        10        14        14
        18        17        11        11
        17        25        24        24
        22        18        15        15
        22        30        31        31
        30        21        23        23
        16        20        23        23
        22        27        26        26
        10         9         4         4
         7        11        13        13
        25        18        26        26
        11         7         5         5
         5         1         4         4
        17        19        13        13
        23        32        30        30
        23        20        29        29
         4         9         5         5
         4         8        10        10
        26        18        22        22
        26        28        25        25
        13        11        17        17
        13         6         7         7
        31        30        32        32
         2         1         5         5
         2         7         6         6
        14        10         8         8
        24        19        17        17
        24        25        28        28
         9        10        16        16
         3         4         1         1
        33        26        27        27
        12        13        19        19
        21        30        22        22
        16        14        20        20
        16        23        21        21
        22        31        27        27
        18        25        17        17
        26        33        28        28
         4         3         8         8
        23        29        32        32
        13        12         6         6
zone t="boundary 4 bc-4", solutiontime= 0.7000000E+02, strandid=1004, i=32, j=46, f=feblock
  0.125000000000E+01  0.219251206392E+01  0.103724302461E+01  0.500000000000E+01  0.250000000000E+01  0.375000000000E+01  0.404200324774E+01
  0.500000000000E+01  0.000000000000E+00  0.310152362409E+01  0.202479342020E+01  0.324151231464E+01  0.922061490191E+00  0.000000000000E+00
  0.299062775774E+01  0.394624082883E+01  0.500000000000E+01  0.409252726285E+01  0.500000000000E+01  0.429310310915E+01  0.175434191980E+01
  0.284428995242E+01  0.000000000000E+00  0.000000000000E+00  0.715990576545E+00  0.930412228790E+00  0.125000000000E+01  0.187029682677E+01
  0.500000000000E+01  0.375000000000E+01  0.250000000000E+01  0.000000000000E+00
  0.250000000000E+01  0.157686156160E+01  0.146289271009E+01  0.250000000000E+01  0.250000000000E+01  0.250000000000E+01  0.155830813274E+01
  0.125000000000E+01  0.250000000000E+01  0.177790177481E+01  0.477386199275E+00  0.742988685424E+00  0.308372018325E+00  0.125000000000E+01
 -0.487811078581E+00 -0.144524380962E+01 -0.125000000000E+01 -0.345533899378E+00  0.000000000000E+00  0.627766083140E+00 -0.739814786992E+00
 -0.158811787973E+01  0.000000000000E+00 -0.125000000000E+01 -0.600232012419E+00 -0.154800130438E+01 -0.250000000000E+01 -0.178862290564E+01
 -0.250000000000E+01 -0.250000000000E+01 -0.250000000000E+01 -0.250000000000E+01
  0.500000000000E+01  0.500000000000E+01  0.500000000000E+01  0.500000000000E+01  0.500000000000E+01  0.500000000000E+01  0.500000000000E+01
  0.500000000000E+01  0.500000000000E+01  0.500000000000E+01  0.500000000000E+01  0.500000000000E+01  0.500000000000E+01  0.500000000000E+01
  0.500000000000E+01  0.500000000000E+01  0.500000000000E+01  0.500000000000E+01  0.500000000000E+01  0.500000000000E+01  0.500000000000E+01
  0.500000000000E+01  0.500000000000E+01  0.500000000000E+01  0.500000000000E+01  0.500000000000E+01  0.500000000000E+01  0.500000000000E+01
  0.500000000000E+01  0.500000000000E+01  0.500000000000E+01  0.500000000000E+01
  0.100522860292E+01  0.100432972643E+01  0.100432034603E+01  0.100196461760E+01  0.100413205395E+01  0.100321958151E+01  0.100258623143E+01
  0.100201175166E+01  0.100426040824E+01  0.100372310394E+01  0.100446502188E+01  0.100346952082E+01  0.100365984940E+01  0.100424800571E+01
  0.100362337534E+01  0.100164192040E+01  0.100227632653E+01  0.100227311600E+01  0.100213446567E+01  0.100254347560E+01  0.100442386346E+01
  0.100337264028E+01  0.100288843769E+01  0.100334542045E+01  0.100323223004E+01  0.100406087094E+01  0.100510171617E+01  0.100431307085E+01
  0.100179475836E+01  0.100266315998E+01  0.100321164516E+01  0.100399273187E+01
  0.489076358389E+00  0.489238598416E+00  0.490983331261E+00  0.493064988019E+00  0.486766642429E+00  0.484757871981E+00  0.485404956144E+00
  0.494262733294E+00  0.495784888068E+00  0.486800248114E+00  0.488139336991E+00  0.487244593173E+00  0.494423292580E+00  0.496536481890E+00
  0.487845782902E+00  0.483219469669E+00  0.492573587421E+00  0.487262277731E+00  0.494865946611E+00  0.488012490976E+00  0.490096716804E+00
  0.488269666960E+00  0.497534090417E+00  0.496384264468E+00  0.495259755675E+00  0.493216438824E+00  0.490458183132E+00  0.490400009087E+00
  0.491426954408E+00  0.486218276444E+00  0.490304438540E+00  0.495522026774E+00
  0.000000000000E+00 -0.893974729613E-04 -0.129755094413E-02  0.000000000000E+00  0.000000000000E+00  0.000000000000E+00  0.425702022076E-03
  0.797025453905E-03  0.000000000000E+00  0.274712864649E-03 -0.942431010752E-03 -0.820006428304E-03 -0.174523850761E-02 -0.638374251759E-04
 -0.110022754044E-02 -0.102277497770E-02 -0.133259275219E-02 -0.213434240930E-02 -0.132929468849E-02 -0.106401266064E-02 -0.624409192196E-03
 -0.761703319895E-03 -0.196339458263E-03  0.807126799837E-03  0.520225899424E-04  0.161630463497E-02  0.000000000000E+00  0.791646920974E-03
  0.000000000000E+00  0.000000000000E+00  0.000000000000E+00  0.000000000000E+00