title="tecplot geometry and solution file"
variables = x y z rho u v w p mach temperature
zone t="boundary 1 bc-1", solutiontime= 0.2000000E+02, strandid=1001, i=32, j=46, f=feblock
  0.000000000000E+00  0.000000000000E+00  0.000000000000E+00  0.000000000000E+00  0.000000000000E+00  0.000000000000E+00  0.000000000000E+00
  0.000000000000E+00  0.000000000000E+00  0.000000000000E+00  0.000000000000E+00  0.000000000000E+00  0.000000000000E+00  0.000000000000E+00
  0.000000000000E+00  0.000000000000E+00  0.000000000000E+00  0.000000000000E+00  0.000000000000E+00  0.000000000000E+00  0.000000000000E+00
  0.000000000000E+00  0.000000000000E+00  0.000000000000E+00  0.000000000000E+00  0.000000000000E+00  0.000000000000E+00  0.000000000000E+00
  0.000000000000E+00  0.000000000000E+00  0.000000000000E+00  0.000000000000E+00
  0.250000000000E+01  0.250000000000E+01  0.125000000000E+01  0.146289271009E+01  0.157686156160E+01  0.308372018325E+00  0.000000000000E+00
 -0.125000000000E+01 -0.600232012419E+00  0.250000000000E+01  0.477386199275E+00  0.742988685424E+00 -0.739814786992E+00  0.177790177481E+01
  0.155830813274E+01  0.250000000000E+01 -0.250000000000E+01 -0.154800130438E+01 -0.487811078581E+00  0.250000000000E+01  0.627766083140E+00
 -0.345533899378E+00 -0.178862290564E+01 -0.158811787973E+01  0.125000000000E+01 -0.250000000000E+01 -0.144524380962E+01  0.000000000000E+00
 -0.125000000000E+01 -0.250000000000E+01 -0.250000000000E+01 -0.250000000000E+01
  0.000000000000E+00  0.125000000000E+01  0.000000000000E+00  0.103724302461E+01  0.219251206392E+01  0.922061490191E+00  0.000000000000E+00
  0.000000000000E+00  0.715990576545E+00  0.250000000000E+01  0.202479342020E+01  0.324151231464E+01  0.175434191980E+01  0.310152362409E+01
  0.404200324774E+01  0.375000000000E+01  0.000000000000E+00  0.930412228790E+00  0.299062775774E+01  0.500000000000E+01  0.429310310915E+01
  0.409252726285E+01  0.187029682677E+01  0.284428995242E+01  0.500000000000E+01  0.125000000000E+01  0.394624082883E+01  0.500000000000E+01
  0.500000000000E+01  0.250000000000E+01  0.375000000000E+01  0.500000000000E+01
  0.134426738388E+01  0.106353723403E+01  0.142583363890E+01  0.108608893681E+01  0.103227522593E+01  0.120094116726E+01  0.164465810997E+01
  0.149408263688E+01  0.123519721324E+01  0.102388235748E+01  0.102808042557E+01  0.101300795266E+01  0.103252519509E+01  0.101471103902E+01
  0.100663022903E+01  0.100829261398E+01  0.144945849060E+01  0.116391599459E+01  0.101461495035E+01  0.100425916837E+01  0.100678946082E+01
  0.100722905545E+01  0.104666366467E+01  0.101936974693E+01  0.100424224508E+01  0.106441589149E+01  0.100787570118E+01  0.100286956323E+01
  0.100332751079E+01  0.102846329887E+01  0.100957053547E+01  0.100398660334E+01
  0.000000000000E+00  0.445502144197E+00  0.000000000000E+00  0.468722530341E+00  0.462215710184E+00  0.443631032641E+00  0.000000000000E+00
  0.000000000000E+00  0.379281391111E+00  0.471751757001E+00  0.466599083156E+00  0.479368097926E+00  0.490162132499E+00  0.484523871616E+00
  0.488507953988E+00  0.489833052550E+00  0.000000000000E+00  0.450681513534E+00  0.474830912051E+00  0.495838299208E+00  0.490907368572E+00
  0.486838000570E+00  0.448686207713E+00  0.465828889761E+00  0.496553132762E+00  0.444694298640E+00  0.487708074067E+00  0.497546476077E+00
  0.496392566623E+00  0.470013360431E+00  0.489214226021E+00  0.495539798548E+00
  0.000000000000E+00  0.000000000000E+00  0.000000000000E+00  0.186087749842E-01 -0.276742062574E-02  0.332958961485E-01  0.000000000000E+00
  0.000000000000E+00 -0.594964809499E-02  0.000000000000E+00  0.356386733214E-02 -0.567710343412E-02 -0.416508583382E-02  0.271695187969E-04
 -0.106255273521E-02  0.000000000000E+00  0.000000000000E+00 -0.764324727136E-02  0.350749023200E-03  0.000000000000E+00 -0.204372645293E-02
 -0.139251020493E-02  0.156590026084E-02 -0.159340078492E-02 -0.667834023690E-04  0.000000000000E+00 -0.286061474352E-04 -0.196207459160E-03
  0.818385929442E-03  0.000000000000E+00  0.000000000000E+00  0.000000000000E+00
  0.000000000000E+00  0.452273515716E-01  0.000000000000E+00  0.123915662934E+00  0.247678051051E-01  0.165640514663E+00  0.000000000000E+00
  0.000000000000E+00  0.155764425954E+00  0.351559954536E-02  0.259798680364E-01 -0.651569173169E-02  0.748921741369E-01  0.371198934665E-02
 -0.161297275247E-03  0.449466246456E-03  0.000000000000E+00  0.140948652612E+00 -0.808863597272E-02  0.234300317688E-02 -0.316794480236E-03
 -0.438256124832E-02  0.254933426821E-01 -0.195691349048E-02  0.306188014296E-02  0.837382158029E-01 -0.119850400634E-02  0.269102477019E-02
  0.265390196779E-02  0.278337711973E-02 -0.838482256890E-03  0.344742817165E-02
  0.960181540361E+00  0.782328444518E+00  0.101844305578E+01  0.808716101116E+00  0.746112602844E+00  0.879437157839E+00  0.117474556921E+01
  0.106719340860E+01  0.916611542068E+00  0.737382537120E+00  0.743541128490E+00  0.725748325587E+00  0.757445025409E+00  0.729178267809E+00
  0.720770366326E+00  0.722769165487E+00  0.103531985249E+01  0.858306105353E+00  0.728052467330E+00  0.718607431345E+00  0.720999724077E+00
  0.721136168685E+00  0.760004415272E+00  0.732614154833E+00  0.718521710289E+00  0.791033220233E+00  0.722091265825E+00  0.717182267738E+00
  0.717623072701E+00  0.741787294148E+00  0.724041020587E+00  0.718394369483E+00
  0.000000000000E+00  0.441259532019E+00  0.000000000000E+00  0.475199396301E+00  0.460157624599E+00  0.468842498984E+00  0.000000000000E+00
  0.000000000000E+00  0.402311934061E+00  0.469829382275E+00  0.464435803002E+00  0.478728274790E+00  0.489301852583E+00  0.483079091031E+00
  0.487916151931E+00  0.488964958170E+00  0.000000000000E+00  0.464799742428E+00  0.473813442596E+00  0.495402222461E+00  0.490276602817E+00
  0.486289966153E+00  0.445734995344E+00  0.464405111840E+00  0.496145737491E+00  0.443631395448E+00  0.486972774135E+00  0.497259943744E+00
  0.496067999224E+00  0.467744300687E+00  0.488227733016E+00  0.495116649175E+00
  0.999990160160E+00  0.102982743554E+01  0.999990629474E+00  0.104245840574E+01  0.101189839468E+01  0.102520594226E+01  0.999991297235E+00
  0.999992058781E+00  0.103890791296E+01  0.100825602124E+01  0.101252543477E+01  0.100300067058E+01  0.102701904090E+01  0.100604954088E+01
  0.100243215806E+01  0.100355473962E+01  0.999992619923E+00  0.103240143883E+01  0.100459140082E+01  0.100178363870E+01  0.100259255086E+01
  0.100234463124E+01  0.101656933100E+01  0.100617054788E+01  0.100168101803E+01  0.104042650732E+01  0.100302822161E+01  0.100118221915E+01
  0.100134033102E+01  0.100976108039E+01  0.100404815039E+01  0.100175850348E+01
        12        19        11        11
        11         5        12        12
        10        14         5         5
        19        13        11        11
        19        24        13        13
        30        23        24        24
        19        12        22        22
        28        22        21        21
        11        13         6         6
         7         6         9         9
        15        12        14        14
        18        13        23        23
        15        25        21        21
        27        19        22        22
        18         8         9         9
        27        31        24        24
         4        11         6         6
         5        14        12        12
         4         2         5         5
        21        12        15        15
        14        16        15        15
        24        19        27        27
        22        29        27        27
        23        26        18        18
        17         8        18        18
         5        11         4         4
         6         3         4         4
        26        23        30        30
         5         2        10        10
        16        14        10        10
         3         6         7         7
        21        25        28        28
        29        22        28        28
         6        13         9         9
         2         4         1         1
        31        27        32        32
        25        15        20        20
        24        23        13        13
         8         7         9         9
        13        18         9         9
        31        30        24        24
        12        21        22        22
        29        32        27        27
         3         1         4         4
        26        17        18        18
        16        20        15        15
zone t="boundary 2 bc-2", solutiontime= 0.2000000E+02, strandid=1002, i=33, j=48, f=feblock
  0.500000000000E+01  0.375000000000E+01  0.250000000000E+01  0.288078410721E+01  0.125000000000E+01  0.190974100652E+01  0.326683758169E+01
  0.201431602454E+01  0.000000000000E+00  0.963108083381E+00  0.500000000000E+01  0.403552511878E+01  0.423153924130E+01  0.500000000000E+01
  0.385533350601E+01  0.500000000000E+01  0.398173246726E+01  0.315249557942E+01  0.267000324704E+01  0.154774304040E+01  0.218329375016E+01
  0.893127759452E+00  0.000000000000E+00  0.698517061619E+00  0.964171764089E+00  0.310324758057E+01  0.000000000000E+00  0.000000000000E+00
  0.125000000000E+01  0.500000000000E+01  0.375000000000E+01  0.250000000000E+01  0.000000000000E+00
 -0.250000000000E+01 -0.250000000000E+01 -0.250000000000E+01 -0.250000000000E+01 -0.250000000000E+01 -0.250000000000E+01 -0.250000000000E+01
 -0.250000000000E+01 -0.250000000000E+01 -0.250000000000E+01 -0.250000000000E+01 -0.250000000000E+01 -0.250000000000E+01 -0.250000000000E+01
 -0.250000000000E+01 -0.250000000000E+01 -0.250000000000E+01 -0.250000000000E+01 -0.250000000000E+01 -0.250000000000E+01 -0.250000000000E+01
 -0.250000000000E+01 -0.250000000000E+01 -0.250000000000E+01 -0.250000000000E+01 -0.250000000000E+01 -0.250000000000E+01 -0.250000000000E+01
 -0.250000000000E+01 -0.250000000000E+01 -0.250000000000E+01 -0.250000000000E+01 -0.250000000000E+01
  0.000000000000E+00  0.000000000000E+00  0.000000000000E+00  0.904659890645E+00  0.000000000000E+00  0.717002441913E+00  0.188609243358E+01
  0.176246431481E+01  0.000000000000E+00  0.961328577125E+00  0.125000000000E+01  0.101201586758E+01  0.191586535653E+01  0.250000000000E+01
  0.293121848150E+01  0.375000000000E+01  0.406975391361E+01  0.363585050272E+01  0.285047954584E+01  0.292817774674E+01  0.395907379566E+01
  0.205246550326E+01  0.125000000000E+01  0.306828197606E+01  0.397245519226E+01  0.433168271247E+01  0.250000000000E+01  0.375000000000E+01
  0.500000000000E+01  0.500000000000E+01  0.500000000000E+01  0.500000000000E+01  0.500000000000E+01
  0.830779730071E+00  0.935292214953E+00  0.934197644353E+00  0.968077651618E+00  0.961706427742E+00  0.964847103288E+00  0.984107319581E+00
  0.991409199830E+00  0.144945849060E+01  0.102920882220E+01  0.955851886048E+00  0.960703259638E+00  0.981461654006E+00  0.100642095598E+01
  0.997904287475E+00  0.100979441402E+01  0.100198703463E+01  0.998056249691E+00  0.991073062363E+00  0.100131015554E+01  0.100093453034E+01
  0.101223642905E+01  0.106441589149E+01  0.101080726739E+01  0.100683967508E+01  0.100116891639E+01  0.102846329887E+01  0.100957053547E+01
  0.100508728899E+01  0.100172922008E+01  0.100263227834E+01  0.100320018086E+01  0.100398660334E+01
  0.000000000000E+00  0.000000000000E+00  0.000000000000E+00  0.378965714084E+00  0.000000000000E+00  0.340647549608E+00  0.582144077823E+00
  0.575193949684E+00  0.000000000000E+00  0.489464460599E+00  0.494721010884E+00  0.431486996328E+00  0.568933002531E+00  0.536179563941E+00
  0.568935621375E+00  0.516295011831E+00  0.508655075244E+00  0.527482779806E+00  0.566664322026E+00  0.531844452859E+00  0.506166725944E+00
  0.520712582011E+00  0.444694298640E+00  0.491349466054E+00  0.492749020108E+00  0.501553619834E+00  0.470013360431E+00  0.489214226021E+00
  0.490452771179E+00  0.491388558977E+00  0.486045570687E+00  0.490248861273E+00  0.495539798548E+00
  0.000000000000E+00  0.000000000000E+00  0.000000000000E+00  0.000000000000E+00  0.000000000000E+00  0.000000000000E+00  0.000000000000E+00
  0.000000000000E+00  0.000000000000E+00  0.000000000000E+00  0.000000000000E+00  0.000000000000E+00  0.000000000000E+00  0.000000000000E+00
  0.000000000000E+00  0.000000000000E+00  0.000000000000E+00  0.000000000000E+00  0.000000000000E+00  0.000000000000E+00  0.000000000000E+00
  0.000000000000E+00  0.000000000000E+00  0.000000000000E+00  0.000000000000E+00  0.000000000000E+00  0.000000000000E+00  0.000000000000E+00
  0.000000000000E+00  0.000000000000E+00  0.000000000000E+00  0.000000000000E+00  0.000000000000E+00
  0.000000000000E+00  0.000000000000E+00  0.000000000000E+00 -0.228647222867E-02  0.000000000000E+00  0.183642531832E-01  0.121355172987E-01
  0.455238706323E-01  0.000000000000E+00  0.870800823526E-01 -0.995468302378E-01 -0.212082398588E-01 -0.306597766186E-01 -0.414702789077E-01
 -0.139024975573E-02  0.261898889953E-02  0.595565859613E-03  0.496367511881E-03  0.151295779295E-01  0.284403378094E-01  0.564509144747E-02
  0.553425078227E-01  0.837382158029E-01  0.110562505912E-01  0.680842518532E-02 -0.786339446941E-03  0.278337711973E-02 -0.838482256890E-03
  0.400063954621E-02  0.607040901319E-02 -0.141925396033E-03  0.120294585806E-02  0.344742817165E-02
  0.593410172862E+00  0.668061592200E+00  0.667279662050E+00  0.684247930075E+00  0.686928382171E+00  0.679190324951E+00  0.695799612742E+00
  0.702332092583E+00  0.103531985249E+01  0.723688249232E+00  0.672573143968E+00  0.675691582265E+00  0.694082170295E+00  0.720956484300E+00
  0.712682235853E+00  0.724783539961E+00  0.716575111231E+00  0.713285584111E+00  0.706419887294E+00  0.717724677908E+00  0.715362354959E+00
  0.730926612886E+00  0.791033220233E+00  0.724358570174E+00  0.720997112420E+00  0.715435201140E+00  0.741787294148E+00  0.724041020587E+00
  0.719303230673E+00  0.715838486318E+00  0.716585917986E+00  0.717364976754E+00  0.718394369483E+00
  0.000000000000E+00  0.000000000000E+00  0.000000000000E+00  0.380971210547E+00  0.000000000000E+00  0.343640963465E+00  0.585248015615E+00
  0.579377290499E+00  0.000000000000E+00  0.501071450226E+00  0.508441004038E+00  0.435359513525E+00  0.572608832158E+00  0.537002953832E+00
  0.568979844426E+00  0.515052879943E+00  0.508346517947E+00  0.527339431334E+00  0.567463547796E+00  0.531674765119E+00  0.506053434546E+00
  0.520807554317E+00  0.443631395448E+00  0.490674815309E+00  0.492171659232E+00  0.501443968043E+00  0.467744300687E+00  0.488227733016E+00
  0.489997097703E+00  0.491317019156E+00  0.485903130161E+00  0.489979149135E+00  0.495116649175E+00
  0.999993394080E+00  0.999993599998E+00  0.999993451618E+00  0.989535395745E+00  0.999993040805E+00  0.985509985666E+00  0.989850840916E+00
  0.991785157717E+00  0.999992619923E+00  0.984410089640E+00  0.985092371840E+00  0.984662231215E+00  0.990069285383E+00  0.100289950445E+01
  0.999850529471E+00  0.100485499014E+01  0.100121570545E+01  0.100054462668E+01  0.997895997551E+00  0.100349980824E+01  0.100057223183E+01
  0.101092712006E+01  0.104042650732E+01  0.100325950452E+01  0.100253891694E+01  0.100043985105E+01  0.100976108039E+01  0.100404815039E+01
  0.100192742857E+01  0.100044389318E+01  0.100058646311E+01  0.100110724322E+01  0.100175850348E+01
        15         7        19        19
         8        20        19        19
        18        19        21        21
         7         4         8         8
         3         6         4         4
        19         7         8         8
        19        18        15        15
        14        13        15        15
         8        22        20        20
        27        24        22        22
        19        20        21        21
        32        26        21        21
        17        18        26        26
        17        16        15        15
        25        29        21        21
        12         7        13        13
        10         8         6         6
        25        20        24        24
         4         6         8         8
        12         2         4         4
        10        23        22        22
        26        31        17        17
        30        16        17        17
         4         7        12        12
        13        11        12        12
        21        20        25        25
        24        28        25        25
        22         8        10        10
         6         5        10        10
        31        26        32        32
         4         2         3         3
         5         6         3         3
        11        13        14        14
        22        23        27        27
        28        24        27        27
        15        13         7         7
         2        12         1         1
        29        25        33        33
        23        10         9         9
        21        26        18        18
        16        14        15        15
        18        17        15        15
        29        32        21        21
        22        24        20        20
        28        33        25        25
        11         1        12        12
        31        30        17        17
         5         9        10        10
zone t="boundary 3 bc-3", solutiontime= 0.2000000E+02, strandid=1003, i=33, j=48, f=feblock
  0.375000000000E+01  0.250000000000E+01  0.500000000000E+01  0.403552511878E+01  0.288078410721E+01  0.125000000000E+01  0.190974100652E+01
  0.500000000000E+01  0.326683758169E+01  0.423153924130E+01  0.201431602454E+01  0.000000000000E+00  0.963108083381E+00  0.500000000000E+01
  0.267000324704E+01  0.385533350601E+01  0.893127759452E+00  0.154774304040E+01  0.000000000000E+00  0.500000000000E+01  0.315249557942E+01
  0.218329375016E+01  0.398173246726E+01  0.000000000000E+00  0.698517061619E+00  0.964171764089E+00  0.125000000000E+01  0.000000000000E+00
  0.500000000000E+01  0.310324758057E+01  0.250000000000E+01  0.375000000000E+01  0.000000000000E+00
  0.250000000000E+01  0.250000000000E+01  0.250000000000E+01  0.250000000000E+01  0.250000000000E+01  0.250000000000E+01  0.250000000000E+01
  0.250000000000E+01  0.250000000000E+01  0.250000000000E+01  0.250000000000E+01  0.250000000000E+01  0.250000000000E+01  0.250000000000E+01
  0.250000000000E+01  0.250000000000E+01  0.250000000000E+01  0.250000000000E+01  0.250000000000E+01  0.250000000000E+01  0.250000000000E+01
  0.250000000000E+01  0.250000000000E+01  0.250000000000E+01  0.250000000000E+01  0.250000000000E+01  0.250000000000E+01  0.250000000000E+01
  0.250000000000E+01  0.250000000000E+01  0.250000000000E+01  0.250000000000E+01  0.250000000000E+01
  0.000000000000E+00  0.000000000000E+00  0.000000000000E+00  0.101201586758E+01  0.904659890645E+00  0.000000000000E+00  0.717002441913E+00
  0.125000000000E+01  0.188609243358E+01  0.191586535653E+01  0.176246431481E+01  0.000000000000E+00  0.961328577125E+00  0.250000000000E+01
  0.285047954584E+01  0.293121848150E+01  0.205246550326E+01  0.292817774674E+01  0.125000000000E+01  0.375000000000E+01  0.363585050272E+01
  0.395907379566E+01  0.406975391361E+01  0.250000000000E+01  0.306828197606E+01  0.397245519226E+01  0.500000000000E+01  0.375000000000E+01
  0.500000000000E+01  0.433168271247E+01  0.500000000000E+01  0.500000000000E+01  0.500000000000E+01
  0.941868544371E+00  0.946282782844E+00  0.843729061123E+00  0.964401058820E+00  0.978854205464E+00  0.956962117363E+00  0.983321883250E+00
  0.963537859422E+00  0.982672025459E+00  0.984234076059E+00  0.990249450026E+00  0.134426738388E+01  0.101917348756E+01  0.100830884565E+01
  0.993441976796E+00  0.998000144626E+00  0.100806074023E+01  0.100070005101E+01  0.106353723403E+01  0.100676919594E+01  0.100058008964E+01
  0.100233611866E+01  0.100177150474E+01  0.102388235748E+01  0.100872420281E+01  0.100526517167E+01  0.100522296102E+01  0.100829261398E+01
  0.100185739997E+01  0.100160316346E+01  0.100409375442E+01  0.100312438175E+01  0.100425916837E+01
  0.000000000000E+00  0.000000000000E+00  0.000000000000E+00  0.439021994659E+00  0.399808591076E+00  0.000000000000E+00  0.373781867028E+00
  0.494927877943E+00  0.573032156201E+00  0.569564506613E+00  0.559935385631E+00  0.000000000000E+00  0.483396824701E+00  0.533811249574E+00
  0.556500238572E+00  0.564763880916E+00  0.522634618335E+00  0.522556651921E+00  0.445502144197E+00  0.518380730996E+00  0.524843841180E+00
  0.503953587824E+00  0.509945530298E+00  0.471751757001E+00  0.496257387330E+00  0.494963544279E+00  0.489129759475E+00  0.489833052550E+00
  0.493003497285E+00  0.499229194469E+00  0.486735895285E+00  0.484535935909E+00  0.495838299208E+00
  0.000000000000E+00  0.000000000000E+00  0.000000000000E+00  0.000000000000E+00  0.000000000000E+00  0.000000000000E+00  0.000000000000E+00
  0.000000000000E+00  0.000000000000E+00  0.000000000000E+00  0.000000000000E+00  0.000000000000E+00  0.000000000000E+00  0.000000000000E+00
  0.000000000000E+00  0.000000000000E+00  0.000000000000E+00  0.000000000000E+00  0.000000000000E+00  0.000000000000E+00  0.000000000000E+00
  0.000000000000E+00  0.000000000000E+00  0.000000000000E+00  0.000000000000E+00  0.000000000000E+00  0.000000000000E+00  0.000000000000E+00
  0.000000000000E+00  0.000000000000E+00  0.000000000000E+00  0.000000000000E+00  0.000000000000E+00
  0.000000000000E+00  0.000000000000E+00  0.000000000000E+00 -0.226393227274E-01  0.112003173777E-01  0.000000000000E+00  0.179825775650E-01
 -0.100768164306E+00  0.390762522087E-02 -0.389580601883E-01  0.340488127052E-01  0.000000000000E+00  0.652254962112E-01 -0.425015760215E-01
  0.845628984372E-02 -0.650702085409E-02  0.490101589555E-01  0.136107769292E-01  0.452273515716E-01  0.800470310329E-03 -0.696502526943E-03
  0.244021813850E-02  0.926181089590E-03  0.351559954536E-02  0.103959395423E-01  0.431216712403E-02  0.333953316608E-02  0.449466246456E-03
  0.583869527765E-02  0.340013270816E-03  0.163641109917E-02  0.684504334879E-03  0.234300317688E-02
  0.672755973573E+00  0.675909014925E+00  0.602657275667E+00  0.676087308960E+00  0.691292293934E+00  0.683537319283E+00  0.690058675269E+00
  0.677283342331E+00  0.695189968343E+00  0.696240559474E+00  0.703330029221E+00  0.960181540361E+00  0.719710314556E+00  0.722872266695E+00
  0.709435430110E+00  0.713693413982E+00  0.726050855881E+00  0.716587390805E+00  0.782328444518E+00  0.722305401599E+00  0.716113205565E+00
  0.716528061627E+00  0.716535024137E+00  0.737382537120E+00  0.722665392301E+00  0.719417921376E+00  0.719559233041E+00  0.722769165487E+00
  0.715957611310E+00  0.715824019153E+00  0.718133005495E+00  0.717024267645E+00  0.718607431345E+00
  0.000000000000E+00  0.000000000000E+00  0.000000000000E+00  0.443737757303E+00  0.402241245845E+00  0.000000000000E+00  0.377538348401E+00
  0.509151548354E+00  0.575807902865E+00  0.573669813535E+00  0.562559002319E+00  0.000000000000E+00  0.490572173124E+00  0.534517473125E+00
  0.556629587604E+00  0.564470406099E+00  0.522751375427E+00  0.522076337603E+00  0.441259532019E+00  0.517237349883E+00  0.524326197019E+00
  0.503757706714E+00  0.509596120697E+00  0.469829382275E+00  0.495627998909E+00  0.494510329805E+00  0.488616485880E+00  0.488964958170E+00
  0.492919202329E+00  0.499092182984E+00  0.486425687123E+00  0.484365133908E+00  0.495402222461E+00
  0.999989190244E+00  0.999989261192E+00  0.999989480996E+00  0.981461212519E+00  0.988716405473E+00  0.999989685728E+00  0.982467859033E+00
  0.984078279843E+00  0.990428068027E+00  0.990350575106E+00  0.994357574128E+00  0.999990160160E+00  0.988638786893E+00  0.100368173674E+01
  0.999766091379E+00  0.100117298074E+01  0.100834320559E+01  0.100252053162E+01  0.102982743554E+01  0.100442838966E+01  0.100197725117E+01
  0.100080129569E+01  0.100137509307E+01  0.100825602124E+01  0.100298133663E+01  0.100190986250E+01  0.100214874243E+01  0.100355473962E+01
  0.100048235993E+01  0.100054958229E+01  0.100128718386E+01  0.100070738282E+01  0.100178363870E+01
        15         9        16        16
        15        18        11        11
        22        15        21        21
        11         5         9         9
         5         7         2         2
        11         9        15        15
        16        21        15        15
        16        10        14        14
        18        17        11        11
        17        25        24        24
        22        18        15        15
        22        30        31        31
        30        21        23        23
        16        20        23        23
        22        27        26        26
        10         9         4         4
         7        11        13        13
        25        18        26        26
        11         7         5         5
         5         1         4         4
        17        19        13        13
        23        32        30        30
        23        20        29        29
         4         9         5         5
         4         8        10        10
        26        18        22        22
        26        28        25        25
        13        11        17        17
        13         6         7         7
        31        30        32        32
         2         1         5         5
         2         7         6         6
        14        10         8         8
        24        19        17        17
        24        25        28        28
         9        10        16        16
         3         4         1         1
        33        26        27        27
        12        13        19        19
        21        30        22        22
        16        14        20        20
        16        23        21        21
        22        31        27        27
        18        25        17        17
        26        33        28        28
         4         3         8         8
        23        29        32        32
        13        12         6         6
zone t="boundary 4 bc-4", solutiontime= 0.2000000E+02, strandid=1004, i=32, j=46, f=feblock
  0.125000000000E+01  0.219251206392E+01  0.103724302461E+01  0.500000000000E+01  0.250000000000E+01  0.375000000000E+01  0.404200324774E+01
  0.500000000000E+01  0.000000000000E+00  0.310152362409E+01  0.202479342020E+01  0.324151231464E+01  0.922061490191E+00  0.000000000000E+00
  0.299062775774E+01  0.394624082883E+01  0.500000000000E+01  0.409252726285E+01  0.500000000000E+01  0.429310310915E+01  0.175434191980E+01
  0.284428995242E+01  0.000000000000E+00  0.000000000000E+00  0.715990576545E+00  0.930412228790E+00  0.125000000000E+01  0.187029682677E+01
  0.500000000000E+01  0.375000000000E+01  0.250000000000E+01  0.000000000000E+00
  0.250000000000E+01  0.157686156160E+01  0.146289271009E+01  0.250000000000E+01  0.250000000000E+01  0.250000000000E+01  0.155830813274E+01
  0.125000000000E+01  0.250000000000E+01  0.177790177481E+01  0.477386199275E+00  0.742988685424E+00  0.308372018325E+00  0.125000000000E+01
 -0.487811078581E+00 -0.144524380962E+01 -0.125000000000E+01 -0.345533899378E+00  0.000000000000E+00  0.627766083140E+00 -0.739814786992E+00
 -0.158811787973E+01  0.000000000000E+00 -0.125000000000E+01 -0.600232012419E+00 -0.154800130438E+01 -0.250000000000E+01 -0.178862290564E+01
 -0.250000000000E+01 -0.250000000000E+01 -0.250000000000E+01 -0.250000000000E+01
  0.500000000000E+01  0.500000000000E+01  0.500000000000E+01  0.500000000000E+01  0.500000000000E+01  0.500000000000E+01  0.500000000000E+01
  0.500000000000E+01  0.500000000000E+01  0.500000000000E+01  0.500000000000E+01  0.500000000000E+01  0.500000000000E+01  0.500000000000E+01
  0.500000000000E+01  0.500000000000E+01  0.500000000000E+01  0.500000000000E+01  0.500000000000E+01  0.500000000000E+01  0.500000000000E+01
  0.500000000000E+01  0.500000000000E+01  0.500000000000E+01  0.500000000000E+01  0.500000000000E+01  0.500000000000E+01  0.500000000000E+01
  0.500000000000E+01  0.500000000000E+01  0.500000000000E+01  0.500000000000E+01
  0.100522296102E+01  0.100430406915E+01  0.100429815007E+01  0.100185739997E+01  0.100409375442E+01  0.100312438175E+01  0.100249901244E+01
  0.100192633558E+01  0.100425916837E+01  0.100366022915E+01  0.100444676531E+01  0.100343723558E+01  0.100364959064E+01  0.100424224508E+01
  0.100359215397E+01  0.100160852316E+01  0.100223011543E+01  0.100221142625E+01  0.100205879290E+01  0.100246488260E+01  0.100441734265E+01
  0.100336322923E+01  0.100286956323E+01  0.100332751079E+01  0.100322043374E+01  0.100404929663E+01  0.100508728899E+01  0.100430730678E+01
  0.100172922008E+01  0.100263227834E+01  0.100320018086E+01  0.100398660334E+01
  0.489129759475E+00  0.489234019947E+00  0.491008198162E+00  0.493003497285E+00  0.486735895285E+00  0.484535935909E+00  0.485191056428E+00
  0.494181402505E+00  0.495838299208E+00  0.486687396810E+00  0.488138820463E+00  0.487155388418E+00  0.494443726735E+00  0.496553132762E+00
  0.487763153614E+00  0.483082122456E+00  0.492508788588E+00  0.487116963466E+00  0.494805205960E+00  0.487847719922E+00  0.490094483635E+00
  0.488157972668E+00  0.497546476077E+00  0.496392566623E+00  0.495268341276E+00  0.493225268590E+00  0.490452771179E+00  0.490379710797E+00
  0.491388558977E+00  0.486045570687E+00  0.490248861273E+00  0.495539798548E+00
  0.000000000000E+00 -0.103176426140E-03 -0.131129465574E-02  0.000000000000E+00  0.000000000000E+00  0.000000000000E+00  0.467107089036E-03
  0.848265946350E-03  0.000000000000E+00  0.267553749372E-03 -0.947953982620E-03 -0.833869860710E-03 -0.174495806009E-02 -0.667834023690E-04
 -0.110427847481E-02 -0.103580385304E-02 -0.134059183652E-02 -0.215506864474E-02 -0.130481656185E-02 -0.105193184261E-02 -0.594077104838E-03
 -0.749383275717E-03 -0.196207459160E-03  0.818385929442E-03  0.658783702480E-04  0.163944487538E-02  0.000000000000E+00  0.805151524676E-03
  0.000000000000E+00  0.000000000000E+00  0.000000000000E+00  0.000000000000E+00