title="tecplot geometry and solution file"
variables = x y z rho u v w p mach temperature
zone t="boundary 1 bc-1", solutiontime= 0.4000000E+02, strandid=1001, i=32, j=46, f=feblock
  0.000000000000E+00  0.000000000000E+00  0.000000000000E+00  0.000000000000E+00  0.000000000000E+00  0.000000000000E+00  0.000000000000E+00
  0.000000000000E+00  0.000000000000E+00  0.000000000000E+00  0.000000000000E+00  0.000000000000E+00  0.000000000000E+00  0.000000000000E+00
  0.000000000000E+00  0.000000000000E+00  0.000000000000E+00  0.000000000000E+00  0.000000000000E+00  0.000000000000E+00  0.000000000000E+00
  0.000000000000E+00  0.000000000000E+00  0.000000000000E+00  0.000000000000E+00  0.000000000000E+00  0.000000000000E+00  0.000000000000E+00
  0.000000000000E+00  0.000000000000E+00  0.000000000000E+00  0.000000000000E+00
  0.250000000000E+01  0.250000000000E+01  0.125000000000E+01  0.146289271009E+01  0.157686156160E+01  0.308372018325E+00  0.000000000000E+00
 -0.125000000000E+01 -0.600232012419E+00  0.250000000000E+01  0.477386199275E+00  0.742988685424E+00 -0.739814786992E+00  0.177790177481E+01
  0.155830813274E+01  0.250000000000E+01 -0.250000000000E+01 -0.154800130438E+01 -0.487811078581E+00  0.250000000000E+01  0.627766083140E+00
 -0.345533899378E+00 -0.178862290564E+01 -0.158811787973E+01  0.125000000000E+01 -0.250000000000E+01 -0.144524380962E+01  0.000000000000E+00
 -0.125000000000E+01 -0.250000000000E+01 -0.250000000000E+01 -0.250000000000E+01
  0.000000000000E+00  0.125000000000E+01  0.000000000000E+00  0.103724302461E+01  0.219251206392E+01  0.922061490191E+00  0.000000000000E+00
  0.000000000000E+00  0.715990576545E+00  0.250000000000E+01  0.202479342020E+01  0.324151231464E+01  0.175434191980E+01  0.310152362409E+01
  0.404200324774E+01  0.375000000000E+01  0.000000000000E+00  0.930412228790E+00  0.299062775774E+01  0.500000000000E+01  0.429310310915E+01
  0.409252726285E+01  0.187029682677E+01  0.284428995242E+01  0.500000000000E+01  0.125000000000E+01  0.394624082883E+01  0.500000000000E+01
  0.500000000000E+01  0.250000000000E+01  0.375000000000E+01  0.500000000000E+01
  0.134427145192E+01  0.106355395285E+01  0.142583204805E+01  0.108608796612E+01  0.103229115021E+01  0.120095364443E+01  0.164466727304E+01
  0.149409063995E+01  0.123520366902E+01  0.102389313731E+01  0.102809523352E+01  0.101301828579E+01  0.103252946722E+01  0.101471891390E+01
  0.100663883724E+01  0.100830818671E+01  0.144945745312E+01  0.116393551714E+01  0.101462863647E+01  0.100426040742E+01  0.100679807573E+01
  0.100724553372E+01  0.104668118745E+01  0.101938460434E+01  0.100424800541E+01  0.106442281117E+01  0.100789341665E+01  0.100288844253E+01
  0.100334542198E+01  0.102847361796E+01  0.100958665605E+01  0.100399273866E+01
  0.000000000000E+00  0.445481419831E+00  0.000000000000E+00  0.468737854474E+00  0.462182267174E+00  0.443613740016E+00  0.000000000000E+00
  0.000000000000E+00  0.379272524254E+00  0.471738848810E+00  0.466574961183E+00  0.479355161094E+00  0.490159648325E+00  0.484514726157E+00
  0.488524773344E+00  0.489830199953E+00  0.000000000000E+00  0.450653322008E+00  0.474814037066E+00  0.495784875498E+00  0.490899460036E+00
  0.486835364436E+00  0.448668672989E+00  0.465807186615E+00  0.496536483061E+00  0.444686633559E+00  0.487701036998E+00  0.497534086300E+00
  0.496384260158E+00  0.470002882822E+00  0.489199908094E+00  0.495522029452E+00
  0.000000000000E+00  0.000000000000E+00  0.000000000000E+00  0.186085527827E-01 -0.276688296326E-02  0.332952467842E-01  0.000000000000E+00
  0.000000000000E+00 -0.594701790420E-02  0.000000000000E+00  0.356648593051E-02 -0.566637987819E-02 -0.416060356199E-02  0.305535097953E-04
 -0.106176529077E-02  0.000000000000E+00  0.000000000000E+00 -0.764112755921E-02  0.359619733660E-03  0.000000000000E+00 -0.203512853185E-02
 -0.138313241839E-02  0.156561562014E-02 -0.158521315641E-02 -0.638396196506E-04  0.000000000000E+00 -0.283450634518E-04 -0.196341544295E-03
  0.807127118962E-03  0.000000000000E+00  0.000000000000E+00  0.000000000000E+00
  0.000000000000E+00  0.452181797504E-01  0.000000000000E+00  0.123933293878E+00  0.247647188959E-01  0.165644511792E+00  0.000000000000E+00
  0.000000000000E+00  0.155763096778E+00  0.351822659747E-02  0.259783162523E-01 -0.651224843445E-02  0.748997895347E-01  0.371839404617E-02
 -0.149291959391E-03  0.459058874663E-03  0.000000000000E+00  0.140954083621E+00 -0.808565728254E-02  0.237176886593E-02 -0.304298592818E-03
 -0.438193680359E-02  0.255017506031E-01 -0.194957193885E-02  0.308362284591E-02  0.837461352474E-01 -0.121909279957E-02  0.268513940549E-02
  0.264043147487E-02  0.279386964622E-02 -0.834665145715E-03  0.345018566153E-02
  0.960184576184E+00  0.782340561718E+00  0.101844205088E+01  0.808726655976E+00  0.746125889920E+00  0.879446498932E+00  0.117475225521E+01
  0.106719924224E+01  0.916620146222E+00  0.737395237772E+00  0.743553970354E+00  0.725759209651E+00  0.757455248894E+00  0.729188341550E+00
  0.720785046127E+00  0.722781669428E+00  0.103531921739E+01  0.858317140065E+00  0.728065070147E+00  0.718615291949E+00  0.721013448246E+00
  0.721151586969E+00  0.760018783685E+00  0.732628400375E+00  0.718531161385E+00  0.791043236314E+00  0.722107947385E+00  0.717199386735E+00
  0.717636872778E+00  0.741799733986E+00  0.724056578549E+00  0.718400640174E+00
  0.000000000000E+00  0.441238352667E+00  0.000000000000E+00  0.475214984600E+00  0.460123711654E+00  0.468827816693E+00  0.000000000000E+00
  0.000000000000E+00  0.402302518213E+00  0.469814974079E+00  0.464411136693E+00  0.478714037957E+00  0.489298237537E+00  0.483068560188E+00
  0.487930062820E+00  0.488961665909E+00  0.000000000000E+00  0.464775736991E+00  0.473795659422E+00  0.495346579954E+00  0.490266092513E+00
  0.486286080219E+00  0.445717622086E+00  0.464382286436E+00  0.496127396126E+00  0.443624080803E+00  0.486964453517E+00  0.497246275582E+00
  0.496059266345E+00  0.467732360539E+00  0.488212090067E+00  0.495098267256E+00
  0.999990295661E+00  0.102982719727E+01  0.999990758505E+00  0.104247294297E+01  0.101190080500E+01  0.102520618029E+01  0.999991417259E+00
  0.999992168606E+00  0.103891223520E+01  0.100826277203E+01  0.101252833838E+01  0.100300548150E+01  0.102702865353E+01  0.100605563195E+01
  0.100244400201E+01  0.100355660158E+01  0.999992722266E+00  0.103239739522E+01  0.100459523964E+01  0.100179336086E+01  0.100260305604E+01
  0.100234966347E+01  0.101657153097E+01  0.100617544758E+01  0.100168844799E+01  0.104043291747E+01  0.100303376294E+01  0.100118726954E+01
  0.100134171132E+01  0.100976788266E+01  0.100405369256E+01  0.100176112587E+01
        12        19        11        11
        11         5        12        12
        10        14         5         5
        19        13        11        11
        19        24        13        13
        30        23        24        24
        19        12        22        22
        28        22        21        21
        11        13         6         6
         7         6         9         9
        15        12        14        14
        18        13        23        23
        15        25        21        21
        27        19        22        22
        18         8         9         9
        27        31        24        24
         4        11         6         6
         5        14        12        12
         4         2         5         5
        21        12        15        15
        14        16        15        15
        24        19        27        27
        22        29        27        27
        23        26        18        18
        17         8        18        18
         5        11         4         4
         6         3         4         4
        26        23        30        30
         5         2        10        10
        16        14        10        10
         3         6         7         7
        21        25        28        28
        29        22        28        28
         6        13         9         9
         2         4         1         1
        31        27        32        32
        25        15        20        20
        24        23        13        13
         8         7         9         9
        13        18         9         9
        31        30        24        24
        12        21        22        22
        29        32        27        27
         3         1         4         4
        26        17        18        18
        16        20        15        15
zone t="boundary 2 bc-2", solutiontime= 0.4000000E+02, strandid=1002, i=33, j=48, f=feblock
  0.500000000000E+01  0.375000000000E+01  0.250000000000E+01  0.288078410721E+01  0.125000000000E+01  0.190974100652E+01  0.326683758169E+01
  0.201431602454E+01  0.000000000000E+00  0.963108083381E+00  0.500000000000E+01  0.403552511878E+01  0.423153924130E+01  0.500000000000E+01
  0.385533350601E+01  0.500000000000E+01  0.398173246726E+01  0.315249557942E+01  0.267000324704E+01  0.154774304040E+01  0.218329375016E+01
  0.893127759452E+00  0.000000000000E+00  0.698517061619E+00  0.964171764089E+00  0.310324758057E+01  0.000000000000E+00  0.000000000000E+00
  0.125000000000E+01  0.500000000000E+01  0.375000000000E+01  0.250000000000E+01  0.000000000000E+00
 -0.250000000000E+01 -0.250000000000E+01 -0.250000000000E+01 -0.250000000000E+01 -0.250000000000E+01 -0.250000000000E+01 -0.250000000000E+01
 -0.250000000000E+01 -0.250000000000E+01 -0.250000000000E+01 -0.250000000000E+01 -0.250000000000E+01 -0.250000000000E+01 -0.250000000000E+01
 -0.250000000000E+01 -0.250000000000E+01 -0.250000000000E+01 -0.250000000000E+01 -0.250000000000E+01 -0.250000000000E+01 -0.250000000000E+01
 -0.250000000000E+01 -0.250000000000E+01 -0.250000000000E+01 -0.250000000000E+01 -0.250000000000E+01 -0.250000000000E+01 -0.250000000000E+01
 -0.250000000000E+01 -0.250000000000E+01 -0.250000000000E+01 -0.250000000000E+01 -0.250000000000E+01
  0.000000000000E+00  0.000000000000E+00  0.000000000000E+00  0.904659890645E+00  0.000000000000E+00  0.717002441913E+00  0.188609243358E+01
  0.176246431481E+01  0.000000000000E+00  0.961328577125E+00  0.125000000000E+01  0.101201586758E+01  0.191586535653E+01  0.250000000000E+01
  0.293121848150E+01  0.375000000000E+01  0.406975391361E+01  0.363585050272E+01  0.285047954584E+01  0.292817774674E+01  0.395907379566E+01
  0.205246550326E+01  0.125000000000E+01  0.306828197606E+01  0.397245519226E+01  0.433168271247E+01  0.250000000000E+01  0.375000000000E+01
  0.500000000000E+01  0.500000000000E+01  0.500000000000E+01  0.500000000000E+01  0.500000000000E+01
  0.830787409071E+00  0.935297260944E+00  0.934221979527E+00  0.968087714956E+00  0.961719526369E+00  0.964848339462E+00  0.984136205672E+00
  0.991412447372E+00  0.144945745312E+01  0.102921689089E+01  0.955878716205E+00  0.960692948573E+00  0.981487966238E+00  0.100642908926E+01
  0.997912114846E+00  0.100977868855E+01  0.100199484841E+01  0.998063219062E+00  0.991085841103E+00  0.100132719304E+01  0.100094599994E+01
  0.101224609749E+01  0.106442281117E+01  0.101082189990E+01  0.100685257812E+01  0.100118412845E+01  0.102847361796E+01  0.100958665605E+01
  0.100510171191E+01  0.100179475098E+01  0.100266311906E+01  0.100321164497E+01  0.100399273866E+01
  0.000000000000E+00  0.000000000000E+00  0.000000000000E+00  0.378986938610E+00  0.000000000000E+00  0.340639446331E+00  0.582179007991E+00
  0.575195822380E+00  0.000000000000E+00  0.489449422003E+00  0.494741308108E+00  0.431507394395E+00  0.568961809520E+00  0.536179840873E+00
  0.568879734087E+00  0.516235691314E+00  0.508555819475E+00  0.527399314236E+00  0.566648556566E+00  0.531828934934E+00  0.506096475603E+00
  0.520701996848E+00  0.444686633559E+00  0.491339928709E+00  0.492734939928E+00  0.501504526549E+00  0.470002882822E+00  0.489199908094E+00
  0.490458154664E+00  0.491426966141E+00  0.486218275190E+00  0.490304430284E+00  0.495522029452E+00
  0.000000000000E+00  0.000000000000E+00  0.000000000000E+00  0.000000000000E+00  0.000000000000E+00  0.000000000000E+00  0.000000000000E+00
  0.000000000000E+00  0.000000000000E+00  0.000000000000E+00  0.000000000000E+00  0.000000000000E+00  0.000000000000E+00  0.000000000000E+00
  0.000000000000E+00  0.000000000000E+00  0.000000000000E+00  0.000000000000E+00  0.000000000000E+00  0.000000000000E+00  0.000000000000E+00
  0.000000000000E+00  0.000000000000E+00  0.000000000000E+00  0.000000000000E+00  0.000000000000E+00  0.000000000000E+00  0.000000000000E+00
  0.000000000000E+00  0.000000000000E+00  0.000000000000E+00  0.000000000000E+00  0.000000000000E+00
  0.000000000000E+00  0.000000000000E+00  0.000000000000E+00 -0.229668913979E-02  0.000000000000E+00  0.183565264510E-01  0.121122201184E-01
  0.454986556580E-01  0.000000000000E+00  0.870789630667E-01 -0.995426035526E-01 -0.211865033690E-01 -0.306441330765E-01 -0.414442969525E-01
 -0.137879730707E-02  0.259922303408E-02  0.609520855568E-03  0.503605431278E-03  0.150967391981E-01  0.284025713772E-01  0.564165168271E-02
  0.553419852344E-01  0.837461352474E-01  0.110441033709E-01  0.679168616147E-02 -0.758102013003E-03  0.279386964622E-02 -0.834665145715E-03
  0.400707436757E-02  0.602725446131E-02 -0.143896588657E-03  0.120117104378E-02  0.345018566153E-02
  0.593415713442E+00  0.668065256897E+00  0.667297105540E+00  0.684257572362E+00  0.686937804850E+00  0.679201333761E+00  0.695811644896E+00
  0.702343850661E+00  0.103531921739E+01  0.723694675180E+00  0.672591699731E+00  0.675702735422E+00  0.694093187861E+00  0.720959953161E+00
  0.712691286032E+00  0.724770860740E+00  0.716580556689E+00  0.713298977991E+00  0.706429554013E+00  0.717737236870E+00  0.715376597535E+00
  0.730937672747E+00  0.791043236314E+00  0.724372845301E+00  0.721010716027E+00  0.715457525825E+00  0.741799733986E+00  0.724056578549E+00
  0.719312937019E+00  0.715892793582E+00  0.716608872473E+00  0.717367929052E+00  0.718400640174E+00
  0.000000000000E+00  0.000000000000E+00  0.000000000000E+00  0.380991904535E+00  0.000000000000E+00  0.343629829001E+00  0.585286158426E+00
  0.579373267147E+00  0.000000000000E+00  0.501056069264E+00  0.508460334500E+00  0.435373040678E+00  0.572640026572E+00  0.537002107467E+00
  0.568922544220E+00  0.514994098632E+00  0.508247389619E+00  0.527252885995E+00  0.567446670679E+00  0.531657156079E+00  0.505981032402E+00
  0.520795577615E+00  0.443624080803E+00  0.490663739842E+00  0.492155878204E+00  0.501390828574E+00  0.467732360539E+00  0.488212090067E+00
  0.490002737981E+00  0.491352317333E+00  0.486075475148E+00  0.490036474464E+00  0.495098267256E+00
  0.999993487803E+00  0.999993690468E+00  0.999993543536E+00  0.989539053649E+00  0.999993137730E+00  0.985524696861E+00  0.989838903639E+00
  0.991798512851E+00  0.999992722266E+00  0.984411113168E+00  0.985091898857E+00  0.984689052830E+00  0.990058458618E+00  0.100289622508E+01
  0.999855383657E+00  0.100485305993E+01  0.100121550621E+01  0.100055642780E+01  0.997896786133E+00  0.100350029301E+01  0.100058068727E+01
  0.101093276070E+01  0.104043291747E+01  0.100326475270E+01  0.100254498461E+01  0.100045586790E+01  0.100976788266E+01  0.100405369256E+01
  0.100192657111E+01  0.100045434460E+01  0.100058773719E+01  0.100109992314E+01  0.100176112587E+01
        15         7        19        19
         8        20        19        19
        18        19        21        21
         7         4         8         8
         3         6         4         4
        19         7         8         8
        19        18        15        15
        14        13        15        15
         8        22        20        20
        27        24        22        22
        19        20        21        21
        32        26        21        21
        17        18        26        26
        17        16        15        15
        25        29        21        21
        12         7        13        13
        10         8         6         6
        25        20        24        24
         4         6         8         8
        12         2         4         4
        10        23        22        22
        26        31        17        17
        30        16        17        17
         4         7        12        12
        13        11        12        12
        21        20        25        25
        24        28        25        25
        22         8        10        10
         6         5        10        10
        31        26        32        32
         4         2         3         3
         5         6         3         3
        11        13        14        14
        22        23        27        27
        28        24        27        27
        15        13         7         7
         2        12         1         1
        29        25        33        33
        23        10         9         9
        21        26        18        18
        16        14        15        15
        18        17        15        15
        29        32        21        21
        22        24        20        20
        28        33        25        25
        11         1        12        12
        31        30        17        17
         5         9        10        10
zone t="boundary 3 bc-3", solutiontime= 0.4000000E+02, strandid=1003, i=33, j=48, f=feblock
  0.375000000000E+01  0.250000000000E+01  0.500000000000E+01  0.403552511878E+01  0.288078410721E+01  0.125000000000E+01  0.190974100652E+01
  0.500000000000E+01  0.326683758169E+01  0.423153924130E+01  0.201431602454E+01  0.000000000000E+00  0.963108083381E+00  0.500000000000E+01
  0.267000324704E+01  0.385533350601E+01  0.893127759452E+00  0.154774304040E+01  0.000000000000E+00  0.500000000000E+01  0.315249557942E+01
  0.218329375016E+01  0.398173246726E+01  0.000000000000E+00  0.698517061619E+00  0.964171764089E+00  0.125000000000E+01  0.000000000000E+00
  0.500000000000E+01  0.310324758057E+01  0.250000000000E+01  0.375000000000E+01  0.000000000000E+00
  0.250000000000E+01  0.250000000000E+01  0.250000000000E+01  0.250000000000E+01  0.250000000000E+01  0.250000000000E+01  0.250000000000E+01
  0.250000000000E+01  0.250000000000E+01  0.250000000000E+01  0.250000000000E+01  0.250000000000E+01  0.250000000000E+01  0.250000000000E+01
  0.250000000000E+01  0.250000000000E+01  0.250000000000E+01  0.250000000000E+01  0.250000000000E+01  0.250000000000E+01  0.250000000000E+01
  0.250000000000E+01  0.250000000000E+01  0.250000000000E+01  0.250000000000E+01  0.250000000000E+01  0.250000000000E+01  0.250000000000E+01
  0.250000000000E+01  0.250000000000E+01  0.250000000000E+01  0.250000000000E+01  0.250000000000E+01
  0.000000000000E+00  0.000000000000E+00  0.000000000000E+00  0.101201586758E+01  0.904659890645E+00  0.000000000000E+00  0.717002441913E+00
  0.125000000000E+01  0.188609243358E+01  0.191586535653E+01  0.176246431481E+01  0.000000000000E+00  0.961328577125E+00  0.250000000000E+01
  0.285047954584E+01  0.293121848150E+01  0.205246550326E+01  0.292817774674E+01  0.125000000000E+01  0.375000000000E+01  0.363585050272E+01
  0.395907379566E+01  0.406975391361E+01  0.250000000000E+01  0.306828197606E+01  0.397245519226E+01  0.500000000000E+01  0.375000000000E+01
  0.500000000000E+01  0.433168271247E+01  0.500000000000E+01  0.500000000000E+01  0.500000000000E+01
  0.941861280722E+00  0.946296414144E+00  0.843730532090E+00  0.964331300827E+00  0.978820820290E+00  0.956975888619E+00  0.983331396807E+00
  0.963500546356E+00  0.982689288964E+00  0.984244007170E+00  0.990263805539E+00  0.134427145192E+01  0.101918251625E+01  0.100829901687E+01
  0.993456152223E+00  0.997998675133E+00  0.100807808287E+01  0.100072116082E+01  0.106355395285E+01  0.100673528669E+01  0.100058356036E+01
  0.100234980426E+01  0.100178078408E+01  0.102389313731E+01  0.100874208210E+01  0.100528370725E+01  0.100522859527E+01  0.100830818671E+01
  0.100196466895E+01  0.100162011145E+01  0.100413203190E+01  0.100321958518E+01  0.100426040742E+01
  0.000000000000E+00  0.000000000000E+00  0.000000000000E+00  0.439071219785E+00  0.399865796789E+00  0.000000000000E+00  0.373794139478E+00
  0.495017409457E+00  0.573056194144E+00  0.569605084780E+00  0.559932666808E+00  0.000000000000E+00  0.483390702975E+00  0.533822151445E+00
  0.556458768623E+00  0.564688347623E+00  0.522615499050E+00  0.522533043336E+00  0.445481419831E+00  0.518326868842E+00  0.524750893832E+00
  0.503888155684E+00  0.509839691463E+00  0.471738848810E+00  0.496245460514E+00  0.494940392832E+00  0.489076365085E+00  0.489830199953E+00
  0.493065118040E+00  0.499146578754E+00  0.486766687672E+00  0.484758135279E+00  0.495784875498E+00
  0.000000000000E+00  0.000000000000E+00  0.000000000000E+00  0.000000000000E+00  0.000000000000E+00  0.000000000000E+00  0.000000000000E+00
  0.000000000000E+00  0.000000000000E+00  0.000000000000E+00  0.000000000000E+00  0.000000000000E+00  0.000000000000E+00  0.000000000000E+00
  0.000000000000E+00  0.000000000000E+00  0.000000000000E+00  0.000000000000E+00  0.000000000000E+00  0.000000000000E+00  0.000000000000E+00
  0.000000000000E+00  0.000000000000E+00  0.000000000000E+00  0.000000000000E+00  0.000000000000E+00  0.000000000000E+00  0.000000000000E+00
  0.000000000000E+00  0.000000000000E+00  0.000000000000E+00  0.000000000000E+00  0.000000000000E+00
  0.000000000000E+00  0.000000000000E+00  0.000000000000E+00 -0.226115389058E-01  0.111963783758E-01  0.000000000000E+00  0.179816812566E-01
 -0.100761166324E+00  0.390410975272E-02 -0.389325100006E-01  0.340377349436E-01  0.000000000000E+00  0.652293810071E-01 -0.424929265219E-01
  0.843880725464E-02 -0.650992519100E-02  0.490054864045E-01  0.135873402646E-01  0.452181797504E-01  0.737187964207E-03 -0.701209295050E-03
  0.243744179348E-02  0.868952670468E-03  0.351822659747E-02  0.103945232605E-01  0.431655185166E-02  0.337507057983E-02  0.459058874663E-03
  0.572581343463E-02  0.341134627860E-03  0.160978817583E-02  0.569844126633E-03  0.237176886593E-02
  0.672750886148E+00  0.675918851677E+00  0.602658414657E+00  0.676093764302E+00  0.691308917335E+00  0.683547252910E+00  0.690066484440E+00
  0.677274957385E+00  0.695201830682E+00  0.696250880078E+00  0.703344069857E+00  0.960184576184E+00  0.719726359327E+00  0.722866634574E+00
  0.709447754687E+00  0.713700947787E+00  0.726067413264E+00  0.716602920280E+00  0.782340561718E+00  0.722284526701E+00  0.716128633852E+00
  0.716551643306E+00  0.716546537007E+00  0.737395237772E+00  0.722682909556E+00  0.719441261551E+00  0.719566087752E+00  0.722781669428E+00
  0.716030233924E+00  0.715847819595E+00  0.718146761438E+00  0.717062457459E+00  0.718615291949E+00
  0.000000000000E+00  0.000000000000E+00  0.000000000000E+00  0.443767766954E+00  0.402286946232E+00  0.000000000000E+00  0.377550362192E+00
  0.509231871988E+00  0.575832177291E+00  0.573707384832E+00  0.562554069143E+00  0.000000000000E+00  0.490563298883E+00  0.534527112604E+00
  0.556586988555E+00  0.564391561138E+00  0.522730520317E+00  0.522052007290E+00  0.441238352667E+00  0.517182276665E+00  0.524228609890E+00
  0.503687438359E+00  0.509488520664E+00  0.469814974079E+00  0.495614448363E+00  0.494483777038E+00  0.488562435796E+00  0.488961665909E+00
  0.492980869575E+00  0.499005516912E+00  0.486460983843E+00  0.484597195974E+00  0.495346579954E+00
  0.999989340133E+00  0.999989409453E+00  0.999989627529E+00  0.981541581416E+00  0.988773904485E+00  0.999989827806E+00  0.982469471994E+00
  0.984104206194E+00  0.990427568393E+00  0.990355262525E+00  0.994363009425E+00  0.999990295661E+00  0.988652068684E+00  0.100368370044E+01
  0.999769193980E+00  0.100118502339E+01  0.100834885298E+01  0.100252110944E+01  0.102982719727E+01  0.100443319188E+01  0.100199536261E+01
  0.100082056819E+01  0.100138190685E+01  0.100826277203E+01  0.100298787106E+01  0.100192389363E+01  0.100215267213E+01  0.100355660158E+01
  0.100047672195E+01  0.100056591913E+01  0.100126819390E+01  0.100066571195E+01  0.100179336086E+01
        15         9        16        16
        15        18        11        11
        22        15        21        21
        11         5         9         9
         5         7         2         2
        11         9        15        15
        16        21        15        15
        16        10        14        14
        18        17        11        11
        17        25        24        24
        22        18        15        15
        22        30        31        31
        30        21        23        23
        16        20        23        23
        22        27        26        26
        10         9         4         4
         7        11        13        13
        25        18        26        26
        11         7         5         5
         5         1         4         4
        17        19        13        13
        23        32        30        30
        23        20        29        29
         4         9         5         5
         4         8        10        10
        26        18        22        22
        26        28        25        25
        13        11        17        17
        13         6         7         7
        31        30        32        32
         2         1         5         5
         2         7         6         6
        14        10         8         8
        24        19        17        17
        24        25        28        28
         9        10        16        16
         3         4         1         1
        33        26        27        27
        12        13        19        19
        21        30        22        22
        16        14        20        20
        16        23        21        21
        22        31        27        27
        18        25        17        17
        26        33        28        28
         4         3         8         8
        23        29        32        32
        13        12         6         6
zone t="boundary 4 bc-4", solutiontime= 0.4000000E+02, strandid=1004, i=32, j=46, f=feblock
  0.125000000000E+01  0.219251206392E+01  0.103724302461E+01  0.500000000000E+01  0.250000000000E+01  0.375000000000E+01  0.404200324774E+01
  0.500000000000E+01  0.000000000000E+00  0.310152362409E+01  0.202479342020E+01  0.324151231464E+01  0.922061490191E+00  0.000000000000E+00
  0.299062775774E+01  0.394624082883E+01  0.500000000000E+01  0.409252726285E+01  0.500000000000E+01  0.429310310915E+01  0.175434191980E+01
  0.284428995242E+01  0.000000000000E+00  0.000000000000E+00  0.715990576545E+00  0.930412228790E+00  0.125000000000E+01  0.187029682677E+01
  0.500000000000E+01  0.375000000000E+01  0.250000000000E+01  0.000000000000E+00
  0.250000000000E+01  0.157686156160E+01  0.146289271009E+01  0.250000000000E+01  0.250000000000E+01  0.250000000000E+01  0.155830813274E+01
  0.125000000000E+01  0.250000000000E+01  0.177790177481E+01  0.477386199275E+00  0.742988685424E+00  0.308372018325E+00  0.125000000000E+01
 -0.487811078581E+00 -0.144524380962E+01 -0.125000000000E+01 -0.345533899378E+00  0.000000000000E+00  0.627766083140E+00 -0.739814786992E+00
 -0.158811787973E+01  0.000000000000E+00 -0.125000000000E+01 -0.600232012419E+00 -0.154800130438E+01 -0.250000000000E+01 -0.178862290564E+01
 -0.250000000000E+01 -0.250000000000E+01 -0.250000000000E+01 -0.250000000000E+01
  0.500000000000E+01  0.500000000000E+01  0.500000000000E+01  0.500000000000E+01  0.500000000000E+01  0.500000000000E+01  0.500000000000E+01
  0.500000000000E+01  0.500000000000E+01  0.500000000000E+01  0.500000000000E+01  0.500000000000E+01  0.500000000000E+01  0.500000000000E+01
  0.500000000000E+01  0.500000000000E+01  0.500000000000E+01  0.500000000000E+01  0.500000000000E+01  0.500000000000E+01  0.500000000000E+01
  0.500000000000E+01  0.500000000000E+01  0.500000000000E+01  0.500000000000E+01  0.500000000000E+01  0.500000000000E+01  0.500000000000E+01
  0.500000000000E+01  0.500000000000E+01  0.500000000000E+01  0.500000000000E+01
  0.100522859527E+01  0.100432970638E+01  0.100432033587E+01  0.100196466895E+01  0.100413203190E+01  0.100321958518E+01  0.100258621560E+01
  0.100201176947E+01  0.100426040742E+01  0.100372311470E+01  0.100446501492E+01  0.100346948562E+01  0.100365984174E+01  0.100424800541E+01
  0.100362337171E+01  0.100164187638E+01  0.100227629276E+01  0.100227307809E+01  0.100213446099E+01  0.100254342926E+01  0.100442384619E+01
  0.100337262224E+01  0.100288844253E+01  0.100334542198E+01  0.100323222671E+01  0.100406087336E+01  0.100510171191E+01  0.100431306262E+01
  0.100179475098E+01  0.100266311906E+01  0.100321164497E+01  0.100399273866E+01
  0.489076365085E+00  0.489238645865E+00  0.490983350557E+00  0.493065118040E+00  0.486766687672E+00  0.484758135279E+00  0.485405275029E+00
  0.494262909897E+00  0.495784875498E+00  0.486800374181E+00  0.488139374745E+00  0.487244733628E+00  0.494423309482E+00  0.496536483061E+00
  0.487845849802E+00  0.483219502121E+00  0.492573615839E+00  0.487262431881E+00  0.494866056445E+00  0.488012748551E+00  0.490096725422E+00
  0.488269664526E+00  0.497534086300E+00  0.496384260158E+00  0.495259765549E+00  0.493216444384E+00  0.490458154664E+00  0.490399993884E+00
  0.491426966141E+00  0.486218275190E+00  0.490304430284E+00  0.495522029452E+00
  0.000000000000E+00 -0.893844721283E-04 -0.129754358790E-02  0.000000000000E+00  0.000000000000E+00  0.000000000000E+00  0.425650492006E-03
  0.796987656644E-03  0.000000000000E+00  0.274721867958E-03 -0.942409152301E-03 -0.819935538783E-03 -0.174524232156E-02 -0.638396196506E-04
 -0.110015113403E-02 -0.102270863053E-02 -0.133249471364E-02 -0.213420499829E-02 -0.132921272496E-02 -0.106395898535E-02 -0.624383249621E-03
 -0.761653726991E-03 -0.196341544295E-03  0.807127118962E-03  0.520227931783E-04  0.161631421424E-02  0.000000000000E+00  0.791664139734E-03
  0.000000000000E+00  0.000000000000E+00  0.000000000000E+00  0.000000000000E+00