# vtk DataFile Version 2.0
FUN3D:global_image_vtk
ASCII
DATASET UNSTRUCTURED_GRID
POINTS 213 double
    0.0000000000000000E+00    0.2500000000000000E+01    0.0000000000000000E+00
    0.1250000000000000E+01    0.2500000000000000E+01    0.0000000000000000E+00
    0.2500000000000000E+01    0.2500000000000000E+01    0.0000000000000000E+00
    0.3750000000000000E+01    0.2500000000000000E+01    0.0000000000000000E+00
    0.5000000000000000E+01    0.2500000000000000E+01    0.0000000000000000E+00
    0.5000000000000000E+01    0.1250000000000000E+01    0.0000000000000000E+00
    0.5000000000000000E+01    0.0000000000000000E+00    0.0000000000000000E+00
    0.5000000000000000E+01   -0.1250000000000000E+01    0.0000000000000000E+00
    0.5000000000000000E+01   -0.2500000000000000E+01    0.0000000000000000E+00
    0.3750000000000000E+01   -0.2500000000000000E+01    0.0000000000000000E+00
    0.2500000000000000E+01   -0.2500000000000000E+01    0.0000000000000000E+00
    0.1250000000000000E+01   -0.2500000000000000E+01    0.0000000000000000E+00
    0.0000000000000000E+00   -0.2500000000000000E+01    0.0000000000000000E+00
    0.0000000000000000E+00   -0.1250000000000000E+01    0.0000000000000000E+00
    0.0000000000000000E+00    0.0000000000000000E+00    0.0000000000000000E+00
    0.0000000000000000E+00    0.1250000000000000E+01    0.0000000000000000E+00
    0.9058375365086910E+00    0.1578994732800803E+01    0.0000000000000000E+00
    0.3982050490726493E+01   -0.1583989954232354E+01    0.0000000000000000E+00
    0.4033849428301197E+01    0.1453322699199022E+01    0.0000000000000000E+00
    0.1040505887381675E+01   -0.1479596339503735E+01    0.0000000000000000E+00
    0.1099454400140349E+01   -0.3227322616384110E+00    0.0000000000000000E+00
    0.7354504170366591E+00    0.6593508822075582E+00    0.0000000000000000E+00
    0.1622302608453282E+01    0.8256214013940779E+00    0.0000000000000000E+00
    0.2145871574390382E+01   -0.1650070333782557E+01    0.0000000000000000E+00
    0.4086422318222992E+01   -0.4612828702537229E+00    0.0000000000000000E+00
    0.2979540174134984E+01   -0.8579242121530853E+00    0.0000000000000000E+00
    0.3045064261640043E+01   -0.1836846154397680E+01    0.0000000000000000E+00
    0.3428197553792836E+01    0.3508002863614053E+00    0.0000000000000000E+00
    0.4309693860063405E+01    0.5185680230613409E+00    0.0000000000000000E+00
    0.1827272193562204E+01    0.1738996113203182E+01    0.0000000000000000E+00
    0.2808563282768077E+01    0.1325493893339706E+01    0.0000000000000000E+00
    0.1895995683864404E+01   -0.8731419609589618E+00    0.0000000000000000E+00
    0.2273179336307740E+01    0.4906150219227333E-01    0.0000000000000000E+00
    0.5000000000000000E+01    0.2500000000000000E+01    0.1250000000000000E+01
    0.5000000000000000E+01    0.2500000000000000E+01    0.2500000000000000E+01
    0.5000000000000000E+01    0.2500000000000000E+01    0.3750000000000000E+01
    0.5000000000000000E+01    0.2500000000000000E+01    0.5000000000000000E+01
    0.3750000000000000E+01    0.2500000000000000E+01    0.5000000000000000E+01
    0.2500000000000000E+01    0.2500000000000000E+01    0.5000000000000000E+01
    0.1250000000000000E+01    0.2500000000000000E+01    0.5000000000000000E+01
    0.0000000000000000E+00    0.2500000000000000E+01    0.5000000000000000E+01
    0.0000000000000000E+00    0.2500000000000000E+01    0.3750000000000000E+01
    0.0000000000000000E+00    0.2500000000000000E+01    0.2500000000000000E+01
    0.0000000000000000E+00    0.2500000000000000E+01    0.1250000000000000E+01
    0.9631080833812172E+00    0.2500000000000000E+01    0.9613285771248219E+00
    0.3981732467264904E+01    0.2500000000000000E+01    0.4069753913607991E+01
    0.4035525118777670E+01    0.2500000000000000E+01    0.1012015867579395E+01
    0.9641717640894248E+00    0.2500000000000000E+01    0.3972455192261839E+01
    0.1547743040396780E+01    0.2500000000000000E+01    0.2928177746738678E+01
    0.6985170616192014E+00    0.2500000000000000E+01    0.3068281976055466E+01
    0.8931277594515110E+00    0.2500000000000000E+01    0.2052465503257726E+01
    0.2183293750162785E+01    0.2500000000000000E+01    0.3959073795658649E+01
    0.3855333506014705E+01    0.2500000000000000E+01    0.2931218481500625E+01
    0.3152495579421047E+01    0.2500000000000000E+01    0.3635850502723324E+01
    0.3103247580566054E+01    0.2500000000000000E+01    0.4331682712472464E+01
    0.3266837581688852E+01    0.2500000000000000E+01    0.1886092433583972E+01
    0.4231539241296245E+01    0.2500000000000000E+01    0.1915865356532799E+01
    0.1909741006522088E+01    0.2500000000000000E+01    0.7170024419130505E+00
    0.2880784107213163E+01    0.2500000000000000E+01    0.9046598906449592E+00
    0.2014316024535771E+01    0.2500000000000000E+01    0.1762464314805728E+01
    0.2670003247036656E+01    0.2500000000000000E+01    0.2850479545835163E+01
    0.5000000000000000E+01    0.1250000000000000E+01    0.5000000000000000E+01
    0.5000000000000000E+01    0.0000000000000000E+00    0.5000000000000000E+01
    0.5000000000000000E+01   -0.1250000000000000E+01    0.5000000000000000E+01
    0.5000000000000000E+01   -0.2500000000000000E+01    0.5000000000000000E+01
    0.5000000000000000E+01   -0.2500000000000000E+01    0.3750000000000000E+01
    0.5000000000000000E+01   -0.2500000000000000E+01    0.2500000000000000E+01
    0.5000000000000000E+01   -0.2500000000000000E+01    0.1250000000000000E+01
    0.5000000000000000E+01    0.1578994732800803E+01    0.9058375365086910E+00
    0.5000000000000000E+01   -0.1583989954232354E+01    0.3982050490726493E+01
    0.5000000000000000E+01    0.1453322699199022E+01    0.4033849428301197E+01
    0.5000000000000000E+01   -0.1479596339503735E+01    0.1040505887381675E+01
    0.5000000000000000E+01   -0.3227322616384110E+00    0.1099454400140349E+01
    0.5000000000000000E+01    0.6593508822075582E+00    0.7354504170366591E+00
    0.5000000000000000E+01    0.8256214013940779E+00    0.1622302608453282E+01
    0.5000000000000000E+01   -0.1650070333782557E+01    0.2145871574390382E+01
    0.5000000000000000E+01   -0.4612828702537229E+00    0.4086422318222992E+01
    0.5000000000000000E+01   -0.8579242121530853E+00    0.2979540174134984E+01
    0.5000000000000000E+01   -0.1836846154397680E+01    0.3045064261640043E+01
    0.5000000000000000E+01    0.3508002863614053E+00    0.3428197553792836E+01
    0.5000000000000000E+01    0.5185680230613409E+00    0.4309693860063405E+01
    0.5000000000000000E+01    0.1738996113203182E+01    0.1827272193562204E+01
    0.5000000000000000E+01    0.1325493893339706E+01    0.2808563282768077E+01
    0.5000000000000000E+01   -0.8731419609589618E+00    0.1895995683864404E+01
    0.5000000000000000E+01    0.4906150219227333E-01    0.2273179336307740E+01
    0.0000000000000000E+00    0.1250000000000000E+01    0.5000000000000000E+01
    0.0000000000000000E+00    0.0000000000000000E+00    0.5000000000000000E+01
    0.0000000000000000E+00   -0.1250000000000000E+01    0.5000000000000000E+01
    0.0000000000000000E+00   -0.2500000000000000E+01    0.5000000000000000E+01
    0.1250000000000000E+01   -0.2500000000000000E+01    0.5000000000000000E+01
    0.2500000000000000E+01   -0.2500000000000000E+01    0.5000000000000000E+01
    0.3750000000000000E+01   -0.2500000000000000E+01    0.5000000000000000E+01
    0.4042003247744892E+01    0.1558308132739014E+01    0.5000000000000000E+01
    0.9304122287900499E+00   -0.1548001304379777E+01    0.5000000000000000E+01
    0.1037243024609388E+01    0.1462892710085612E+01    0.5000000000000000E+01
    0.3946240828834967E+01   -0.1445243809615570E+01    0.5000000000000000E+01
    0.4092527262848217E+01   -0.3455338993778935E+00    0.5000000000000000E+01
    0.4293103109154542E+01    0.6277660831404320E+00    0.5000000000000000E+01
    0.3241512314643519E+01    0.7429886854239611E+00    0.5000000000000000E+01
    0.2844289952419609E+01   -0.1588117879734118E+01    0.5000000000000000E+01
    0.7159905765450471E+00   -0.6002320124191652E+00    0.5000000000000000E+01
    0.1754341919796891E+01   -0.7398147869923652E+00    0.5000000000000000E+01
    0.1870296826774691E+01   -0.1788622905643739E+01    0.5000000000000000E+01
    0.9220614901912976E+00    0.3083720183248586E+00    0.5000000000000000E+01
    0.3101523624086016E+01    0.1777901774806180E+01    0.5000000000000000E+01
    0.2192512063922564E+01    0.1576861561598471E+01    0.5000000000000000E+01
    0.2024793420196460E+01    0.4773861992750707E+00    0.5000000000000000E+01
    0.2990627757741975E+01   -0.4878110785814084E+00    0.5000000000000000E+01
    0.0000000000000000E+00   -0.2500000000000000E+01    0.1250000000000000E+01
    0.0000000000000000E+00   -0.2500000000000000E+01    0.2500000000000000E+01
    0.0000000000000000E+00   -0.2500000000000000E+01    0.3750000000000000E+01
    0.0000000000000000E+00    0.1558308132739014E+01    0.4042003247744892E+01
    0.0000000000000000E+00   -0.1548001304379777E+01    0.9304122287900499E+00
    0.0000000000000000E+00    0.1462892710085612E+01    0.1037243024609388E+01
    0.0000000000000000E+00   -0.1445243809615570E+01    0.3946240828834967E+01
    0.0000000000000000E+00   -0.3455338993778935E+00    0.4092527262848217E+01
    0.0000000000000000E+00    0.6277660831404320E+00    0.4293103109154542E+01
    0.0000000000000000E+00    0.7429886854239611E+00    0.3241512314643519E+01
    0.0000000000000000E+00   -0.1588117879734118E+01    0.2844289952419609E+01
    0.0000000000000000E+00   -0.6002320124191652E+00    0.7159905765450471E+00
    0.0000000000000000E+00   -0.7398147869923652E+00    0.1754341919796891E+01
    0.0000000000000000E+00   -0.1788622905643739E+01    0.1870296826774691E+01
    0.0000000000000000E+00    0.3083720183248586E+00    0.9220614901912976E+00
    0.0000000000000000E+00    0.1777901774806180E+01    0.3101523624086016E+01
    0.0000000000000000E+00    0.1576861561598471E+01    0.2192512063922564E+01
[...]
POINT_DATA 213
SCALARS rho double 1
LOOKUP_TABLE default
   0.1344267383882309E+01
   0.9569621173629885E+00
   0.9462827828437280E+00
   0.9418685443713067E+00
   0.8437290611228839E+00
   0.7737787275005792E+00
   0.7629657349585832E+00
   0.7664233726473141E+00
   0.8307797300705070E+00
   0.9352922149531883E+00
   0.9341976443531784E+00
   0.9617064277422956E+00
   0.1449458490598309E+01
   0.1494082636884289E+01
   0.1644658109972933E+01
   0.1425833638902801E+01
   0.1009002366611848E+01
   0.9508647727354430E+00
   0.9436504258806410E+00
   0.9581489704848077E+00
   0.9415724803830752E+00
   0.1036366433898918E+01
   0.9255999911984617E+00
   0.9322180086955197E+00
   0.9537388481358262E+00
   0.9518642902139286E+00
   0.9348366355079997E+00
   0.9563936218254927E+00
   0.9376032113986356E+00
   0.9300514633233993E+00
   0.9445030246985459E+00
   0.8863353100809062E+00
   0.9423502052739453E+00
   0.9635378594215415E+00
   0.1008308845653187E+01
   0.1006769195944281E+01
   0.1001857399968686E+01
   0.1003124381752618E+01
   0.1004093754423240E+01
   0.1005222961024482E+01
   0.1004259168367781E+01
   0.1008292613983194E+01
   0.1023882357482190E+01
   0.1063537234029122E+01
   0.1019173487563384E+01
   0.1001771504738636E+01
   0.9644010588203035E+00
   0.1005265171669582E+01
   0.1000700051005250E+01
   0.1008724202808598E+01
   0.1008060740234154E+01
   0.1002336118663985E+01
   0.9980001446264772E+00
   0.1000580089640089E+01
   0.1001603163457744E+01
   0.9826720254588120E+00
   0.9842340760589319E+00
   0.9833218832500260E+00
   0.9788542054635498E+00
   0.9902494500263060E+00
   0.9934419767963322E+00
   0.1001926335575577E+01
   0.1002058792898105E+01
   0.1002230115428715E+01
   0.1001729220076583E+01
   0.1009794414020328E+01
   0.1006420955982334E+01
   0.9558518860479618E+00
   0.9249385522584082E+00
   0.1007036442670135E+01
   0.1004507784729532E+01
   0.9143645489703914E+00
   0.9089894528351345E+00
   0.8751869742304400E+00
   0.9766926213240161E+00
   0.1000419784455548E+01
   0.1005832465067799E+01
   0.1012901402216082E+01
   0.1011639611718759E+01
   0.1010468739092925E+01
   0.1005447250500166E+01
   0.9907369604828180E+00
   0.1005161000055914E+01
   0.9860350966546247E+00
   0.1005591823524963E+01
   0.1004242245082104E+01
   0.1002869563233062E+01
   0.1003327510794199E+01
   0.1003986603339406E+01
   0.1005087288988889E+01
   0.1003200180861207E+01
   0.1002632278335220E+01
   0.1002499012444002E+01
   0.1004049296634540E+01
   0.1004298150073883E+01
   0.1001608523163018E+01
   0.1002211426245215E+01
   0.1002464882600676E+01
   0.1003437235583940E+01
   0.1003363229227754E+01
   0.1003220433740343E+01
   0.1004417342645548E+01
   0.1004307306784422E+01
   0.1003649590639968E+01
   0.1003660229150173E+01
   0.1004304069146811E+01
   0.1004446765311079E+01
   0.1003592153970449E+01
   0.1064415891492817E+01
   0.1028463298865328E+01
   0.1009570535468723E+01
   0.1006630229029880E+01
   0.1163915994588502E+01
   0.1086088936808672E+01
   0.1007875701175796E+01
   0.1007229055447234E+01
   0.1006789460823169E+01
   0.1013007952658919E+01
   0.1019369746932693E+01
   0.1235197213238121E+01
   0.1032525195093794E+01
   0.1046663664672628E+01
   0.1200941167255404E+01
   0.1014711039019490E+01
   0.1032275225926746E+01
   0.1028080425574041E+01
   0.1014614950349765E+01
   0.1029208822204563E+01
   0.1001987034625917E+01
   0.9607032596383025E+00
   0.1006839675083079E+01
   0.1001310155541692E+01
   0.1010807267389799E+01
   0.1012236429051038E+01
   0.1000934530343374E+01
   0.9979042874751769E+00
   0.9980562496907037E+00
   0.1001168916391469E+01
   0.9841073195812172E+00
   0.9814616540058316E+00
   0.9648471032884356E+00
   0.9680776516177291E+00
   0.9914091998303499E+00
   0.9910730623626326E+00
   0.9925395343825281E+00
   0.1001710396671027E+01
   0.9993232795454715E+00
   0.9941281126569609E+00
   0.1007024404921369E+01
   0.1022528026304206E+01
   0.1001086533068930E+01
   0.1008782619914822E+01
   0.1004757513479716E+01
   0.1009029251149205E+01
   0.9966337385107237E+00
   0.1004979715735573E+01
   0.1003316788513406E+01
   0.9949326819124943E+00
   0.9832512823048065E+00
   0.9943801749783404E+00
   0.9973370708728143E+00
   0.9931993196035637E+00
   0.1001297983739348E+01
   0.1002993505886448E+01
   0.1002168326451413E+01
   0.9947060743404735E+00
   0.9937906854210298E+00
   0.1004853201101533E+01
   0.1020064240696885E+01
   0.1005353737301562E+01
   0.9816911363571014E+00
   0.1004961364346751E+01
   0.1012366181698829E+01
   0.9871320875477249E+00
   0.9551461851611623E+00
   0.9864982356729906E+00
   0.9864417706566726E+00
   0.9918881319421156E+00
   0.9933389747581517E+00
   0.9954306162431390E+00
   0.1037328891786793E+01
   0.1033524513248007E+01
   0.1001425999610155E+01
   0.1001912774358349E+01
   0.9912324261045582E+00
   0.9910790367902544E+00
   0.9648200393125002E+00
   0.9933159790699794E+00
   0.1006058182057665E+01
   0.1001951435209852E+01
   0.9908606711252271E+00
   0.9740756791712463E+00
   0.9418724661937257E+00
   0.9819200958005055E+00
   0.9794670267152370E+00
   0.9704193983204283E+00
   0.9720239476940289E+00
   0.9557222996063600E+00
   0.9496780061552472E+00
   0.9528788654924625E+00
   0.1002641707392808E+01
   0.1002466647116459E+01
   0.1000501740193101E+01
   0.1001691462507693E+01
   0.9607698063683847E+00
   0.9492034240119663E+00
   0.9584632383224375E+00
   0.1001115847933927E+01
   0.1000492345322696E+01
   0.1001169290952248E+01
   0.9807286071537089E+00
   0.9805902071269020E+00
   0.9628514789897927E+00
SCALARS u double 1
LOOKUP_TABLE default
   0.0000000000000000E+00
   0.0000000000000000E+00
   0.0000000000000000E+00
   0.0000000000000000E+00
   0.0000000000000000E+00
   0.0000000000000000E+00
   0.0000000000000000E+00
   0.0000000000000000E+00
   0.0000000000000000E+00
   0.0000000000000000E+00
   0.0000000000000000E+00
   0.0000000000000000E+00
   0.0000000000000000E+00
   0.0000000000000000E+00
   0.0000000000000000E+00
   0.0000000000000000E+00
   0.0000000000000000E+00
   0.0000000000000000E+00
   0.0000000000000000E+00
   0.0000000000000000E+00
   0.0000000000000000E+00
   0.0000000000000000E+00
   0.0000000000000000E+00
   0.0000000000000000E+00
   0.0000000000000000E+00
   0.0000000000000000E+00
   0.0000000000000000E+00
   0.0000000000000000E+00
   0.0000000000000000E+00
   0.0000000000000000E+00
   0.0000000000000000E+00
   0.0000000000000000E+00
   0.0000000000000000E+00
   0.4949278779425660E+00
   0.5338112495743228E+00
   0.5183807309961187E+00
   0.4930034972852491E+00
   0.4845359359088287E+00
   0.4867358952846969E+00
   0.4891297594749658E+00
   0.4958382992076640E+00
   0.4898330525497064E+00
   0.4717517570011993E+00
   0.4455021441974560E+00
   0.4833968247014823E+00
   0.5099455302979617E+00
   0.4390219946585552E+00
   0.4949635442790049E+00
   0.5225566519207399E+00
   0.4962573873298176E+00
   0.5226346183345660E+00
   0.5039535878238758E+00
   0.5647638809158517E+00
   0.5248438411795963E+00
   0.4992291944694206E+00
   0.5730321562013884E+00
   0.5695645066128024E+00
   0.3737818670278047E+00
   0.3998085910758837E+00
   0.5599353856312833E+00
   0.5565002385720839E+00
   0.4941814025052976E+00
   0.4948052059596388E+00
   0.4925087885876848E+00
   0.4913885589766601E+00
   0.5162950118310716E+00
   0.5361795639407962E+00
   0.4947210108842565E+00
   0.4523785676497896E+00
   0.5129045233204410E+00
   0.5118476684726614E+00
   0.4783158860190743E+00
   0.4931483492466366E+00
   0.4602857056580024E+00
   0.5245013021140076E+00
   0.5297469783832945E+00
   0.5129821611895422E+00
   0.5328335706287539E+00
   0.5309087758716338E+00
   0.5310009934001663E+00
   0.5063871293241702E+00
   0.5282251749226233E+00
   0.5410274070840854E+00
   0.5361270456969331E+00
   0.5374182807372938E+00
   0.4965531327618152E+00
   0.4975464760766355E+00
   0.4963925666228796E+00
   0.4955397985483260E+00
   0.4904527711791762E+00
   0.4902488612727346E+00
   0.4860455706870154E+00
   0.4851910564279335E+00
   0.4932252685897287E+00
   0.4910081981621900E+00
   0.4830821224559734E+00
   0.4871169634660992E+00
   0.4878477199215636E+00
   0.4871553884181908E+00
   0.4881579726675902E+00
   0.4952683412756838E+00
   0.4900944836354783E+00
   0.4903797107965027E+00
   0.4944437267349403E+00
   0.4866873968095499E+00
   0.4892340199466329E+00
   0.4881388204625648E+00
   0.4877631536141835E+00
   0.4446942986401361E+00
   0.4700133604310250E+00
   0.4892142260206795E+00
   0.4885079539879661E+00
   0.4506815135340028E+00
   0.4687225303409177E+00
   0.4877080740666669E+00
   0.4868380005704098E+00
   0.4909073685719019E+00
   0.4793680979261905E+00
   0.4658288897606556E+00
   0.3792813911113361E+00
   0.4901621324993344E+00
   0.4486862077130910E+00
   0.4436310326412692E+00
   0.4845238716161233E+00
   0.4622157101835514E+00
   0.4665990831560155E+00
   0.4748309120506631E+00
   0.4894644605987025E+00
   0.5086550752435236E+00
   0.4314869963283157E+00
   0.4927490201075617E+00
   0.5318444528594856E+00
   0.4913494660544603E+00
   0.5207125820105589E+00
   0.5061667259444010E+00
   0.5689356213748720E+00
   0.5274827798057805E+00
   0.5015536198337924E+00
   0.5821440778229253E+00
   0.5689330025309334E+00
   0.3406475496077964E+00
   0.3789657140839188E+00
   0.5751939496840415E+00
   0.5666643220256393E+00
   0.5704152184032300E+00
   0.5291209444212753E+00
   0.5452011728810733E+00
   0.5718763631448506E+00
   0.5389245463309508E+00
   0.5475596151173696E+00
   0.5821760325129021E+00
   0.4925752864552153E+00
   0.5042528962899283E+00
   0.4961885333938219E+00
   0.5565263971860067E+00
   0.4758941293323178E+00
   0.4950523093283055E+00
   0.5498883289049561E+00
   0.5891054295155084E+00
   0.5842296676149366E+00
   0.5469767636216990E+00
   0.5805360559242455E+00
   0.5106923702716907E+00
   0.5030846985440525E+00
   0.5034173509199006E+00
   0.5676684124963548E+00
   0.5564306760915669E+00
   0.4947552541565801E+00
   0.5505317554274500E+00
   0.5510886108797923E+00
   0.5657340537387900E+00
   0.4920277875164890E+00
   0.4927385315737133E+00
   0.3865374019098267E+00
   0.3688047517529540E+00
   0.5574785286916141E+00
   0.5763755456459048E+00
   0.4194224439330896E+00
   0.5824673544265304E+00
   0.4265483999579870E+00
   0.5392952663361065E+00
   0.5012211191270882E+00
   0.5120001424525631E+00
   0.5049940850240564E+00
   0.5751857767530372E+00
   0.5876531533823657E+00
   0.5379510663941374E+00
   0.5677452156725952E+00
   0.5351892518047148E+00
   0.5338507543363169E+00
   0.5580391789115231E+00
   0.5512159981500280E+00
   0.4261538965509195E+00
   0.5273063975599318E+00
   0.5795607801662322E+00
   0.3319008765159911E+00
   0.4760038912907652E+00
   0.5446177079266684E+00
   0.4798246597221220E+00
   0.3005435688595530E+00
   0.5031224411115296E+00
   0.5017684074704708E+00
   0.5129548096262618E+00
   0.5415535359934243E+00
   0.3437628989928149E+00
   0.3398105259458965E+00
   0.3189703825351457E+00
   0.5066521213381686E+00
   0.5124251347923601E+00
   0.5331278238473455E+00
   0.5879313578597344E+00
   0.4644226128034755E+00
   0.3531739271651070E+00
SCALARS v double 1
LOOKUP_TABLE default
   0.0000000000000000E+00
   0.0000000000000000E+00
   0.0000000000000000E+00
   0.0000000000000000E+00
   0.0000000000000000E+00
   0.0000000000000000E+00
   0.0000000000000000E+00
   0.0000000000000000E+00
   0.0000000000000000E+00
   0.0000000000000000E+00
   0.0000000000000000E+00
   0.0000000000000000E+00
   0.0000000000000000E+00
   0.0000000000000000E+00
   0.0000000000000000E+00
   0.0000000000000000E+00
   0.0000000000000000E+00
   0.0000000000000000E+00
   0.0000000000000000E+00
   0.0000000000000000E+00
   0.0000000000000000E+00
   0.0000000000000000E+00
   0.0000000000000000E+00
   0.0000000000000000E+00
   0.0000000000000000E+00
   0.0000000000000000E+00
   0.0000000000000000E+00
   0.0000000000000000E+00
   0.0000000000000000E+00
   0.0000000000000000E+00
   0.0000000000000000E+00
   0.0000000000000000E+00
   0.0000000000000000E+00
   0.0000000000000000E+00
   0.0000000000000000E+00
   0.0000000000000000E+00
   0.0000000000000000E+00
   0.0000000000000000E+00
   0.0000000000000000E+00
   0.0000000000000000E+00
   0.0000000000000000E+00
   0.0000000000000000E+00
   0.0000000000000000E+00
   0.0000000000000000E+00
   0.0000000000000000E+00
   0.0000000000000000E+00
   0.0000000000000000E+00
   0.0000000000000000E+00
   0.0000000000000000E+00
   0.0000000000000000E+00
   0.0000000000000000E+00
   0.0000000000000000E+00
   0.0000000000000000E+00
   0.0000000000000000E+00
   0.0000000000000000E+00
   0.0000000000000000E+00
   0.0000000000000000E+00
   0.0000000000000000E+00
   0.0000000000000000E+00
   0.0000000000000000E+00
   0.0000000000000000E+00
   0.8482659463496370E-03
  -0.1304816561851293E-02
  -0.1340591836524464E-02
   0.0000000000000000E+00
   0.0000000000000000E+00
   0.0000000000000000E+00
   0.0000000000000000E+00
  -0.1923078939659222E-01
   0.4847997508764279E-03
   0.2195887560656186E-02
   0.1426111719891176E-01
  -0.6492482906080110E-02
  -0.7805630365421695E-02
  -0.1326831377464719E-01
   0.4917529923756321E-02
   0.7041489940379910E-03
   0.3452786378879566E-02
   0.1930194926851809E-02
   0.3168891567650268E-02
   0.1729144640069728E-02
  -0.7321901257355345E-02
  -0.7611365634559465E-04
   0.4468156285732227E-02
  -0.4237752137559549E-03
  -0.6678340236904619E-04
  -0.1962074591603754E-03
   0.8183859294422013E-03
   0.0000000000000000E+00
   0.0000000000000000E+00
   0.0000000000000000E+00
   0.0000000000000000E+00
   0.4671070890355214E-03
   0.1639444875375041E-02
  -0.1311294655740265E-02
  -0.1035803853039690E-02
  -0.2155068644739319E-02
  -0.1051931842613770E-02
  -0.8338698607097979E-03
  -0.7493832757166062E-03
   0.6587837024800434E-04
  -0.5940771048375769E-03
   0.8051515246757764E-03
  -0.1744958060092186E-02
   0.2675537493723395E-03
  -0.1031764261396825E-03
  -0.9479539826203931E-03
  -0.1104278474814296E-02
   0.0000000000000000E+00
   0.0000000000000000E+00
   0.0000000000000000E+00
  -0.1062552735214287E-02
  -0.7643247271359972E-02
   0.1860877498417582E-01
  -0.2860614743523490E-04
  -0.1392510204926129E-02
  -0.2043726452933327E-02
  -0.5677103434116174E-02
  -0.1593400784919839E-02
  -0.5949648094988275E-02
  -0.4165085833821029E-02
   0.1565900260835477E-02
   0.3329589614854287E-01
   0.2716951879693084E-04
  -0.2767420625742612E-02
   0.3563867332138433E-02
   0.3507490231999451E-03
   0.0000000000000000E+00
   0.0000000000000000E+00
   0.0000000000000000E+00
   0.0000000000000000E+00
   0.0000000000000000E+00
   0.0000000000000000E+00
   0.0000000000000000E+00
   0.0000000000000000E+00
   0.0000000000000000E+00
   0.0000000000000000E+00
   0.0000000000000000E+00
   0.0000000000000000E+00
   0.0000000000000000E+00
   0.0000000000000000E+00
   0.0000000000000000E+00
   0.0000000000000000E+00
   0.0000000000000000E+00
   0.5062176510125063E-02
   0.3232573748824184E-02
   0.8161453920491694E-02
   0.6169398189870386E-02
   0.1123167503406299E-01
   0.1429343677512225E-01
  -0.2049486260498206E-03
   0.5112345716828422E-02
   0.2924185082582994E-02
   0.3374559515348285E-02
   0.3731865096255149E-02
  -0.1466847015521745E-01
  -0.6098935482008563E-03
   0.6672319311489535E-02
   0.1543597196145060E-02
   0.1983937253374037E-02
   0.4297988344865182E-02
  -0.2770253798561672E-02
   0.1248647679540437E-02
   0.2837727165007783E-02
   0.1523877357964757E-02
   0.2602716133836729E-02
   0.2047993893742129E-02
   0.2124925698970537E-02
   0.8698334511724682E-02
  -0.3737757339751363E-02
   0.6242123738667812E-02
   0.3334574238730014E-04
  -0.3946633594205179E-03
  -0.1677885482038895E-01
  -0.4892218258145323E-02
  -0.4720311605872050E-02
   0.3447906239597534E-02
  -0.6151599631062692E-02
   0.9568705514174322E-04
  -0.3292956115821800E-01
  -0.3045445163958652E-02
   0.4726501749864782E-02
   0.9418307980118401E-03
   0.2128828451931119E-02
   0.4537408487369804E-02
   0.2724992177337254E-02
   0.3212934044694043E-02
   0.5207177553573546E-02
   0.1947751290663782E-02
   0.7433453762986045E-03
  -0.2611993782246568E-04
  -0.5378987302466080E-02
  -0.6963761359115892E-02
  -0.9632113436893452E-03
   0.1118472381473954E-02
  -0.2075610497270216E-02
  -0.3192056445330653E-02
  -0.2523484806625592E-02
  -0.4120848899211308E-02
  -0.7597852257687643E-02
  -0.1995695178782656E-02
   0.6427090215469528E-03
  -0.2129200469673131E-03
   0.1239503132079879E-02
  -0.3507963930850354E-02
   0.5219747433129238E-02
  -0.8489351230671320E-02
   0.2876670950874306E-04
  -0.3440133804700703E-03
   0.2559422308523150E-02
   0.1663762184234359E-02
   0.2025162484500076E-02
  -0.5634438264294639E-02
SCALARS w double 1
LOOKUP_TABLE default
   0.0000000000000000E+00
   0.0000000000000000E+00
   0.0000000000000000E+00
   0.0000000000000000E+00
   0.0000000000000000E+00
   0.0000000000000000E+00
   0.0000000000000000E+00
   0.0000000000000000E+00
   0.0000000000000000E+00
   0.0000000000000000E+00
   0.0000000000000000E+00
   0.0000000000000000E+00
   0.0000000000000000E+00
   0.0000000000000000E+00
   0.0000000000000000E+00
   0.0000000000000000E+00
   0.0000000000000000E+00
   0.0000000000000000E+00
   0.0000000000000000E+00
   0.0000000000000000E+00
   0.0000000000000000E+00
   0.0000000000000000E+00
   0.0000000000000000E+00
   0.0000000000000000E+00
   0.0000000000000000E+00
   0.0000000000000000E+00
   0.0000000000000000E+00
   0.0000000000000000E+00
   0.0000000000000000E+00
   0.0000000000000000E+00
   0.0000000000000000E+00
   0.0000000000000000E+00
   0.0000000000000000E+00
  -0.1007681643058320E+00
  -0.4250157602153349E-01
   0.8004703103290720E-03
   0.5838695277647360E-02
   0.6845043348791933E-03
   0.1636411099174030E-02
   0.3339533166081795E-02
   0.2343003176877149E-02
   0.4494662464555343E-03
   0.3515599545364673E-02
   0.4522735157160152E-01
   0.6522549621120377E-01
   0.9261810895897656E-03
  -0.2263932272738787E-01
   0.4312167124031568E-02
   0.1361077692923025E-01
   0.1039593954225538E-01
   0.4901015895551548E-01
   0.2440218138496902E-02
  -0.6507020854092225E-02
  -0.6965025269425079E-03
   0.3400132708158530E-03
   0.3907625220871074E-02
  -0.3895806018832607E-01
   0.1798257756503564E-01
   0.1120031737774898E-01
   0.3404881270520498E-01
   0.8456289843721401E-02
   0.4998697735028248E-02
   0.5009556807770257E-02
   0.4891492376691623E-02
   0.6070409013186783E-02
   0.2618988899527772E-02
  -0.4147027890774686E-01
  -0.9954683023775283E-01
  -0.1121626381856032E+00
   0.5102028452418797E-02
   0.4315411774199251E-02
  -0.1004494387586430E+00
  -0.9891167650870659E-01
  -0.9872410414790751E-01
  -0.9459744995591160E-01
  -0.6807732140713230E-01
   0.5209511534612163E-02
  -0.1933488292200768E-01
  -0.1576561727568653E-01
  -0.5957669443372600E-02
   0.6898391886905091E-02
  -0.8011047063027733E-01
  -0.2780046033666695E-01
  -0.8093428280098942E-01
  -0.5870807075523643E-01
   0.3061880142960889E-02
   0.2691024770189541E-02
   0.2653901967792719E-02
   0.3447428171646609E-02
   0.4000639546214848E-02
   0.1202945858059040E-02
  -0.1419253960329078E-03
   0.2129972555887445E-02
   0.4886430742796234E-02
   0.3841635069702347E-02
   0.1118175175554357E-02
   0.1225700763356783E-02
   0.1515787063237348E-02
   0.1622097944997019E-05
   0.7664707438707292E-04
   0.4380841172001926E-02
   0.2696863663586245E-02
   0.2314547257910411E-02
   0.4995417675052928E-02
   0.1138728266950088E-02
   0.2713097139107411E-02
   0.1994174450403620E-02
   0.4320643814261506E-04
   0.8373821580289947E-01
   0.2783377119731425E-02
  -0.8384822568904933E-03
  -0.1612972752466162E-03
   0.1409486526120633E+00
   0.1239156629340886E+00
  -0.1198504006341563E-02
  -0.4382561248317748E-02
  -0.3167944802363740E-03
  -0.6515691731692047E-02
  -0.1956913490479372E-02
   0.1557644259541173E+00
   0.7489217413688616E-01
   0.2549334268207314E-01
   0.1656405146627105E+00