# vtk DataFile Version 2.0
FUN3D:global_image_vtk
ASCII
DATASET UNSTRUCTURED_GRID
POINTS 213 double
    0.0000000000000000E+00    0.2500000000000000E+01    0.0000000000000000E+00
    0.1250000000000000E+01    0.2500000000000000E+01    0.0000000000000000E+00
    0.2500000000000000E+01    0.2500000000000000E+01    0.0000000000000000E+00
    0.3750000000000000E+01    0.2500000000000000E+01    0.0000000000000000E+00
    0.5000000000000000E+01    0.2500000000000000E+01    0.0000000000000000E+00
    0.5000000000000000E+01    0.1250000000000000E+01    0.0000000000000000E+00
    0.5000000000000000E+01    0.0000000000000000E+00    0.0000000000000000E+00
    0.5000000000000000E+01   -0.1250000000000000E+01    0.0000000000000000E+00
    0.5000000000000000E+01   -0.2500000000000000E+01    0.0000000000000000E+00
    0.3750000000000000E+01   -0.2500000000000000E+01    0.0000000000000000E+00
    0.2500000000000000E+01   -0.2500000000000000E+01    0.0000000000000000E+00
    0.1250000000000000E+01   -0.2500000000000000E+01    0.0000000000000000E+00
    0.0000000000000000E+00   -0.2500000000000000E+01    0.0000000000000000E+00
    0.0000000000000000E+00   -0.1250000000000000E+01    0.0000000000000000E+00
    0.0000000000000000E+00    0.0000000000000000E+00    0.0000000000000000E+00
    0.0000000000000000E+00    0.1250000000000000E+01    0.0000000000000000E+00
    0.9058375365086910E+00    0.1578994732800803E+01    0.0000000000000000E+00
    0.3982050490726493E+01   -0.1583989954232354E+01    0.0000000000000000E+00
    0.4033849428301197E+01    0.1453322699199022E+01    0.0000000000000000E+00
    0.1040505887381675E+01   -0.1479596339503735E+01    0.0000000000000000E+00
    0.1099454400140349E+01   -0.3227322616384110E+00    0.0000000000000000E+00
    0.7354504170366591E+00    0.6593508822075582E+00    0.0000000000000000E+00
    0.1622302608453282E+01    0.8256214013940779E+00    0.0000000000000000E+00
    0.2145871574390382E+01   -0.1650070333782557E+01    0.0000000000000000E+00
    0.4086422318222992E+01   -0.4612828702537229E+00    0.0000000000000000E+00
    0.2979540174134984E+01   -0.8579242121530853E+00    0.0000000000000000E+00
    0.3045064261640043E+01   -0.1836846154397680E+01    0.0000000000000000E+00
    0.3428197553792836E+01    0.3508002863614053E+00    0.0000000000000000E+00
    0.4309693860063405E+01    0.5185680230613409E+00    0.0000000000000000E+00
    0.1827272193562204E+01    0.1738996113203182E+01    0.0000000000000000E+00
    0.2808563282768077E+01    0.1325493893339706E+01    0.0000000000000000E+00
    0.1895995683864404E+01   -0.8731419609589618E+00    0.0000000000000000E+00
    0.2273179336307740E+01    0.4906150219227333E-01    0.0000000000000000E+00
    0.5000000000000000E+01    0.2500000000000000E+01    0.1250000000000000E+01
    0.5000000000000000E+01    0.2500000000000000E+01    0.2500000000000000E+01
    0.5000000000000000E+01    0.2500000000000000E+01    0.3750000000000000E+01
    0.5000000000000000E+01    0.2500000000000000E+01    0.5000000000000000E+01
    0.3750000000000000E+01    0.2500000000000000E+01    0.5000000000000000E+01
    0.2500000000000000E+01    0.2500000000000000E+01    0.5000000000000000E+01
    0.1250000000000000E+01    0.2500000000000000E+01    0.5000000000000000E+01
    0.0000000000000000E+00    0.2500000000000000E+01    0.5000000000000000E+01
    0.0000000000000000E+00    0.2500000000000000E+01    0.3750000000000000E+01
    0.0000000000000000E+00    0.2500000000000000E+01    0.2500000000000000E+01
    0.0000000000000000E+00    0.2500000000000000E+01    0.1250000000000000E+01
    0.9631080833812172E+00    0.2500000000000000E+01    0.9613285771248219E+00
    0.3981732467264904E+01    0.2500000000000000E+01    0.4069753913607991E+01
    0.4035525118777670E+01    0.2500000000000000E+01    0.1012015867579395E+01
    0.9641717640894248E+00    0.2500000000000000E+01    0.3972455192261839E+01
    0.1547743040396780E+01    0.2500000000000000E+01    0.2928177746738678E+01
    0.6985170616192014E+00    0.2500000000000000E+01    0.3068281976055466E+01
    0.8931277594515110E+00    0.2500000000000000E+01    0.2052465503257726E+01
    0.2183293750162785E+01    0.2500000000000000E+01    0.3959073795658649E+01
    0.3855333506014705E+01    0.2500000000000000E+01    0.2931218481500625E+01
    0.3152495579421047E+01    0.2500000000000000E+01    0.3635850502723324E+01
    0.3103247580566054E+01    0.2500000000000000E+01    0.4331682712472464E+01
    0.3266837581688852E+01    0.2500000000000000E+01    0.1886092433583972E+01
    0.4231539241296245E+01    0.2500000000000000E+01    0.1915865356532799E+01
    0.1909741006522088E+01    0.2500000000000000E+01    0.7170024419130505E+00
    0.2880784107213163E+01    0.2500000000000000E+01    0.9046598906449592E+00
    0.2014316024535771E+01    0.2500000000000000E+01    0.1762464314805728E+01
    0.2670003247036656E+01    0.2500000000000000E+01    0.2850479545835163E+01
    0.5000000000000000E+01    0.1250000000000000E+01    0.5000000000000000E+01
    0.5000000000000000E+01    0.0000000000000000E+00    0.5000000000000000E+01
    0.5000000000000000E+01   -0.1250000000000000E+01    0.5000000000000000E+01
    0.5000000000000000E+01   -0.2500000000000000E+01    0.5000000000000000E+01
    0.5000000000000000E+01   -0.2500000000000000E+01    0.3750000000000000E+01
    0.5000000000000000E+01   -0.2500000000000000E+01    0.2500000000000000E+01
    0.5000000000000000E+01   -0.2500000000000000E+01    0.1250000000000000E+01
    0.5000000000000000E+01    0.1578994732800803E+01    0.9058375365086910E+00
    0.5000000000000000E+01   -0.1583989954232354E+01    0.3982050490726493E+01
    0.5000000000000000E+01    0.1453322699199022E+01    0.4033849428301197E+01
    0.5000000000000000E+01   -0.1479596339503735E+01    0.1040505887381675E+01
    0.5000000000000000E+01   -0.3227322616384110E+00    0.1099454400140349E+01
    0.5000000000000000E+01    0.6593508822075582E+00    0.7354504170366591E+00
    0.5000000000000000E+01    0.8256214013940779E+00    0.1622302608453282E+01
    0.5000000000000000E+01   -0.1650070333782557E+01    0.2145871574390382E+01
    0.5000000000000000E+01   -0.4612828702537229E+00    0.4086422318222992E+01
    0.5000000000000000E+01   -0.8579242121530853E+00    0.2979540174134984E+01
    0.5000000000000000E+01   -0.1836846154397680E+01    0.3045064261640043E+01
    0.5000000000000000E+01    0.3508002863614053E+00    0.3428197553792836E+01
    0.5000000000000000E+01    0.5185680230613409E+00    0.4309693860063405E+01
    0.5000000000000000E+01    0.1738996113203182E+01    0.1827272193562204E+01
    0.5000000000000000E+01    0.1325493893339706E+01    0.2808563282768077E+01
    0.5000000000000000E+01   -0.8731419609589618E+00    0.1895995683864404E+01
    0.5000000000000000E+01    0.4906150219227333E-01    0.2273179336307740E+01
    0.0000000000000000E+00    0.1250000000000000E+01    0.5000000000000000E+01
    0.0000000000000000E+00    0.0000000000000000E+00    0.5000000000000000E+01
    0.0000000000000000E+00   -0.1250000000000000E+01    0.5000000000000000E+01
    0.0000000000000000E+00   -0.2500000000000000E+01    0.5000000000000000E+01
    0.1250000000000000E+01   -0.2500000000000000E+01    0.5000000000000000E+01
    0.2500000000000000E+01   -0.2500000000000000E+01    0.5000000000000000E+01
    0.3750000000000000E+01   -0.2500000000000000E+01    0.5000000000000000E+01
    0.4042003247744892E+01    0.1558308132739014E+01    0.5000000000000000E+01
    0.9304122287900499E+00   -0.1548001304379777E+01    0.5000000000000000E+01
    0.1037243024609388E+01    0.1462892710085612E+01    0.5000000000000000E+01
    0.3946240828834967E+01   -0.1445243809615570E+01    0.5000000000000000E+01
    0.4092527262848217E+01   -0.3455338993778935E+00    0.5000000000000000E+01
    0.4293103109154542E+01    0.6277660831404320E+00    0.5000000000000000E+01
    0.3241512314643519E+01    0.7429886854239611E+00    0.5000000000000000E+01
    0.2844289952419609E+01   -0.1588117879734118E+01    0.5000000000000000E+01
    0.7159905765450471E+00   -0.6002320124191652E+00    0.5000000000000000E+01
    0.1754341919796891E+01   -0.7398147869923652E+00    0.5000000000000000E+01
    0.1870296826774691E+01   -0.1788622905643739E+01    0.5000000000000000E+01
    0.9220614901912976E+00    0.3083720183248586E+00    0.5000000000000000E+01
    0.3101523624086016E+01    0.1777901774806180E+01    0.5000000000000000E+01
    0.2192512063922564E+01    0.1576861561598471E+01    0.5000000000000000E+01
    0.2024793420196460E+01    0.4773861992750707E+00    0.5000000000000000E+01
    0.2990627757741975E+01   -0.4878110785814084E+00    0.5000000000000000E+01
    0.0000000000000000E+00   -0.2500000000000000E+01    0.1250000000000000E+01
    0.0000000000000000E+00   -0.2500000000000000E+01    0.2500000000000000E+01
    0.0000000000000000E+00   -0.2500000000000000E+01    0.3750000000000000E+01
    0.0000000000000000E+00    0.1558308132739014E+01    0.4042003247744892E+01
    0.0000000000000000E+00   -0.1548001304379777E+01    0.9304122287900499E+00
    0.0000000000000000E+00    0.1462892710085612E+01    0.1037243024609388E+01
    0.0000000000000000E+00   -0.1445243809615570E+01    0.3946240828834967E+01
    0.0000000000000000E+00   -0.3455338993778935E+00    0.4092527262848217E+01
    0.0000000000000000E+00    0.6277660831404320E+00    0.4293103109154542E+01
    0.0000000000000000E+00    0.7429886854239611E+00    0.3241512314643519E+01
    0.0000000000000000E+00   -0.1588117879734118E+01    0.2844289952419609E+01
    0.0000000000000000E+00   -0.6002320124191652E+00    0.7159905765450471E+00
    0.0000000000000000E+00   -0.7398147869923652E+00    0.1754341919796891E+01
    0.0000000000000000E+00   -0.1788622905643739E+01    0.1870296826774691E+01
    0.0000000000000000E+00    0.3083720183248586E+00    0.9220614901912976E+00
    0.0000000000000000E+00    0.1777901774806180E+01    0.3101523624086016E+01
    0.0000000000000000E+00    0.1576861561598471E+01    0.2192512063922564E+01
[...]
POINT_DATA 213
SCALARS rho double 1
LOOKUP_TABLE default
   0.1344271447842176E+01
   0.9569758909574605E+00
   0.9462964194591791E+00
   0.9418612710928700E+00
   0.8437304889397864E+00
   0.7738004315382782E+00
   0.7629818914031899E+00
   0.7664577911351826E+00
   0.8307874039030481E+00
   0.9352972560082637E+00
   0.9342219818030102E+00
   0.9617195282182364E+00
   0.1449457450101882E+01
   0.1494090642846510E+01
   0.1644667274653324E+01
   0.1425832047567003E+01
   0.1009014434604785E+01
   0.9508810859728115E+00
   0.9436508493884317E+00
   0.9581561030445424E+00
   0.9415852458552039E+00
   0.1036377239911957E+01
   0.9256161096429321E+00
   0.9322349868717864E+00
   0.9537479573429459E+00
   0.9518769562083439E+00
   0.9348583124585648E+00
   0.9564028412988027E+00
   0.9376098396267268E+00
   0.9300661520806078E+00
   0.9445157486729227E+00
   0.8863506516095639E+00
   0.9423579964683427E+00
   0.9635003077579433E+00
   0.1008299039511494E+01
   0.1006735291846937E+01
   0.1001964617596506E+01
   0.1003219581509789E+01
   0.1004132053945038E+01
   0.1005228602923922E+01
   0.1004260408243775E+01
   0.1008308189953296E+01
   0.1023893137896523E+01
   0.1063553956028149E+01
   0.1019182513067550E+01
   0.1001780766417949E+01
   0.9643309935894844E+00
   0.1005283708963504E+01
   0.1000721163266977E+01
   0.1008742083777380E+01
   0.1008078083631169E+01
   0.1002349807091904E+01
   0.9979986848153938E+00
   0.1000583560929300E+01
   0.1001620123635560E+01
   0.9826893073032472E+00
   0.9842439641699283E+00
   0.9833314033740130E+00
   0.9788207409776436E+00
   0.9902638160848417E+00
   0.9934561553050226E+00
   0.1002011751653578E+01
   0.1002134465664322E+01
   0.1002276326528967E+01
   0.1001794758364400E+01
   0.1009778638882895E+01
   0.1006429109015735E+01
   0.9558786959487958E+00
   0.9249398407813110E+00
   0.1007036755522564E+01
   0.1004504925172435E+01
   0.9143642074906295E+00
   0.9089667858584022E+00
   0.8751688899078902E+00
   0.9767271884594527E+00
   0.1000452621131775E+01
   0.1005831087464624E+01
   0.1012882803257752E+01
   0.1011618951288304E+01
   0.1010438648617206E+01
   0.1005468280909941E+01
   0.9907612679331382E+00
   0.1005140325702072E+01
   0.9860567246009753E+00
   0.1005609737650794E+01
   0.1004248005706587E+01
   0.1002888437693827E+01
   0.1003345420449026E+01
   0.1003992731872844E+01
   0.1005101716165401E+01
   0.1003211645156358E+01
   0.1002663159976497E+01
   0.1002586231428751E+01
   0.1004060870941268E+01
   0.1004320346033590E+01
   0.1001641920399043E+01
   0.1002273115997268E+01
   0.1002543475601803E+01
   0.1003469520823397E+01
   0.1003372640275300E+01
   0.1003232230042407E+01
   0.1004423863457268E+01
   0.1004313070847472E+01
   0.1003659849400573E+01
   0.1003723103938982E+01
   0.1004329726431924E+01
   0.1004465021876607E+01
   0.1003623375341725E+01
   0.1064422800994705E+01
   0.1028473621364677E+01
   0.1009586657313705E+01
   0.1006638837466703E+01
   0.1163935522148501E+01
   0.1086087969810492E+01
   0.1007893419263340E+01
   0.1007245533302282E+01
   0.1006798074139769E+01
   0.1013018286916810E+01
   0.1019384609485049E+01
   0.1235203669456141E+01
   0.1032529466723302E+01
   0.1046681191532613E+01
   0.1200953642131951E+01
   0.1014718916007060E+01
   0.1032291153182878E+01
   0.1028095236641953E+01
   0.1014628639787014E+01
   0.1029216893074377E+01
   0.1001994816375974E+01
   0.9606929194970025E+00
   0.1006852582793838E+01
   0.1001327193319198E+01
   0.1010821905360307E+01
   0.1012246098864188E+01
   0.1000946006923820E+01
   0.9979121233950300E+00
   0.9980632372750542E+00
   0.1001184143376091E+01
   0.9841362011386037E+00
   0.9814879614960620E+00
   0.9648483320086797E+00
   0.9680877127363348E+00
   0.9914124471611007E+00
   0.9910858388502469E+00
   0.9925545095891074E+00
   0.1001727533865527E+01
   0.9993409402086072E+00
   0.9941410835122788E+00
   0.1007038753604658E+01
   0.1022539494104249E+01
   0.1001088098464642E+01
   0.1008798496244428E+01
   0.1004773846077113E+01
   0.1009050237428015E+01
   0.9966470332127341E+00
   0.1004988557661472E+01
   0.1003325535171499E+01
   0.9949431085334146E+00
   0.9832680781676236E+00
   0.9943957454944112E+00
   0.9973420656212648E+00
   0.9932190085627667E+00
   0.1001306487131584E+01
   0.1003001636940907E+01
   0.1002183579626727E+01
   0.9947078545104973E+00
   0.9937965521359912E+00
   0.1004867865511240E+01
   0.1020077607418591E+01
   0.1005364552389766E+01
   0.9816998152384256E+00
   0.1004973031230044E+01
   0.1012382323391093E+01
   0.9871424293448307E+00
   0.9551513532824195E+00
   0.9865075699921912E+00
   0.9864532949655708E+00
   0.9918946941474874E+00
   0.9933508197845442E+00
   0.9954406187016668E+00
   0.1037336789675180E+01
   0.1033536797818772E+01
   0.1001443320793894E+01
   0.1001930499757236E+01
   0.9912478515954334E+00
   0.9910920509251131E+00
   0.9648489989726430E+00
   0.9933282604701096E+00
   0.1006058638635188E+01
   0.1001954027108592E+01
   0.9908735804536432E+00
   0.9740945212471301E+00
   0.9418802138202245E+00
   0.9819379690326960E+00
   0.9794803560379434E+00
   0.9704172059747812E+00
   0.9720478945592992E+00
   0.9557351701782618E+00
   0.9496731211728228E+00
   0.9528673569315759E+00
   0.1002659534016537E+01
   0.1002471631927298E+01
   0.1000509329272316E+01
   0.1001677321736429E+01
   0.9607931431274909E+00
   0.9491625503167037E+00
   0.9584503066359966E+00
   0.1001121207745682E+01
   0.1000496140561968E+01
   0.1001156644168208E+01
   0.9807376183383663E+00
   0.9806000807562162E+00
   0.9628476106411885E+00
SCALARS u double 1
LOOKUP_TABLE default
   0.0000000000000000E+00
   0.0000000000000000E+00
   0.0000000000000000E+00
   0.0000000000000000E+00
   0.0000000000000000E+00
   0.0000000000000000E+00
   0.0000000000000000E+00
   0.0000000000000000E+00
   0.0000000000000000E+00
   0.0000000000000000E+00
   0.0000000000000000E+00
   0.0000000000000000E+00
   0.0000000000000000E+00
   0.0000000000000000E+00
   0.0000000000000000E+00
   0.0000000000000000E+00
   0.0000000000000000E+00
   0.0000000000000000E+00
   0.0000000000000000E+00
   0.0000000000000000E+00
   0.0000000000000000E+00
   0.0000000000000000E+00
   0.0000000000000000E+00
   0.0000000000000000E+00
   0.0000000000000000E+00
   0.0000000000000000E+00
   0.0000000000000000E+00
   0.0000000000000000E+00
   0.0000000000000000E+00
   0.0000000000000000E+00
   0.0000000000000000E+00
   0.0000000000000000E+00
   0.0000000000000000E+00
   0.4950176837655187E+00
   0.5338221300003774E+00
   0.5183269247197375E+00
   0.4930649880196383E+00
   0.4847578719821036E+00
   0.4867666424302672E+00
   0.4890763583900570E+00
   0.4957848880684368E+00
   0.4898301884327314E+00
   0.4717388494461844E+00
   0.4454814154503181E+00
   0.4833907047751657E+00
   0.5098397462681069E+00
   0.4390712701649583E+00
   0.4949403965163576E+00
   0.5225330362658269E+00
   0.4962454546147538E+00
   0.5226154963868800E+00
   0.5038881743396716E+00
   0.5646883608791052E+00
   0.5247509156910471E+00
   0.4991466119851874E+00
   0.5730561901100436E+00
   0.5696051096734188E+00
   0.3737941449053067E+00
   0.3998658124538047E+00
   0.5599326586894136E+00
   0.5564587630539808E+00
   0.4942627332937751E+00
   0.4948659466097309E+00
   0.4925735874206722E+00
   0.4914269544081447E+00
   0.5162356851070520E+00
   0.5361798305523425E+00
   0.4947413357498751E+00
   0.4524112206349237E+00
   0.5128777325815898E+00
   0.5117942040666607E+00
   0.4783517506075028E+00
   0.4931696657725566E+00
   0.4603173595680891E+00
   0.5244892720923420E+00
   0.5297434247926199E+00
   0.5129579300963771E+00
   0.5328358319587075E+00
   0.5308941037263785E+00
   0.5309856170299758E+00
   0.5063656735500085E+00
   0.5282461955087649E+00
   0.5410312730195433E+00
   0.5361261481320282E+00
   0.5374105276365638E+00
   0.4965364818901667E+00
   0.4975340904166839E+00
   0.4963842644685563E+00
   0.4955220267740264E+00
   0.4904581831322939E+00
   0.4903044385399842E+00
   0.4862182764447820E+00
   0.4854049561435521E+00
   0.4932164388239411E+00
   0.4909833312610031E+00
   0.4832194696689676E+00
   0.4872622777295624E+00
   0.4880124909727330E+00
   0.4872445931718885E+00
   0.4882696669608274E+00
   0.4952597556757282E+00
   0.4900967168042291E+00
   0.4904000090873967E+00
   0.4944232925803697E+00
   0.4868002481148471E+00
   0.4892385984161032E+00
   0.4881393369907461E+00
   0.4878457829014257E+00
   0.4446866580064091E+00
   0.4700028780569354E+00
   0.4891999056735247E+00
   0.4885247843973116E+00
   0.4506533044576693E+00
   0.4687378566002175E+00
   0.4877010457050549E+00
   0.4868353683626164E+00
   0.4908994716282973E+00
   0.4793551577170480E+00
   0.4658071747344244E+00
   0.3792725228611064E+00
   0.4901596530283183E+00
   0.4486686690757546E+00
   0.4436137391451710E+00
   0.4845147241589291E+00
   0.4621822645993257E+00
   0.4665749535042580E+00
   0.4748140299783792E+00
   0.4894494215528322E+00
   0.5085556973412318E+00
   0.4315073870457254E+00
   0.4927349361271442E+00
   0.5318289234071722E+00
   0.4913399196209121E+00
   0.5207019993317101E+00
   0.5060964599526697E+00
   0.5688797395302513E+00
   0.5273992817869760E+00
   0.5015044841466142E+00
   0.5821790086221029E+00
   0.5689618251732528E+00
   0.3406394442143726E+00
   0.3789869410738639E+00
   0.5751958206786308E+00
   0.5666485493246558E+00
   0.5704108783027212E+00
   0.5291056376183725E+00
   0.5451902710990696E+00
   0.5718804315060126E+00
   0.5389079125899857E+00
   0.5475507504873602E+00
   0.5821713868727223E+00
   0.4925601784560320E+00
   0.5042157546391957E+00
   0.4961735436284456E+00
   0.5565207962684550E+00
   0.4758845211339309E+00
   0.4950268383641635E+00
   0.5498525443339808E+00
   0.5891202296267934E+00
   0.5841957609084366E+00
   0.5469097664539143E+00
   0.5805417617726484E+00
   0.5106251438515284E+00
   0.5030200513176583E+00
   0.5033624680064143E+00
   0.5676446096454573E+00
   0.5563943082756712E+00
   0.4947255973463472E+00
   0.5505243828560181E+00
   0.5510857281326982E+00
   0.5657350949627103E+00
   0.4920070017820078E+00
   0.4927299096697205E+00
   0.3865140568305730E+00
   0.3687754532418213E+00
   0.5574921717007539E+00
   0.5763755545239126E+00
   0.4194304389824391E+00
   0.5824843240221977E+00
   0.4265209610599497E+00
   0.5392799843683487E+00
   0.5012032759532856E+00
   0.5119513208545553E+00
   0.5049119463759634E+00
   0.5751974973816922E+00
   0.5876371360319723E+00
   0.5379907804821730E+00
   0.5677472540216256E+00
   0.5351248666667032E+00
   0.5338056379738234E+00
   0.5580313798337913E+00
   0.5512707860774869E+00
   0.4261852753066959E+00
   0.5273356176967537E+00
   0.5795712529180113E+00
   0.3318687131920652E+00
   0.4760283322903743E+00
   0.5446196253146680E+00
   0.4798331897587912E+00
   0.3005293505719986E+00
   0.5031051138223367E+00
   0.5017115977768090E+00
   0.5129033211094957E+00
   0.5414840108493338E+00
   0.3437603852938173E+00
   0.3397710713964193E+00
   0.3189928567660600E+00
   0.5065936051998888E+00
   0.5123483779878129E+00
   0.5330313519349519E+00
   0.5879310000299929E+00
   0.4644180532914313E+00
   0.3531270507280788E+00
SCALARS v double 1
LOOKUP_TABLE default
   0.0000000000000000E+00
   0.0000000000000000E+00
   0.0000000000000000E+00
   0.0000000000000000E+00
   0.0000000000000000E+00
   0.0000000000000000E+00
   0.0000000000000000E+00
   0.0000000000000000E+00
   0.0000000000000000E+00
   0.0000000000000000E+00
   0.0000000000000000E+00
   0.0000000000000000E+00
   0.0000000000000000E+00
   0.0000000000000000E+00
   0.0000000000000000E+00
   0.0000000000000000E+00
   0.0000000000000000E+00
   0.0000000000000000E+00
   0.0000000000000000E+00
   0.0000000000000000E+00
   0.0000000000000000E+00
   0.0000000000000000E+00
   0.0000000000000000E+00
   0.0000000000000000E+00
   0.0000000000000000E+00
   0.0000000000000000E+00
   0.0000000000000000E+00
   0.0000000000000000E+00
   0.0000000000000000E+00
   0.0000000000000000E+00
   0.0000000000000000E+00
   0.0000000000000000E+00
   0.0000000000000000E+00
   0.0000000000000000E+00
   0.0000000000000000E+00
   0.0000000000000000E+00
   0.0000000000000000E+00
   0.0000000000000000E+00
   0.0000000000000000E+00
   0.0000000000000000E+00
   0.0000000000000000E+00
   0.0000000000000000E+00
   0.0000000000000000E+00
   0.0000000000000000E+00
   0.0000000000000000E+00
   0.0000000000000000E+00
   0.0000000000000000E+00
   0.0000000000000000E+00
   0.0000000000000000E+00
   0.0000000000000000E+00
   0.0000000000000000E+00
   0.0000000000000000E+00
   0.0000000000000000E+00
   0.0000000000000000E+00
   0.0000000000000000E+00
   0.0000000000000000E+00
   0.0000000000000000E+00
   0.0000000000000000E+00
   0.0000000000000000E+00
   0.0000000000000000E+00
   0.0000000000000000E+00
   0.7970254525485786E-03
  -0.1329294688516206E-02
  -0.1332592752140761E-02
   0.0000000000000000E+00
   0.0000000000000000E+00
   0.0000000000000000E+00
   0.0000000000000000E+00
  -0.1922562559634968E-01
   0.4770618230257366E-03
   0.2183360178844793E-02
   0.1427333020390454E-01
  -0.6488282056553032E-02
  -0.7821622964652575E-02
  -0.1327725055767348E-01
   0.4914481808670047E-02
   0.6907122106279102E-03
   0.3434418454476653E-02
   0.1920847397365941E-02
   0.3147960246094821E-02
   0.1704778381142112E-02
  -0.7316187329020184E-02
  -0.7701901470507994E-04
   0.4468738064029550E-02
  -0.4387156243724131E-03
  -0.6383742513175581E-04
  -0.1963394582715233E-03
   0.8071267998474578E-03
   0.0000000000000000E+00
   0.0000000000000000E+00
   0.0000000000000000E+00
   0.0000000000000000E+00
   0.4257020209877016E-03
   0.1616304635084087E-02
  -0.1297550944212179E-02
  -0.1022774978371622E-02
  -0.2134342409699778E-02
  -0.1064012661423637E-02
  -0.8200064287460896E-03
  -0.7617033204993342E-03
   0.5202258994538083E-04
  -0.6244091924119689E-03
   0.7916469211676458E-03
  -0.1745238507708912E-02
   0.2747128646268522E-03
  -0.8939747315174979E-04
  -0.9424310109935065E-03
  -0.1100227541289056E-02
   0.0000000000000000E+00
   0.0000000000000000E+00
   0.0000000000000000E+00
  -0.1061759101212311E-02
  -0.7641128898024463E-02
   0.1860854757162868E-01
  -0.2834554048332321E-04
  -0.1383129147754697E-02
  -0.2035122965647219E-02
  -0.5666383182273312E-02
  -0.1585210195364179E-02
  -0.5947016450953667E-02
  -0.4160601892587343E-02
   0.1565614826605521E-02
   0.3329524829832808E-01
   0.3055141034181658E-04
  -0.2766884878049678E-02
   0.3566484709505712E-02
   0.3596189423869226E-03
   0.0000000000000000E+00
   0.0000000000000000E+00
   0.0000000000000000E+00
   0.0000000000000000E+00
   0.0000000000000000E+00
   0.0000000000000000E+00
   0.0000000000000000E+00
   0.0000000000000000E+00
   0.0000000000000000E+00
   0.0000000000000000E+00
   0.0000000000000000E+00
   0.0000000000000000E+00
   0.0000000000000000E+00
   0.0000000000000000E+00
   0.0000000000000000E+00
   0.0000000000000000E+00
   0.0000000000000000E+00
   0.5047032585990551E-02
   0.3230791960582029E-02
   0.8149134291583532E-02
   0.6168367002630511E-02
   0.1122928640496339E-01
   0.1429277502155074E-01
  -0.2038826634382247E-03
   0.5118221835008856E-02
   0.2914950547554463E-02
   0.3373611834299915E-02
   0.3728336438480680E-02
  -0.1465719867559194E-01
  -0.6159699862323608E-03
   0.6651630356301120E-02
   0.1542014258083592E-02
   0.1969646529841917E-02
   0.4266273548691384E-02
  -0.2790960951073303E-02
   0.1226887080387447E-02
   0.2819172493398847E-02
   0.1497449165016687E-02
   0.2575339060846920E-02
   0.2030646461753440E-02
   0.2118046072657119E-02
   0.8700410481657914E-02
  -0.3733396981045547E-02
   0.6241189118667261E-02
   0.2516489125325836E-04
  -0.3854044856178423E-03
  -0.1674679012058816E-01
  -0.4881976911196234E-02
  -0.4720000810898377E-02
   0.3445223062388624E-02
  -0.6135724099213227E-02
   0.9934521566885008E-04
  -0.3291372925841582E-01
  -0.3046196736340359E-02
   0.4722743217047601E-02
   0.9228368080166987E-03
   0.2112175235812418E-02
   0.4518755709302058E-02
   0.2720465294102399E-02
   0.3212576512621849E-02
   0.5200804232023933E-02
   0.1941838974038595E-02
   0.7315897625752247E-03
  -0.2555237451438347E-04
  -0.5374632796216606E-02
  -0.6959591012655313E-02
  -0.9443816316306782E-03
   0.1105268435946743E-02
  -0.2080554129461380E-02
  -0.3200035932591876E-02
  -0.2527833368586887E-02
  -0.4115193572107725E-02
  -0.7593954931129613E-02
  -0.1985686400801562E-02
   0.6240402919335644E-03
  -0.2239081617706742E-03
   0.1216949791476395E-02
  -0.3483958300305716E-02
   0.5229139939240331E-02
  -0.8487626036627739E-02
   0.2315170993330417E-04
  -0.3395192802788701E-03
   0.2542663555978184E-02
   0.1663457701501260E-02
   0.2021438727547566E-02
  -0.5620783983559099E-02
SCALARS w double 1
LOOKUP_TABLE default
   0.0000000000000000E+00
   0.0000000000000000E+00
   0.0000000000000000E+00
   0.0000000000000000E+00
   0.0000000000000000E+00
   0.0000000000000000E+00
   0.0000000000000000E+00
   0.0000000000000000E+00
   0.0000000000000000E+00
   0.0000000000000000E+00
   0.0000000000000000E+00
   0.0000000000000000E+00
   0.0000000000000000E+00
   0.0000000000000000E+00
   0.0000000000000000E+00
   0.0000000000000000E+00
   0.0000000000000000E+00
   0.0000000000000000E+00
   0.0000000000000000E+00
   0.0000000000000000E+00
   0.0000000000000000E+00
   0.0000000000000000E+00
   0.0000000000000000E+00
   0.0000000000000000E+00
   0.0000000000000000E+00
   0.0000000000000000E+00
   0.0000000000000000E+00
   0.0000000000000000E+00
   0.0000000000000000E+00
   0.0000000000000000E+00
   0.0000000000000000E+00
   0.0000000000000000E+00
   0.0000000000000000E+00
  -0.1007612289658015E+00
  -0.4249297132166829E-01
   0.7371986659346854E-03
   0.5725799941403977E-02
   0.5699057786596551E-03
   0.1609783151243850E-02
   0.3375073057626061E-02
   0.2371773659979022E-02
   0.4590624777489366E-03
   0.3518225895599126E-02
   0.4521817576364268E-01
   0.6522937809252173E-01
   0.8689297468981285E-03
  -0.2261151828555883E-01
   0.4316553551314852E-02
   0.1358734838942123E-01
   0.1039452553173889E-01
   0.4900548410384446E-01
   0.2437443553706335E-02
  -0.6509941044668346E-02
  -0.7012226951314382E-03
   0.3411016863678174E-03
   0.3904107392812364E-02
  -0.3893254305047281E-01
   0.1798168100242898E-01
   0.1119638182395242E-01
   0.3403773255694113E-01
   0.8438810257315054E-02
   0.4937312277412529E-02
   0.4970345582598032E-02
   0.4871517413901003E-02
   0.6027191712149911E-02
   0.2599191805021195E-02
  -0.4144429588367760E-01
  -0.9954261857701810E-01
  -0.1121678219399208E+00
   0.5070875065340243E-02
   0.4230770746559453E-02
  -0.1004732303921740E+00
  -0.9895252502887623E-01
  -0.9875450948188037E-01
  -0.9462509613280956E-01
  -0.6807133819253364E-01
   0.5154922221020621E-02
  -0.1935330743500496E-01
  -0.1575800287082244E-01
  -0.6002862347864913E-02
   0.6819057419865373E-02
  -0.8010050810456723E-01
  -0.2781092455096924E-01
  -0.8096457350502362E-01
  -0.5873277556637257E-01
   0.3083625701684126E-02
   0.2685146481248867E-02
   0.2640431193228398E-02
   0.3450191936209164E-02
   0.4007083820196274E-02
   0.1201214357682921E-02
  -0.1438846119527126E-03
   0.2039877300554477E-02
   0.4895693649688267E-02
   0.3857385630255209E-02
   0.1114201951159608E-02
   0.1182682048409492E-02
   0.1465296256411737E-02
  -0.1653635493406919E-04
   0.8996628371720811E-04
   0.4386667901646087E-02
   0.2715724280071124E-02
   0.2322755338008394E-02
   0.5010601077090899E-02
   0.1071689379352145E-02
   0.2712217764029275E-02
   0.2013964129771594E-02
   0.2879089230991961E-04
   0.8374614343264006E-01
   0.2793870731057228E-02
  -0.8346628057077258E-03
  -0.1492945403814834E-03
   0.1409540846010915E+00
   0.1239332956853066E+00
  -0.1219093291254174E-02
  -0.4381936072391797E-02
  -0.3043057748838650E-03
  -0.6512246796488479E-02
  -0.1949570303195453E-02
   0.1557630974007853E+00
   0.7489979199721269E-01
   0.2550174915692169E-01
   0.1656445121044429E+00