# vtk DataFile Version 2.0
FUN3D:global_image_vtk
ASCII
DATASET UNSTRUCTURED_GRID
POINTS 213 double
    0.0000000000000000E+00    0.2500000000000000E+01    0.0000000000000000E+00
    0.1250000000000000E+01    0.2500000000000000E+01    0.0000000000000000E+00
    0.2500000000000000E+01    0.2500000000000000E+01    0.0000000000000000E+00
    0.3750000000000000E+01    0.2500000000000000E+01    0.0000000000000000E+00
    0.5000000000000000E+01    0.2500000000000000E+01    0.0000000000000000E+00
    0.5000000000000000E+01    0.1250000000000000E+01    0.0000000000000000E+00
    0.5000000000000000E+01    0.0000000000000000E+00    0.0000000000000000E+00
    0.5000000000000000E+01   -0.1250000000000000E+01    0.0000000000000000E+00
    0.5000000000000000E+01   -0.2500000000000000E+01    0.0000000000000000E+00
    0.3750000000000000E+01   -0.2500000000000000E+01    0.0000000000000000E+00
    0.2500000000000000E+01   -0.2500000000000000E+01    0.0000000000000000E+00
    0.1250000000000000E+01   -0.2500000000000000E+01    0.0000000000000000E+00
    0.0000000000000000E+00   -0.2500000000000000E+01    0.0000000000000000E+00
    0.0000000000000000E+00   -0.1250000000000000E+01    0.0000000000000000E+00
    0.0000000000000000E+00    0.0000000000000000E+00    0.0000000000000000E+00
    0.0000000000000000E+00    0.1250000000000000E+01    0.0000000000000000E+00
    0.9058375365086910E+00    0.1578994732800803E+01    0.0000000000000000E+00
    0.3982050490726493E+01   -0.1583989954232354E+01    0.0000000000000000E+00
    0.4033849428301197E+01    0.1453322699199022E+01    0.0000000000000000E+00
    0.1040505887381675E+01   -0.1479596339503735E+01    0.0000000000000000E+00
    0.1099454400140349E+01   -0.3227322616384110E+00    0.0000000000000000E+00
    0.7354504170366591E+00    0.6593508822075582E+00    0.0000000000000000E+00
    0.1622302608453282E+01    0.8256214013940779E+00    0.0000000000000000E+00
    0.2145871574390382E+01   -0.1650070333782557E+01    0.0000000000000000E+00
    0.4086422318222992E+01   -0.4612828702537229E+00    0.0000000000000000E+00
    0.2979540174134984E+01   -0.8579242121530853E+00    0.0000000000000000E+00
    0.3045064261640043E+01   -0.1836846154397680E+01    0.0000000000000000E+00
    0.3428197553792836E+01    0.3508002863614053E+00    0.0000000000000000E+00
    0.4309693860063405E+01    0.5185680230613409E+00    0.0000000000000000E+00
    0.1827272193562204E+01    0.1738996113203182E+01    0.0000000000000000E+00
    0.2808563282768077E+01    0.1325493893339706E+01    0.0000000000000000E+00
    0.1895995683864404E+01   -0.8731419609589618E+00    0.0000000000000000E+00
    0.2273179336307740E+01    0.4906150219227333E-01    0.0000000000000000E+00
    0.5000000000000000E+01    0.2500000000000000E+01    0.1250000000000000E+01
    0.5000000000000000E+01    0.2500000000000000E+01    0.2500000000000000E+01
    0.5000000000000000E+01    0.2500000000000000E+01    0.3750000000000000E+01
    0.5000000000000000E+01    0.2500000000000000E+01    0.5000000000000000E+01
    0.3750000000000000E+01    0.2500000000000000E+01    0.5000000000000000E+01
    0.2500000000000000E+01    0.2500000000000000E+01    0.5000000000000000E+01
    0.1250000000000000E+01    0.2500000000000000E+01    0.5000000000000000E+01
    0.0000000000000000E+00    0.2500000000000000E+01    0.5000000000000000E+01
    0.0000000000000000E+00    0.2500000000000000E+01    0.3750000000000000E+01
    0.0000000000000000E+00    0.2500000000000000E+01    0.2500000000000000E+01
    0.0000000000000000E+00    0.2500000000000000E+01    0.1250000000000000E+01
    0.9631080833812172E+00    0.2500000000000000E+01    0.9613285771248219E+00
    0.3981732467264904E+01    0.2500000000000000E+01    0.4069753913607991E+01
    0.4035525118777670E+01    0.2500000000000000E+01    0.1012015867579395E+01
    0.9641717640894248E+00    0.2500000000000000E+01    0.3972455192261839E+01
    0.1547743040396780E+01    0.2500000000000000E+01    0.2928177746738678E+01
    0.6985170616192014E+00    0.2500000000000000E+01    0.3068281976055466E+01
    0.8931277594515110E+00    0.2500000000000000E+01    0.2052465503257726E+01
    0.2183293750162785E+01    0.2500000000000000E+01    0.3959073795658649E+01
    0.3855333506014705E+01    0.2500000000000000E+01    0.2931218481500625E+01
    0.3152495579421047E+01    0.2500000000000000E+01    0.3635850502723324E+01
    0.3103247580566054E+01    0.2500000000000000E+01    0.4331682712472464E+01
    0.3266837581688852E+01    0.2500000000000000E+01    0.1886092433583972E+01
    0.4231539241296245E+01    0.2500000000000000E+01    0.1915865356532799E+01
    0.1909741006522088E+01    0.2500000000000000E+01    0.7170024419130505E+00
    0.2880784107213163E+01    0.2500000000000000E+01    0.9046598906449592E+00
    0.2014316024535771E+01    0.2500000000000000E+01    0.1762464314805728E+01
    0.2670003247036656E+01    0.2500000000000000E+01    0.2850479545835163E+01
    0.5000000000000000E+01    0.1250000000000000E+01    0.5000000000000000E+01
    0.5000000000000000E+01    0.0000000000000000E+00    0.5000000000000000E+01
    0.5000000000000000E+01   -0.1250000000000000E+01    0.5000000000000000E+01
    0.5000000000000000E+01   -0.2500000000000000E+01    0.5000000000000000E+01
    0.5000000000000000E+01   -0.2500000000000000E+01    0.3750000000000000E+01
    0.5000000000000000E+01   -0.2500000000000000E+01    0.2500000000000000E+01
    0.5000000000000000E+01   -0.2500000000000000E+01    0.1250000000000000E+01
    0.5000000000000000E+01    0.1578994732800803E+01    0.9058375365086910E+00
    0.5000000000000000E+01   -0.1583989954232354E+01    0.3982050490726493E+01
    0.5000000000000000E+01    0.1453322699199022E+01    0.4033849428301197E+01
    0.5000000000000000E+01   -0.1479596339503735E+01    0.1040505887381675E+01
    0.5000000000000000E+01   -0.3227322616384110E+00    0.1099454400140349E+01
    0.5000000000000000E+01    0.6593508822075582E+00    0.7354504170366591E+00
    0.5000000000000000E+01    0.8256214013940779E+00    0.1622302608453282E+01
    0.5000000000000000E+01   -0.1650070333782557E+01    0.2145871574390382E+01
    0.5000000000000000E+01   -0.4612828702537229E+00    0.4086422318222992E+01
    0.5000000000000000E+01   -0.8579242121530853E+00    0.2979540174134984E+01
    0.5000000000000000E+01   -0.1836846154397680E+01    0.3045064261640043E+01
    0.5000000000000000E+01    0.3508002863614053E+00    0.3428197553792836E+01
    0.5000000000000000E+01    0.5185680230613409E+00    0.4309693860063405E+01
    0.5000000000000000E+01    0.1738996113203182E+01    0.1827272193562204E+01
    0.5000000000000000E+01    0.1325493893339706E+01    0.2808563282768077E+01
    0.5000000000000000E+01   -0.8731419609589618E+00    0.1895995683864404E+01
    0.5000000000000000E+01    0.4906150219227333E-01    0.2273179336307740E+01
    0.0000000000000000E+00    0.1250000000000000E+01    0.5000000000000000E+01
    0.0000000000000000E+00    0.0000000000000000E+00    0.5000000000000000E+01
    0.0000000000000000E+00   -0.1250000000000000E+01    0.5000000000000000E+01
    0.0000000000000000E+00   -0.2500000000000000E+01    0.5000000000000000E+01
    0.1250000000000000E+01   -0.2500000000000000E+01    0.5000000000000000E+01
    0.2500000000000000E+01   -0.2500000000000000E+01    0.5000000000000000E+01
    0.3750000000000000E+01   -0.2500000000000000E+01    0.5000000000000000E+01
    0.4042003247744892E+01    0.1558308132739014E+01    0.5000000000000000E+01
    0.9304122287900499E+00   -0.1548001304379777E+01    0.5000000000000000E+01
    0.1037243024609388E+01    0.1462892710085612E+01    0.5000000000000000E+01
    0.3946240828834967E+01   -0.1445243809615570E+01    0.5000000000000000E+01
    0.4092527262848217E+01   -0.3455338993778935E+00    0.5000000000000000E+01
    0.4293103109154542E+01    0.6277660831404320E+00    0.5000000000000000E+01
    0.3241512314643519E+01    0.7429886854239611E+00    0.5000000000000000E+01
    0.2844289952419609E+01   -0.1588117879734118E+01    0.5000000000000000E+01
    0.7159905765450471E+00   -0.6002320124191652E+00    0.5000000000000000E+01
    0.1754341919796891E+01   -0.7398147869923652E+00    0.5000000000000000E+01
    0.1870296826774691E+01   -0.1788622905643739E+01    0.5000000000000000E+01
    0.9220614901912976E+00    0.3083720183248586E+00    0.5000000000000000E+01
    0.3101523624086016E+01    0.1777901774806180E+01    0.5000000000000000E+01
    0.2192512063922564E+01    0.1576861561598471E+01    0.5000000000000000E+01
    0.2024793420196460E+01    0.4773861992750707E+00    0.5000000000000000E+01
    0.2990627757741975E+01   -0.4878110785814084E+00    0.5000000000000000E+01
    0.0000000000000000E+00   -0.2500000000000000E+01    0.1250000000000000E+01
    0.0000000000000000E+00   -0.2500000000000000E+01    0.2500000000000000E+01
    0.0000000000000000E+00   -0.2500000000000000E+01    0.3750000000000000E+01
    0.0000000000000000E+00    0.1558308132739014E+01    0.4042003247744892E+01
    0.0000000000000000E+00   -0.1548001304379777E+01    0.9304122287900499E+00
    0.0000000000000000E+00    0.1462892710085612E+01    0.1037243024609388E+01
    0.0000000000000000E+00   -0.1445243809615570E+01    0.3946240828834967E+01
    0.0000000000000000E+00   -0.3455338993778935E+00    0.4092527262848217E+01
    0.0000000000000000E+00    0.6277660831404320E+00    0.4293103109154542E+01
    0.0000000000000000E+00    0.7429886854239611E+00    0.3241512314643519E+01
    0.0000000000000000E+00   -0.1588117879734118E+01    0.2844289952419609E+01
    0.0000000000000000E+00   -0.6002320124191652E+00    0.7159905765450471E+00
    0.0000000000000000E+00   -0.7398147869923652E+00    0.1754341919796891E+01
    0.0000000000000000E+00   -0.1788622905643739E+01    0.1870296826774691E+01
    0.0000000000000000E+00    0.3083720183248586E+00    0.9220614901912976E+00
    0.0000000000000000E+00    0.1777901774806180E+01    0.3101523624086016E+01
    0.0000000000000000E+00    0.1576861561598471E+01    0.2192512063922564E+01
[...]
POINT_DATA 213
SCALARS rho double 1
LOOKUP_TABLE default
   0.1344271447845173E+01
   0.9569758909622627E+00
   0.9462964194728746E+00
   0.9418612711438493E+00
   0.8437304890304879E+00
   0.7738004315487352E+00
   0.7629818914092477E+00
   0.7664577911372220E+00
   0.8307874039049535E+00
   0.9352972560146959E+00
   0.9342219818088874E+00
   0.9617195282265143E+00
   0.1449457450112321E+01
   0.1494090642850548E+01
   0.1644667274659801E+01
   0.1425832047568517E+01
   0.1009014434610073E+01
   0.9508810859762742E+00
   0.9436508494314644E+00
   0.9581561030536190E+00
   0.9415852458601960E+00
   0.1036377239915835E+01
   0.9256161096515193E+00
   0.9322349868776236E+00
   0.9537479573459813E+00
   0.9518769562150593E+00
   0.9348583124644754E+00
   0.9564028413114656E+00
   0.9376098396225362E+00
   0.9300661520896949E+00
   0.9445157486948454E+00
   0.8863506516155363E+00
   0.9423579964750433E+00
   0.9635003080810044E+00
   0.1008299039486343E+01
   0.1006735291832042E+01
   0.1001964617644007E+01
   0.1003219581536001E+01
   0.1004132053959682E+01
   0.1005228602922443E+01
   0.1004260408240626E+01
   0.1008308189958434E+01
   0.1023893137900328E+01
   0.1063553956032208E+01
   0.1019182513072673E+01
   0.1001780766409784E+01
   0.9643309940504062E+00
   0.1005283708968005E+01
   0.1000721163275739E+01
   0.1008742083782486E+01
   0.1008078083637077E+01
   0.1002349807098780E+01
   0.9979986848122160E+00
   0.1000583560937349E+01
   0.1001620123641384E+01
   0.9826893072841580E+00
   0.9842439642088671E+00
   0.9833314033687035E+00
   0.9788207410269752E+00
   0.9902638160821789E+00
   0.9934561553149011E+00
   0.1002011751724513E+01
   0.1002134465718731E+01
   0.1002276326534885E+01
   0.1001794758371134E+01
   0.1009778638902666E+01
   0.1006429109019687E+01
   0.9558786959780680E+00
   0.9249398408729502E+00
   0.1007036755534705E+01
   0.1004504925170406E+01
   0.9143642074832916E+00
   0.9089667858657818E+00
   0.8751688898641018E+00
   0.9767271884299930E+00
   0.1000452621129665E+01
   0.1005831087465575E+01
   0.1012882803250912E+01
   0.1011618951288973E+01
   0.1010438648611238E+01
   0.1005468280908038E+01
   0.9907612678764072E+00
   0.1005140325701485E+01
   0.9860567245983107E+00
   0.1005609737662983E+01
   0.1004248005705352E+01
   0.1002888437692405E+01
   0.1003345420450535E+01
   0.1003992731874802E+01
   0.1005101716166797E+01
   0.1003211645159214E+01
   0.1002663159968186E+01
   0.1002586231479659E+01
   0.1004060870945898E+01
   0.1004320346034578E+01
   0.1001641920388600E+01
   0.1002273116025248E+01
   0.1002543475667863E+01
   0.1003469520839311E+01
   0.1003372640273741E+01
   0.1003232230046421E+01
   0.1004423863459009E+01
   0.1004313070845491E+01
   0.1003659849405506E+01
   0.1003723103940939E+01
   0.1004329726439813E+01
   0.1004465021882539E+01
   0.1003623375330823E+01
   0.1064422801013458E+01
   0.1028473621364787E+01
   0.1009586657317552E+01
   0.1006638837469364E+01
   0.1163935522141847E+01
   0.1086087969804528E+01
   0.1007893419266134E+01
   0.1007245533301674E+01
   0.1006798074138118E+01
   0.1013018286922984E+01
   0.1019384609486334E+01
   0.1235203669459642E+01
   0.1032529466731098E+01
   0.1046681191534473E+01
   0.1200953642137986E+01
   0.1014718916010332E+01
   0.1032291153188099E+01
   0.1028095236649773E+01
   0.1014628639790116E+01
   0.1029216893079054E+01
   0.1001994816386592E+01
   0.9606929195275589E+00
   0.1006852582797302E+01
   0.1001327193326579E+01
   0.1010821905362772E+01
   0.1012246098869151E+01
   0.1000946006924103E+01
   0.9979121233993701E+00
   0.9980632372709911E+00
   0.1001184143374565E+01
   0.9841362011462019E+00
   0.9814879615097768E+00
   0.9648483320216557E+00
   0.9680877127524293E+00
   0.9914124471651296E+00
   0.9910858388543876E+00
   0.9925545095918542E+00
   0.1001727533868277E+01
   0.9993409402138467E+00
   0.9941410835183013E+00
   0.1007038753608485E+01
   0.1022539494108425E+01
   0.1001088098469775E+01
   0.1008798496247918E+01
   0.1004773846082466E+01
   0.1009050237433696E+01
   0.9966470332192008E+00
   0.1004988557666013E+01
   0.1003325535173917E+01
   0.9949431085355485E+00
   0.9832680781873744E+00
   0.9943957455107127E+00
   0.9973420656280473E+00
   0.9932190085607228E+00
   0.1001306487140143E+01
   0.1003001636944841E+01
   0.1002183579633537E+01
   0.9947078545128838E+00
   0.9937965521401446E+00
   0.1004867865513490E+01
   0.1020077607424014E+01
   0.1005364552394683E+01
   0.9816998152428944E+00
   0.1004973031232291E+01
   0.1012382323393787E+01
   0.9871424293568974E+00
   0.9551513532882895E+00
   0.9865075699956116E+00
   0.9864532949757147E+00
   0.9918946941429625E+00
   0.9933508197919181E+00
   0.9954406187059454E+00
   0.1037336789677297E+01
   0.1033536797821236E+01
   0.1001443320796138E+01
   0.1001930499761278E+01
   0.9912478515934233E+00
   0.9910920509271853E+00
   0.9648489989714418E+00
   0.9933282604690998E+00
   0.1006058638637849E+01
   0.1001954027114996E+01
   0.9908735804566203E+00
   0.9740945211977268E+00
   0.9418802138387214E+00
   0.9819379690484302E+00
   0.9794803560373803E+00
   0.9704172059711778E+00
   0.9720478945621954E+00
   0.9557351701966007E+00
   0.9496731211718574E+00
   0.9528673569277980E+00
   0.1002659534016950E+01
   0.1002471631927762E+01
   0.1000509329277444E+01
   0.1001677321744500E+01
   0.9607931431276715E+00
   0.9491625503169708E+00
   0.9584503066301587E+00
   0.1001121207749029E+01
   0.1000496140561458E+01
   0.1001156644180605E+01
   0.9807376183424173E+00
   0.9806000807572988E+00
   0.9628476106478183E+00
SCALARS u double 1
LOOKUP_TABLE default
   0.0000000000000000E+00
   0.0000000000000000E+00
   0.0000000000000000E+00
   0.0000000000000000E+00
   0.0000000000000000E+00
   0.0000000000000000E+00
   0.0000000000000000E+00
   0.0000000000000000E+00
   0.0000000000000000E+00
   0.0000000000000000E+00
   0.0000000000000000E+00
   0.0000000000000000E+00
   0.0000000000000000E+00
   0.0000000000000000E+00
   0.0000000000000000E+00
   0.0000000000000000E+00
   0.0000000000000000E+00
   0.0000000000000000E+00
   0.0000000000000000E+00
   0.0000000000000000E+00
   0.0000000000000000E+00
   0.0000000000000000E+00
   0.0000000000000000E+00
   0.0000000000000000E+00
   0.0000000000000000E+00
   0.0000000000000000E+00
   0.0000000000000000E+00
   0.0000000000000000E+00
   0.0000000000000000E+00
   0.0000000000000000E+00
   0.0000000000000000E+00
   0.0000000000000000E+00
   0.0000000000000000E+00
   0.4950176834240787E+00
   0.5338221300361492E+00
   0.5183269246956018E+00
   0.4930649880351386E+00
   0.4847578720293121E+00
   0.4867666424535094E+00
   0.4890763583776301E+00
   0.4957848880529608E+00
   0.4898301884322521E+00
   0.4717388494419645E+00
   0.4454814154459250E+00
   0.4833907047736061E+00
   0.5098397461712841E+00
   0.4390712702012057E+00
   0.4949403965077209E+00
   0.5225330362584804E+00
   0.4962454546104046E+00
   0.5226154963808414E+00
   0.5038881743158474E+00
   0.5646883608633873E+00
   0.5247509156532701E+00
   0.4991466119480011E+00
   0.5730561901019159E+00
   0.5696051096440963E+00
   0.3737941449144330E+00
   0.3998658125177120E+00
   0.5599326586899758E+00
   0.5564587630321640E+00
   0.4942627333362134E+00
   0.4948659466666898E+00
   0.4925735874378411E+00
   0.4914269544068454E+00
   0.5162356851038447E+00
   0.5361798305526723E+00
   0.4947413357187563E+00
   0.4524112205636452E+00
   0.5128777325705995E+00
   0.5117942040270473E+00
   0.4783517506201780E+00
   0.4931696657761646E+00
   0.4603173596158106E+00
   0.5244892721194064E+00
   0.5297434247956725E+00
   0.5129579300727413E+00
   0.5328358319574723E+00
   0.5308941037286189E+00
   0.5309856170116989E+00
   0.5063656735373565E+00
   0.5282461955834904E+00
   0.5410312730231662E+00
   0.5361261481373862E+00
   0.5374105276318266E+00
   0.4965364818850416E+00
   0.4975340904103287E+00
   0.4963842644651936E+00
   0.4955220267689832E+00
   0.4904581831224167E+00
   0.4903044385500440E+00
   0.4862182764460669E+00
   0.4854049562409722E+00
   0.4932164388222019E+00
   0.4909833312654711E+00
   0.4832194696969920E+00
   0.4872622778336844E+00
   0.4880124911188903E+00
   0.4872445932528148E+00
   0.4882696669627301E+00
   0.4952597556728116E+00
   0.4900967168080751E+00
   0.4904000090854398E+00
   0.4944232925845485E+00
   0.4868002481505125E+00
   0.4892385984400981E+00
   0.4881393370314294E+00
   0.4878457829514579E+00
   0.4446866579717011E+00
   0.4700028780577507E+00
   0.4891999056696686E+00
   0.4885247843986592E+00
   0.4506533044739158E+00
   0.4687378566102505E+00
   0.4877010456979995E+00
   0.4868353683584537E+00
   0.4908994716203517E+00
   0.4793551577118444E+00
   0.4658071747366808E+00
   0.3792725228569665E+00
   0.4901596530187490E+00
   0.4486686690732942E+00
   0.4436137391339831E+00
   0.4845147241553647E+00
   0.4621822645904878E+00
   0.4665749534979037E+00
   0.4748140299761640E+00
   0.4894494215471382E+00
   0.5085556973696396E+00
   0.4315073870414501E+00
   0.4927349361222294E+00
   0.5318289234093971E+00
   0.4913399196210385E+00
   0.5207019993245529E+00
   0.5060964599517862E+00
   0.5688797395315064E+00
   0.5273992817947160E+00
   0.5015044841581614E+00
   0.5821790086155425E+00
   0.5689618251661736E+00
   0.3406394442123284E+00
   0.3789869410692364E+00
   0.5751958206705954E+00
   0.5666485493250217E+00
   0.5704108782971542E+00
   0.5291056376108269E+00
   0.5451902710925371E+00
   0.5718804315008401E+00
   0.5389079125848367E+00
   0.5475507504804080E+00
   0.5821713868661555E+00
   0.4925601784502857E+00
   0.5042157546228370E+00
   0.4961735436229225E+00
   0.5565207962661305E+00
   0.4758845211320345E+00
   0.4950268383612295E+00
   0.5498525443174508E+00
   0.5891202296133892E+00
   0.5841957608920230E+00
   0.5469097664334718E+00
   0.5805417617710902E+00
   0.5106251438358747E+00
   0.5030200513048197E+00
   0.5033624679764979E+00
   0.5676446096437183E+00
   0.5563943082622781E+00
   0.4947255973382204E+00
   0.5505243828507310E+00
   0.5510857281289917E+00
   0.5657350949584055E+00
   0.4920070017754317E+00
   0.4927299096667322E+00
   0.3865140568162682E+00
   0.3687754532345784E+00
   0.5574921716945543E+00
   0.5763755545163893E+00
   0.4194304389853222E+00
   0.5824843240147412E+00
   0.4265209610532618E+00
   0.5392799843662407E+00
   0.5012032759508757E+00
   0.5119513207985947E+00
   0.5049119463561947E+00
   0.5751974973714139E+00
   0.5876371360312207E+00
   0.5379907804792550E+00
   0.5677472540196207E+00
   0.5351248666665300E+00
   0.5338056379463741E+00
   0.5580313798302017E+00
   0.5512707860736851E+00
   0.4261852752703549E+00
   0.5273356176955796E+00
   0.5795712529138166E+00
   0.3318687131882578E+00
   0.4760283322873559E+00
   0.5446196253086097E+00
   0.4798331897600862E+00
   0.3005293505758774E+00
   0.5031051138212032E+00
   0.5017115977683919E+00
   0.5129033210876544E+00
   0.5414840108176198E+00
   0.3437603852619983E+00
   0.3397710713971953E+00
   0.3189928567648820E+00
   0.5065936051984041E+00
   0.5123483780000155E+00
   0.5330313519190829E+00
   0.5879310000272230E+00
   0.4644180532886265E+00
   0.3531270507203030E+00
SCALARS v double 1
LOOKUP_TABLE default
   0.0000000000000000E+00
   0.0000000000000000E+00
   0.0000000000000000E+00
   0.0000000000000000E+00
   0.0000000000000000E+00
   0.0000000000000000E+00
   0.0000000000000000E+00
   0.0000000000000000E+00
   0.0000000000000000E+00
   0.0000000000000000E+00
   0.0000000000000000E+00
   0.0000000000000000E+00
   0.0000000000000000E+00
   0.0000000000000000E+00
   0.0000000000000000E+00
   0.0000000000000000E+00
   0.0000000000000000E+00
   0.0000000000000000E+00
   0.0000000000000000E+00
   0.0000000000000000E+00
   0.0000000000000000E+00
   0.0000000000000000E+00
   0.0000000000000000E+00
   0.0000000000000000E+00
   0.0000000000000000E+00
   0.0000000000000000E+00
   0.0000000000000000E+00
   0.0000000000000000E+00
   0.0000000000000000E+00
   0.0000000000000000E+00
   0.0000000000000000E+00
   0.0000000000000000E+00
   0.0000000000000000E+00
   0.0000000000000000E+00
   0.0000000000000000E+00
   0.0000000000000000E+00
   0.0000000000000000E+00
   0.0000000000000000E+00
   0.0000000000000000E+00
   0.0000000000000000E+00
   0.0000000000000000E+00
   0.0000000000000000E+00
   0.0000000000000000E+00
   0.0000000000000000E+00
   0.0000000000000000E+00
   0.0000000000000000E+00
   0.0000000000000000E+00
   0.0000000000000000E+00
   0.0000000000000000E+00
   0.0000000000000000E+00
   0.0000000000000000E+00
   0.0000000000000000E+00
   0.0000000000000000E+00
   0.0000000000000000E+00
   0.0000000000000000E+00
   0.0000000000000000E+00
   0.0000000000000000E+00
   0.0000000000000000E+00
   0.0000000000000000E+00
   0.0000000000000000E+00
   0.0000000000000000E+00
   0.7970254983186515E-03
  -0.1329294639143423E-02
  -0.1332592722774419E-02
   0.0000000000000000E+00
   0.0000000000000000E+00
   0.0000000000000000E+00
   0.0000000000000000E+00
  -0.1922562573701304E-01
   0.4770618152810118E-03
   0.2183360166481501E-02
   0.1427333020767752E-01
  -0.6488282065427650E-02
  -0.7821623046531653E-02
  -0.1327725059634359E-01
   0.4914481809605041E-02
   0.6907121702315085E-03
   0.3434418436611671E-02
   0.1920847389930829E-02
   0.3147960217668852E-02
   0.1704778356358985E-02
  -0.7316187393345185E-02
  -0.7701901927632915E-04
   0.4468738059777128E-02
  -0.4387156235569894E-03
  -0.6383742675862115E-04
  -0.1963394589830708E-03
   0.8071268015440679E-03
   0.0000000000000000E+00
   0.0000000000000000E+00
   0.0000000000000000E+00
   0.0000000000000000E+00
   0.4257020586551417E-03
   0.1616304635174644E-02
  -0.1297550941856573E-02
  -0.1022774938164489E-02
  -0.2134342356193996E-02
  -0.1064012605386181E-02
  -0.8200064055392889E-03
  -0.7617032810068049E-03
   0.5202259224665316E-04
  -0.6244091761053040E-03
   0.7916469211616429E-03
  -0.1745238505061708E-02
   0.2747128706865960E-03
  -0.8939747053377667E-04
  -0.9424310077593614E-03
  -0.1100227502439349E-02
   0.0000000000000000E+00
   0.0000000000000000E+00
   0.0000000000000000E+00
  -0.1061759104138603E-02
  -0.7641128893753790E-02
   0.1860854757468984E-01
  -0.2834553907835737E-04
  -0.1383129148819931E-02
  -0.2035122968659317E-02
  -0.5666383180926974E-02
  -0.1585210198987024E-02
  -0.5947016452368041E-02
  -0.4160601895093206E-02
   0.1565614825948664E-02
   0.3329524829978794E-01
   0.3055141097691530E-04
  -0.2766884877726509E-02
   0.3566484711546542E-02
   0.3596189427030505E-03
   0.0000000000000000E+00
   0.0000000000000000E+00
   0.0000000000000000E+00
   0.0000000000000000E+00
   0.0000000000000000E+00
   0.0000000000000000E+00
   0.0000000000000000E+00
   0.0000000000000000E+00
   0.0000000000000000E+00
   0.0000000000000000E+00
   0.0000000000000000E+00
   0.0000000000000000E+00
   0.0000000000000000E+00
   0.0000000000000000E+00
   0.0000000000000000E+00
   0.0000000000000000E+00
   0.0000000000000000E+00
   0.5047032583936711E-02
   0.3230791957776100E-02
   0.8149134289316930E-02
   0.6168367003270525E-02
   0.1122928640585003E-01
   0.1429277502332713E-01
  -0.2038826625196739E-03
   0.5118221833022464E-02
   0.2914950545104932E-02
   0.3373611833461174E-02
   0.3728336440332099E-02
  -0.1465719867344870E-01
  -0.6159699905503159E-03
   0.6651630351519661E-02
   0.1542014269799374E-02
   0.1969646533705195E-02
   0.4266273535421814E-02
  -0.2790960934092301E-02
   0.1226887062745816E-02
   0.2819172485564477E-02
   0.1497449158326347E-02
   0.2575339053269769E-02
   0.2030646450804236E-02
   0.2118046070749240E-02
   0.8700410481569363E-02
  -0.3733396982176840E-02
   0.6241189119989469E-02
   0.2516488944845242E-04
  -0.3854044869491060E-03
  -0.1674679011547953E-01
  -0.4881976910606375E-02
  -0.4720000809728512E-02
   0.3445223063987056E-02
  -0.6135724090904821E-02
   0.9934522006730131E-04
  -0.3291372925704124E-01
  -0.3046196737508431E-02
   0.4722743218000992E-02
   0.9228367786419369E-03
   0.2112175225455384E-02
   0.4518755706313587E-02
   0.2720465288884457E-02
   0.3212576513813276E-02
   0.5200804228769176E-02
   0.1941838964619819E-02
   0.7315897384137075E-03
  -0.2555237828530262E-04
  -0.5374632805938955E-02
  -0.6959591072028622E-02
  -0.9443816115466866E-03
   0.1105268438453940E-02
  -0.2080554129115966E-02
  -0.3200035932768634E-02
  -0.2527833362859025E-02
  -0.4115193573791293E-02
  -0.7593954935562043E-02
  -0.1985686402704520E-02
   0.6240402805328189E-03
  -0.2239081892558007E-03
   0.1216949772963847E-02
  -0.3483958315076607E-02
   0.5229139921538612E-02
  -0.8487626039000652E-02
   0.2315169426393380E-04
  -0.3395192907799634E-03
   0.2542663549378179E-02
   0.1663457699772502E-02
   0.2021438727696724E-02
  -0.5620783993858715E-02
SCALARS w double 1
LOOKUP_TABLE default
   0.0000000000000000E+00
   0.0000000000000000E+00
   0.0000000000000000E+00
   0.0000000000000000E+00
   0.0000000000000000E+00
   0.0000000000000000E+00
   0.0000000000000000E+00
   0.0000000000000000E+00
   0.0000000000000000E+00
   0.0000000000000000E+00
   0.0000000000000000E+00
   0.0000000000000000E+00
   0.0000000000000000E+00
   0.0000000000000000E+00
   0.0000000000000000E+00
   0.0000000000000000E+00
   0.0000000000000000E+00
   0.0000000000000000E+00
   0.0000000000000000E+00
   0.0000000000000000E+00
   0.0000000000000000E+00
   0.0000000000000000E+00
   0.0000000000000000E+00
   0.0000000000000000E+00
   0.0000000000000000E+00
   0.0000000000000000E+00
   0.0000000000000000E+00
   0.0000000000000000E+00
   0.0000000000000000E+00
   0.0000000000000000E+00
   0.0000000000000000E+00
   0.0000000000000000E+00
   0.0000000000000000E+00
  -0.1007612288523227E+00
  -0.4249297126001873E-01
   0.7371986393351341E-03
   0.5725799892919833E-02
   0.5699057870969283E-03
   0.1609783145333111E-02
   0.3375073069222637E-02
   0.2371773665169814E-02
   0.4590624785574138E-03
   0.3518225895770019E-02
   0.4521817576221232E-01
   0.6522937809217799E-01
   0.8689297490200655E-03
  -0.2261151832044218E-01
   0.4316553557046098E-02
   0.1358734838555010E-01
   0.1039452553122001E-01
   0.4900548410268551E-01
   0.2437443558267532E-02
  -0.6509941039545901E-02
  -0.7012227035816332E-03
   0.3411016833950136E-03
   0.3904107380731399E-02
  -0.3893254301170721E-01
   0.1798168100092614E-01
   0.1119638179865524E-01
   0.3403773254180499E-01
   0.8438810251796307E-02
   0.4937312211066982E-02
   0.4970345543939099E-02
   0.4871517437995741E-02
   0.6027191741892670E-02
   0.2599191825801407E-02
  -0.4144429588005501E-01
  -0.9954261857325204E-01
  -0.1121678219270356E+00
   0.5070875073793206E-02
   0.4230770692968806E-02
  -0.1004732303933250E+00
  -0.9895252502147242E-01
  -0.9875450947787166E-01
  -0.9462509611002892E-01
  -0.6807133819255018E-01
   0.5154922200538824E-02
  -0.1935330745062898E-01
  -0.1575800287440606E-01
  -0.6002862369776692E-02
   0.6819057362035476E-02
  -0.8010050802599826E-01
  -0.2781092455159502E-01
  -0.8096457350574568E-01
  -0.5873277556548907E-01
   0.3083625702790639E-02
   0.2685146487321575E-02
   0.2640431198268380E-02
   0.3450191939516665E-02
   0.4007083823388464E-02
   0.1201214342498040E-02
  -0.1438846161774792E-03
   0.2039877271697251E-02
   0.4895693648415773E-02
   0.3857385637917302E-02
   0.1114201983556962E-02
   0.1182682037710871E-02
   0.1465296213703984E-02
  -0.1653634979668607E-04
   0.8996628207692930E-04
   0.4386667901383839E-02
   0.2715724280758271E-02
   0.2322755341165208E-02
   0.5010601073741850E-02
   0.1071689401757129E-02
   0.2712217762709496E-02
   0.2013964125911744E-02
   0.2879091522526453E-04
   0.8374614341755322E-01
   0.2793870730722739E-02
  -0.8346628055775867E-03
  -0.1492945373444182E-03
   0.1409540846018575E+00
   0.1239332956882992E+00
  -0.1219093290329663E-02
  -0.4381936067981389E-02
  -0.3043057718721225E-03
  -0.6512246794863683E-02
  -0.1949570302619359E-02
   0.1557630974009923E+00
   0.7489979199754217E-01
   0.2550174915761095E-01
   0.1656445121050808E+00