title="tecplot geometry and solution file"
variables = x y z rho u v w p mach temperature
zone t="boundary 1 bc-1", solutiontime= 0.5000000E+02, strandid=1001, i=32, j=46, f=feblock
  0.000000000000E+00  0.000000000000E+00  0.000000000000E+00  0.000000000000E+00  0.000000000000E+00  0.000000000000E+00  0.000000000000E+00
  0.000000000000E+00  0.000000000000E+00  0.000000000000E+00  0.000000000000E+00  0.000000000000E+00  0.000000000000E+00  0.000000000000E+00
  0.000000000000E+00  0.000000000000E+00  0.000000000000E+00  0.000000000000E+00  0.000000000000E+00  0.000000000000E+00  0.000000000000E+00
  0.000000000000E+00  0.000000000000E+00  0.000000000000E+00  0.000000000000E+00  0.000000000000E+00  0.000000000000E+00  0.000000000000E+00
  0.000000000000E+00  0.000000000000E+00  0.000000000000E+00  0.000000000000E+00
  0.250000000000E+01  0.250000000000E+01  0.125000000000E+01  0.146289271009E+01  0.157686156160E+01  0.308372018325E+00  0.000000000000E+00
 -0.125000000000E+01 -0.600232012419E+00  0.250000000000E+01  0.477386199275E+00  0.742988685424E+00 -0.739814786992E+00  0.177790177481E+01
  0.155830813274E+01  0.250000000000E+01 -0.250000000000E+01 -0.154800130438E+01 -0.487811078581E+00  0.250000000000E+01  0.627766083140E+00
 -0.345533899378E+00 -0.178862290564E+01 -0.158811787973E+01  0.125000000000E+01 -0.250000000000E+01 -0.144524380962E+01  0.000000000000E+00
 -0.125000000000E+01 -0.250000000000E+01 -0.250000000000E+01 -0.250000000000E+01
  0.000000000000E+00  0.125000000000E+01  0.000000000000E+00  0.103724302461E+01  0.219251206392E+01  0.922061490191E+00  0.000000000000E+00
  0.000000000000E+00  0.715990576545E+00  0.250000000000E+01  0.202479342020E+01  0.324151231464E+01  0.175434191980E+01  0.310152362409E+01
  0.404200324774E+01  0.375000000000E+01  0.000000000000E+00  0.930412228790E+00  0.299062775774E+01  0.500000000000E+01  0.429310310915E+01
  0.409252726285E+01  0.187029682677E+01  0.284428995242E+01  0.500000000000E+01  0.125000000000E+01  0.394624082883E+01  0.500000000000E+01
  0.500000000000E+01  0.250000000000E+01  0.375000000000E+01  0.500000000000E+01
  0.134427144808E+01  0.106355395606E+01  0.142583204771E+01  0.108608796965E+01  0.103229115332E+01  0.120095364228E+01  0.164466727481E+01
  0.149409064292E+01  0.123520366954E+01  0.102389313801E+01  0.102809523684E+01  0.101301828706E+01  0.103252946691E+01  0.101471891610E+01
  0.100663883751E+01  0.100830819004E+01  0.144945745039E+01  0.116393552197E+01  0.101462863988E+01  0.100426040816E+01  0.100679807412E+01
  0.100724553326E+01  0.104668119152E+01  0.101938460950E+01  0.100424800577E+01  0.106442280141E+01  0.100789341920E+01  0.100288843763E+01
  0.100334542031E+01  0.102847362135E+01  0.100958665735E+01  0.100399273188E+01
  0.000000000000E+00  0.445481415444E+00  0.000000000000E+00  0.468737856755E+00  0.462182264400E+00  0.443613738908E+00  0.000000000000E+00
  0.000000000000E+00  0.379272522759E+00  0.471738849310E+00  0.466574953426E+00  0.479355157626E+00  0.490159652789E+00  0.484514724061E+00
  0.488524784259E+00  0.489830188531E+00  0.000000000000E+00  0.450653304913E+00  0.474814029961E+00  0.495784887579E+00  0.490899471316E+00
  0.486835368215E+00  0.448668669071E+00  0.465807174895E+00  0.496536481779E+00  0.444686657111E+00  0.487701045442E+00  0.497534090297E+00
  0.496384264391E+00  0.470002878107E+00  0.489199905619E+00  0.495522026720E+00
  0.000000000000E+00  0.000000000000E+00  0.000000000000E+00  0.186085476563E-01 -0.276688486536E-02  0.332952482764E-01  0.000000000000E+00
  0.000000000000E+00 -0.594701649740E-02  0.000000000000E+00  0.356648476603E-02 -0.566638313697E-02 -0.416060193668E-02  0.305514295152E-04
 -0.106175917890E-02  0.000000000000E+00  0.000000000000E+00 -0.764112878148E-02  0.359618940034E-03  0.000000000000E+00 -0.203512305510E-02
 -0.138312919483E-02  0.156561481734E-02 -0.158521031147E-02 -0.638374770929E-04  0.000000000000E+00 -0.283455344568E-04 -0.196339537111E-03
  0.807126759322E-03  0.000000000000E+00  0.000000000000E+00  0.000000000000E+00
  0.000000000000E+00  0.452181757602E-01  0.000000000000E+00  0.123933295684E+00  0.247647170885E-01  0.165644512129E+00  0.000000000000E+00
  0.000000000000E+00  0.155763097409E+00  0.351822586280E-02  0.259783173676E-01 -0.651224678465E-02  0.748997919776E-01  0.371839290031E-02
 -0.149294466775E-03  0.459062421845E-03  0.000000000000E+00  0.140954084611E+00 -0.808565308802E-02  0.237177358891E-02 -0.304305742274E-03
 -0.438193608731E-02  0.255017491349E-01 -0.194957035390E-02  0.308362547375E-02  0.837461430252E-01 -0.121909319983E-02  0.268514644413E-02
  0.264043140332E-02  0.279387064161E-02 -0.834662796322E-03  0.345019203998E-02
  0.960184573451E+00  0.782340562341E+00  0.101844205065E+01  0.808726658178E+00  0.746125892319E+00  0.879446499649E+00  0.117475225649E+01
  0.106719924438E+01  0.916620147588E+00  0.737395239061E+00  0.743553972996E+00  0.725759211562E+00  0.757455251105E+00  0.729188343824E+00
  0.720785048337E+00  0.722781671045E+00  0.103531921546E+01  0.858317141247E+00  0.728065073495E+00  0.718615293810E+00  0.721013448807E+00
  0.721151587165E+00  0.760018786513E+00  0.732628403624E+00  0.718531161675E+00  0.791043235823E+00  0.722107949819E+00  0.717199383005E+00
  0.717636870806E+00  0.741799737521E+00  0.724056580162E+00  0.718400634655E+00
  0.000000000000E+00  0.441238348460E+00  0.000000000000E+00  0.475214987141E+00  0.460123708768E+00  0.468827815281E+00  0.000000000000E+00
  0.000000000000E+00  0.402302516857E+00  0.469814974322E+00  0.464411128973E+00  0.478714034182E+00  0.489298241454E+00  0.483068557860E+00
  0.487930073026E+00  0.488961654771E+00  0.000000000000E+00  0.464775721893E+00  0.473795651968E+00  0.495346591588E+00  0.490266103179E+00
  0.486286083801E+00  0.445717618159E+00  0.464382274882E+00  0.496127394848E+00  0.443624103010E+00  0.486964461746E+00  0.497246279690E+00
  0.496059270842E+00  0.467732355508E+00  0.488212087364E+00  0.495098264801E+00
  0.999990295675E+00  0.102982719498E+01  0.999990758518E+00  0.104247294242E+01  0.101190080521E+01  0.102520618295E+01  0.999991417272E+00
  0.999992168617E+00  0.103891223631E+01  0.100826277309E+01  0.101252833871E+01  0.100300548288E+01  0.102702865684E+01  0.100605563290E+01
  0.100244400481E+01  0.100355660051E+01  0.999992722276E+00  0.103239739235E+01  0.100459524089E+01  0.100179336271E+01  0.100260305842E+01
  0.100234966420E+01  0.101657153079E+01  0.100617544695E+01  0.100168844804E+01  0.104043292635E+01  0.100303376378E+01  0.100118726922E+01
  0.100134171024E+01  0.100976788415E+01  0.100405369350E+01  0.100176112494E+01
        12        19        11        11
        11         5        12        12
        10        14         5         5
        19        13        11        11
        19        24        13        13
        30        23        24        24
        19        12        22        22
        28        22        21        21
        11        13         6         6
         7         6         9         9
        15        12        14        14
        18        13        23        23
        15        25        21        21
        27        19        22        22
        18         8         9         9
        27        31        24        24
         4        11         6         6
         5        14        12        12
         4         2         5         5
        21        12        15        15
        14        16        15        15
        24        19        27        27
        22        29        27        27
        23        26        18        18
        17         8        18        18
         5        11         4         4
         6         3         4         4
        26        23        30        30
         5         2        10        10
        16        14        10        10
         3         6         7         7
        21        25        28        28
        29        22        28        28
         6        13         9         9
         2         4         1         1
        31        27        32        32
        25        15        20        20
        24        23        13        13
         8         7         9         9
        13        18         9         9
        31        30        24        24
        12        21        22        22
        29        32        27        27
         3         1         4         4
        26        17        18        18
        16        20        15        15
zone t="boundary 2 bc-2", solutiontime= 0.5000000E+02, strandid=1002, i=33, j=48, f=feblock
  0.500000000000E+01  0.375000000000E+01  0.250000000000E+01  0.288078410721E+01  0.125000000000E+01  0.190974100652E+01  0.326683758169E+01
  0.201431602454E+01  0.000000000000E+00  0.963108083381E+00  0.500000000000E+01  0.403552511878E+01  0.423153924130E+01  0.500000000000E+01
  0.385533350601E+01  0.500000000000E+01  0.398173246726E+01  0.315249557942E+01  0.267000324704E+01  0.154774304040E+01  0.218329375016E+01
  0.893127759452E+00  0.000000000000E+00  0.698517061619E+00  0.964171764089E+00  0.310324758057E+01  0.000000000000E+00  0.000000000000E+00
  0.125000000000E+01  0.500000000000E+01  0.375000000000E+01  0.250000000000E+01  0.000000000000E+00
 -0.250000000000E+01 -0.250000000000E+01 -0.250000000000E+01 -0.250000000000E+01 -0.250000000000E+01 -0.250000000000E+01 -0.250000000000E+01
 -0.250000000000E+01 -0.250000000000E+01 -0.250000000000E+01 -0.250000000000E+01 -0.250000000000E+01 -0.250000000000E+01 -0.250000000000E+01
 -0.250000000000E+01 -0.250000000000E+01 -0.250000000000E+01 -0.250000000000E+01 -0.250000000000E+01 -0.250000000000E+01 -0.250000000000E+01
 -0.250000000000E+01 -0.250000000000E+01 -0.250000000000E+01 -0.250000000000E+01 -0.250000000000E+01 -0.250000000000E+01 -0.250000000000E+01
 -0.250000000000E+01 -0.250000000000E+01 -0.250000000000E+01 -0.250000000000E+01 -0.250000000000E+01
  0.000000000000E+00  0.000000000000E+00  0.000000000000E+00  0.904659890645E+00  0.000000000000E+00  0.717002441913E+00  0.188609243358E+01
  0.176246431481E+01  0.000000000000E+00  0.961328577125E+00  0.125000000000E+01  0.101201586758E+01  0.191586535653E+01  0.250000000000E+01
  0.293121848150E+01  0.375000000000E+01  0.406975391361E+01  0.363585050272E+01  0.285047954584E+01  0.292817774674E+01  0.395907379566E+01
  0.205246550326E+01  0.125000000000E+01  0.306828197606E+01  0.397245519226E+01  0.433168271247E+01  0.250000000000E+01  0.375000000000E+01
  0.500000000000E+01  0.500000000000E+01  0.500000000000E+01  0.500000000000E+01  0.500000000000E+01
  0.830787404133E+00  0.935297256182E+00  0.934221981850E+00  0.968087713095E+00  0.961719528391E+00  0.964848332437E+00  0.984136201301E+00
  0.991412447276E+00  0.144945745039E+01  0.102921689317E+01  0.955878696683E+00  0.960692920206E+00  0.981487961863E+00  0.100642910916E+01
  0.997912123484E+00  0.100977863981E+01  0.100199481682E+01  0.998063237076E+00  0.991085838931E+00  0.100132719339E+01  0.100094600688E+01
  0.101224609896E+01  0.106442280141E+01  0.101082190536E+01  0.100685258280E+01  0.100118414317E+01  0.102847362135E+01  0.100958665735E+01
  0.100510171616E+01  0.100179475830E+01  0.100266315909E+01  0.100321164519E+01  0.100399273188E+01
  0.000000000000E+00  0.000000000000E+00  0.000000000000E+00  0.378986940853E+00  0.000000000000E+00  0.340639444134E+00  0.582179008440E+00
  0.575195820387E+00  0.000000000000E+00  0.489449421423E+00  0.494741335057E+00  0.431507387150E+00  0.568961825063E+00  0.536179830590E+00
  0.568879739680E+00  0.516235685055E+00  0.508555698946E+00  0.527399282552E+00  0.566648549458E+00  0.531828923565E+00  0.506096460433E+00
  0.520701999170E+00  0.444686657111E+00  0.491339919680E+00  0.492734936058E+00  0.501504484922E+00  0.470002878107E+00  0.489199905619E+00
  0.490458182966E+00  0.491426954040E+00  0.486218275621E+00  0.490304438622E+00  0.495522026720E+00
  0.000000000000E+00  0.000000000000E+00  0.000000000000E+00  0.000000000000E+00  0.000000000000E+00  0.000000000000E+00  0.000000000000E+00
  0.000000000000E+00  0.000000000000E+00  0.000000000000E+00  0.000000000000E+00  0.000000000000E+00  0.000000000000E+00  0.000000000000E+00
  0.000000000000E+00  0.000000000000E+00  0.000000000000E+00  0.000000000000E+00  0.000000000000E+00  0.000000000000E+00  0.000000000000E+00
  0.000000000000E+00  0.000000000000E+00  0.000000000000E+00  0.000000000000E+00  0.000000000000E+00  0.000000000000E+00  0.000000000000E+00
  0.000000000000E+00  0.000000000000E+00  0.000000000000E+00  0.000000000000E+00  0.000000000000E+00
  0.000000000000E+00  0.000000000000E+00  0.000000000000E+00 -0.229669073943E-02  0.000000000000E+00  0.183565246387E-01  0.121122187831E-01
  0.454986544692E-01  0.000000000000E+00  0.870789631948E-01 -0.995426184693E-01 -0.211864967703E-01 -0.306441470036E-01 -0.414442957050E-01
 -0.137882987575E-02  0.259919299858E-02  0.609480486051E-03  0.503573484592E-03  0.150967305039E-01  0.284025722348E-01  0.564163885080E-02
  0.553419832661E-01  0.837461430252E-01  0.110441021659E-01  0.679169189173E-02 -0.758115393375E-03  0.279387064161E-02 -0.834662796322E-03
  0.400708364361E-02  0.602719329570E-02 -0.143884248233E-03  0.120121367773E-02  0.345019203998E-02
  0.593415709921E+00  0.668065253502E+00  0.667297107205E+00  0.684257572513E+00  0.686937806301E+00  0.679201335848E+00  0.695811645484E+00
  0.702343853231E+00  0.103531921546E+01  0.723694676377E+00  0.672591691061E+00  0.675702734323E+00  0.694093188929E+00  0.720959962619E+00
  0.712691281953E+00  0.724770830484E+00  0.716580562912E+00  0.713298991859E+00  0.706429557612E+00  0.717737239012E+00  0.715376602446E+00
  0.730937675008E+00  0.791043235823E+00  0.724372849934E+00  0.721010721387E+00  0.715457540563E+00  0.741799737521E+00  0.724056580162E+00
  0.719312938096E+00  0.715892799196E+00  0.716608904452E+00  0.717367939339E+00  0.718400634655E+00
  0.000000000000E+00  0.000000000000E+00  0.000000000000E+00  0.380991906391E+00  0.000000000000E+00  0.343629824915E+00  0.585286157302E+00
  0.579373263970E+00  0.000000000000E+00  0.501056068853E+00  0.508460362168E+00  0.435373026985E+00  0.572640041207E+00  0.537002098920E+00
  0.568922553983E+00  0.514994090559E+00  0.508247258898E+00  0.527252853922E+00  0.567446661267E+00  0.531657144091E+00  0.505981017112E+00
  0.520795579276E+00  0.443624103010E+00  0.490663730559E+00  0.492155873731E+00  0.501390785498E+00  0.467732355508E+00  0.488212087364E+00
  0.490002767000E+00  0.491352304353E+00  0.486075474433E+00  0.490036479441E+00  0.495098264801E+00
  0.999993487812E+00  0.999993690478E+00  0.999993543545E+00  0.989539055769E+00  0.999993137739E+00  0.985524707066E+00  0.989838908872E+00
  0.991798516576E+00  0.999992722276E+00  0.984411112611E+00  0.985091906276E+00  0.984689080303E+00  0.990058464555E+00  0.100289621841E+01
  0.999855369279E+00  0.100485306648E+01  0.100121554646E+01  0.100055642920E+01  0.997896793404E+00  0.100350029566E+01  0.100058068721E+01
  0.101093276236E+01  0.104043292635E+01  0.100326475369E+01  0.100254498740E+01  0.100045587379E+01  0.100976788415E+01  0.100405369350E+01
  0.100192656837E+01  0.100045434514E+01  0.100058774190E+01  0.100109993727E+01  0.100176112494E+01
        15         7        19        19
         8        20        19        19
        18        19        21        21
         7         4         8         8
         3         6         4         4
        19         7         8         8
        19        18        15        15
        14        13        15        15
         8        22        20        20
        27        24        22        22
        19        20        21        21
        32        26        21        21
        17        18        26        26
        17        16        15        15
        25        29        21        21
        12         7        13        13
        10         8         6         6
        25        20        24        24
         4         6         8         8
        12         2         4         4
        10        23        22        22
        26        31        17        17
        30        16        17        17
         4         7        12        12
        13        11        12        12
        21        20        25        25
        24        28        25        25
        22         8        10        10
         6         5        10        10
        31        26        32        32
         4         2         3         3
         5         6         3         3
        11        13        14        14
        22        23        27        27
        28        24        27        27
        15        13         7         7
         2        12         1         1
        29        25        33        33
        23        10         9         9
        21        26        18        18
        16        14        15        15
        18        17        15        15
        29        32        21        21
        22        24        20        20
        28        33        25        25
        11         1        12        12
        31        30        17        17
         5         9        10        10
zone t="boundary 3 bc-3", solutiontime= 0.5000000E+02, strandid=1003, i=33, j=48, f=feblock
  0.375000000000E+01  0.250000000000E+01  0.500000000000E+01  0.403552511878E+01  0.288078410721E+01  0.125000000000E+01  0.190974100652E+01
  0.500000000000E+01  0.326683758169E+01  0.423153924130E+01  0.201431602454E+01  0.000000000000E+00  0.963108083381E+00  0.500000000000E+01
  0.267000324704E+01  0.385533350601E+01  0.893127759452E+00  0.154774304040E+01  0.000000000000E+00  0.500000000000E+01  0.315249557942E+01
  0.218329375016E+01  0.398173246726E+01  0.000000000000E+00  0.698517061619E+00  0.964171764089E+00  0.125000000000E+01  0.000000000000E+00
  0.500000000000E+01  0.310324758057E+01  0.250000000000E+01  0.375000000000E+01  0.000000000000E+00
  0.250000000000E+01  0.250000000000E+01  0.250000000000E+01  0.250000000000E+01  0.250000000000E+01  0.250000000000E+01  0.250000000000E+01
  0.250000000000E+01  0.250000000000E+01  0.250000000000E+01  0.250000000000E+01  0.250000000000E+01  0.250000000000E+01  0.250000000000E+01
  0.250000000000E+01  0.250000000000E+01  0.250000000000E+01  0.250000000000E+01  0.250000000000E+01  0.250000000000E+01  0.250000000000E+01
  0.250000000000E+01  0.250000000000E+01  0.250000000000E+01  0.250000000000E+01  0.250000000000E+01  0.250000000000E+01  0.250000000000E+01
  0.250000000000E+01  0.250000000000E+01  0.250000000000E+01  0.250000000000E+01  0.250000000000E+01
  0.000000000000E+00  0.000000000000E+00  0.000000000000E+00  0.101201586758E+01  0.904659890645E+00  0.000000000000E+00  0.717002441913E+00
  0.125000000000E+01  0.188609243358E+01  0.191586535653E+01  0.176246431481E+01  0.000000000000E+00  0.961328577125E+00  0.250000000000E+01
  0.285047954584E+01  0.293121848150E+01  0.205246550326E+01  0.292817774674E+01  0.125000000000E+01  0.375000000000E+01  0.363585050272E+01
  0.395907379566E+01  0.406975391361E+01  0.250000000000E+01  0.306828197606E+01  0.397245519226E+01  0.500000000000E+01  0.375000000000E+01
  0.500000000000E+01  0.433168271247E+01  0.500000000000E+01  0.500000000000E+01  0.500000000000E+01
  0.941861271791E+00  0.946296419601E+00  0.843730490989E+00  0.964331006364E+00  0.978820743487E+00  0.956975891101E+00  0.983331403234E+00
  0.963500317017E+00  0.982689306666E+00  0.984243965547E+00  0.990263815905E+00  0.134427144808E+01  0.101918251325E+01  0.100829903917E+01
  0.993456155393E+00  0.997998684833E+00  0.100807808378E+01  0.100072116342E+01  0.106355395606E+01  0.100673529109E+01  0.100058356138E+01
  0.100234980727E+01  0.100178076612E+01  0.102389313801E+01  0.100874208388E+01  0.100528370901E+01  0.100522860301E+01  0.100830819004E+01
  0.100196461982E+01  0.100162012363E+01  0.100413205361E+01  0.100321958209E+01  0.100426040816E+01
  0.000000000000E+00  0.000000000000E+00  0.000000000000E+00  0.439071269350E+00  0.399865812797E+00  0.000000000000E+00  0.373794144855E+00
  0.495017673483E+00  0.573056189837E+00  0.569605109030E+00  0.559932658644E+00  0.000000000000E+00  0.483390704691E+00  0.533822131069E+00
  0.556458762767E+00  0.564688361294E+00  0.522615496231E+00  0.522533036101E+00  0.445481415444E+00  0.518326923468E+00  0.524750914810E+00
  0.503888173953E+00  0.509839741671E+00  0.471738849310E+00  0.496245454544E+00  0.494940396321E+00  0.489076358919E+00  0.489830188531E+00
  0.493064989584E+00  0.499146610121E+00  0.486766642947E+00  0.484757875378E+00  0.495784887579E+00
  0.000000000000E+00  0.000000000000E+00  0.000000000000E+00  0.000000000000E+00  0.000000000000E+00  0.000000000000E+00  0.000000000000E+00
  0.000000000000E+00  0.000000000000E+00  0.000000000000E+00  0.000000000000E+00  0.000000000000E+00  0.000000000000E+00  0.000000000000E+00
  0.000000000000E+00  0.000000000000E+00  0.000000000000E+00  0.000000000000E+00  0.000000000000E+00  0.000000000000E+00  0.000000000000E+00
  0.000000000000E+00  0.000000000000E+00  0.000000000000E+00  0.000000000000E+00  0.000000000000E+00  0.000000000000E+00  0.000000000000E+00
  0.000000000000E+00  0.000000000000E+00  0.000000000000E+00  0.000000000000E+00  0.000000000000E+00
  0.000000000000E+00  0.000000000000E+00  0.000000000000E+00 -0.226115191141E-01  0.111963814327E-01  0.000000000000E+00  0.179816809746E-01
 -0.100761226212E+00  0.390410745682E-02 -0.389325417321E-01  0.340377324576E-01  0.000000000000E+00  0.652293781156E-01 -0.424929693491E-01
  0.843881014736E-02 -0.650994068263E-02  0.490054840862E-01  0.135873483496E-01  0.452181757602E-01  0.737198064690E-03 -0.701223071502E-03
  0.243744349533E-02  0.868930360727E-03  0.351822586280E-02  0.103945255199E-01  0.431655370025E-02  0.337507285030E-02  0.459062421845E-03
  0.572579786308E-02  0.341102324667E-03  0.160978423728E-02  0.569905709910E-03  0.237177358891E-02
  0.672750879779E+00  0.675918855585E+00  0.602658385309E+00  0.676093765370E+00  0.691308921519E+00  0.683547254693E+00  0.690066482698E+00
  0.677274864316E+00  0.695201828204E+00  0.696250866622E+00  0.703344068810E+00  0.960184573451E+00  0.719726359092E+00  0.722866646165E+00
  0.709447759203E+00  0.713700946817E+00  0.726067414076E+00  0.716602922815E+00  0.782340562341E+00  0.722284531928E+00  0.716128637256E+00
  0.716551643872E+00  0.716546536692E+00  0.737395239061E+00  0.722682911026E+00  0.719441264220E+00  0.719566095323E+00  0.722781671045E+00
  0.716030183438E+00  0.715847822441E+00  0.718146783074E+00  0.717062470484E+00  0.718615293810E+00
  0.000000000000E+00  0.000000000000E+00  0.000000000000E+00  0.443767747785E+00  0.402286945410E+00  0.000000000000E+00  0.377550369307E+00
  0.509232119214E+00  0.575832179160E+00  0.573707404730E+00  0.562554064183E+00  0.000000000000E+00  0.490563299563E+00  0.534527097348E+00
  0.556586981859E+00  0.564391578105E+00  0.522730517252E+00  0.522052000031E+00  0.441238348460E+00  0.517182330446E+00  0.524228629887E+00
  0.503687457187E+00  0.509488566345E+00  0.469814974322E+00  0.495614442383E+00  0.494483780056E+00  0.488562428963E+00  0.488961654771E+00
  0.492980746271E+00  0.499005550292E+00  0.486460937065E+00  0.484596931085E+00  0.495346591588E+00
  0.999989340149E+00  0.999989409469E+00  0.999989627544E+00  0.981541882685E+00  0.988773988053E+00  0.999989827821E+00  0.982469463092E+00
  0.984104305205E+00  0.990427547022E+00  0.990355285267E+00  0.994362997536E+00  0.999990295675E+00  0.988652071268E+00  0.100368369433E+01
  0.999769197153E+00  0.100118501229E+01  0.100834885319E+01  0.100252111039E+01  0.102982719498E+01  0.100443319475E+01  0.100199536636E+01
  0.100082056598E+01  0.100138192437E+01  0.100826277309E+01  0.100298787133E+01  0.100192389559E+01  0.100215267496E+01  0.100355660051E+01
  0.100047670046E+01  0.100056591094E+01  0.100126820242E+01  0.100066573321E+01  0.100179336271E+01
        15         9        16        16
        15        18        11        11
        22        15        21        21
        11         5         9         9
         5         7         2         2
        11         9        15        15
        16        21        15        15
        16        10        14        14
        18        17        11        11
        17        25        24        24
        22        18        15        15
        22        30        31        31
        30        21        23        23
        16        20        23        23
        22        27        26        26
        10         9         4         4
         7        11        13        13
        25        18        26        26
        11         7         5         5
         5         1         4         4
        17        19        13        13
        23        32        30        30
        23        20        29        29
         4         9         5         5
         4         8        10        10
        26        18        22        22
        26        28        25        25
        13        11        17        17
        13         6         7         7
        31        30        32        32
         2         1         5         5
         2         7         6         6
        14        10         8         8
        24        19        17        17
        24        25        28        28
         9        10        16        16
         3         4         1         1
        33        26        27        27
        12        13        19        19
        21        30        22        22
        16        14        20        20
        16        23        21        21
        22        31        27        27
        18        25        17        17
        26        33        28        28
         4         3         8         8
        23        29        32        32
        13        12         6         6
zone t="boundary 4 bc-4", solutiontime= 0.5000000E+02, strandid=1004, i=32, j=46, f=feblock
  0.125000000000E+01  0.219251206392E+01  0.103724302461E+01  0.500000000000E+01  0.250000000000E+01  0.375000000000E+01  0.404200324774E+01
  0.500000000000E+01  0.000000000000E+00  0.310152362409E+01  0.202479342020E+01  0.324151231464E+01  0.922061490191E+00  0.000000000000E+00
  0.299062775774E+01  0.394624082883E+01  0.500000000000E+01  0.409252726285E+01  0.500000000000E+01  0.429310310915E+01  0.175434191980E+01
  0.284428995242E+01  0.000000000000E+00  0.000000000000E+00  0.715990576545E+00  0.930412228790E+00  0.125000000000E+01  0.187029682677E+01
  0.500000000000E+01  0.375000000000E+01  0.250000000000E+01  0.000000000000E+00
  0.250000000000E+01  0.157686156160E+01  0.146289271009E+01  0.250000000000E+01  0.250000000000E+01  0.250000000000E+01  0.155830813274E+01
  0.125000000000E+01  0.250000000000E+01  0.177790177481E+01  0.477386199275E+00  0.742988685424E+00  0.308372018325E+00  0.125000000000E+01
 -0.487811078581E+00 -0.144524380962E+01 -0.125000000000E+01 -0.345533899378E+00  0.000000000000E+00  0.627766083140E+00 -0.739814786992E+00
 -0.158811787973E+01  0.000000000000E+00 -0.125000000000E+01 -0.600232012419E+00 -0.154800130438E+01 -0.250000000000E+01 -0.178862290564E+01
 -0.250000000000E+01 -0.250000000000E+01 -0.250000000000E+01 -0.250000000000E+01
  0.500000000000E+01  0.500000000000E+01  0.500000000000E+01  0.500000000000E+01  0.500000000000E+01  0.500000000000E+01  0.500000000000E+01
  0.500000000000E+01  0.500000000000E+01  0.500000000000E+01  0.500000000000E+01  0.500000000000E+01  0.500000000000E+01  0.500000000000E+01
  0.500000000000E+01  0.500000000000E+01  0.500000000000E+01  0.500000000000E+01  0.500000000000E+01  0.500000000000E+01  0.500000000000E+01
  0.500000000000E+01  0.500000000000E+01  0.500000000000E+01  0.500000000000E+01  0.500000000000E+01  0.500000000000E+01  0.500000000000E+01
  0.500000000000E+01  0.500000000000E+01  0.500000000000E+01  0.500000000000E+01
  0.100522860301E+01  0.100432972639E+01  0.100432034580E+01  0.100196461982E+01  0.100413205361E+01  0.100321958209E+01  0.100258623327E+01
  0.100201175435E+01  0.100426040816E+01  0.100372310382E+01  0.100446502192E+01  0.100346952081E+01  0.100365984931E+01  0.100424800577E+01
  0.100362337506E+01  0.100164191971E+01  0.100227632652E+01  0.100227311673E+01  0.100213446735E+01  0.100254347692E+01  0.100442386315E+01
  0.100337263998E+01  0.100288843763E+01  0.100334542031E+01  0.100323223015E+01  0.100406087108E+01  0.100510171616E+01  0.100431307075E+01
  0.100179475830E+01  0.100266315909E+01  0.100321164519E+01  0.100399273188E+01
  0.489076358919E+00  0.489238599735E+00  0.490983331830E+00  0.493064989584E+00  0.486766642947E+00  0.484757875378E+00  0.485404962240E+00
  0.494262736415E+00  0.495784887579E+00  0.486800249280E+00  0.488139338183E+00  0.487244596086E+00  0.494423293108E+00  0.496536481779E+00
  0.487845784486E+00  0.483219470528E+00  0.492573588009E+00  0.487262282143E+00  0.494865949260E+00  0.488012497460E+00  0.490096716896E+00
  0.488269666710E+00  0.497534090297E+00  0.496384264391E+00  0.495259755826E+00  0.493216438963E+00  0.490458182966E+00  0.490400009163E+00
  0.491426954040E+00  0.486218275621E+00  0.490304438622E+00  0.495522026720E+00
  0.000000000000E+00 -0.893973215969E-04 -0.129755083016E-02  0.000000000000E+00  0.000000000000E+00  0.000000000000E+00  0.425702042652E-03
  0.797025579492E-03  0.000000000000E+00  0.274713441557E-03 -0.942430814900E-03 -0.820004683595E-03 -0.174523847084E-02 -0.638374770929E-04
 -0.110022569563E-02 -0.102277310934E-02 -0.133259051440E-02 -0.213433861853E-02 -0.132929170325E-02 -0.106401015996E-02 -0.624408485145E-03
 -0.761701605932E-03 -0.196339537111E-03  0.807126759322E-03  0.520226552617E-04  0.161630474296E-02  0.000000000000E+00  0.791647253857E-03
  0.000000000000E+00  0.000000000000E+00  0.000000000000E+00  0.000000000000E+00