# vtk DataFile Version 2.0
FUN3D:global_image_vtk
ASCII
DATASET UNSTRUCTURED_GRID
POINTS 213 double
    0.0000000000000000E+00    0.2500000000000000E+01    0.0000000000000000E+00
    0.1250000000000000E+01    0.2500000000000000E+01    0.0000000000000000E+00
    0.2500000000000000E+01    0.2500000000000000E+01    0.0000000000000000E+00
    0.3750000000000000E+01    0.2500000000000000E+01    0.0000000000000000E+00
    0.5000000000000000E+01    0.2500000000000000E+01    0.0000000000000000E+00
    0.5000000000000000E+01    0.1250000000000000E+01    0.0000000000000000E+00
    0.5000000000000000E+01    0.0000000000000000E+00    0.0000000000000000E+00
    0.5000000000000000E+01   -0.1250000000000000E+01    0.0000000000000000E+00
    0.5000000000000000E+01   -0.2500000000000000E+01    0.0000000000000000E+00
    0.3750000000000000E+01   -0.2500000000000000E+01    0.0000000000000000E+00
    0.2500000000000000E+01   -0.2500000000000000E+01    0.0000000000000000E+00
    0.1250000000000000E+01   -0.2500000000000000E+01    0.0000000000000000E+00
    0.0000000000000000E+00   -0.2500000000000000E+01    0.0000000000000000E+00
    0.0000000000000000E+00   -0.1250000000000000E+01    0.0000000000000000E+00
    0.0000000000000000E+00    0.0000000000000000E+00    0.0000000000000000E+00
    0.0000000000000000E+00    0.1250000000000000E+01    0.0000000000000000E+00
    0.9058375365086910E+00    0.1578994732800803E+01    0.0000000000000000E+00
    0.3982050490726493E+01   -0.1583989954232354E+01    0.0000000000000000E+00
    0.4033849428301197E+01    0.1453322699199022E+01    0.0000000000000000E+00
    0.1040505887381675E+01   -0.1479596339503735E+01    0.0000000000000000E+00
    0.1099454400140349E+01   -0.3227322616384110E+00    0.0000000000000000E+00
    0.7354504170366591E+00    0.6593508822075582E+00    0.0000000000000000E+00
    0.1622302608453282E+01    0.8256214013940779E+00    0.0000000000000000E+00
    0.2145871574390382E+01   -0.1650070333782557E+01    0.0000000000000000E+00
    0.4086422318222992E+01   -0.4612828702537229E+00    0.0000000000000000E+00
    0.2979540174134984E+01   -0.8579242121530853E+00    0.0000000000000000E+00
    0.3045064261640043E+01   -0.1836846154397680E+01    0.0000000000000000E+00
    0.3428197553792836E+01    0.3508002863614053E+00    0.0000000000000000E+00
    0.4309693860063405E+01    0.5185680230613409E+00    0.0000000000000000E+00
    0.1827272193562204E+01    0.1738996113203182E+01    0.0000000000000000E+00
    0.2808563282768077E+01    0.1325493893339706E+01    0.0000000000000000E+00
    0.1895995683864404E+01   -0.8731419609589618E+00    0.0000000000000000E+00
    0.2273179336307740E+01    0.4906150219227333E-01    0.0000000000000000E+00
    0.5000000000000000E+01    0.2500000000000000E+01    0.1250000000000000E+01
    0.5000000000000000E+01    0.2500000000000000E+01    0.2500000000000000E+01
    0.5000000000000000E+01    0.2500000000000000E+01    0.3750000000000000E+01
    0.5000000000000000E+01    0.2500000000000000E+01    0.5000000000000000E+01
    0.3750000000000000E+01    0.2500000000000000E+01    0.5000000000000000E+01
    0.2500000000000000E+01    0.2500000000000000E+01    0.5000000000000000E+01
    0.1250000000000000E+01    0.2500000000000000E+01    0.5000000000000000E+01
    0.0000000000000000E+00    0.2500000000000000E+01    0.5000000000000000E+01
    0.0000000000000000E+00    0.2500000000000000E+01    0.3750000000000000E+01
    0.0000000000000000E+00    0.2500000000000000E+01    0.2500000000000000E+01
    0.0000000000000000E+00    0.2500000000000000E+01    0.1250000000000000E+01
    0.9631080833812172E+00    0.2500000000000000E+01    0.9613285771248219E+00
    0.3981732467264904E+01    0.2500000000000000E+01    0.4069753913607991E+01
    0.4035525118777670E+01    0.2500000000000000E+01    0.1012015867579395E+01
    0.9641717640894248E+00    0.2500000000000000E+01    0.3972455192261839E+01
    0.1547743040396780E+01    0.2500000000000000E+01    0.2928177746738678E+01
    0.6985170616192014E+00    0.2500000000000000E+01    0.3068281976055466E+01
    0.8931277594515110E+00    0.2500000000000000E+01    0.2052465503257726E+01
    0.2183293750162785E+01    0.2500000000000000E+01    0.3959073795658649E+01
    0.3855333506014705E+01    0.2500000000000000E+01    0.2931218481500625E+01
    0.3152495579421047E+01    0.2500000000000000E+01    0.3635850502723324E+01
    0.3103247580566054E+01    0.2500000000000000E+01    0.4331682712472464E+01
    0.3266837581688852E+01    0.2500000000000000E+01    0.1886092433583972E+01
    0.4231539241296245E+01    0.2500000000000000E+01    0.1915865356532799E+01
    0.1909741006522088E+01    0.2500000000000000E+01    0.7170024419130505E+00
    0.2880784107213163E+01    0.2500000000000000E+01    0.9046598906449592E+00
    0.2014316024535771E+01    0.2500000000000000E+01    0.1762464314805728E+01
    0.2670003247036656E+01    0.2500000000000000E+01    0.2850479545835163E+01
    0.5000000000000000E+01    0.1250000000000000E+01    0.5000000000000000E+01
    0.5000000000000000E+01    0.0000000000000000E+00    0.5000000000000000E+01
    0.5000000000000000E+01   -0.1250000000000000E+01    0.5000000000000000E+01
    0.5000000000000000E+01   -0.2500000000000000E+01    0.5000000000000000E+01
    0.5000000000000000E+01   -0.2500000000000000E+01    0.3750000000000000E+01
    0.5000000000000000E+01   -0.2500000000000000E+01    0.2500000000000000E+01
    0.5000000000000000E+01   -0.2500000000000000E+01    0.1250000000000000E+01
    0.5000000000000000E+01    0.1578994732800803E+01    0.9058375365086910E+00
    0.5000000000000000E+01   -0.1583989954232354E+01    0.3982050490726493E+01
    0.5000000000000000E+01    0.1453322699199022E+01    0.4033849428301197E+01
    0.5000000000000000E+01   -0.1479596339503735E+01    0.1040505887381675E+01
    0.5000000000000000E+01   -0.3227322616384110E+00    0.1099454400140349E+01
    0.5000000000000000E+01    0.6593508822075582E+00    0.7354504170366591E+00
    0.5000000000000000E+01    0.8256214013940779E+00    0.1622302608453282E+01
    0.5000000000000000E+01   -0.1650070333782557E+01    0.2145871574390382E+01
    0.5000000000000000E+01   -0.4612828702537229E+00    0.4086422318222992E+01
    0.5000000000000000E+01   -0.8579242121530853E+00    0.2979540174134984E+01
    0.5000000000000000E+01   -0.1836846154397680E+01    0.3045064261640043E+01
    0.5000000000000000E+01    0.3508002863614053E+00    0.3428197553792836E+01
    0.5000000000000000E+01    0.5185680230613409E+00    0.4309693860063405E+01
    0.5000000000000000E+01    0.1738996113203182E+01    0.1827272193562204E+01
    0.5000000000000000E+01    0.1325493893339706E+01    0.2808563282768077E+01
    0.5000000000000000E+01   -0.8731419609589618E+00    0.1895995683864404E+01
    0.5000000000000000E+01    0.4906150219227333E-01    0.2273179336307740E+01
    0.0000000000000000E+00    0.1250000000000000E+01    0.5000000000000000E+01
    0.0000000000000000E+00    0.0000000000000000E+00    0.5000000000000000E+01
    0.0000000000000000E+00   -0.1250000000000000E+01    0.5000000000000000E+01
    0.0000000000000000E+00   -0.2500000000000000E+01    0.5000000000000000E+01
    0.1250000000000000E+01   -0.2500000000000000E+01    0.5000000000000000E+01
    0.2500000000000000E+01   -0.2500000000000000E+01    0.5000000000000000E+01
    0.3750000000000000E+01   -0.2500000000000000E+01    0.5000000000000000E+01
    0.4042003247744892E+01    0.1558308132739014E+01    0.5000000000000000E+01
    0.9304122287900499E+00   -0.1548001304379777E+01    0.5000000000000000E+01
    0.1037243024609388E+01    0.1462892710085612E+01    0.5000000000000000E+01
    0.3946240828834967E+01   -0.1445243809615570E+01    0.5000000000000000E+01
    0.4092527262848217E+01   -0.3455338993778935E+00    0.5000000000000000E+01
    0.4293103109154542E+01    0.6277660831404320E+00    0.5000000000000000E+01
    0.3241512314643519E+01    0.7429886854239611E+00    0.5000000000000000E+01
    0.2844289952419609E+01   -0.1588117879734118E+01    0.5000000000000000E+01
    0.7159905765450471E+00   -0.6002320124191652E+00    0.5000000000000000E+01
    0.1754341919796891E+01   -0.7398147869923652E+00    0.5000000000000000E+01
    0.1870296826774691E+01   -0.1788622905643739E+01    0.5000000000000000E+01
    0.9220614901912976E+00    0.3083720183248586E+00    0.5000000000000000E+01
    0.3101523624086016E+01    0.1777901774806180E+01    0.5000000000000000E+01
    0.2192512063922564E+01    0.1576861561598471E+01    0.5000000000000000E+01
    0.2024793420196460E+01    0.4773861992750707E+00    0.5000000000000000E+01
    0.2990627757741975E+01   -0.4878110785814084E+00    0.5000000000000000E+01
    0.0000000000000000E+00   -0.2500000000000000E+01    0.1250000000000000E+01
    0.0000000000000000E+00   -0.2500000000000000E+01    0.2500000000000000E+01
    0.0000000000000000E+00   -0.2500000000000000E+01    0.3750000000000000E+01
    0.0000000000000000E+00    0.1558308132739014E+01    0.4042003247744892E+01
    0.0000000000000000E+00   -0.1548001304379777E+01    0.9304122287900499E+00
    0.0000000000000000E+00    0.1462892710085612E+01    0.1037243024609388E+01
    0.0000000000000000E+00   -0.1445243809615570E+01    0.3946240828834967E+01
    0.0000000000000000E+00   -0.3455338993778935E+00    0.4092527262848217E+01
    0.0000000000000000E+00    0.6277660831404320E+00    0.4293103109154542E+01
    0.0000000000000000E+00    0.7429886854239611E+00    0.3241512314643519E+01
    0.0000000000000000E+00   -0.1588117879734118E+01    0.2844289952419609E+01
    0.0000000000000000E+00   -0.6002320124191652E+00    0.7159905765450471E+00
    0.0000000000000000E+00   -0.7398147869923652E+00    0.1754341919796891E+01
    0.0000000000000000E+00   -0.1788622905643739E+01    0.1870296826774691E+01
    0.0000000000000000E+00    0.3083720183248586E+00    0.9220614901912976E+00
    0.0000000000000000E+00    0.1777901774806180E+01    0.3101523624086016E+01
    0.0000000000000000E+00    0.1576861561598471E+01    0.2192512063922564E+01
[...]
POINT_DATA 213
SCALARS rho double 1
LOOKUP_TABLE default
   0.1344271448078299E+01
   0.9569758911008378E+00
   0.9462964196005367E+00
   0.9418612717914966E+00
   0.8437304909891126E+00
   0.7738004317019022E+00
   0.7629818915923637E+00
   0.7664577911980370E+00
   0.8307874041327563E+00
   0.9352972561822764E+00
   0.9342219818495464E+00
   0.9617195283909060E+00
   0.1449457450390052E+01
   0.1494090642923862E+01
   0.1644667274812157E+01
   0.1425832047710502E+01
   0.1009014434751047E+01
   0.9508810860755756E+00
   0.9436508501245979E+00
   0.9581561032576845E+00
   0.9415852459651074E+00
   0.1036377240032213E+01
   0.9256161098446104E+00
   0.9322349869686724E+00
   0.9537479574266701E+00
   0.9518769563367977E+00
   0.9348583125073168E+00
   0.9564028415664044E+00
   0.9376098394755263E+00
   0.9300661522806283E+00
   0.9445157489851844E+00
   0.8863506517066226E+00
   0.9423579966137849E+00
   0.9635003170168351E+00
   0.1008299039172170E+01
   0.1006735291092292E+01
   0.1001964619816361E+01
   0.1003219582085656E+01
   0.1004132053607661E+01
   0.1005228603010602E+01
   0.1004260408162632E+01
   0.1008308190038692E+01
   0.1023893138012989E+01
   0.1063553956061837E+01
   0.1019182513254739E+01
   0.1001780766119974E+01
   0.9643310063635609E+00
   0.1005283709012371E+01
   0.1000721163420413E+01
   0.1008742083879971E+01
   0.1008078083779281E+01
   0.1002349807270375E+01
   0.9979986848333687E+00
   0.1000583561383551E+01
   0.1001620123634390E+01
   0.9826893066656683E+00
   0.9842439655466321E+00
   0.9833314032344816E+00
   0.9788207434868508E+00
   0.9902638159051320E+00
   0.9934561553933957E+00
   0.1002011754354386E+01
   0.1002134467348959E+01
   0.1002276326521161E+01
   0.1001794758296704E+01
   0.1009778639809754E+01
   0.1006429109156781E+01
   0.9558786966834525E+00
   0.9249398433835054E+00
   0.1007036756084745E+01
   0.1004504925194136E+01
   0.9143642073957235E+00
   0.9089667862550486E+00
   0.8751688887668463E+00
   0.9767271875664008E+00
   0.1000452621077296E+01
   0.1005831087780462E+01
   0.1012882803032503E+01
   0.1011618951367852E+01
   0.1010438648500747E+01
   0.1005468281466668E+01
   0.9907612669213256E+00
   0.1005140325691814E+01
   0.9860567245704579E+00
   0.1005609737782278E+01
   0.1004248005765071E+01
   0.1002888437628579E+01
   0.1003345420306615E+01
   0.1003992731877599E+01
   0.1005101716159010E+01
   0.1003211645191994E+01
   0.1002663159086384E+01
   0.1002586233266044E+01
   0.1004060871080918E+01
   0.1004320345802415E+01
   0.1001641919711896E+01
   0.1002273116730286E+01
   0.1002543476921822E+01
   0.1003469520805955E+01
   0.1003372639981261E+01
   0.1003232230150483E+01
   0.1004423863154683E+01
   0.1004313070746880E+01
   0.1003659849310037E+01
   0.1003723103823251E+01
   0.1004329726390547E+01
   0.1004465021922628E+01
   0.1003623375062043E+01
   0.1064422801412787E+01
   0.1028473621348417E+01
   0.1009586657354154E+01
   0.1006638837507652E+01
   0.1163935521974661E+01
   0.1086087969648829E+01
   0.1007893419201415E+01
   0.1007245533258678E+01
   0.1006798074124440E+01
   0.1013018287063646E+01
   0.1019384609497824E+01
   0.1235203669542501E+01
   0.1032529466906940E+01
   0.1046681191521275E+01
   0.1200953642284265E+01
   0.1014718916098828E+01
   0.1032291153315012E+01
   0.1028095236835770E+01
   0.1014628639877443E+01
   0.1029216893173929E+01
   0.1001994816823744E+01
   0.9606929202062436E+00
   0.1006852582801083E+01
   0.1001327193385664E+01
   0.1010821905359872E+01
   0.1012246098956965E+01
   0.1000946006883860E+01
   0.9979121234838463E+00
   0.9980632370762516E+00
   0.1001184143174243E+01
   0.9841362013008412E+00
   0.9814879618626546E+00
   0.9648483324365487E+00
   0.9680877130953860E+00
   0.9914124472763988E+00
   0.9910858389306972E+00
   0.9925545096397161E+00
   0.1001727533917603E+01
   0.9993409402590523E+00
   0.9941410835979414E+00
   0.1007038753663942E+01
   0.1022539494192626E+01
   0.1001088098648440E+01
   0.1008798496300608E+01
   0.1004773846189551E+01
   0.1009050237528067E+01
   0.9966470333677729E+00
   0.1004988557841688E+01
   0.1003325535200789E+01
   0.9949431085907935E+00
   0.9832680786339956E+00
   0.9943957459064791E+00
   0.9973420658834259E+00
   0.9932190085096420E+00
   0.1001306487313391E+01
   0.1003001637050533E+01
   0.1002183579694029E+01
   0.9947078545582986E+00
   0.9937965522176231E+00
   0.1004867865574853E+01
   0.1020077607501628E+01
   0.1005364552469011E+01
   0.9816998153363137E+00
   0.1004973031220595E+01
   0.1012382323379685E+01
   0.9871424297163084E+00
   0.9551513534110814E+00
   0.9865075699966213E+00
   0.9864532951752017E+00
   0.9918946940160827E+00
   0.9933508199777983E+00
   0.9954406188452763E+00
   0.1037336789714453E+01
   0.1033536797863033E+01
   0.1001443321224785E+01
   0.1001930499980179E+01
   0.9912478515203408E+00
   0.9910920509558373E+00
   0.9648489988934890E+00
   0.9933282604207351E+00
   0.1006058638740703E+01
   0.1001954027391845E+01
   0.9908735804896153E+00
   0.9740945201747230E+00
   0.9418802142688780E+00
   0.9819379691999889E+00
   0.9794803559782301E+00
   0.9704172059203605E+00
   0.9720478946117211E+00
   0.9557351706242971E+00
   0.9496731212827341E+00
   0.9528673569721062E+00
   0.1002659533933782E+01
   0.1002471631904400E+01
   0.1000509329334857E+01
   0.1001677321980141E+01
   0.9607931428194505E+00
   0.9491625505007613E+00
   0.9584503065176783E+00
   0.1001121207837214E+01
   0.1000496140461781E+01
   0.1001156644461756E+01
   0.9807376184074833E+00
   0.9806000807993616E+00
   0.9628476109418763E+00
SCALARS u double 1
LOOKUP_TABLE default
   0.0000000000000000E+00
   0.0000000000000000E+00
   0.0000000000000000E+00
   0.0000000000000000E+00
   0.0000000000000000E+00
   0.0000000000000000E+00
   0.0000000000000000E+00
   0.0000000000000000E+00
   0.0000000000000000E+00
   0.0000000000000000E+00
   0.0000000000000000E+00
   0.0000000000000000E+00
   0.0000000000000000E+00
   0.0000000000000000E+00
   0.0000000000000000E+00
   0.0000000000000000E+00
   0.0000000000000000E+00
   0.0000000000000000E+00
   0.0000000000000000E+00
   0.0000000000000000E+00
   0.0000000000000000E+00
   0.0000000000000000E+00
   0.0000000000000000E+00
   0.0000000000000000E+00
   0.0000000000000000E+00
   0.0000000000000000E+00
   0.0000000000000000E+00
   0.0000000000000000E+00
   0.0000000000000000E+00
   0.0000000000000000E+00
   0.0000000000000000E+00
   0.0000000000000000E+00
   0.0000000000000000E+00
   0.4950176734833792E+00
   0.5338221310689533E+00
   0.5183269234684212E+00
   0.4930649895838601E+00
   0.4847578753776471E+00
   0.4867666429466399E+00
   0.4890763589185863E+00
   0.4957848875787375E+00
   0.4898301885308562E+00
   0.4717388493096641E+00
   0.4454814154436824E+00
   0.4833907046908318E+00
   0.5098397416710376E+00
   0.4390712693495479E+00
   0.4949403963212045E+00
   0.5225330361008994E+00
   0.4962454545438963E+00
   0.5226154962311851E+00
   0.5038881739534966E+00
   0.5646883612937086E+00
   0.5247509148099752E+00
   0.4991466101212078E+00
   0.5730561898367484E+00
   0.5696051090299029E+00
   0.3737941448549705E+00
   0.3998658127971428E+00
   0.5599326586439046E+00
   0.5564587627666804E+00
   0.4942627364148638E+00
   0.4948659492595359E+00
   0.4925735880092026E+00
   0.4914269540399554E+00
   0.5162356850549017E+00
   0.5361798305903555E+00
   0.4947413350569572E+00
   0.4524112181431234E+00
   0.5128777322125084E+00
   0.5117942015711165E+00
   0.4783517507301859E+00
   0.4931696655558466E+00
   0.4603173606345206E+00
   0.5244892728383364E+00
   0.5297434248436679E+00
   0.5129579288562713E+00
   0.5328358319778489E+00
   0.5308941039027043E+00
   0.5309856160122443E+00
   0.5063656722657870E+00
   0.5282461969012480E+00
   0.5410312733106462E+00
   0.5361261481110849E+00
   0.5374105277397417E+00
   0.4965364817791020E+00
   0.4975340902965296E+00
   0.4963842643911187E+00
   0.4955220267202614E+00
   0.4904581829662180E+00
   0.4903044386215933E+00
   0.4862182756214956E+00
   0.4854049622397599E+00
   0.4932164389627889E+00
   0.4909833318300548E+00
   0.4832194705283758E+00
   0.4872622821429761E+00
   0.4880124974598051E+00
   0.4872445960857483E+00
   0.4882696667103307E+00
   0.4952597558259940E+00
   0.4900967168956467E+00
   0.4904000091626810E+00
   0.4944232931076438E+00
   0.4868002492800922E+00
   0.4892385997345020E+00
   0.4881393381831242E+00
   0.4878457844857285E+00
   0.4446866571105934E+00
   0.4700028781074591E+00
   0.4891999056192084E+00
   0.4885247842592028E+00
   0.4506533049128167E+00
   0.4687378567549754E+00
   0.4877010454423261E+00
   0.4868353682152666E+00
   0.4908994713163355E+00
   0.4793551576261837E+00
   0.4658071748952485E+00
   0.3792725227586911E+00
   0.4901596527893992E+00
   0.4486686690710498E+00
   0.4436137389083262E+00
   0.4845147240611579E+00
   0.4621822643996535E+00
   0.4665749534264124E+00
   0.4748140299612040E+00
   0.4894494214232425E+00
   0.5085556989459153E+00
   0.4315073871499937E+00
   0.4927349360576500E+00
   0.5318289235652249E+00
   0.4913399196802802E+00
   0.5207019991696942E+00
   0.5060964604334448E+00
   0.5688797396795443E+00
   0.5273992825515778E+00
   0.5015044849218059E+00
   0.5821790084395808E+00
   0.5689618250627408E+00
   0.3406394441342486E+00
   0.3789869408528299E+00
   0.5751958203870186E+00
   0.5666485494577036E+00
   0.5704108782742425E+00
   0.5291056374265016E+00
   0.5451902710063466E+00
   0.5718804314480824E+00
   0.5389079125061578E+00
   0.5475507503313850E+00
   0.5821713867199725E+00
   0.4925601783357426E+00
   0.5042157542498832E+00
   0.4961735434975021E+00
   0.5565207961952801E+00
   0.4758845210341123E+00
   0.4950268385078943E+00
   0.5498525440563008E+00
   0.5891202294311871E+00
   0.5841957610196170E+00
   0.5469097656807700E+00
   0.5805417619568791E+00
   0.5106251431176011E+00
   0.5030200508900164E+00
   0.5033624665699017E+00
   0.5676446094874570E+00
   0.5563943078534077E+00
   0.4947255971273496E+00
   0.5505243827887197E+00
   0.5510857280294338E+00
   0.5657350948897558E+00
   0.4920070016868249E+00
   0.4927299095919445E+00
   0.3865140563927821E+00
   0.3687754531393174E+00
   0.5574921716140822E+00
   0.5763755543908873E+00
   0.4194304388529600E+00
   0.5824843238215625E+00
   0.4265209609023348E+00
   0.5392799843662173E+00
   0.5012032759673628E+00
   0.5119513185518663E+00
   0.5049119458417876E+00
   0.5751974969673346E+00
   0.5876371359917016E+00
   0.5379907803729218E+00
   0.5677472539021721E+00
   0.5351248668689021E+00
   0.5338056371899398E+00
   0.5580313796756725E+00
   0.5512707856981066E+00
   0.4261852738535483E+00
   0.5273356174582098E+00
   0.5795712527644259E+00
   0.3318687132618947E+00
   0.4760283322327744E+00
   0.5446196251756318E+00
   0.4798331896078931E+00
   0.3005293506398727E+00
   0.5031051139132597E+00
   0.5017115975223451E+00
   0.5129033206507480E+00
   0.5414840094452131E+00
   0.3437603841993950E+00
   0.3397710714437631E+00
   0.3189928567421583E+00
   0.5065936055442192E+00
   0.5123483788975501E+00
   0.5330313513115780E+00
   0.5879309999174804E+00
   0.4644180532641286E+00
   0.3531270505779746E+00
SCALARS v double 1
LOOKUP_TABLE default
   0.0000000000000000E+00
   0.0000000000000000E+00
   0.0000000000000000E+00
   0.0000000000000000E+00
   0.0000000000000000E+00
   0.0000000000000000E+00
   0.0000000000000000E+00
   0.0000000000000000E+00
   0.0000000000000000E+00
   0.0000000000000000E+00
   0.0000000000000000E+00
   0.0000000000000000E+00
   0.0000000000000000E+00
   0.0000000000000000E+00
   0.0000000000000000E+00
   0.0000000000000000E+00
   0.0000000000000000E+00
   0.0000000000000000E+00
   0.0000000000000000E+00
   0.0000000000000000E+00
   0.0000000000000000E+00
   0.0000000000000000E+00
   0.0000000000000000E+00
   0.0000000000000000E+00
   0.0000000000000000E+00
   0.0000000000000000E+00
   0.0000000000000000E+00
   0.0000000000000000E+00
   0.0000000000000000E+00
   0.0000000000000000E+00
   0.0000000000000000E+00
   0.0000000000000000E+00
   0.0000000000000000E+00
   0.0000000000000000E+00
   0.0000000000000000E+00
   0.0000000000000000E+00
   0.0000000000000000E+00
   0.0000000000000000E+00
   0.0000000000000000E+00
   0.0000000000000000E+00
   0.0000000000000000E+00
   0.0000000000000000E+00
   0.0000000000000000E+00
   0.0000000000000000E+00
   0.0000000000000000E+00
   0.0000000000000000E+00
   0.0000000000000000E+00
   0.0000000000000000E+00
   0.0000000000000000E+00
   0.0000000000000000E+00
   0.0000000000000000E+00
   0.0000000000000000E+00
   0.0000000000000000E+00
   0.0000000000000000E+00
   0.0000000000000000E+00
   0.0000000000000000E+00
   0.0000000000000000E+00
   0.0000000000000000E+00
   0.0000000000000000E+00
   0.0000000000000000E+00
   0.0000000000000000E+00
   0.7970255794917566E-03
  -0.1329291703253614E-02
  -0.1332590514399672E-02
   0.0000000000000000E+00
   0.0000000000000000E+00
   0.0000000000000000E+00
   0.0000000000000000E+00
  -0.1922562907307638E-01
   0.4770615805957911E-03
   0.2183359797620430E-02
   0.1427333039118270E-01
  -0.6488281978653863E-02
  -0.7821624600785830E-02
  -0.1327725157270690E-01
   0.4914481605430960E-02
   0.6907108898774479E-03
   0.3434417433106547E-02
   0.1920846973931924E-02
   0.3147958969972596E-02
   0.1704777607173653E-02
  -0.7316189181753478E-02
  -0.7701946599787912E-04
   0.4468737830501016E-02
  -0.4387159335259479E-03
  -0.6383747709291662E-04
  -0.1963395371111099E-03
   0.8071267593223185E-03
   0.0000000000000000E+00
   0.0000000000000000E+00
   0.0000000000000000E+00
   0.0000000000000000E+00
   0.4257020426516527E-03
   0.1616304742964983E-02
  -0.1297550830156815E-02
  -0.1022773109343145E-02
  -0.2134338618529822E-02
  -0.1064010159964813E-02
  -0.8200046835951618E-03
  -0.7617016059318666E-03
   0.5202265526168910E-04
  -0.6244084851450233E-03
   0.7916472538568054E-03
  -0.1745238470842500E-02
   0.2747134415574589E-03
  -0.8939732159693849E-04
  -0.9424308148996436E-03
  -0.1100225695627479E-02
   0.0000000000000000E+00
   0.0000000000000000E+00
   0.0000000000000000E+00
  -0.1061759178895618E-02
  -0.7641128781481582E-02
   0.1860854765633861E-01
  -0.2834553445684408E-04
  -0.1383129194827875E-02
  -0.2035123055096515E-02
  -0.5666383136970436E-02
  -0.1585210311474461E-02
  -0.5947016497401268E-02
  -0.4160601936678093E-02
   0.1565614817339587E-02
   0.3329524827643292E-01
   0.3055142951524459E-04
  -0.2766884865360401E-02
   0.3566484766030360E-02
   0.3596189400338128E-03
   0.0000000000000000E+00
   0.0000000000000000E+00
   0.0000000000000000E+00
   0.0000000000000000E+00
   0.0000000000000000E+00
   0.0000000000000000E+00
   0.0000000000000000E+00
   0.0000000000000000E+00
   0.0000000000000000E+00
   0.0000000000000000E+00
   0.0000000000000000E+00
   0.0000000000000000E+00
   0.0000000000000000E+00
   0.0000000000000000E+00
   0.0000000000000000E+00
   0.0000000000000000E+00
   0.0000000000000000E+00
   0.5047032538620165E-02
   0.3230791882472173E-02
   0.8149134247848768E-02
   0.6168367009695029E-02
   0.1122928641147730E-01
   0.1429277501306978E-01
  -0.2038827188157766E-03
   0.5118221786276052E-02
   0.2914950475484444E-02
   0.3373611794003463E-02
   0.3728336442263714E-02
  -0.1465719869879473E-01
  -0.6159700872294536E-03
   0.6651630212426096E-02
   0.1542014522883668E-02
   0.1969646614968660E-02
   0.4266273039255026E-02
  -0.2790960722177862E-02
   0.1226886404179204E-02
   0.2819172291659221E-02
   0.1497448857821000E-02
   0.2575338491894812E-02
   0.2030646045472706E-02
   0.2118046038237632E-02
   0.8700410456887211E-02
  -0.3733397008315730E-02
   0.6241189122826700E-02
   0.2516481819152797E-04
  -0.3854045476973945E-03
  -0.1674679017441027E-01
  -0.4881976998869155E-02
  -0.4720000859522461E-02
   0.3445223038069297E-02
  -0.6135724042136670E-02
   0.9934519268678082E-04
  -0.3291372931299975E-01
  -0.3046196764482769E-02
   0.4722743213224628E-02
   0.9228358688004826E-03
   0.2112175003523027E-02
   0.4518755282639624E-02
   0.2720464978769308E-02
   0.3212576466148433E-02
   0.5200803952255128E-02
   0.1941838585291233E-02
   0.7315887747628452E-03
  -0.2555253811389605E-04
  -0.5374633011546205E-02
  -0.6959592240055780E-02
  -0.9443812270603666E-03
   0.1105268404543528E-02
  -0.2080554248644175E-02
  -0.3200036063265358E-02
  -0.2527833120013965E-02
  -0.4115193503895310E-02
  -0.7593954930003354E-02
  -0.1985686481400706E-02
   0.6240397685143270E-03
  -0.2239090223781310E-03
   0.1216949020088179E-02
  -0.3483958584069070E-02
   0.5229139755181312E-02
  -0.8487626128514661E-02
   0.2315108537826816E-04
  -0.3395197071761450E-03
   0.2542663282463493E-02
   0.1663457594691028E-02
   0.2021438687903873E-02
  -0.5620784199437865E-02
SCALARS w double 1
LOOKUP_TABLE default
   0.0000000000000000E+00
   0.0000000000000000E+00
   0.0000000000000000E+00
   0.0000000000000000E+00
   0.0000000000000000E+00
   0.0000000000000000E+00
   0.0000000000000000E+00
   0.0000000000000000E+00
   0.0000000000000000E+00
   0.0000000000000000E+00
   0.0000000000000000E+00
   0.0000000000000000E+00
   0.0000000000000000E+00
   0.0000000000000000E+00
   0.0000000000000000E+00
   0.0000000000000000E+00
   0.0000000000000000E+00
   0.0000000000000000E+00
   0.0000000000000000E+00
   0.0000000000000000E+00
   0.0000000000000000E+00
   0.0000000000000000E+00
   0.0000000000000000E+00
   0.0000000000000000E+00
   0.0000000000000000E+00
   0.0000000000000000E+00
   0.0000000000000000E+00
   0.0000000000000000E+00
   0.0000000000000000E+00
   0.0000000000000000E+00
   0.0000000000000000E+00
   0.0000000000000000E+00
   0.0000000000000000E+00
  -0.1007612262121238E+00
  -0.4249296934907028E-01
   0.7371980646897409E-03
   0.5725797863082477E-02
   0.5699057099098482E-03
   0.1609784237281797E-02
   0.3375072850302872E-02
   0.2371773588914252E-02
   0.4590624218447292E-03
   0.3518225862797575E-02
   0.4521817576023830E-01
   0.6522937811564192E-01
   0.8689303607267738E-03
  -0.2261151911412156E-01
   0.4316553700252993E-02
   0.1358734834955518E-01
   0.1039452551991736E-01
   0.4900548408616221E-01
   0.2437443495326120E-02
  -0.6509940682629504E-02
  -0.7012230715017604E-03
   0.3411023246667064E-03
   0.3904107456822504E-02
  -0.3893254173212739E-01
   0.1798168097460233E-01
   0.1119638143268319E-01
   0.3403773245755016E-01
   0.8438810147363265E-02
   0.4937310878033951E-02
   0.4970345554115212E-02
   0.4871518541457822E-02
   0.6027193295697800E-02
   0.2599192998577327E-02
  -0.4144429570497767E-01
  -0.9954261846929768E-01
  -0.1121678219504057E+00
   0.5070875807317916E-02
   0.4230769143185898E-02
  -0.1004732304240877E+00
  -0.9895252485732031E-01
  -0.9875450947005732E-01
  -0.9462509554698666E-01
  -0.6807133821146716E-01
   0.5154921717396230E-02
  -0.1935330809040190E-01
  -0.1575800288625827E-01
  -0.6002863253189460E-02
   0.6819056043541165E-02
  -0.8010050598277479E-01
  -0.2781092462522801E-01
  -0.8096457358805673E-01
  -0.5873277562965532E-01
   0.3083625473745609E-02
   0.2685146444131003E-02
   0.2640431403323696E-02
   0.3450192039981415E-02
   0.4007083643607577E-02
   0.1201213677726130E-02
  -0.1438842482329525E-03
   0.2039875997833770E-02
   0.4895693397065266E-02
   0.3857385873489185E-02
   0.1114203169636797E-02
   0.1182681580598171E-02
   0.1465296524859141E-02
  -0.1653562775067984E-04
   0.8996632517383870E-04
   0.4386667736861755E-02
   0.2715724646204516E-02
   0.2322755294428411E-02
   0.5010601103657099E-02
   0.1071690051755833E-02
   0.2712218048688996E-02
   0.2013964109707739E-02
   0.2879105170403702E-04
   0.8374614302517601E-01
   0.2793870641613918E-02
  -0.8346627963217929E-03
  -0.1492944667747989E-03
   0.1409540846110852E+00
   0.1239332956835376E+00
  -0.1219093199829635E-02
  -0.4381936087312366E-02
  -0.3043057422744792E-03
  -0.6512246784650545E-02
  -0.1949570353897048E-02
   0.1557630974089944E+00
   0.7489979197757443E-01
   0.2550174913486438E-01
   0.1656445121287546E+00