# vtk DataFile Version 2.0
FUN3D:global_image_vtk
ASCII
DATASET UNSTRUCTURED_GRID
POINTS 213 double
   -0.5474685441687832E-02    0.2504941971167291E+01    0.8038138598670530E-04
    0.1245419105183472E+01    0.2504941971167291E+01    0.1039425058013133E-03
    0.2497696093128780E+01    0.2504941971167291E+01    0.1101298164665754E-03
    0.3750590968915824E+01    0.2504941971167291E+01    0.1356499004944167E-03
    0.5003221331742151E+01    0.2504941971167291E+01    0.9668873038898296E-04
    0.5004676687979097E+01    0.1281291202167040E+01    0.1638053019384356E-03
    0.5004772673778115E+01    0.2775079906482894E-01    0.1903478008447590E-03
    0.5003581183341212E+01   -0.1225853508883529E+01    0.1607765204486578E-03
    0.5001952533742191E+01   -0.2496589036641631E+01    0.1082258890302557E-03
    0.3750348111606544E+01   -0.2496589036641631E+01    0.1458753696815807E-03
    0.2498611462994928E+01   -0.2496589036641631E+01    0.1008933264248224E-03
    0.1247175269333276E+01   -0.2496589036641631E+01    0.1108587619169654E-03
   -0.3383959865719266E-02   -0.2496589036641631E+01    0.8107259626494168E-04
   -0.4257768979765597E-02   -0.1225734811642590E+01    0.3415458742295208E-04
   -0.5251592448509257E-02    0.2619486024420451E-01    0.1038724387187884E-03
   -0.5676060312426845E-02    0.1278221569065707E+01    0.8224601702150336E-04
    0.9003209617952581E+00    0.1608979112280158E+01    0.8704140727677778E-04
    0.3983172210692289E+01   -0.1561211904840279E+01    0.1757116720370600E-03
    0.4035602039224469E+01    0.1486760030415520E+01    0.1713312862106631E-03
    0.1036613723302902E+01   -0.1455626429916848E+01    0.1047189301532914E-03
    0.1094353480630802E+01   -0.2964622010671852E+00    0.1260590236917269E-03
    0.7298400267480001E+00    0.6874684746719117E+00    0.1044598640544958E-03
    0.1617018659308944E+01    0.8553208024939369E+00    0.1529810904974394E-03
    0.2143199662875790E+01   -0.1627128509216730E+01    0.1606170425226816E-03
    0.4088840445400889E+01   -0.4351047825936264E+00    0.2719933294109134E-03
    0.2977916511248925E+01   -0.8334991483094500E+00    0.2245596931861327E-03
    0.3044093241383418E+01   -0.1814361225108581E+01    0.1617000112420497E-03
    0.3427866614805211E+01    0.3813904839972496E+00    0.2936955483430759E-03
    0.4313225355351749E+01    0.5489133376342495E+00    0.2313009573592373E-03
    0.1823032737597358E+01    0.1771265193544254E+01    0.1836202887151583E-03
    0.2806311152168375E+01    0.1358629373600680E+01    0.1943492163983818E-03
    0.1891860875936711E+01   -0.8481310365607546E+00    0.1670645501816170E-03
    0.2268769200166909E+01    0.7723691819196565E-01    0.2072307783085314E-03
    0.5000000000000000E+01    0.2504941971167291E+01    0.1250000000000000E+01
    0.5000000000000000E+01    0.2504941971167291E+01    0.2500000000000000E+01
    0.5000000000000000E+01    0.2504941971167291E+01    0.3750000000000000E+01
    0.5000000000000000E+01    0.2504941971167291E+01    0.5000000000000000E+01
    0.3750000000000000E+01    0.2504941971167291E+01    0.5000000000000000E+01
    0.2500000000000000E+01    0.2504941971167291E+01    0.5000000000000000E+01
    0.1250000000000000E+01    0.2504941971167291E+01    0.5000000000000000E+01
    0.0000000000000000E+00    0.2504941971167291E+01    0.5000000000000000E+01
    0.0000000000000000E+00    0.2504941971167291E+01    0.3750000000000000E+01
    0.0000000000000000E+00    0.2504941971167291E+01    0.2500000000000000E+01
    0.0000000000000000E+00    0.2504941971167291E+01    0.1250000000000000E+01
    0.9588956434871092E+00    0.2504941971167291E+01    0.9696525519543873E+00
    0.3981953078951402E+01    0.2504941971167291E+01    0.4070563854751271E+01
    0.4036122187252336E+01    0.2504941971167291E+01    0.1017567520094671E+01
    0.9637572773153888E+00    0.2504941971167291E+01    0.3973598203142229E+01
    0.1546540136992396E+01    0.2504941971167291E+01    0.2931570169315601E+01
    0.6973799521244313E+00    0.2504941971167291E+01    0.3070319952453756E+01
    0.8903742148356883E+00    0.2504941971167291E+01    0.2056562238187738E+01
    0.2183041995146012E+01    0.2504941971167291E+01    0.3960694449828019E+01
    0.3855844872709870E+01    0.2504941971167291E+01    0.2933250588118630E+01
    0.3152611367438029E+01    0.2504941971167291E+01    0.3637668388416195E+01
    0.3103307385241870E+01    0.2504941971167291E+01    0.4332607813099731E+01
    0.3266711045517939E+01    0.2504941971167291E+01    0.1889656617463738E+01
    0.4232537554484796E+01    0.2504941971167291E+01    0.1918626969802351E+01
    0.1905522374036519E+01    0.2504941971167291E+01    0.7226290832134608E+00
    0.2879767723645805E+01    0.2504941971167291E+01    0.9080945892181980E+00
    0.2012711365064515E+01    0.2504941971167291E+01    0.1767082390977754E+01
    0.2669681472994637E+01    0.2504941971167291E+01    0.2853394335010791E+01
    0.5000000000000000E+01    0.1250000000000000E+01    0.5000000000000000E+01
    0.5000000000000000E+01    0.0000000000000000E+00    0.5000000000000000E+01
    0.5000000000000000E+01   -0.1250000000000000E+01    0.5000000000000000E+01
    0.5000000000000000E+01   -0.2496589036641631E+01    0.5000000000000000E+01
    0.5000000000000000E+01   -0.2496589036641631E+01    0.3750000000000000E+01
    0.5000000000000000E+01   -0.2496589036641631E+01    0.2500000000000000E+01
    0.5000000000000000E+01   -0.2496589036641631E+01    0.1250000000000000E+01
    0.5000000000000000E+01    0.1578994732800803E+01    0.9058375365086910E+00
    0.5000000000000000E+01   -0.1583989954232354E+01    0.3982050490726493E+01
    0.5000000000000000E+01    0.1453322699199022E+01    0.4033849428301197E+01
    0.5000000000000000E+01   -0.1479596339503735E+01    0.1040505887381675E+01
    0.5000000000000000E+01   -0.3227322616384110E+00    0.1099454400140349E+01
    0.5000000000000000E+01    0.6593508822075582E+00    0.7354504170366591E+00
    0.5000000000000000E+01    0.8256214013940779E+00    0.1622302608453282E+01
    0.5000000000000000E+01   -0.1650070333782557E+01    0.2145871574390382E+01
    0.5000000000000000E+01   -0.4612828702537229E+00    0.4086422318222992E+01
    0.5000000000000000E+01   -0.8579242121530853E+00    0.2979540174134984E+01
    0.5000000000000000E+01   -0.1836846154397680E+01    0.3045064261640043E+01
    0.5000000000000000E+01    0.3508002863614053E+00    0.3428197553792836E+01
    0.5000000000000000E+01    0.5185680230613409E+00    0.4309693860063405E+01
    0.5000000000000000E+01    0.1738996113203182E+01    0.1827272193562204E+01
    0.5000000000000000E+01    0.1325493893339706E+01    0.2808563282768077E+01
    0.5000000000000000E+01   -0.8731419609589618E+00    0.1895995683864404E+01
    0.5000000000000000E+01    0.4906150219227333E-01    0.2273179336307740E+01
    0.0000000000000000E+00    0.1250000000000000E+01    0.5000000000000000E+01
    0.0000000000000000E+00    0.0000000000000000E+00    0.5000000000000000E+01
    0.0000000000000000E+00   -0.1250000000000000E+01    0.5000000000000000E+01
    0.0000000000000000E+00   -0.2496589036641631E+01    0.5000000000000000E+01
    0.1250000000000000E+01   -0.2496589036641631E+01    0.5000000000000000E+01
    0.2500000000000000E+01   -0.2496589036641631E+01    0.5000000000000000E+01
    0.3750000000000000E+01   -0.2496589036641631E+01    0.5000000000000000E+01
    0.4042003247744892E+01    0.1558308132739014E+01    0.5000000000000000E+01
    0.9304122287900499E+00   -0.1548001304379777E+01    0.5000000000000000E+01
    0.1037243024609388E+01    0.1462892710085612E+01    0.5000000000000000E+01
    0.3946240828834967E+01   -0.1445243809615570E+01    0.5000000000000000E+01
    0.4092527262848217E+01   -0.3455338993778935E+00    0.5000000000000000E+01
    0.4293103109154542E+01    0.6277660831404320E+00    0.5000000000000000E+01
    0.3241512314643519E+01    0.7429886854239611E+00    0.5000000000000000E+01
    0.2844289952419609E+01   -0.1588117879734118E+01    0.5000000000000000E+01
    0.7159905765450471E+00   -0.6002320124191652E+00    0.5000000000000000E+01
    0.1754341919796891E+01   -0.7398147869923652E+00    0.5000000000000000E+01
    0.1870296826774691E+01   -0.1788622905643739E+01    0.5000000000000000E+01
    0.9220614901912976E+00    0.3083720183248586E+00    0.5000000000000000E+01
    0.3101523624086016E+01    0.1777901774806180E+01    0.5000000000000000E+01
    0.2192512063922564E+01    0.1576861561598471E+01    0.5000000000000000E+01
    0.2024793420196460E+01    0.4773861992750707E+00    0.5000000000000000E+01
    0.2990627757741975E+01   -0.4878110785814084E+00    0.5000000000000000E+01
    0.0000000000000000E+00   -0.2496589036641631E+01    0.1250000000000000E+01
    0.0000000000000000E+00   -0.2496589036641631E+01    0.2500000000000000E+01
    0.0000000000000000E+00   -0.2496589036641631E+01    0.3750000000000000E+01
    0.0000000000000000E+00    0.1558308132739014E+01    0.4042003247744892E+01
    0.0000000000000000E+00   -0.1548001304379777E+01    0.9304122287900499E+00
    0.0000000000000000E+00    0.1462892710085612E+01    0.1037243024609388E+01
    0.0000000000000000E+00   -0.1445243809615570E+01    0.3946240828834967E+01
    0.0000000000000000E+00   -0.3455338993778935E+00    0.4092527262848217E+01
    0.0000000000000000E+00    0.6277660831404320E+00    0.4293103109154542E+01
    0.0000000000000000E+00    0.7429886854239611E+00    0.3241512314643519E+01
    0.0000000000000000E+00   -0.1588117879734118E+01    0.2844289952419609E+01
    0.0000000000000000E+00   -0.6002320124191652E+00    0.7159905765450471E+00
    0.0000000000000000E+00   -0.7398147869923652E+00    0.1754341919796891E+01
    0.0000000000000000E+00   -0.1788622905643739E+01    0.1870296826774691E+01
    0.0000000000000000E+00    0.3083720183248586E+00    0.9220614901912976E+00
    0.0000000000000000E+00    0.1777901774806180E+01    0.3101523624086016E+01
    0.0000000000000000E+00    0.1576861561598471E+01    0.2192512063922564E+01
[...]
POINT_DATA 213
SCALARS rho double 1
LOOKUP_TABLE default
   0.1346108316500842E+01
   0.9572040000029578E+00
   0.9461172177975974E+00
   0.9421724428573269E+00
   0.8436076771563675E+00
   0.7742023690656284E+00
   0.7627583544838762E+00
   0.7661562013056352E+00
   0.8310489477502120E+00
   0.9353548244688787E+00
   0.9343897288715578E+00
   0.9616167926820468E+00
   0.1448475453957673E+01
   0.1495420693531461E+01
   0.1646729695108555E+01
   0.1426611750762103E+01
   0.1009807294959468E+01
   0.9511451600256371E+00
   0.9438202819328309E+00
   0.9574649708984392E+00
   0.9414971311292731E+00
   0.1037119050672025E+01
   0.9258166085482894E+00
   0.9322402497726691E+00
   0.9538058253946494E+00
   0.9520452718266259E+00
   0.9351035433963526E+00
   0.9565496451901637E+00
   0.9378638715322776E+00
   0.9303460521822984E+00
   0.9446467736244908E+00
   0.8862352681475247E+00
   0.9424046352701576E+00
   0.9637013833750628E+00
   0.1008356271715276E+01
   0.1006712428956787E+01
   0.1001958932435793E+01
   0.1003217522683731E+01
   0.1004120115631021E+01
   0.1005208064985435E+01
   0.1004249961528767E+01
   0.1008268330193024E+01
   0.1023869441119531E+01
   0.1063755461282688E+01
   0.1019394088413147E+01
   0.1001777911553249E+01
   0.9645774357427248E+00
   0.1005263328317390E+01
   0.1000745736425962E+01
   0.1008696549390303E+01
   0.1008037948602740E+01
   0.1002353862220743E+01
   0.9980195530610568E+00
   0.1000592769811783E+01
   0.1001620641855732E+01
   0.9828039320178528E+00
   0.9843899740538444E+00
   0.9834136046966422E+00
   0.9790327257945058E+00
   0.9904757374184420E+00
   0.9935193469757831E+00
   0.1002008897064661E+01
   0.1002132242439342E+01
   0.1002273087499443E+01
   0.1001793578227546E+01
   0.1009816088986808E+01
   0.1006507955723274E+01
   0.9561125624497150E+00
   0.9252807431886987E+00
   0.1007053967312314E+01
   0.1004490981275662E+01
   0.9145128350327866E+00
   0.9091570311117021E+00
   0.8752463068388927E+00
   0.9767979588587081E+00
   0.1000541360192280E+01
   0.1005826549638053E+01
   0.1012896701438849E+01
   0.1011680292248630E+01
   0.1010415973532413E+01
   0.1005456587986300E+01
   0.9909167505412678E+00
   0.1005149610908036E+01
   0.9860895085147160E+00
   0.1005593206564678E+01
   0.1004239922292953E+01
   0.1002885969147487E+01
   0.1003350062930826E+01
   0.1003997944137729E+01
   0.1005115344735834E+01
   0.1003223209726316E+01
   0.1002669122851456E+01
   0.1002589509889389E+01
   0.1004069040513357E+01
   0.1004304990949634E+01
   0.1001643156368242E+01
   0.1002279137160658E+01
   0.1002546783321985E+01
   0.1003472000563801E+01
   0.1003380240071178E+01
   0.1003233137397644E+01
   0.1004429898905981E+01
   0.1004324039305827E+01
   0.1003653018040415E+01
   0.1003718560569739E+01
   0.1004319242994622E+01
   0.1004462563087483E+01
   0.1003629395922019E+01
   0.1064485257326685E+01
   0.1028442061775152E+01
   0.1009605873478441E+01
   0.1006626987315738E+01
   0.1163967546206463E+01
   0.1086026686668600E+01
   0.1007907087126126E+01
   0.1007251825887135E+01
   0.1006796456293847E+01
   0.1013053883428576E+01
   0.1019340792095352E+01
   0.1235123173377648E+01
   0.1032535565370653E+01
   0.1046565480908044E+01
   0.1201701822216682E+01
   0.1014672138235380E+01
   0.1032297498438421E+01
   0.1028222183528636E+01
   0.1014640520497264E+01
   0.1028986927095069E+01
   0.1002003667832922E+01
   0.9608147838460321E+00
   0.1006858072239883E+01
   0.1001324898750412E+01
   0.1010798261829075E+01
   0.1012231336440672E+01
   0.1000939569542770E+01
   0.9979357844405613E+00
   0.9980690507189179E+00
   0.1001192040616464E+01
   0.9842100792201472E+00
   0.9815228439810643E+00
   0.9648740513620353E+00
   0.9680944441410088E+00
   0.9914084287506432E+00
   0.9910913083813592E+00
   0.9925587125131271E+00
   0.1001727549563394E+01
   0.9993245747860646E+00
   0.9941434372230836E+00
   0.1006982475198527E+01
   0.1022613019705348E+01
   0.1001120639319990E+01
   0.1008783935636469E+01
   0.1004774773029788E+01
   0.1009030411028695E+01
   0.9967211495373263E+00
   0.1005570715623228E+01
   0.1003324760138721E+01
   0.9949845985440544E+00
   0.9833501667649611E+00
   0.9944494693127692E+00
   0.9973474195660299E+00
   0.9932503759967932E+00
   0.1001311885085576E+01
   0.1003000708481533E+01
   0.1002188291658136E+01
   0.9947120026870497E+00
   0.9937832198844613E+00
   0.1004861704729613E+01
   0.1020101282152696E+01
   0.1005337230077012E+01
   0.9817045978649143E+00
   0.1004974596049608E+01
   0.1012374662640790E+01
   0.9873720332481128E+00
   0.9551284415002080E+00
   0.9865253756938818E+00
   0.9865916536867929E+00
   0.9920067166480939E+00
   0.9934435622724832E+00
   0.9960682555264473E+00
   0.1037400105966181E+01
   0.1033161102269329E+01
   0.1001442943037437E+01
   0.1001928635397817E+01
   0.9912313106920269E+00
   0.9911145323179529E+00
   0.9649433996184423E+00
   0.9933790316432549E+00
   0.1006090796485730E+01
   0.1001963018927982E+01
   0.9908628976780338E+00
   0.9742169944825233E+00
   0.9420656176709452E+00
   0.9821543956429973E+00
   0.9794783301633850E+00
   0.9704368615490505E+00
   0.9720887190447297E+00
   0.9557898419377638E+00
   0.9498086707842281E+00
   0.9529904617326104E+00
   0.1002635788408436E+01
   0.1002475631431548E+01
   0.1000513073384034E+01
   0.1001674838824351E+01
   0.9610035228933088E+00
   0.9492443249370391E+00
   0.9586632958420851E+00
   0.1001121360766994E+01
   0.1000501199737769E+01
   0.1001159801836342E+01
   0.9807420385459666E+00
   0.9805568735858307E+00
   0.9629217555758239E+00
SCALARS u double 1
LOOKUP_TABLE default
   0.0000000000000000E+00
   0.0000000000000000E+00
   0.0000000000000000E+00
   0.0000000000000000E+00
   0.0000000000000000E+00
   0.0000000000000000E+00
   0.0000000000000000E+00
   0.0000000000000000E+00
   0.0000000000000000E+00
   0.0000000000000000E+00
   0.0000000000000000E+00
   0.0000000000000000E+00
   0.0000000000000000E+00
   0.0000000000000000E+00
   0.0000000000000000E+00
   0.0000000000000000E+00
   0.0000000000000000E+00
   0.0000000000000000E+00
   0.0000000000000000E+00
   0.0000000000000000E+00
   0.0000000000000000E+00
   0.0000000000000000E+00
   0.0000000000000000E+00
   0.0000000000000000E+00
   0.0000000000000000E+00
   0.0000000000000000E+00
   0.0000000000000000E+00
   0.0000000000000000E+00
   0.0000000000000000E+00
   0.0000000000000000E+00
   0.0000000000000000E+00
   0.0000000000000000E+00
   0.0000000000000000E+00
   0.4945973575745419E+00
   0.5336248061158789E+00
   0.5182740392019837E+00
   0.4930714262477722E+00
   0.4847754239424726E+00
   0.4868132658670646E+00
   0.4891430749634277E+00
   0.4958009008977146E+00
   0.4899007395784462E+00
   0.4718072595002675E+00
   0.4448872821907602E+00
   0.4844369957851142E+00
   0.5097703287291923E+00
   0.4401859466251519E+00
   0.4949587095285500E+00
   0.5223003571559717E+00
   0.4962747030056453E+00
   0.5223832220424167E+00
   0.5038168240941368E+00
   0.5644336968402022E+00
   0.5245894633172872E+00
   0.4990985079196834E+00
   0.5729201584249115E+00
   0.5693592822224298E+00
   0.3752192377047666E+00
   0.4003638958422238E+00
   0.5599389980797647E+00
   0.5562259011404092E+00
   0.4942640857013101E+00
   0.4948651986390955E+00
   0.4925619077545063E+00
   0.4913967779144104E+00
   0.5162597181639456E+00
   0.5363670730794430E+00
   0.4951374099601323E+00
   0.4520512866166649E+00
   0.5129007648835040E+00
   0.5117699738151741E+00
   0.4786317420143882E+00
   0.4931122295474854E+00
   0.4600270422023216E+00
   0.5242595714713543E+00
   0.5299947206181755E+00
   0.5129700664921649E+00
   0.5328928660783503E+00
   0.5309782656068401E+00
   0.5309767600951588E+00
   0.5063651327422921E+00
   0.5279536198712645E+00
   0.5409238857993489E+00
   0.5363719066417739E+00
   0.5374201321001753E+00
   0.4965358977926084E+00
   0.4975364855689218E+00
   0.4963815196290158E+00
   0.4955155009192403E+00
   0.4904172546828417E+00
   0.4902500218832457E+00
   0.4861611301599766E+00
   0.4854067626036518E+00
   0.4931955991096281E+00
   0.4910329673761114E+00
   0.4831677522634646E+00
   0.4872468852168749E+00
   0.4880024340365563E+00
   0.4872312423247780E+00
   0.4882163843624422E+00
   0.4952576818748224E+00
   0.4900721165549367E+00
   0.4903599279892057E+00
   0.4944353031531030E+00
   0.4868191770702409E+00
   0.4892735525631881E+00
   0.4881467943128406E+00
   0.4878252412757036E+00
   0.4449106771311891E+00
   0.4700132875682186E+00
   0.4891774916945091E+00
   0.4885974633330438E+00
   0.4510294632511679E+00
   0.4681803401153256E+00
   0.4876666904514966E+00
   0.4868262748507991E+00
   0.4909268400975514E+00
   0.4793945542574958E+00
   0.4657906778845249E+00
   0.3794391074161996E+00
   0.4903637341439626E+00
   0.4487969161877126E+00
   0.4432386723189957E+00
   0.4845716406477013E+00
   0.4621867849096566E+00
   0.4663606658520139E+00
   0.4747787029445980E+00
   0.4893811122947587E+00
   0.5085638693537162E+00
   0.4305372592631301E+00
   0.4927298035939200E+00
   0.5320327257780242E+00
   0.4913855406976271E+00
   0.5209473686786726E+00
   0.5061309369923201E+00
   0.5690650995502684E+00
   0.5274990559892133E+00
   0.5015024137648029E+00
   0.5821782452824967E+00
   0.5691769249090803E+00
   0.3403300367516612E+00
   0.3786151437510019E+00
   0.5753346478894906E+00
   0.5668543264966580E+00
   0.5703059562242244E+00
   0.5291879203995399E+00
   0.5449837174864404E+00
   0.5719102639051279E+00
   0.5385667385936972E+00
   0.5475905554708386E+00
   0.5821515961949542E+00
   0.4925318967333798E+00
   0.5041571112052911E+00
   0.4961293263729889E+00
   0.5562736232554495E+00
   0.4757837004669501E+00
   0.4950183186027617E+00
   0.5496188053136569E+00
   0.5889517157505085E+00
   0.5839552614067419E+00
   0.5468175655759057E+00
   0.5803880221176506E+00
   0.5106065639243116E+00
   0.5029552648842099E+00
   0.5033112962653636E+00
   0.5676222184583954E+00
   0.5564619500957797E+00
   0.4947144957124249E+00
   0.5506785365268105E+00
   0.5513581030287135E+00
   0.5658250452010087E+00
   0.4919965128565402E+00
   0.4927864167437559E+00
   0.3865373439388538E+00
   0.3687905802589280E+00
   0.5574396398063807E+00
   0.5761715375902741E+00
   0.4194266698175105E+00
   0.5822960127699007E+00
   0.4268170190017718E+00
   0.5397379314480516E+00
   0.5016136015919349E+00
   0.5119237843495784E+00
   0.5048466762154322E+00
   0.5752734466459992E+00
   0.5878359739691116E+00
   0.5382541023814184E+00
   0.5679685702365985E+00
   0.5351985018773310E+00
   0.5338430658765020E+00
   0.5582271983156244E+00
   0.5511430279582280E+00
   0.4256686652311425E+00
   0.5272843687905103E+00
   0.5796789074162523E+00
   0.3318300658694485E+00
   0.4761646063417819E+00
   0.5446507502377500E+00
   0.4800729074118877E+00
   0.3006193628611382E+00
   0.5031625584418186E+00
   0.5017187248810593E+00
   0.5129125393077524E+00
   0.5414131212401816E+00
   0.3435098566965357E+00
   0.3397971778880403E+00
   0.3190373713368245E+00
   0.5066176556640198E+00
   0.5123823904493410E+00
   0.5329091193702717E+00
   0.5881345095371783E+00
   0.4645017928900532E+00
   0.3529492324243066E+00
SCALARS v double 1
LOOKUP_TABLE default
   0.0000000000000000E+00
   0.0000000000000000E+00
   0.0000000000000000E+00
   0.0000000000000000E+00
   0.0000000000000000E+00
   0.0000000000000000E+00
   0.0000000000000000E+00
   0.0000000000000000E+00
   0.0000000000000000E+00
   0.0000000000000000E+00
   0.0000000000000000E+00
   0.0000000000000000E+00
   0.0000000000000000E+00
   0.0000000000000000E+00
   0.0000000000000000E+00
   0.0000000000000000E+00
   0.0000000000000000E+00
   0.0000000000000000E+00
   0.0000000000000000E+00
   0.0000000000000000E+00
   0.0000000000000000E+00
   0.0000000000000000E+00
   0.0000000000000000E+00
   0.0000000000000000E+00
   0.0000000000000000E+00
   0.0000000000000000E+00
   0.0000000000000000E+00
   0.0000000000000000E+00
   0.0000000000000000E+00
   0.0000000000000000E+00
   0.0000000000000000E+00
   0.0000000000000000E+00
   0.0000000000000000E+00
   0.0000000000000000E+00
   0.0000000000000000E+00
   0.0000000000000000E+00
   0.0000000000000000E+00
   0.0000000000000000E+00
   0.0000000000000000E+00
   0.0000000000000000E+00
   0.0000000000000000E+00
   0.0000000000000000E+00
   0.0000000000000000E+00
   0.0000000000000000E+00
   0.0000000000000000E+00
   0.0000000000000000E+00
   0.0000000000000000E+00
   0.0000000000000000E+00
   0.0000000000000000E+00
   0.0000000000000000E+00
   0.0000000000000000E+00
   0.0000000000000000E+00
   0.0000000000000000E+00
   0.0000000000000000E+00
   0.0000000000000000E+00
   0.0000000000000000E+00
   0.0000000000000000E+00
   0.0000000000000000E+00
   0.0000000000000000E+00
   0.0000000000000000E+00
   0.0000000000000000E+00
   0.8508088708531878E-03
  -0.1263765278943538E-02
  -0.1294460009838752E-02
   0.0000000000000000E+00
   0.0000000000000000E+00
   0.0000000000000000E+00
   0.0000000000000000E+00
  -0.1933169213936096E-01
   0.5037572118022725E-03
   0.2213187284525164E-02
   0.1420877748061298E-01
  -0.6733051948610509E-02
  -0.8155353042466586E-02
  -0.1324509504960743E-01
   0.5002686438953268E-02
   0.7354190326923375E-03
   0.3481249957157231E-02
   0.1949283670589044E-02
   0.3168725055962726E-02
   0.1754938074061843E-02
  -0.7289646396167782E-02
  -0.6648039783711248E-04
   0.4565692219570230E-02
  -0.4086288693941103E-03
  -0.6653966200111237E-04
  -0.2024327442690910E-03
   0.8053625461325937E-03
   0.0000000000000000E+00
   0.0000000000000000E+00
   0.0000000000000000E+00
   0.0000000000000000E+00
   0.4740180181603450E-03
   0.1623476526993211E-02
  -0.1273520491704834E-02
  -0.9988421028506677E-03
  -0.2077601788118428E-02
  -0.9970506460028953E-03
  -0.7512700135541842E-03
  -0.7430882389648066E-03
   0.6013931108768157E-04
  -0.5976412776597362E-03
   0.8033002455090903E-03
  -0.1730546578894617E-02
   0.3140951641845960E-03
  -0.5786501440041225E-04
  -0.8901902142517345E-03
  -0.1053194837150374E-02
   0.0000000000000000E+00
   0.0000000000000000E+00
   0.0000000000000000E+00
  -0.1035474942385229E-02
  -0.7791748136229913E-02
   0.1821117422776978E-01
  -0.2907383368642638E-04
  -0.1376998579065555E-02
  -0.2028315817424531E-02
  -0.5613334328645797E-02
  -0.1620479379788524E-02
  -0.6358834950235460E-02
  -0.4327530206307663E-02
   0.1516524987219083E-02
   0.3300085342342693E-01
   0.4396953733572381E-04
  -0.2766675162105867E-02
   0.3629410565359873E-02
   0.3917477271992928E-03
   0.0000000000000000E+00
   0.0000000000000000E+00
   0.0000000000000000E+00
   0.0000000000000000E+00
   0.0000000000000000E+00
   0.0000000000000000E+00
   0.0000000000000000E+00
   0.0000000000000000E+00
   0.0000000000000000E+00
   0.0000000000000000E+00
   0.0000000000000000E+00
   0.0000000000000000E+00
   0.0000000000000000E+00
   0.0000000000000000E+00
   0.0000000000000000E+00
   0.0000000000000000E+00
   0.0000000000000000E+00
   0.4996969308053424E-02
   0.3210188293446796E-02
   0.8121798540329100E-02
   0.6089628340667540E-02
   0.1117053117232330E-01
   0.1403199631432579E-01
  -0.3288482878734472E-03
   0.5160327281999200E-02
   0.2928869071803418E-02
   0.3376787729768578E-02
   0.3724195891608772E-02
  -0.1469861435979822E-01
  -0.6149047219591869E-03
   0.6636946452370357E-02
   0.1453263214760264E-02
   0.1957691774062465E-02
   0.4261441737846755E-02
  -0.2811582052058086E-02
   0.1265485003723902E-02
   0.2850417133235217E-02
   0.1533832942166540E-02
   0.2562439962494284E-02
   0.2009328941210541E-02
   0.2152902029069100E-02
   0.8578465480744913E-02
  -0.3835719341221617E-02
   0.6146233404269136E-02
   0.4620491452413208E-04
  -0.4247816090687394E-03
  -0.1674691928927920E-01
  -0.5005037540494323E-02
  -0.4835525927982717E-02
   0.3396938373598037E-02
  -0.6079343560549296E-02
   0.2524449387792088E-04
  -0.3285396795389512E-01
  -0.3188821281286855E-02
   0.4573348447794391E-02
   0.9670290857205245E-03
   0.2132610336473934E-02
   0.4531866781873346E-02
   0.2691321503441977E-02
   0.3250785456401419E-02
   0.5226686140793402E-02
   0.1957689023239687E-02
   0.7476509562176062E-03
  -0.6133233161503208E-04
  -0.5321966273517865E-02
  -0.6966497950225367E-02
  -0.9690387608476776E-03
   0.1057798324167415E-02
  -0.2117730217096384E-02
  -0.3224072070156075E-02
  -0.2538194236687628E-02
  -0.4117268230502431E-02
  -0.7559175653807453E-02
  -0.2014246544637282E-02
   0.6495747811056544E-03
  -0.1932174349927830E-03
   0.1227180627713896E-02
  -0.3503804451216303E-02
   0.4855576151344632E-02
  -0.8634991471484006E-02
   0.3164794014589781E-04
  -0.3337160116004078E-03
   0.2557975711871381E-02
   0.1609327595468412E-02
   0.2028246797964010E-02
  -0.5642905166600557E-02
SCALARS w double 1
LOOKUP_TABLE default
   0.0000000000000000E+00
   0.0000000000000000E+00
   0.0000000000000000E+00
   0.0000000000000000E+00
   0.0000000000000000E+00
   0.0000000000000000E+00
   0.0000000000000000E+00
   0.0000000000000000E+00
   0.0000000000000000E+00
   0.0000000000000000E+00
   0.0000000000000000E+00
   0.0000000000000000E+00
   0.0000000000000000E+00
   0.0000000000000000E+00
   0.0000000000000000E+00
   0.0000000000000000E+00
   0.0000000000000000E+00
   0.0000000000000000E+00
   0.0000000000000000E+00
   0.0000000000000000E+00
   0.0000000000000000E+00
   0.0000000000000000E+00
   0.0000000000000000E+00
   0.0000000000000000E+00
   0.0000000000000000E+00
   0.0000000000000000E+00
   0.0000000000000000E+00
   0.0000000000000000E+00
   0.0000000000000000E+00
   0.0000000000000000E+00
   0.0000000000000000E+00
   0.0000000000000000E+00
   0.0000000000000000E+00
  -0.1007323181408181E+00
  -0.4246422559261677E-01
   0.7113314201343874E-03
   0.5703903320604027E-02
   0.5677983623478853E-03
   0.1606454662367185E-02
   0.3372458645053691E-02
   0.2364336378274458E-02
   0.4714529633565925E-03
   0.3527024618914910E-02
   0.4532836882994997E-01
   0.6564276731610665E-01
   0.8375659567707042E-03
  -0.2265941638299716E-01
   0.4272680604002961E-02
   0.1342684426983724E-01
   0.1030062650019931E-01
   0.4871552723597747E-01
   0.2383979125968399E-02
  -0.6536040641479263E-02
  -0.7361235717939350E-03
   0.3059846512807999E-03
   0.3852877345654261E-02
  -0.3894169906170530E-01
   0.1818957298660531E-01
   0.1121939614774964E-01
   0.3396112613703235E-01
   0.8384113561021407E-02
   0.4924000471982219E-02
   0.4973334945396011E-02
   0.4900459393026790E-02
   0.6056656939966851E-02
   0.2699567934367062E-02
  -0.4126443324858241E-01
  -0.9925923047707591E-01
  -0.1120358550588184E+00
   0.5146228188504676E-02
   0.4213978895047167E-02
  -0.1002565012642040E+00
  -0.9892853589583789E-01
  -0.9835938913153690E-01
  -0.9444625110440423E-01
  -0.6789772318617243E-01
   0.5197107310433341E-02
  -0.1927012335658053E-01
  -0.1562810145285973E-01
  -0.5965352548825609E-02
   0.6821896071525017E-02
  -0.8000745913585451E-01
  -0.2776956726417683E-01
  -0.8085905805276754E-01
  -0.5863342947745978E-01
   0.3074015339244255E-02
   0.2684910218000061E-02
   0.2644248704397479E-02
   0.3456850676959789E-02
   0.3997736646897839E-02
   0.1199154548110269E-02
  -0.1356228728974123E-03
   0.2028499584482796E-02
   0.4893506875133792E-02
   0.3864263158892611E-02
   0.1125881769104931E-02
   0.1187840347465637E-02
   0.1459881243565776E-02
  -0.2249785037908034E-04
   0.9081790722984299E-04
   0.4386512667622115E-02
   0.2712008048192975E-02
   0.2316481384891056E-02
   0.5006621846955063E-02
   0.1069271231906662E-02
   0.2706709185937544E-02
   0.2010204562180938E-02
   0.3345977582059820E-04
   0.8386120728346252E-01
   0.2833932969446299E-02
  -0.8465892512260846E-03
  -0.1275296622314937E-03
   0.1410969287249556E+00
   0.1236587229850015E+00
  -0.1228603473169454E-02
  -0.4383029030541854E-02
  -0.2803887492453633E-03
  -0.6478051308398916E-02
  -0.1893638464855489E-02
   0.1559600012234915E+00
   0.7528209894752692E-01
   0.2567699415213083E-01
   0.1661258219232000E+00