# vtk DataFile Version 2.0
FUN3D:global_image_vtk
ASCII
DATASET UNSTRUCTURED_GRID
POINTS 213 double
   -0.5474685441687832E-02    0.2504941971167291E+01    0.8038138598670530E-04
    0.1245419105183472E+01    0.2504941971167291E+01    0.1039425058013133E-03
    0.2497696093128780E+01    0.2504941971167291E+01    0.1101298164665754E-03
    0.3750590968915824E+01    0.2504941971167291E+01    0.1356499004944167E-03
    0.5003221331742151E+01    0.2504941971167291E+01    0.9668873038898296E-04
    0.5004676687979097E+01    0.1281291202167040E+01    0.1638053019384356E-03
    0.5004772673778115E+01    0.2775079906482894E-01    0.1903478008447590E-03
    0.5003581183341212E+01   -0.1225853508883529E+01    0.1607765204486578E-03
    0.5001952533742191E+01   -0.2496589036641631E+01    0.1082258890302557E-03
    0.3750348111606544E+01   -0.2496589036641631E+01    0.1458753696815807E-03
    0.2498611462994928E+01   -0.2496589036641631E+01    0.1008933264248224E-03
    0.1247175269333276E+01   -0.2496589036641631E+01    0.1108587619169654E-03
   -0.3383959865719266E-02   -0.2496589036641631E+01    0.8107259626494168E-04
   -0.4257768979765597E-02   -0.1225734811642590E+01    0.3415458742295208E-04
   -0.5251592448509257E-02    0.2619486024420451E-01    0.1038724387187884E-03
   -0.5676060312426845E-02    0.1278221569065707E+01    0.8224601702150336E-04
    0.9003209617952581E+00    0.1608979112280158E+01    0.8704140727677778E-04
    0.3983172210692289E+01   -0.1561211904840279E+01    0.1757116720370600E-03
    0.4035602039224469E+01    0.1486760030415520E+01    0.1713312862106631E-03
    0.1036613723302902E+01   -0.1455626429916848E+01    0.1047189301532914E-03
    0.1094353480630802E+01   -0.2964622010671852E+00    0.1260590236917269E-03
    0.7298400267480001E+00    0.6874684746719117E+00    0.1044598640544958E-03
    0.1617018659308944E+01    0.8553208024939369E+00    0.1529810904974394E-03
    0.2143199662875790E+01   -0.1627128509216730E+01    0.1606170425226816E-03
    0.4088840445400889E+01   -0.4351047825936264E+00    0.2719933294109134E-03
    0.2977916511248925E+01   -0.8334991483094500E+00    0.2245596931861327E-03
    0.3044093241383418E+01   -0.1814361225108581E+01    0.1617000112420497E-03
    0.3427866614805211E+01    0.3813904839972496E+00    0.2936955483430759E-03
    0.4313225355351749E+01    0.5489133376342495E+00    0.2313009573592373E-03
    0.1823032737597358E+01    0.1771265193544254E+01    0.1836202887151583E-03
    0.2806311152168375E+01    0.1358629373600680E+01    0.1943492163983818E-03
    0.1891860875936711E+01   -0.8481310365607546E+00    0.1670645501816170E-03
    0.2268769200166909E+01    0.7723691819196565E-01    0.2072307783085314E-03
    0.5000000000000000E+01    0.2504941971167291E+01    0.1250000000000000E+01
    0.5000000000000000E+01    0.2504941971167291E+01    0.2500000000000000E+01
    0.5000000000000000E+01    0.2504941971167291E+01    0.3750000000000000E+01
    0.5000000000000000E+01    0.2504941971167291E+01    0.5000000000000000E+01
    0.3750000000000000E+01    0.2504941971167291E+01    0.5000000000000000E+01
    0.2500000000000000E+01    0.2504941971167291E+01    0.5000000000000000E+01
    0.1250000000000000E+01    0.2504941971167291E+01    0.5000000000000000E+01
    0.0000000000000000E+00    0.2504941971167291E+01    0.5000000000000000E+01
    0.0000000000000000E+00    0.2504941971167291E+01    0.3750000000000000E+01
    0.0000000000000000E+00    0.2504941971167291E+01    0.2500000000000000E+01
    0.0000000000000000E+00    0.2504941971167291E+01    0.1250000000000000E+01
    0.9588956434871092E+00    0.2504941971167291E+01    0.9696525519543873E+00
    0.3981953078951402E+01    0.2504941971167291E+01    0.4070563854751271E+01
    0.4036122187252336E+01    0.2504941971167291E+01    0.1017567520094671E+01
    0.9637572773153888E+00    0.2504941971167291E+01    0.3973598203142229E+01
    0.1546540136992396E+01    0.2504941971167291E+01    0.2931570169315601E+01
    0.6973799521244313E+00    0.2504941971167291E+01    0.3070319952453756E+01
    0.8903742148356883E+00    0.2504941971167291E+01    0.2056562238187738E+01
    0.2183041995146012E+01    0.2504941971167291E+01    0.3960694449828019E+01
    0.3855844872709870E+01    0.2504941971167291E+01    0.2933250588118630E+01
    0.3152611367438029E+01    0.2504941971167291E+01    0.3637668388416195E+01
    0.3103307385241870E+01    0.2504941971167291E+01    0.4332607813099731E+01
    0.3266711045517939E+01    0.2504941971167291E+01    0.1889656617463738E+01
    0.4232537554484796E+01    0.2504941971167291E+01    0.1918626969802351E+01
    0.1905522374036519E+01    0.2504941971167291E+01    0.7226290832134608E+00
    0.2879767723645805E+01    0.2504941971167291E+01    0.9080945892181980E+00
    0.2012711365064515E+01    0.2504941971167291E+01    0.1767082390977754E+01
    0.2669681472994637E+01    0.2504941971167291E+01    0.2853394335010791E+01
    0.5000000000000000E+01    0.1250000000000000E+01    0.5000000000000000E+01
    0.5000000000000000E+01    0.0000000000000000E+00    0.5000000000000000E+01
    0.5000000000000000E+01   -0.1250000000000000E+01    0.5000000000000000E+01
    0.5000000000000000E+01   -0.2496589036641631E+01    0.5000000000000000E+01
    0.5000000000000000E+01   -0.2496589036641631E+01    0.3750000000000000E+01
    0.5000000000000000E+01   -0.2496589036641631E+01    0.2500000000000000E+01
    0.5000000000000000E+01   -0.2496589036641631E+01    0.1250000000000000E+01
    0.5000000000000000E+01    0.1578994732800803E+01    0.9058375365086910E+00
    0.5000000000000000E+01   -0.1583989954232354E+01    0.3982050490726493E+01
    0.5000000000000000E+01    0.1453322699199022E+01    0.4033849428301197E+01
    0.5000000000000000E+01   -0.1479596339503735E+01    0.1040505887381675E+01
    0.5000000000000000E+01   -0.3227322616384110E+00    0.1099454400140349E+01
    0.5000000000000000E+01    0.6593508822075582E+00    0.7354504170366591E+00
    0.5000000000000000E+01    0.8256214013940779E+00    0.1622302608453282E+01
    0.5000000000000000E+01   -0.1650070333782557E+01    0.2145871574390382E+01
    0.5000000000000000E+01   -0.4612828702537229E+00    0.4086422318222992E+01
    0.5000000000000000E+01   -0.8579242121530853E+00    0.2979540174134984E+01
    0.5000000000000000E+01   -0.1836846154397680E+01    0.3045064261640043E+01
    0.5000000000000000E+01    0.3508002863614053E+00    0.3428197553792836E+01
    0.5000000000000000E+01    0.5185680230613409E+00    0.4309693860063405E+01
    0.5000000000000000E+01    0.1738996113203182E+01    0.1827272193562204E+01
    0.5000000000000000E+01    0.1325493893339706E+01    0.2808563282768077E+01
    0.5000000000000000E+01   -0.8731419609589618E+00    0.1895995683864404E+01
    0.5000000000000000E+01    0.4906150219227333E-01    0.2273179336307740E+01
    0.0000000000000000E+00    0.1250000000000000E+01    0.5000000000000000E+01
    0.0000000000000000E+00    0.0000000000000000E+00    0.5000000000000000E+01
    0.0000000000000000E+00   -0.1250000000000000E+01    0.5000000000000000E+01
    0.0000000000000000E+00   -0.2496589036641631E+01    0.5000000000000000E+01
    0.1250000000000000E+01   -0.2496589036641631E+01    0.5000000000000000E+01
    0.2500000000000000E+01   -0.2496589036641631E+01    0.5000000000000000E+01
    0.3750000000000000E+01   -0.2496589036641631E+01    0.5000000000000000E+01
    0.4042003247744892E+01    0.1558308132739014E+01    0.5000000000000000E+01
    0.9304122287900499E+00   -0.1548001304379777E+01    0.5000000000000000E+01
    0.1037243024609388E+01    0.1462892710085612E+01    0.5000000000000000E+01
    0.3946240828834967E+01   -0.1445243809615570E+01    0.5000000000000000E+01
    0.4092527262848217E+01   -0.3455338993778935E+00    0.5000000000000000E+01
    0.4293103109154542E+01    0.6277660831404320E+00    0.5000000000000000E+01
    0.3241512314643519E+01    0.7429886854239611E+00    0.5000000000000000E+01
    0.2844289952419609E+01   -0.1588117879734118E+01    0.5000000000000000E+01
    0.7159905765450471E+00   -0.6002320124191652E+00    0.5000000000000000E+01
    0.1754341919796891E+01   -0.7398147869923652E+00    0.5000000000000000E+01
    0.1870296826774691E+01   -0.1788622905643739E+01    0.5000000000000000E+01
    0.9220614901912976E+00    0.3083720183248586E+00    0.5000000000000000E+01
    0.3101523624086016E+01    0.1777901774806180E+01    0.5000000000000000E+01
    0.2192512063922564E+01    0.1576861561598471E+01    0.5000000000000000E+01
    0.2024793420196460E+01    0.4773861992750707E+00    0.5000000000000000E+01
    0.2990627757741975E+01   -0.4878110785814084E+00    0.5000000000000000E+01
    0.0000000000000000E+00   -0.2496589036641631E+01    0.1250000000000000E+01
    0.0000000000000000E+00   -0.2496589036641631E+01    0.2500000000000000E+01
    0.0000000000000000E+00   -0.2496589036641631E+01    0.3750000000000000E+01
    0.0000000000000000E+00    0.1558308132739014E+01    0.4042003247744892E+01
    0.0000000000000000E+00   -0.1548001304379777E+01    0.9304122287900499E+00
    0.0000000000000000E+00    0.1462892710085612E+01    0.1037243024609388E+01
    0.0000000000000000E+00   -0.1445243809615570E+01    0.3946240828834967E+01
    0.0000000000000000E+00   -0.3455338993778935E+00    0.4092527262848217E+01
    0.0000000000000000E+00    0.6277660831404320E+00    0.4293103109154542E+01
    0.0000000000000000E+00    0.7429886854239611E+00    0.3241512314643519E+01
    0.0000000000000000E+00   -0.1588117879734118E+01    0.2844289952419609E+01
    0.0000000000000000E+00   -0.6002320124191652E+00    0.7159905765450471E+00
    0.0000000000000000E+00   -0.7398147869923652E+00    0.1754341919796891E+01
    0.0000000000000000E+00   -0.1788622905643739E+01    0.1870296826774691E+01
    0.0000000000000000E+00    0.3083720183248586E+00    0.9220614901912976E+00
    0.0000000000000000E+00    0.1777901774806180E+01    0.3101523624086016E+01
    0.0000000000000000E+00    0.1576861561598471E+01    0.2192512063922564E+01
[...]
POINT_DATA 213
SCALARS rho double 1
LOOKUP_TABLE default
   0.1346108316263255E+01
   0.9572039998600533E+00
   0.9461172176740152E+00
   0.9421724422233184E+00
   0.8436076751989647E+00
   0.7742023688679498E+00
   0.7627583542973825E+00
   0.7661562012440292E+00
   0.8310489475274555E+00
   0.9353548242975459E+00
   0.9343897288268646E+00
   0.9616167925151869E+00
   0.1448475453679515E+01
   0.1495420693456565E+01
   0.1646729694953913E+01
   0.1426611750618526E+01
   0.1009807294814252E+01
   0.9511451599258058E+00
   0.9438202812352272E+00
   0.9574649706908229E+00
   0.9414971310207753E+00
   0.1037119050552769E+01
   0.9258166083497273E+00
   0.9322402496787979E+00
   0.9538058253071970E+00
   0.9520452717008221E+00
   0.9351035433474127E+00
   0.9565496449253674E+00
   0.9378638716756678E+00
   0.9303460519868507E+00
   0.9446467733334071E+00
   0.8862352680534284E+00
   0.9424046351261662E+00
   0.9637013741733472E+00
   0.1008356272044943E+01
   0.1006712429709871E+01
   0.1001958930205303E+01
   0.1003217522115545E+01
   0.1004120115973780E+01
   0.1005208064902657E+01
   0.1004249961603991E+01
   0.1008268330106259E+01
   0.1023869441005896E+01
   0.1063755461250259E+01
   0.1019394088224978E+01
   0.1001777911845247E+01
   0.9645774231497780E+00
   0.1005263328272079E+01
   0.1000745736275092E+01
   0.1008696549289946E+01
   0.1008037948454514E+01
   0.1002353862047825E+01
   0.9980195530495676E+00
   0.1000592769357706E+01
   0.1001620641860696E+01
   0.9828039326493985E+00
   0.9843899726746395E+00
   0.9834136048390897E+00
   0.9790327232203274E+00
   0.9904757376070084E+00
   0.9935193468940738E+00
   0.1002008894346883E+01
   0.1002132240744529E+01
   0.1002273087521138E+01
   0.1001793578297202E+01
   0.1009816088027807E+01
   0.1006507955582151E+01
   0.9561125617151616E+00
   0.9252807406676379E+00
   0.1007053966729327E+01
   0.1004490981234749E+01
   0.9145128351552736E+00
   0.9091570307030368E+00
   0.8752463079641379E+00
   0.9767979597407632E+00
   0.1000541360241155E+01
   0.1005826549297284E+01
   0.1012896701668310E+01
   0.1011680292165994E+01
   0.1010415973639714E+01
   0.1005456587395452E+01
   0.9909167515212237E+00
   0.1005149610920290E+01
   0.9860895085449121E+00
   0.1005593206447771E+01
   0.1004239922232600E+01
   0.1002885969213363E+01
   0.1003350063078460E+01
   0.1003997944127810E+01
   0.1005115344746932E+01
   0.1003223209693076E+01
   0.1002669123761892E+01
   0.1002589508054995E+01
   0.1004069040374430E+01
   0.1004304991187210E+01
   0.1001643157085854E+01
   0.1002279136440370E+01
   0.1002546782020571E+01
   0.1003472000595617E+01
   0.1003380240374756E+01
   0.1003233137295522E+01
   0.1004429899220282E+01
   0.1004324039413555E+01
   0.1003653018135799E+01
   0.1003718560687944E+01
   0.1004319243041985E+01
   0.1004462563047398E+01
   0.1003629396212338E+01
   0.1064485256925122E+01
   0.1028442061791067E+01
   0.1009605873439088E+01
   0.1006626987278262E+01
   0.1163967546375632E+01
   0.1086026686831201E+01
   0.1007907087193447E+01
   0.1007251825931673E+01
   0.1006796456312483E+01
   0.1013053883282704E+01
   0.1019340792084218E+01
   0.1235123173296765E+01
   0.1032535565187869E+01
   0.1046565480922848E+01
   0.1201701822065584E+01
   0.1014672138144502E+01
   0.1032297498308545E+01
   0.1028222183338734E+01
   0.1014640520410228E+01
   0.1028986926999345E+01
   0.1002003667365962E+01
   0.9608147831457751E+00
   0.1006858072237086E+01
   0.1001324898680466E+01
   0.1010798261832903E+01
   0.1012231336352154E+01
   0.1000939569587519E+01
   0.9979357843525328E+00
   0.9980690509294100E+00
   0.1001192040826552E+01
   0.9842100790524388E+00
   0.9815228436094172E+00
   0.9648740509475568E+00
   0.9680944437803339E+00
   0.9914084286456321E+00
   0.9910913083038603E+00
   0.9925587124656207E+00
   0.1001727549514234E+01
   0.9993245747401809E+00
   0.9941434371395508E+00
   0.1006982475141323E+01
   0.1022613019618603E+01
   0.1001120639139637E+01
   0.1008783935583392E+01
   0.1004774772921343E+01
   0.1009030410930874E+01
   0.9967211493815418E+00
   0.1005570715442227E+01
   0.1003324760114178E+01
   0.9949845984908295E+00
   0.9833501663083255E+00
   0.9944494689142895E+00
   0.9973474193053223E+00
   0.9932503760541573E+00
   0.1001311884906842E+01
   0.1003000708376212E+01
   0.1002188291593117E+01
   0.9947120026401666E+00
   0.9937832198057097E+00
   0.1004861704668894E+01
   0.1020101282070695E+01
   0.1005337229999312E+01
   0.9817045977666795E+00
   0.1004974596061815E+01
   0.1012374662656399E+01
   0.9873720328709690E+00
   0.9551284413725041E+00
   0.9865253756902149E+00
   0.9865916534802195E+00
   0.9920067167869607E+00
   0.9934435620808153E+00
   0.9960682553857634E+00
   0.1037400105928137E+01
   0.1033161102224295E+01
   0.1001442942589832E+01
   0.1001928635177601E+01
   0.9912313107685402E+00
   0.9911145322898106E+00
   0.9649433996998152E+00
   0.9933790316917671E+00
   0.1006090796374751E+01
   0.1001963018637758E+01
   0.9908628976459807E+00
   0.9742169955168202E+00
   0.9420656172337409E+00
   0.9821543954947485E+00
   0.9794783302235189E+00
   0.9704368616041220E+00
   0.9720887189878856E+00
   0.9557898414997701E+00
   0.9498086706711191E+00
   0.9529904616790147E+00
   0.1002635788495220E+01
   0.1002475631460719E+01
   0.1000513073316604E+01
   0.1001674838577965E+01
   0.9610035232182514E+00
   0.9492443247445719E+00
   0.9586632960130438E+00
   0.1001121360678571E+01
   0.1000501199843907E+01
   0.1001159801540520E+01
   0.9807420384794842E+00
   0.9805568735449590E+00
   0.9629217552733313E+00
SCALARS u double 1
LOOKUP_TABLE default
   0.0000000000000000E+00
   0.0000000000000000E+00
   0.0000000000000000E+00
   0.0000000000000000E+00
   0.0000000000000000E+00
   0.0000000000000000E+00
   0.0000000000000000E+00
   0.0000000000000000E+00
   0.0000000000000000E+00
   0.0000000000000000E+00
   0.0000000000000000E+00
   0.0000000000000000E+00
   0.0000000000000000E+00
   0.0000000000000000E+00
   0.0000000000000000E+00
   0.0000000000000000E+00
   0.0000000000000000E+00
   0.0000000000000000E+00
   0.0000000000000000E+00
   0.0000000000000000E+00
   0.0000000000000000E+00
   0.0000000000000000E+00
   0.0000000000000000E+00
   0.0000000000000000E+00
   0.0000000000000000E+00
   0.0000000000000000E+00
   0.0000000000000000E+00
   0.0000000000000000E+00
   0.0000000000000000E+00
   0.0000000000000000E+00
   0.0000000000000000E+00
   0.0000000000000000E+00
   0.0000000000000000E+00
   0.4945973678191313E+00
   0.5336248050513327E+00
   0.5182740404555684E+00
   0.4930714246731167E+00
   0.4847754205068114E+00
   0.4868132653368214E+00
   0.4891430744281531E+00
   0.4958009013999765E+00
   0.4899007394802739E+00
   0.4718072596334880E+00
   0.4448872821972478E+00
   0.4844369958684882E+00
   0.5097703333340351E+00
   0.4401859475313121E+00
   0.4949587097188842E+00
   0.5223003573209558E+00
   0.4962747030736137E+00
   0.5223832221991093E+00
   0.5038168244758459E+00
   0.5644336963923181E+00
   0.5245894641994285E+00
   0.4990985097736164E+00
   0.5729201586902856E+00
   0.5693592828694001E+00
   0.3752192377624787E+00
   0.4003638955709219E+00
   0.5599389981226893E+00
   0.5562259014215662E+00
   0.4942640825316474E+00
   0.4948651958954746E+00
   0.4925619071367974E+00
   0.4913967782806875E+00
   0.5162597182184233E+00
   0.5363670730383608E+00
   0.4951374106576644E+00
   0.4520512890331543E+00
   0.5129007652647600E+00
   0.5117699763446051E+00
   0.4786317418659916E+00
   0.4931122297850090E+00
   0.4600270411490990E+00
   0.5242595707294536E+00
   0.5299947205782730E+00
   0.5129700677652814E+00
   0.5328928660743318E+00
   0.5309782654292728E+00
   0.5309767611424764E+00
   0.5063651340503865E+00
   0.5279536185346432E+00
   0.5409238855073257E+00
   0.5363719066788123E+00
   0.5374201319950865E+00
   0.4965358979110481E+00
   0.4975364856908052E+00
   0.4963815197052243E+00
   0.4955155009819236E+00
   0.4904172548498058E+00
   0.4902500217795113E+00
   0.4861611309726675E+00
   0.4854067564177044E+00
   0.4931955989645558E+00
   0.4910329667939683E+00
   0.4831677513608769E+00
   0.4872468806484128E+00
   0.4880024273791757E+00
   0.4872312392880038E+00
   0.4882163845924747E+00
   0.4952576817170736E+00
   0.4900721164411280E+00
   0.4903599279046127E+00
   0.4944353026095725E+00
   0.4868191758702433E+00
   0.4892735512144606E+00
   0.4881467930726746E+00
   0.4878252396080919E+00
   0.4449106780027495E+00
   0.4700132875184994E+00
   0.4891774917471575E+00
   0.4885974634682679E+00
   0.4510294628034825E+00
   0.4681803399583859E+00
   0.4876666907156771E+00
   0.4868262750091018E+00
   0.4909268404137003E+00
   0.4793945543460201E+00
   0.4657906777213863E+00
   0.3794391075096473E+00
   0.4903637343848275E+00
   0.4487969161866969E+00
   0.4432386725517264E+00
   0.4845716407443448E+00
   0.4621867851108186E+00
   0.4663606659234845E+00
   0.4747787029547935E+00
   0.4893811124179785E+00
   0.5085638676813675E+00
   0.4305372591507592E+00
   0.4927298036614620E+00
   0.5320327256123858E+00
   0.4913855406343016E+00
   0.5209473688353804E+00
   0.5061309364999785E+00
   0.5690650993919021E+00
   0.5274990552036551E+00
   0.5015024129571735E+00
   0.5821782454631185E+00
   0.5691769250212063E+00
   0.3403300368287364E+00
   0.3786151439693308E+00
   0.5753346481750895E+00
   0.5668543263573821E+00
   0.5703059562536260E+00
   0.5291879205953213E+00
   0.5449837175767392E+00
   0.5719102639589676E+00
   0.5385667386742119E+00
   0.5475905556229861E+00
   0.5821515963413825E+00
   0.4925318968536213E+00
   0.5041571115926039E+00
   0.4961293265019155E+00
   0.5562736233265465E+00
   0.4757837005646447E+00
   0.4950183184506384E+00
   0.5496188055878042E+00
   0.5889517159317296E+00
   0.5839552612739060E+00
   0.5468175663611088E+00
   0.5803880219191895E+00
   0.5106065646599162E+00
   0.5029552653040363E+00
   0.5033112976890539E+00
   0.5676222186353662E+00
   0.5564619505294741E+00
   0.4947144959330520E+00
   0.5506785365921125E+00
   0.5513581031285105E+00
   0.5658250452758746E+00
   0.4919965129535576E+00
   0.4927864168211595E+00
   0.3865373443645626E+00
   0.3687905803587741E+00
   0.5574396398904907E+00
   0.5761715377139340E+00
   0.4194266699462462E+00
   0.5822960129598784E+00
   0.4268170191550814E+00
   0.5397379314487072E+00
   0.5016136015784908E+00
   0.5119237866509051E+00
   0.5048466767401500E+00
   0.5752734470849221E+00
   0.5878359740116553E+00
   0.5382541024922265E+00
   0.5679685703586298E+00
   0.5351985016683004E+00
   0.5338430666791043E+00
   0.5582271984786975E+00
   0.5511430283427681E+00
   0.4256686666748709E+00
   0.5272843690174931E+00
   0.5796789075802680E+00
   0.3318300657962278E+00
   0.4761646063987974E+00
   0.5446507503739441E+00
   0.4800729075674303E+00
   0.3006193627932208E+00
   0.5031625583459906E+00
   0.5017187251400370E+00
   0.5129125397567681E+00
   0.5414131226584249E+00
   0.3435098577809349E+00
   0.3397971778372541E+00
   0.3190373713621926E+00
   0.5066176553006129E+00
   0.5123823895045636E+00
   0.5329091199935215E+00
   0.5881345096486870E+00
   0.4645017929156982E+00
   0.3529492325686672E+00
SCALARS v double 1
LOOKUP_TABLE default
   0.0000000000000000E+00
   0.0000000000000000E+00
   0.0000000000000000E+00
   0.0000000000000000E+00
   0.0000000000000000E+00
   0.0000000000000000E+00
   0.0000000000000000E+00
   0.0000000000000000E+00
   0.0000000000000000E+00
   0.0000000000000000E+00
   0.0000000000000000E+00
   0.0000000000000000E+00
   0.0000000000000000E+00
   0.0000000000000000E+00
   0.0000000000000000E+00
   0.0000000000000000E+00
   0.0000000000000000E+00
   0.0000000000000000E+00
   0.0000000000000000E+00
   0.0000000000000000E+00
   0.0000000000000000E+00
   0.0000000000000000E+00
   0.0000000000000000E+00
   0.0000000000000000E+00
   0.0000000000000000E+00
   0.0000000000000000E+00
   0.0000000000000000E+00
   0.0000000000000000E+00
   0.0000000000000000E+00
   0.0000000000000000E+00
   0.0000000000000000E+00
   0.0000000000000000E+00
   0.0000000000000000E+00
   0.0000000000000000E+00
   0.0000000000000000E+00
   0.0000000000000000E+00
   0.0000000000000000E+00
   0.0000000000000000E+00
   0.0000000000000000E+00
   0.0000000000000000E+00
   0.0000000000000000E+00
   0.0000000000000000E+00
   0.0000000000000000E+00
   0.0000000000000000E+00
   0.0000000000000000E+00
   0.0000000000000000E+00
   0.0000000000000000E+00
   0.0000000000000000E+00
   0.0000000000000000E+00
   0.0000000000000000E+00
   0.0000000000000000E+00
   0.0000000000000000E+00
   0.0000000000000000E+00
   0.0000000000000000E+00
   0.0000000000000000E+00
   0.0000000000000000E+00
   0.0000000000000000E+00
   0.0000000000000000E+00
   0.0000000000000000E+00
   0.0000000000000000E+00
   0.0000000000000000E+00
   0.8508087588358521E-03
  -0.1263768295311190E-02
  -0.1294462291585808E-02
   0.0000000000000000E+00
   0.0000000000000000E+00
   0.0000000000000000E+00
   0.0000000000000000E+00
  -0.1933168871891792E-01
   0.5037574409997070E-03
   0.2213187668765855E-02
   0.1420877730199690E-01
  -0.6733052029322699E-02
  -0.8155351469291418E-02
  -0.1324509405697133E-01
   0.5002686647468748E-02
   0.7354203587463004E-03
   0.3481250991333669E-02
   0.1949284091933225E-02
   0.3168726348976619E-02
   0.1754938853415929E-02
  -0.7289644551812960E-02
  -0.6647993686460378E-04
   0.4565692467351242E-02
  -0.4086285417005634E-03
  -0.6653961422373797E-04
  -0.2024326676005662E-03
   0.8053625845705382E-03
   0.0000000000000000E+00
   0.0000000000000000E+00
   0.0000000000000000E+00
   0.0000000000000000E+00
   0.4740180224344110E-03
   0.1623476415614173E-02
  -0.1273520597006326E-02
  -0.9988440150715827E-03
  -0.2077605635524533E-02
  -0.9970531578445384E-03
  -0.7512717511738554E-03
  -0.7430899921396792E-03
   0.6013924753322721E-04
  -0.5976419960082250E-03
   0.8032999048226165E-03
  -0.1730546606974388E-02
   0.3140946067681799E-03
  -0.5786514683804384E-04
  -0.8901903970116467E-03
  -0.1053196719825750E-02
   0.0000000000000000E+00
   0.0000000000000000E+00
   0.0000000000000000E+00
  -0.1035474867168072E-02
  -0.7791748252155850E-02
   0.1821117414186723E-01
  -0.2907383993964943E-04
  -0.1376998535104741E-02
  -0.2028315735147603E-02
  -0.5613334373772839E-02
  -0.1620479264656211E-02
  -0.6358834903463305E-02
  -0.4327530162105396E-02
   0.1516524999339836E-02
   0.3300085344652202E-01
   0.4396951862903103E-04
  -0.2766675172942696E-02
   0.3629410508832221E-02
   0.3917477294128035E-03
   0.0000000000000000E+00
   0.0000000000000000E+00
   0.0000000000000000E+00
   0.0000000000000000E+00
   0.0000000000000000E+00
   0.0000000000000000E+00
   0.0000000000000000E+00
   0.0000000000000000E+00
   0.0000000000000000E+00
   0.0000000000000000E+00
   0.0000000000000000E+00
   0.0000000000000000E+00
   0.0000000000000000E+00
   0.0000000000000000E+00
   0.0000000000000000E+00
   0.0000000000000000E+00
   0.0000000000000000E+00
   0.4996969352741314E-02
   0.3210188374605530E-02
   0.8121798583949897E-02
   0.6089628331859940E-02
   0.1117053116690977E-01
   0.1403199632327101E-01
  -0.3288482339548169E-03
   0.5160327332225275E-02
   0.2928869144077040E-02
   0.3376787771428915E-02
   0.3724195889470693E-02
  -0.1469861433498763E-01
  -0.6149046196260052E-03
   0.6636946594900419E-02
   0.1453262953327025E-02
   0.1957691687431852E-02
   0.4261442251765112E-02
  -0.2811582266881783E-02
   0.1265485694222368E-02
   0.2850417343776914E-02
   0.1533833262966224E-02
   0.2562440543357723E-02
   0.2009329365186375E-02
   0.2152902065395522E-02
   0.8578465504464275E-02
  -0.3835719315424638E-02
   0.6146233397587461E-02
   0.4620498971277046E-04
  -0.4247815465018281E-03
  -0.1674691923089611E-01
  -0.5005037454166220E-02
  -0.4835525884287348E-02
   0.3396938400038465E-02
  -0.6079343609892401E-02
   0.2524451743748843E-04
  -0.3285396789954743E-01
  -0.3188821254106876E-02
   0.4573348451195066E-02
   0.9670300354750761E-03
   0.2132610574015385E-02
   0.4531867222909275E-02
   0.2691321827480532E-02
   0.3250785505863767E-02
   0.5226686425467230E-02
   0.1957689409267382E-02
   0.7476519504960230E-03
  -0.6133216069250710E-04
  -0.5321966052051358E-02
  -0.6966496755832696E-02
  -0.9690391497152145E-03
   0.1057798356665383E-02
  -0.2117730099943219E-02
  -0.3224071940374100E-02
  -0.2538194479297573E-02
  -0.4117268290351442E-02
  -0.7559175656662302E-02
  -0.2014246462476800E-02
   0.6495753164859884E-03
  -0.1932165722867855E-03
   0.1227181404547469E-02
  -0.3503804169263441E-02
   0.4855576334861466E-02
  -0.8634991376554484E-02
   0.3164857372878726E-04
  -0.3337155756657389E-03
   0.2557975987419936E-02
   0.1609327703695665E-02
   0.2028246835575313E-02
  -0.5642904958640951E-02
SCALARS w double 1
LOOKUP_TABLE default
   0.0000000000000000E+00
   0.0000000000000000E+00
   0.0000000000000000E+00
   0.0000000000000000E+00
   0.0000000000000000E+00
   0.0000000000000000E+00
   0.0000000000000000E+00
   0.0000000000000000E+00
   0.0000000000000000E+00
   0.0000000000000000E+00
   0.0000000000000000E+00
   0.0000000000000000E+00
   0.0000000000000000E+00
   0.0000000000000000E+00
   0.0000000000000000E+00
   0.0000000000000000E+00
   0.0000000000000000E+00
   0.0000000000000000E+00
   0.0000000000000000E+00
   0.0000000000000000E+00
   0.0000000000000000E+00
   0.0000000000000000E+00
   0.0000000000000000E+00
   0.0000000000000000E+00
   0.0000000000000000E+00
   0.0000000000000000E+00
   0.0000000000000000E+00
   0.0000000000000000E+00
   0.0000000000000000E+00
   0.0000000000000000E+00
   0.0000000000000000E+00
   0.0000000000000000E+00
   0.0000000000000000E+00
  -0.1007323208190864E+00
  -0.4246422754642085E-01
   0.7113320146274813E-03
   0.5703905385714734E-02
   0.5677984384097693E-03
   0.1606453593714203E-02
   0.3372458863398203E-02
   0.2364336459766569E-02
   0.4714530210490515E-03
   0.3527024651346758E-02
   0.4532836883282195E-01
   0.6564276729181061E-01
   0.8375653340377143E-03
  -0.2265941557354740E-01
   0.4272680455641928E-02
   0.1342684431224050E-01
   0.1030062651303544E-01
   0.4871552725490531E-01
   0.2383979181366557E-02
  -0.6536041013516214E-02
  -0.7361232003704141E-03
   0.3059840076229139E-03
   0.3852877263492481E-02
  -0.3894170037594773E-01
   0.1818957301361882E-01
   0.1121939651467139E-01
   0.3396112622270164E-01
   0.8384113664698744E-02
   0.4924001840436710E-02
   0.4973334914554329E-02
   0.4900458208832912E-02
   0.6056655316288529E-02
   0.2699566707605351E-02
  -0.4126443343408408E-01
  -0.9925923058062429E-01
  -0.1120358549882950E+00
   0.5146227412381298E-02
   0.4213980493733330E-02
  -0.1002565012218463E+00
  -0.9892853606224307E-01
  -0.9835938914082915E-01
  -0.9444625166905382E-01
  -0.6789772316363549E-01
   0.5197107800078754E-02
  -0.1927012269238644E-01
  -0.1562810144566547E-01
  -0.5965351629645330E-02
   0.6821897432973557E-02
  -0.8000746121080764E-01
  -0.2776956718283962E-01
  -0.8085905795626029E-01
  -0.5863342940155594E-01
   0.3074015572037498E-02
   0.2684910255914143E-02
   0.2644248488300141E-02
   0.3456850580476943E-02
   0.3997736833173962E-02
   0.1199155261031499E-02
  -0.1356232213169489E-03
   0.2028500881116053E-02
   0.4893507135793195E-02
   0.3864262920024952E-02
   0.1125880519406814E-02
   0.1187840792917054E-02
   0.1459880922438065E-02
  -0.2249858052213502E-04
   0.9081788364195588E-04
   0.4386512829409072E-02
   0.2712007679985059E-02
   0.2316481438332357E-02
   0.5006621823715308E-02
   0.1069270579241546E-02
   0.2706708915006387E-02
   0.2010204592879337E-02
   0.3345962348652931E-04
   0.8386120768201677E-01
   0.2833933060057376E-02
  -0.8465892595070128E-03
  -0.1275297337629976E-03
   0.1410969287162055E+00
   0.1236587229884606E+00
  -0.1228603566562409E-02
  -0.4383029021456776E-02
  -0.2803887877359355E-03
  -0.6478051320025898E-02
  -0.1893638411860359E-02
   0.1559600012169335E+00
   0.7528209897069965E-01
   0.2567699417434188E-01
   0.1661258219004124E+00