# vtk DataFile Version 2.0
FUN3D:global_image_vtk
ASCII
DATASET UNSTRUCTURED_GRID
POINTS 213 double
   -0.5474685441687832E-02    0.2504941971167291E+01    0.8038138598670530E-04
    0.1245419105183472E+01    0.2504941971167291E+01    0.1039425058013133E-03
    0.2497696093128780E+01    0.2504941971167291E+01    0.1101298164665754E-03
    0.3750590968915824E+01    0.2504941971167291E+01    0.1356499004944167E-03
    0.5003221331742151E+01    0.2504941971167291E+01    0.9668873038898296E-04
    0.5004676687979097E+01    0.1281291202167040E+01    0.1638053019384356E-03
    0.5004772673778115E+01    0.2775079906482894E-01    0.1903478008447590E-03
    0.5003581183341212E+01   -0.1225853508883529E+01    0.1607765204486578E-03
    0.5001952533742191E+01   -0.2496589036641631E+01    0.1082258890302557E-03
    0.3750348111606544E+01   -0.2496589036641631E+01    0.1458753696815807E-03
    0.2498611462994928E+01   -0.2496589036641631E+01    0.1008933264248224E-03
    0.1247175269333276E+01   -0.2496589036641631E+01    0.1108587619169654E-03
   -0.3383959865719266E-02   -0.2496589036641631E+01    0.8107259626494168E-04
   -0.4257768979765597E-02   -0.1225734811642590E+01    0.3415458742295208E-04
   -0.5251592448509257E-02    0.2619486024420451E-01    0.1038724387187884E-03
   -0.5676060312426845E-02    0.1278221569065707E+01    0.8224601702150336E-04
    0.9003209617952581E+00    0.1608979112280158E+01    0.8704140727677778E-04
    0.3983172210692289E+01   -0.1561211904840279E+01    0.1757116720370600E-03
    0.4035602039224469E+01    0.1486760030415520E+01    0.1713312862106631E-03
    0.1036613723302902E+01   -0.1455626429916848E+01    0.1047189301532914E-03
    0.1094353480630802E+01   -0.2964622010671852E+00    0.1260590236917269E-03
    0.7298400267480001E+00    0.6874684746719117E+00    0.1044598640544958E-03
    0.1617018659308944E+01    0.8553208024939369E+00    0.1529810904974394E-03
    0.2143199662875790E+01   -0.1627128509216730E+01    0.1606170425226816E-03
    0.4088840445400889E+01   -0.4351047825936264E+00    0.2719933294109134E-03
    0.2977916511248925E+01   -0.8334991483094500E+00    0.2245596931861327E-03
    0.3044093241383418E+01   -0.1814361225108581E+01    0.1617000112420497E-03
    0.3427866614805211E+01    0.3813904839972496E+00    0.2936955483430759E-03
    0.4313225355351749E+01    0.5489133376342495E+00    0.2313009573592373E-03
    0.1823032737597358E+01    0.1771265193544254E+01    0.1836202887151583E-03
    0.2806311152168375E+01    0.1358629373600680E+01    0.1943492163983818E-03
    0.1891860875936711E+01   -0.8481310365607546E+00    0.1670645501816170E-03
    0.2268769200166909E+01    0.7723691819196565E-01    0.2072307783085314E-03
    0.5000000000000000E+01    0.2504941971167291E+01    0.1250000000000000E+01
    0.5000000000000000E+01    0.2504941971167291E+01    0.2500000000000000E+01
    0.5000000000000000E+01    0.2504941971167291E+01    0.3750000000000000E+01
    0.5000000000000000E+01    0.2504941971167291E+01    0.5000000000000000E+01
    0.3750000000000000E+01    0.2504941971167291E+01    0.5000000000000000E+01
    0.2500000000000000E+01    0.2504941971167291E+01    0.5000000000000000E+01
    0.1250000000000000E+01    0.2504941971167291E+01    0.5000000000000000E+01
    0.0000000000000000E+00    0.2504941971167291E+01    0.5000000000000000E+01
    0.0000000000000000E+00    0.2504941971167291E+01    0.3750000000000000E+01
    0.0000000000000000E+00    0.2504941971167291E+01    0.2500000000000000E+01
    0.0000000000000000E+00    0.2504941971167291E+01    0.1250000000000000E+01
    0.9588956434871092E+00    0.2504941971167291E+01    0.9696525519543873E+00
    0.3981953078951402E+01    0.2504941971167291E+01    0.4070563854751271E+01
    0.4036122187252336E+01    0.2504941971167291E+01    0.1017567520094671E+01
    0.9637572773153888E+00    0.2504941971167291E+01    0.3973598203142229E+01
    0.1546540136992396E+01    0.2504941971167291E+01    0.2931570169315601E+01
    0.6973799521244313E+00    0.2504941971167291E+01    0.3070319952453756E+01
    0.8903742148356883E+00    0.2504941971167291E+01    0.2056562238187738E+01
    0.2183041995146012E+01    0.2504941971167291E+01    0.3960694449828019E+01
    0.3855844872709870E+01    0.2504941971167291E+01    0.2933250588118630E+01
    0.3152611367438029E+01    0.2504941971167291E+01    0.3637668388416195E+01
    0.3103307385241870E+01    0.2504941971167291E+01    0.4332607813099731E+01
    0.3266711045517939E+01    0.2504941971167291E+01    0.1889656617463738E+01
    0.4232537554484796E+01    0.2504941971167291E+01    0.1918626969802351E+01
    0.1905522374036519E+01    0.2504941971167291E+01    0.7226290832134608E+00
    0.2879767723645805E+01    0.2504941971167291E+01    0.9080945892181980E+00
    0.2012711365064515E+01    0.2504941971167291E+01    0.1767082390977754E+01
    0.2669681472994637E+01    0.2504941971167291E+01    0.2853394335010791E+01
    0.5000000000000000E+01    0.1250000000000000E+01    0.5000000000000000E+01
    0.5000000000000000E+01    0.0000000000000000E+00    0.5000000000000000E+01
    0.5000000000000000E+01   -0.1250000000000000E+01    0.5000000000000000E+01
    0.5000000000000000E+01   -0.2496589036641631E+01    0.5000000000000000E+01
    0.5000000000000000E+01   -0.2496589036641631E+01    0.3750000000000000E+01
    0.5000000000000000E+01   -0.2496589036641631E+01    0.2500000000000000E+01
    0.5000000000000000E+01   -0.2496589036641631E+01    0.1250000000000000E+01
    0.5000000000000000E+01    0.1578994732800803E+01    0.9058375365086910E+00
    0.5000000000000000E+01   -0.1583989954232354E+01    0.3982050490726493E+01
    0.5000000000000000E+01    0.1453322699199022E+01    0.4033849428301197E+01
    0.5000000000000000E+01   -0.1479596339503735E+01    0.1040505887381675E+01
    0.5000000000000000E+01   -0.3227322616384110E+00    0.1099454400140349E+01
    0.5000000000000000E+01    0.6593508822075582E+00    0.7354504170366591E+00
    0.5000000000000000E+01    0.8256214013940779E+00    0.1622302608453282E+01
    0.5000000000000000E+01   -0.1650070333782557E+01    0.2145871574390382E+01
    0.5000000000000000E+01   -0.4612828702537229E+00    0.4086422318222992E+01
    0.5000000000000000E+01   -0.8579242121530853E+00    0.2979540174134984E+01
    0.5000000000000000E+01   -0.1836846154397680E+01    0.3045064261640043E+01
    0.5000000000000000E+01    0.3508002863614053E+00    0.3428197553792836E+01
    0.5000000000000000E+01    0.5185680230613409E+00    0.4309693860063405E+01
    0.5000000000000000E+01    0.1738996113203182E+01    0.1827272193562204E+01
    0.5000000000000000E+01    0.1325493893339706E+01    0.2808563282768077E+01
    0.5000000000000000E+01   -0.8731419609589618E+00    0.1895995683864404E+01
    0.5000000000000000E+01    0.4906150219227333E-01    0.2273179336307740E+01
    0.0000000000000000E+00    0.1250000000000000E+01    0.5000000000000000E+01
    0.0000000000000000E+00    0.0000000000000000E+00    0.5000000000000000E+01
    0.0000000000000000E+00   -0.1250000000000000E+01    0.5000000000000000E+01
    0.0000000000000000E+00   -0.2496589036641631E+01    0.5000000000000000E+01
    0.1250000000000000E+01   -0.2496589036641631E+01    0.5000000000000000E+01
    0.2500000000000000E+01   -0.2496589036641631E+01    0.5000000000000000E+01
    0.3750000000000000E+01   -0.2496589036641631E+01    0.5000000000000000E+01
    0.4042003247744892E+01    0.1558308132739014E+01    0.5000000000000000E+01
    0.9304122287900499E+00   -0.1548001304379777E+01    0.5000000000000000E+01
    0.1037243024609388E+01    0.1462892710085612E+01    0.5000000000000000E+01
    0.3946240828834967E+01   -0.1445243809615570E+01    0.5000000000000000E+01
    0.4092527262848217E+01   -0.3455338993778935E+00    0.5000000000000000E+01
    0.4293103109154542E+01    0.6277660831404320E+00    0.5000000000000000E+01
    0.3241512314643519E+01    0.7429886854239611E+00    0.5000000000000000E+01
    0.2844289952419609E+01   -0.1588117879734118E+01    0.5000000000000000E+01
    0.7159905765450471E+00   -0.6002320124191652E+00    0.5000000000000000E+01
    0.1754341919796891E+01   -0.7398147869923652E+00    0.5000000000000000E+01
    0.1870296826774691E+01   -0.1788622905643739E+01    0.5000000000000000E+01
    0.9220614901912976E+00    0.3083720183248586E+00    0.5000000000000000E+01
    0.3101523624086016E+01    0.1777901774806180E+01    0.5000000000000000E+01
    0.2192512063922564E+01    0.1576861561598471E+01    0.5000000000000000E+01
    0.2024793420196460E+01    0.4773861992750707E+00    0.5000000000000000E+01
    0.2990627757741975E+01   -0.4878110785814084E+00    0.5000000000000000E+01
    0.0000000000000000E+00   -0.2496589036641631E+01    0.1250000000000000E+01
    0.0000000000000000E+00   -0.2496589036641631E+01    0.2500000000000000E+01
    0.0000000000000000E+00   -0.2496589036641631E+01    0.3750000000000000E+01
    0.0000000000000000E+00    0.1558308132739014E+01    0.4042003247744892E+01
    0.0000000000000000E+00   -0.1548001304379777E+01    0.9304122287900499E+00
    0.0000000000000000E+00    0.1462892710085612E+01    0.1037243024609388E+01
    0.0000000000000000E+00   -0.1445243809615570E+01    0.3946240828834967E+01
    0.0000000000000000E+00   -0.3455338993778935E+00    0.4092527262848217E+01
    0.0000000000000000E+00    0.6277660831404320E+00    0.4293103109154542E+01
    0.0000000000000000E+00    0.7429886854239611E+00    0.3241512314643519E+01
    0.0000000000000000E+00   -0.1588117879734118E+01    0.2844289952419609E+01
    0.0000000000000000E+00   -0.6002320124191652E+00    0.7159905765450471E+00
    0.0000000000000000E+00   -0.7398147869923652E+00    0.1754341919796891E+01
    0.0000000000000000E+00   -0.1788622905643739E+01    0.1870296826774691E+01
    0.0000000000000000E+00    0.3083720183248586E+00    0.9220614901912976E+00
    0.0000000000000000E+00    0.1777901774806180E+01    0.3101523624086016E+01
    0.0000000000000000E+00    0.1576861561598471E+01    0.2192512063922564E+01
[...]
POINT_DATA 213
SCALARS rho double 1
LOOKUP_TABLE default
   0.1346108316266516E+01
   0.9572039998651984E+00
   0.9461172176873236E+00
   0.9421724422727891E+00
   0.8436076752869084E+00
   0.7742023688801135E+00
   0.7627583543035998E+00
   0.7661562012463256E+00
   0.8310489475292501E+00
   0.9353548243040243E+00
   0.9343897288328677E+00
   0.9616167925235178E+00
   0.1448475453689869E+01
   0.1495420693460795E+01
   0.1646729694960373E+01
   0.1426611750620134E+01
   0.1009807294819760E+01
   0.9511451599293849E+00
   0.9438202812776174E+00
   0.9574649706999396E+00
   0.9414971310259771E+00
   0.1037119050556826E+01
   0.9258166083585063E+00
   0.9322402496848160E+00
   0.9538058253106320E+00
   0.9520452717076683E+00
   0.9351035433534967E+00
   0.9565496449382384E+00
   0.9378638716719701E+00
   0.9303460519961209E+00
   0.9446467733550156E+00
   0.8862352680595991E+00
   0.9424046351330528E+00
   0.9637013744969706E+00
   0.1008356272019702E+01
   0.1006712429694677E+01
   0.1001958930254197E+01
   0.1003217522142328E+01
   0.1004120115988626E+01
   0.1005208064901283E+01
   0.1004249961601128E+01
   0.1008268330111679E+01
   0.1023869441009851E+01
   0.1063755461254337E+01
   0.1019394088230452E+01
   0.1001777911837218E+01
   0.9645774236074076E+00
   0.1005263328276716E+01
   0.1000745736284074E+01
   0.1008696549295289E+01
   0.1008037948460685E+01
   0.1002353862054786E+01
   0.9980195530460345E+00
   0.1000592769366099E+01
   0.1001620641866597E+01
   0.9828039326305037E+00
   0.9843899727141893E+00
   0.9834136048336658E+00
   0.9790327232747229E+00
   0.9904757376039521E+00
   0.9935193469040803E+00
   0.1002008894419629E+01
   0.1002132240800753E+01
   0.1002273087527475E+01
   0.1001793578304487E+01
   0.1009816088048102E+01
   0.1006507955586486E+01
   0.9561125617440197E+00
   0.9252807407579381E+00
   0.1007053966741863E+01
   0.1004490981233021E+01
   0.9145128351469556E+00
   0.9091570307109121E+00
   0.8752463079206526E+00
   0.9767979597117045E+00
   0.1000541360239591E+01
   0.1005826549298521E+01
   0.1012896701661273E+01
   0.1011680292166820E+01
   0.1010415973633415E+01
   0.1005456587394375E+01
   0.9909167514659181E+00
   0.1005149610919186E+01
   0.9860895085425860E+00
   0.1005593206459353E+01
   0.1004239922231598E+01
   0.1002885969212015E+01
   0.1003350063079957E+01
   0.1003997944129841E+01
   0.1005115344748414E+01
   0.1003223209696067E+01
   0.1002669123753552E+01
   0.1002589508107016E+01
   0.1004069040379247E+01
   0.1004304991188327E+01
   0.1001643157075214E+01
   0.1002279136469170E+01
   0.1002546782087984E+01
   0.1003472000611735E+01
   0.1003380240373208E+01
   0.1003233137299616E+01
   0.1004429899221875E+01
   0.1004324039411522E+01
   0.1003653018140758E+01
   0.1003718560690299E+01
   0.1004319243050094E+01
   0.1004462563053635E+01
   0.1003629396201454E+01
   0.1064485256943289E+01
   0.1028442061791422E+01
   0.1009605873443023E+01
   0.1006626987280982E+01
   0.1163967546369369E+01
   0.1086026686825260E+01
   0.1007907087196259E+01
   0.1007251825931231E+01
   0.1006796456310861E+01
   0.1013053883289098E+01
   0.1019340792085688E+01
   0.1235123173300166E+01
   0.1032535565195805E+01
   0.1046565480924825E+01
   0.1201701822071614E+01
   0.1014672138147956E+01
   0.1032297498313804E+01
   0.1028222183346704E+01
   0.1014640520413415E+01
   0.1028986927004093E+01
   0.1002003667376940E+01
   0.9608147831754092E+00
   0.1006858072240647E+01
   0.1001324898688139E+01
   0.1010798261835512E+01
   0.1012231336357129E+01
   0.1000939569587859E+01
   0.9979357843570886E+00
   0.9980690509252453E+00
   0.1001192040825005E+01
   0.9842100790603715E+00
   0.9815228436233314E+00
   0.9648740509601007E+00
   0.9680944437965670E+00
   0.9914084286494735E+00
   0.9910913083080682E+00
   0.9925587124684977E+00
   0.1001727549517144E+01
   0.9993245747454994E+00
   0.9941434371456831E+00
   0.1006982475145262E+01
   0.1022613019622864E+01
   0.1001120639144829E+01
   0.1008783935587032E+01
   0.1004774772926836E+01
   0.1009030410936741E+01
   0.9967211493883111E+00
   0.1005570715447036E+01
   0.1003324760116646E+01
   0.9949845984930812E+00
   0.9833501663277936E+00
   0.9944494689300983E+00
   0.9973474193122840E+00
   0.9932503760517283E+00
   0.1001311884915560E+01
   0.1003000708380203E+01
   0.1002188291600079E+01
   0.9947120026425537E+00
   0.9937832198100177E+00
   0.1004861704671282E+01
   0.1020101282076271E+01
   0.1005337230004324E+01
   0.9817045977713875E+00
   0.1004974596064201E+01
   0.1012374662659213E+01
   0.9873720328834398E+00
   0.9551284413785770E+00
   0.9865253756937611E+00
   0.9865916534905511E+00
   0.9920067167821920E+00
   0.9934435620883302E+00
   0.9960682553901525E+00
   0.1037400105930398E+01
   0.1033161102226984E+01
   0.1001442942592531E+01
   0.1001928635181767E+01
   0.9912313107665970E+00
   0.9911145322921026E+00
   0.9649433996986473E+00
   0.9933790316910768E+00
   0.1006090796377594E+01
   0.1001963018644339E+01
   0.9908628976491072E+00
   0.9742169954693046E+00
   0.9420656172525652E+00
   0.9821543955093783E+00
   0.9794783302231292E+00
   0.9704368616004037E+00
   0.9720887189909957E+00
   0.9557898415179028E+00
   0.9498086706704915E+00
   0.9529904616760592E+00
   0.1002635788495719E+01
   0.1002475631461277E+01
   0.1000513073321971E+01
   0.1001674838585915E+01
   0.9610035232178608E+00
   0.9492443247450149E+00
   0.9586632960051229E+00
   0.1001121360681968E+01
   0.1000501199843333E+01
   0.1001159801553016E+01
   0.9807420384836281E+00
   0.9805568735462271E+00
   0.9629217552803768E+00
SCALARS u double 1
LOOKUP_TABLE default
   0.0000000000000000E+00
   0.0000000000000000E+00
   0.0000000000000000E+00
   0.0000000000000000E+00
   0.0000000000000000E+00
   0.0000000000000000E+00
   0.0000000000000000E+00
   0.0000000000000000E+00
   0.0000000000000000E+00
   0.0000000000000000E+00
   0.0000000000000000E+00
   0.0000000000000000E+00
   0.0000000000000000E+00
   0.0000000000000000E+00
   0.0000000000000000E+00
   0.0000000000000000E+00
   0.0000000000000000E+00
   0.0000000000000000E+00
   0.0000000000000000E+00
   0.0000000000000000E+00
   0.0000000000000000E+00
   0.0000000000000000E+00
   0.0000000000000000E+00
   0.0000000000000000E+00
   0.0000000000000000E+00
   0.0000000000000000E+00
   0.0000000000000000E+00
   0.0000000000000000E+00
   0.0000000000000000E+00
   0.0000000000000000E+00
   0.0000000000000000E+00
   0.0000000000000000E+00
   0.0000000000000000E+00
   0.4945973674767959E+00
   0.5336248050875229E+00
   0.5182740404312994E+00
   0.4930714246880085E+00
   0.4847754205543368E+00
   0.4868132653594711E+00
   0.4891430744151777E+00
   0.4958009013839226E+00
   0.4899007394794590E+00
   0.4718072596291307E+00
   0.4448872821928478E+00
   0.4844369958667212E+00
   0.5097703332359022E+00
   0.4401859475640689E+00
   0.4949587097101338E+00
   0.5223003573134869E+00
   0.4962747030690386E+00
   0.5223832221928273E+00
   0.5038168244516885E+00
   0.5644336963770774E+00
   0.5245894641611994E+00
   0.4990985097357283E+00
   0.5729201586822481E+00
   0.5693592828396808E+00
   0.3752192377712621E+00
   0.4003638956327589E+00
   0.5599389981230899E+00
   0.5562259013996709E+00
   0.4942640825753427E+00
   0.4948651959554867E+00
   0.4925619071547848E+00
   0.4913967782792392E+00
   0.5162597182149183E+00
   0.5363670730386891E+00
   0.4951374106273509E+00
   0.4520512889633683E+00
   0.5129007652531530E+00
   0.5117699763037180E+00
   0.4786317418801205E+00
   0.4931122297884136E+00
   0.4600270411967105E+00
   0.5242595707567015E+00
   0.5299947205809794E+00
   0.5129700677403229E+00
   0.5328928660726460E+00
   0.5309782654313315E+00
   0.5309767611235442E+00
   0.5063651340366092E+00
   0.5279536186072736E+00
   0.5409238855116124E+00
   0.5363719066838809E+00
   0.5374201319911392E+00
   0.4965358979054905E+00
   0.4975364856842769E+00
   0.4963815197018236E+00
   0.4955155009765759E+00
   0.4904172548398102E+00
   0.4902500217898295E+00
   0.4861611309741399E+00
   0.4854067565176570E+00
   0.4931955989628185E+00
   0.4910329667983232E+00
   0.4831677513903447E+00
   0.4872468807575382E+00
   0.4880024275320797E+00
   0.4872312393726337E+00
   0.4882163845946393E+00
   0.4952576817142509E+00
   0.4900721164451886E+00
   0.4903599279027025E+00
   0.4944353026139118E+00
   0.4868191759059442E+00
   0.4892735512385851E+00
   0.4881467931142969E+00
   0.4878252396597959E+00
   0.4449106779690959E+00
   0.4700132875190224E+00
   0.4891774917432158E+00
   0.4885974634697415E+00
   0.4510294628190448E+00
   0.4681803399683455E+00
   0.4876666907085662E+00
   0.4868262750044935E+00
   0.4909268404056516E+00
   0.4793945543406272E+00
   0.4657906777233795E+00
   0.3794391075056597E+00
   0.4903637343750607E+00
   0.4487969161842080E+00
   0.4432386725405790E+00
   0.4845716407405625E+00
   0.4621867851018987E+00
   0.4663606659170695E+00
   0.4747787029525896E+00
   0.4893811124123310E+00
   0.5085638677103055E+00
   0.4305372591468953E+00
   0.4927298036564188E+00
   0.5320327256146417E+00
   0.4913855406342726E+00
   0.5209473688282711E+00
   0.5061309364989556E+00
   0.5690650993933958E+00
   0.5274990552114494E+00
   0.5015024129687971E+00
   0.5821782454567764E+00
   0.5691769250145495E+00
   0.3403300368266640E+00
   0.3786151439647794E+00
   0.5753346481671193E+00
   0.5668543263579127E+00
   0.5703059562479937E+00
   0.5291879205874384E+00
   0.5449837175701033E+00
   0.5719102639537444E+00
   0.5385667386689269E+00
   0.5475905556159545E+00
   0.5821515963347279E+00
   0.4925318968476779E+00
   0.5041571115759981E+00
   0.4961293264962587E+00
   0.5562736233240735E+00
   0.4757837005625996E+00
   0.4950183184475577E+00
   0.5496188055711837E+00
   0.5889517159187644E+00
   0.5839552612578096E+00
   0.5468175663399411E+00
   0.5803880219184334E+00
   0.5106065646435224E+00
   0.5029552652907825E+00
   0.5033112976585405E+00
   0.5676222186332066E+00
   0.5564619505153855E+00
   0.4947144959246114E+00
   0.5506785365866269E+00
   0.5513581031247722E+00
   0.5658250452713253E+00
   0.4919965129466655E+00
   0.4927864168180041E+00
   0.3865373443504206E+00
   0.3687905803514150E+00
   0.5574396398841954E+00
   0.5761715377065281E+00
   0.4194266699490106E+00
   0.5822960129525168E+00
   0.4268170191483370E+00
   0.5397379314463874E+00
   0.5016136015757753E+00
   0.5119237865935915E+00
   0.5048466767199710E+00
   0.5752734470739773E+00
   0.5878359740109517E+00
   0.5382541024896172E+00
   0.5679685703566106E+00
   0.5351985016678612E+00
   0.5338430666504113E+00
   0.5582271984750464E+00
   0.5511430283388554E+00
   0.4256686666385782E+00
   0.5272843690164696E+00
   0.5796789075757692E+00
   0.3318300657923978E+00
   0.4761646063958019E+00
   0.5446507503683242E+00
   0.4800729075690159E+00
   0.3006193627973190E+00
   0.5031625583446960E+00
   0.5017187251309009E+00
   0.5129125397337798E+00
   0.5414131226258221E+00
   0.3435098577492061E+00
   0.3397971778383214E+00
   0.3190373713611456E+00
   0.5066176552988293E+00
   0.5123823895168718E+00
   0.5329091199772604E+00
   0.5881345096458959E+00
   0.4645017929127209E+00
   0.3529492325611091E+00
SCALARS v double 1
LOOKUP_TABLE default
   0.0000000000000000E+00
   0.0000000000000000E+00
   0.0000000000000000E+00
   0.0000000000000000E+00
   0.0000000000000000E+00
   0.0000000000000000E+00
   0.0000000000000000E+00
   0.0000000000000000E+00
   0.0000000000000000E+00
   0.0000000000000000E+00
   0.0000000000000000E+00
   0.0000000000000000E+00
   0.0000000000000000E+00
   0.0000000000000000E+00
   0.0000000000000000E+00
   0.0000000000000000E+00
   0.0000000000000000E+00
   0.0000000000000000E+00
   0.0000000000000000E+00
   0.0000000000000000E+00
   0.0000000000000000E+00
   0.0000000000000000E+00
   0.0000000000000000E+00
   0.0000000000000000E+00
   0.0000000000000000E+00
   0.0000000000000000E+00
   0.0000000000000000E+00
   0.0000000000000000E+00
   0.0000000000000000E+00
   0.0000000000000000E+00
   0.0000000000000000E+00
   0.0000000000000000E+00
   0.0000000000000000E+00
   0.0000000000000000E+00
   0.0000000000000000E+00
   0.0000000000000000E+00
   0.0000000000000000E+00
   0.0000000000000000E+00
   0.0000000000000000E+00
   0.0000000000000000E+00
   0.0000000000000000E+00
   0.0000000000000000E+00
   0.0000000000000000E+00
   0.0000000000000000E+00
   0.0000000000000000E+00
   0.0000000000000000E+00
   0.0000000000000000E+00
   0.0000000000000000E+00
   0.0000000000000000E+00
   0.0000000000000000E+00
   0.0000000000000000E+00
   0.0000000000000000E+00
   0.0000000000000000E+00
   0.0000000000000000E+00
   0.0000000000000000E+00
   0.0000000000000000E+00
   0.0000000000000000E+00
   0.0000000000000000E+00
   0.0000000000000000E+00
   0.0000000000000000E+00
   0.0000000000000000E+00
   0.8508088037994177E-03
  -0.1263768246202698E-02
  -0.1294462261608016E-02
   0.0000000000000000E+00
   0.0000000000000000E+00
   0.0000000000000000E+00
   0.0000000000000000E+00
  -0.1933168885851991E-01
   0.5037574333624961E-03
   0.2213187656318424E-02
   0.1420877730528725E-01
  -0.6733052038250883E-02
  -0.8155351549505597E-02
  -0.1324509409541559E-01
   0.5002686648223978E-02
   0.7354203177668641E-03
   0.3481250973173802E-02
   0.1949284084504721E-02
   0.3168726320033396E-02
   0.1754938828029067E-02
  -0.7289644616349227E-02
  -0.6647994170416300E-04
   0.4565692462701550E-02
  -0.4086285414017752E-03
  -0.6653961579419928E-04
  -0.2024326683417913E-03
   0.8053625861834267E-03
   0.0000000000000000E+00
   0.0000000000000000E+00
   0.0000000000000000E+00
   0.0000000000000000E+00
   0.4740180585046680E-03
   0.1623476415650220E-02
  -0.1273520594894670E-02
  -0.9988439739451438E-03
  -0.2077605581330756E-02
  -0.9970531026416969E-03
  -0.7512717289061126E-03
  -0.7430899516414199E-03
   0.6013924967740211E-04
  -0.5976419795434596E-03
   0.8032999049034513E-03
  -0.1730546604675305E-02
   0.3140946116528346E-03
  -0.5786514470454351E-04
  -0.8901903941542930E-03
  -0.1053196680239173E-02
   0.0000000000000000E+00
   0.0000000000000000E+00
   0.0000000000000000E+00
  -0.1035474870039236E-02
  -0.7791748247891251E-02
   0.1821117414511363E-01
  -0.2907383854873720E-04
  -0.1376998536034476E-02
  -0.2028315737942485E-02
  -0.5613334372445611E-02
  -0.1620479268232539E-02
  -0.6358834904804177E-02
  -0.4327530164538881E-02
   0.1516524998645433E-02
   0.3300085344796903E-01
   0.4396951924925185E-04
  -0.2766675172571352E-02
   0.3629410510974921E-02
   0.3917477297294477E-03
   0.0000000000000000E+00
   0.0000000000000000E+00
   0.0000000000000000E+00
   0.0000000000000000E+00
   0.0000000000000000E+00
   0.0000000000000000E+00
   0.0000000000000000E+00
   0.0000000000000000E+00
   0.0000000000000000E+00
   0.0000000000000000E+00
   0.0000000000000000E+00
   0.0000000000000000E+00
   0.0000000000000000E+00
   0.0000000000000000E+00
   0.0000000000000000E+00
   0.0000000000000000E+00
   0.0000000000000000E+00
   0.4996969350733594E-02
   0.3210188371763862E-02
   0.8121798581637502E-02
   0.6089628332423540E-02
   0.1117053116780209E-01
   0.1403199632505772E-01
  -0.3288482330809620E-03
   0.5160327330237446E-02
   0.2928869141670823E-02
   0.3376787770568660E-02
   0.3724195891248780E-02
  -0.1469861433290867E-01
  -0.6149046239968083E-03
   0.6636946590103950E-02
   0.1453262964676762E-02
   0.1957691691270643E-02
   0.4261442238466613E-02
  -0.2811582250409770E-02
   0.1265485676370378E-02
   0.2850417335897382E-02
   0.1533833255981283E-02
   0.2562440535449698E-02
   0.2009329354064027E-02
   0.2152902063508334E-02
   0.8578465504359617E-02
  -0.3835719316557098E-02
   0.6146233398787895E-02
   0.4620498786566740E-04
  -0.4247815478188609E-03
  -0.1674691922617084E-01
  -0.5005037453708339E-02
  -0.4835525883241105E-02
   0.3396938401435566E-02
  -0.6079343601871411E-02
   0.2524452157865934E-04
  -0.3285396789817197E-01
  -0.3188821255279637E-02
   0.4573348452105957E-02
   0.9670300056482097E-03
   0.2132610563596233E-02
   0.4531867219555297E-02
   0.2691321822090871E-02
   0.3250785506937410E-02
   0.5226686422128965E-02
   0.1957689399802688E-02
   0.7476519260743914E-03
  -0.6133216456520687E-04
  -0.5321966062264411E-02
  -0.6966496814547025E-02
  -0.9690391302963195E-03
   0.1057798359073869E-02
  -0.2117730099805859E-02
  -0.3224071940650722E-02
  -0.2538194473931103E-02
  -0.4117268292433343E-02
  -0.7559175661249582E-02
  -0.2014246464352516E-02
   0.6495753048460369E-03
  -0.1932165999752544E-03
   0.1227181386003267E-02
  -0.3503804184380628E-02
   0.4855576316850703E-02
  -0.8634991379015317E-02
   0.3164855777974410E-04
  -0.3337155863796708E-03
   0.2557975980890174E-02
   0.1609327701856414E-02
   0.2028246835660423E-02
  -0.5642904969020380E-02
SCALARS w double 1
LOOKUP_TABLE default
   0.0000000000000000E+00
   0.0000000000000000E+00
   0.0000000000000000E+00
   0.0000000000000000E+00
   0.0000000000000000E+00
   0.0000000000000000E+00
   0.0000000000000000E+00
   0.0000000000000000E+00
   0.0000000000000000E+00
   0.0000000000000000E+00
   0.0000000000000000E+00
   0.0000000000000000E+00
   0.0000000000000000E+00
   0.0000000000000000E+00
   0.0000000000000000E+00
   0.0000000000000000E+00
   0.0000000000000000E+00
   0.0000000000000000E+00
   0.0000000000000000E+00
   0.0000000000000000E+00
   0.0000000000000000E+00
   0.0000000000000000E+00
   0.0000000000000000E+00
   0.0000000000000000E+00
   0.0000000000000000E+00
   0.0000000000000000E+00
   0.0000000000000000E+00
   0.0000000000000000E+00
   0.0000000000000000E+00
   0.0000000000000000E+00
   0.0000000000000000E+00
   0.0000000000000000E+00
   0.0000000000000000E+00
  -0.1007323207074387E+00
  -0.4246422748481880E-01
   0.7113319873438416E-03
   0.5703905335901441E-02
   0.5677984458549847E-03
   0.1606453587699389E-02
   0.3372458875192079E-02
   0.2364336464899375E-02
   0.4714530219299198E-03
   0.3527024651530524E-02
   0.4532836883145493E-01
   0.6564276729148776E-01
   0.8375653362405016E-03
  -0.2265941560817294E-01
   0.4272680461421976E-02
   0.1342684430826179E-01
   0.1030062651251853E-01
   0.4871552725373415E-01
   0.2383979185976901E-02
  -0.6536041008541882E-02
  -0.7361232090512379E-03
   0.3059840048649264E-03
   0.3852877251482618E-02
  -0.3894170033717977E-01
   0.1818957301213390E-01
   0.1121939649009009E-01
   0.3396112620789393E-01
   0.8384113659006810E-02
   0.4924001773093614E-02
   0.4973334875707576E-02
   0.4900458233648324E-02
   0.6056655346491776E-02
   0.2699566729015570E-02
  -0.4126443343032227E-01
  -0.9925923057728603E-01
  -0.1120358549775911E+00
   0.5146227421097383E-02
   0.4213980438825483E-02
  -0.1002565012233593E+00
  -0.9892853605482681E-01
  -0.9835938913695939E-01
  -0.9444625164674508E-01
  -0.6789772316393555E-01
   0.5197107778842294E-02
  -0.1927012270847707E-01
  -0.1562810144909213E-01
  -0.5965351652636324E-02
   0.6821897373714846E-02
  -0.8000746113305168E-01
  -0.2776956718376472E-01
  -0.8085905795739894E-01
  -0.5863342940091137E-01
   0.3074015573104610E-02
   0.2684910262008213E-02
   0.2644248493442384E-02
   0.3456850583862347E-02
   0.3997736836352178E-02
   0.1199155245307324E-02
  -0.1356232259996592E-03
   0.2028500851310934E-02
   0.4893507134454513E-02
   0.3864262927843947E-02
   0.1125880552477947E-02
   0.1187840782046123E-02
   0.1459880879394264E-02
  -0.2249857521570869E-04
   0.9081788189647403E-04
   0.4386512829267364E-02
   0.2712007681101281E-02
   0.2316481441597419E-02
   0.5006621820501456E-02
   0.1069270601076922E-02
   0.2706708913614136E-02
   0.2010204588844128E-02
   0.3345964666311697E-04
   0.8386120766739587E-01
   0.2833933059665351E-02
  -0.8465892593381877E-03
  -0.1275297307697236E-03
   0.1410969287168887E+00
   0.1236587229914788E+00
  -0.1228603565643440E-02
  -0.4383029016923338E-02
  -0.2803887845777141E-03
  -0.6478051318363942E-02
  -0.1893638411337182E-02
   0.1559600012171145E+00
   0.7528209897094298E-01
   0.2567699417497694E-01
   0.1661258219010381E+00