# vtk DataFile Version 2.0
FUN3D:global_image_vtk
ASCII
DATASET UNSTRUCTURED_GRID
POINTS 213 double
   -0.5474685441687832E-02    0.2504941971167291E+01    0.8038138598670530E-04
    0.1245419105183472E+01    0.2504941971167291E+01    0.1039425058013133E-03
    0.2497696093128780E+01    0.2504941971167291E+01    0.1101298164665754E-03
    0.3750590968915824E+01    0.2504941971167291E+01    0.1356499004944167E-03
    0.5003221331742151E+01    0.2504941971167291E+01    0.9668873038898296E-04
    0.5004676687979097E+01    0.1281291202167040E+01    0.1638053019384356E-03
    0.5004772673778115E+01    0.2775079906482894E-01    0.1903478008447590E-03
    0.5003581183341212E+01   -0.1225853508883529E+01    0.1607765204486578E-03
    0.5001952533742191E+01   -0.2496589036641631E+01    0.1082258890302557E-03
    0.3750348111606544E+01   -0.2496589036641631E+01    0.1458753696815807E-03
    0.2498611462994928E+01   -0.2496589036641631E+01    0.1008933264248224E-03
    0.1247175269333276E+01   -0.2496589036641631E+01    0.1108587619169654E-03
   -0.3383959865719266E-02   -0.2496589036641631E+01    0.8107259626494168E-04
   -0.4257768979765597E-02   -0.1225734811642590E+01    0.3415458742295208E-04
   -0.5251592448509257E-02    0.2619486024420451E-01    0.1038724387187884E-03
   -0.5676060312426845E-02    0.1278221569065707E+01    0.8224601702150336E-04
    0.9003209617952581E+00    0.1608979112280158E+01    0.8704140727677778E-04
    0.3983172210692289E+01   -0.1561211904840279E+01    0.1757116720370600E-03
    0.4035602039224469E+01    0.1486760030415520E+01    0.1713312862106631E-03
    0.1036613723302902E+01   -0.1455626429916848E+01    0.1047189301532914E-03
    0.1094353480630802E+01   -0.2964622010671852E+00    0.1260590236917269E-03
    0.7298400267480001E+00    0.6874684746719117E+00    0.1044598640544958E-03
    0.1617018659308944E+01    0.8553208024939369E+00    0.1529810904974394E-03
    0.2143199662875790E+01   -0.1627128509216730E+01    0.1606170425226816E-03
    0.4088840445400889E+01   -0.4351047825936264E+00    0.2719933294109134E-03
    0.2977916511248925E+01   -0.8334991483094500E+00    0.2245596931861327E-03
    0.3044093241383418E+01   -0.1814361225108581E+01    0.1617000112420497E-03
    0.3427866614805211E+01    0.3813904839972496E+00    0.2936955483430759E-03
    0.4313225355351749E+01    0.5489133376342495E+00    0.2313009573592373E-03
    0.1823032737597358E+01    0.1771265193544254E+01    0.1836202887151583E-03
    0.2806311152168375E+01    0.1358629373600680E+01    0.1943492163983818E-03
    0.1891860875936711E+01   -0.8481310365607546E+00    0.1670645501816170E-03
    0.2268769200166909E+01    0.7723691819196565E-01    0.2072307783085314E-03
    0.5000000000000000E+01    0.2504941971167291E+01    0.1250000000000000E+01
    0.5000000000000000E+01    0.2504941971167291E+01    0.2500000000000000E+01
    0.5000000000000000E+01    0.2504941971167291E+01    0.3750000000000000E+01
    0.5000000000000000E+01    0.2504941971167291E+01    0.5000000000000000E+01
    0.3750000000000000E+01    0.2504941971167291E+01    0.5000000000000000E+01
    0.2500000000000000E+01    0.2504941971167291E+01    0.5000000000000000E+01
    0.1250000000000000E+01    0.2504941971167291E+01    0.5000000000000000E+01
    0.0000000000000000E+00    0.2504941971167291E+01    0.5000000000000000E+01
    0.0000000000000000E+00    0.2504941971167291E+01    0.3750000000000000E+01
    0.0000000000000000E+00    0.2504941971167291E+01    0.2500000000000000E+01
    0.0000000000000000E+00    0.2504941971167291E+01    0.1250000000000000E+01
    0.9588956434871092E+00    0.2504941971167291E+01    0.9696525519543873E+00
    0.3981953078951402E+01    0.2504941971167291E+01    0.4070563854751271E+01
    0.4036122187252336E+01    0.2504941971167291E+01    0.1017567520094671E+01
    0.9637572773153888E+00    0.2504941971167291E+01    0.3973598203142229E+01
    0.1546540136992396E+01    0.2504941971167291E+01    0.2931570169315601E+01
    0.6973799521244313E+00    0.2504941971167291E+01    0.3070319952453756E+01
    0.8903742148356883E+00    0.2504941971167291E+01    0.2056562238187738E+01
    0.2183041995146012E+01    0.2504941971167291E+01    0.3960694449828019E+01
    0.3855844872709870E+01    0.2504941971167291E+01    0.2933250588118630E+01
    0.3152611367438029E+01    0.2504941971167291E+01    0.3637668388416195E+01
    0.3103307385241870E+01    0.2504941971167291E+01    0.4332607813099731E+01
    0.3266711045517939E+01    0.2504941971167291E+01    0.1889656617463738E+01
    0.4232537554484796E+01    0.2504941971167291E+01    0.1918626969802351E+01
    0.1905522374036519E+01    0.2504941971167291E+01    0.7226290832134608E+00
    0.2879767723645805E+01    0.2504941971167291E+01    0.9080945892181980E+00
    0.2012711365064515E+01    0.2504941971167291E+01    0.1767082390977754E+01
    0.2669681472994637E+01    0.2504941971167291E+01    0.2853394335010791E+01
    0.5000000000000000E+01    0.1250000000000000E+01    0.5000000000000000E+01
    0.5000000000000000E+01    0.0000000000000000E+00    0.5000000000000000E+01
    0.5000000000000000E+01   -0.1250000000000000E+01    0.5000000000000000E+01
    0.5000000000000000E+01   -0.2496589036641631E+01    0.5000000000000000E+01
    0.5000000000000000E+01   -0.2496589036641631E+01    0.3750000000000000E+01
    0.5000000000000000E+01   -0.2496589036641631E+01    0.2500000000000000E+01
    0.5000000000000000E+01   -0.2496589036641631E+01    0.1250000000000000E+01
    0.5000000000000000E+01    0.1578994732800803E+01    0.9058375365086910E+00
    0.5000000000000000E+01   -0.1583989954232354E+01    0.3982050490726493E+01
    0.5000000000000000E+01    0.1453322699199022E+01    0.4033849428301197E+01
    0.5000000000000000E+01   -0.1479596339503735E+01    0.1040505887381675E+01
    0.5000000000000000E+01   -0.3227322616384110E+00    0.1099454400140349E+01
    0.5000000000000000E+01    0.6593508822075582E+00    0.7354504170366591E+00
    0.5000000000000000E+01    0.8256214013940779E+00    0.1622302608453282E+01
    0.5000000000000000E+01   -0.1650070333782557E+01    0.2145871574390382E+01
    0.5000000000000000E+01   -0.4612828702537229E+00    0.4086422318222992E+01
    0.5000000000000000E+01   -0.8579242121530853E+00    0.2979540174134984E+01
    0.5000000000000000E+01   -0.1836846154397680E+01    0.3045064261640043E+01
    0.5000000000000000E+01    0.3508002863614053E+00    0.3428197553792836E+01
    0.5000000000000000E+01    0.5185680230613409E+00    0.4309693860063405E+01
    0.5000000000000000E+01    0.1738996113203182E+01    0.1827272193562204E+01
    0.5000000000000000E+01    0.1325493893339706E+01    0.2808563282768077E+01
    0.5000000000000000E+01   -0.8731419609589618E+00    0.1895995683864404E+01
    0.5000000000000000E+01    0.4906150219227333E-01    0.2273179336307740E+01
    0.0000000000000000E+00    0.1250000000000000E+01    0.5000000000000000E+01
    0.0000000000000000E+00    0.0000000000000000E+00    0.5000000000000000E+01
    0.0000000000000000E+00   -0.1250000000000000E+01    0.5000000000000000E+01
    0.0000000000000000E+00   -0.2496589036641631E+01    0.5000000000000000E+01
    0.1250000000000000E+01   -0.2496589036641631E+01    0.5000000000000000E+01
    0.2500000000000000E+01   -0.2496589036641631E+01    0.5000000000000000E+01
    0.3750000000000000E+01   -0.2496589036641631E+01    0.5000000000000000E+01
    0.4042003247744892E+01    0.1558308132739014E+01    0.5000000000000000E+01
    0.9304122287900499E+00   -0.1548001304379777E+01    0.5000000000000000E+01
    0.1037243024609388E+01    0.1462892710085612E+01    0.5000000000000000E+01
    0.3946240828834967E+01   -0.1445243809615570E+01    0.5000000000000000E+01
    0.4092527262848217E+01   -0.3455338993778935E+00    0.5000000000000000E+01
    0.4293103109154542E+01    0.6277660831404320E+00    0.5000000000000000E+01
    0.3241512314643519E+01    0.7429886854239611E+00    0.5000000000000000E+01
    0.2844289952419609E+01   -0.1588117879734118E+01    0.5000000000000000E+01
    0.7159905765450471E+00   -0.6002320124191652E+00    0.5000000000000000E+01
    0.1754341919796891E+01   -0.7398147869923652E+00    0.5000000000000000E+01
    0.1870296826774691E+01   -0.1788622905643739E+01    0.5000000000000000E+01
    0.9220614901912976E+00    0.3083720183248586E+00    0.5000000000000000E+01
    0.3101523624086016E+01    0.1777901774806180E+01    0.5000000000000000E+01
    0.2192512063922564E+01    0.1576861561598471E+01    0.5000000000000000E+01
    0.2024793420196460E+01    0.4773861992750707E+00    0.5000000000000000E+01
    0.2990627757741975E+01   -0.4878110785814084E+00    0.5000000000000000E+01
    0.0000000000000000E+00   -0.2496589036641631E+01    0.1250000000000000E+01
    0.0000000000000000E+00   -0.2496589036641631E+01    0.2500000000000000E+01
    0.0000000000000000E+00   -0.2496589036641631E+01    0.3750000000000000E+01
    0.0000000000000000E+00    0.1558308132739014E+01    0.4042003247744892E+01
    0.0000000000000000E+00   -0.1548001304379777E+01    0.9304122287900499E+00
    0.0000000000000000E+00    0.1462892710085612E+01    0.1037243024609388E+01
    0.0000000000000000E+00   -0.1445243809615570E+01    0.3946240828834967E+01
    0.0000000000000000E+00   -0.3455338993778935E+00    0.4092527262848217E+01
    0.0000000000000000E+00    0.6277660831404320E+00    0.4293103109154542E+01
    0.0000000000000000E+00    0.7429886854239611E+00    0.3241512314643519E+01
    0.0000000000000000E+00   -0.1588117879734118E+01    0.2844289952419609E+01
    0.0000000000000000E+00   -0.6002320124191652E+00    0.7159905765450471E+00
    0.0000000000000000E+00   -0.7398147869923652E+00    0.1754341919796891E+01
    0.0000000000000000E+00   -0.1788622905643739E+01    0.1870296826774691E+01
    0.0000000000000000E+00    0.3083720183248586E+00    0.9220614901912976E+00
    0.0000000000000000E+00    0.1777901774806180E+01    0.3101523624086016E+01
    0.0000000000000000E+00    0.1576861561598471E+01    0.2192512063922564E+01
[...]
POINT_DATA 213
SCALARS rho double 1
LOOKUP_TABLE default
   0.1346108316263260E+01
   0.9572039998600553E+00
   0.9461172176739956E+00
   0.9421724422232396E+00
   0.8436076751988671E+00
   0.7742023688679459E+00
   0.7627583542973818E+00
   0.7661562012440231E+00
   0.8310489475274544E+00
   0.9353548242975436E+00
   0.9343897288268617E+00
   0.9616167925151784E+00
   0.1448475453679504E+01
   0.1495420693456563E+01
   0.1646729694953908E+01
   0.1426611750618530E+01
   0.1009807294814252E+01
   0.9511451599258055E+00
   0.9438202812351729E+00
   0.9574649706908133E+00
   0.9414971310207745E+00
   0.1037119050552770E+01
   0.9258166083497235E+00
   0.9322402496787953E+00
   0.9538058253071992E+00
   0.9520452717008204E+00
   0.9351035433474097E+00
   0.9565496449253620E+00
   0.9378638716756780E+00
   0.9303460519868465E+00
   0.9446467733333781E+00
   0.8862352680534259E+00
   0.9424046351261661E+00
   0.9637013741731578E+00
   0.1008356272044945E+01
   0.1006712429709878E+01
   0.1001958930205316E+01
   0.1003217522115537E+01
   0.1004120115973769E+01
   0.1005208064902655E+01
   0.1004249961603996E+01
   0.1008268330106260E+01
   0.1023869441005894E+01
   0.1063755461250256E+01
   0.1019394088224980E+01
   0.1001777911845261E+01
   0.9645774231494942E+00
   0.1005263328272078E+01
   0.1000745736275088E+01
   0.1008696549289946E+01
   0.1008037948454513E+01
   0.1002353862047817E+01
   0.9980195530495583E+00
   0.1000592769357704E+01
   0.1001620641860688E+01
   0.9828039326494123E+00
   0.9843899726746211E+00
   0.9834136048390915E+00
   0.9790327232203990E+00
   0.9904757376070007E+00
   0.9935193468940664E+00
   0.1002008894346864E+01
   0.1002132240744496E+01
   0.1002273087521134E+01
   0.1001793578297204E+01
   0.1009816088027810E+01
   0.1006507955582137E+01
   0.9561125617151263E+00
   0.9252807406676109E+00
   0.1007053966729335E+01
   0.1004490981234773E+01
   0.9145128351553007E+00
   0.9091570307030403E+00
   0.8752463079641772E+00
   0.9767979597407768E+00
   0.1000541360241149E+01
   0.1005826549297304E+01
   0.1012896701668311E+01
   0.1011680292165990E+01
   0.1010415973639726E+01
   0.1005456587395488E+01
   0.9909167515212806E+00
   0.1005149610920272E+01
   0.9860895085449175E+00
   0.1005593206447744E+01
   0.1004239922232602E+01
   0.1002885969213360E+01
   0.1003350063078460E+01
   0.1003997944127812E+01
   0.1005115344746929E+01
   0.1003223209693073E+01
   0.1002669123761885E+01
   0.1002589508054974E+01
   0.1004069040374429E+01
   0.1004304991187206E+01
   0.1001643157085844E+01
   0.1002279136440335E+01
   0.1002546782020501E+01
   0.1003472000595587E+01
   0.1003380240374745E+01
   0.1003233137295518E+01
   0.1004429899220271E+01
   0.1004324039413551E+01
   0.1003653018135797E+01
   0.1003718560687947E+01
   0.1004319243041978E+01
   0.1004462563047395E+01
   0.1003629396212332E+01
   0.1064485256925095E+01
   0.1028442061791070E+01
   0.1009605873439086E+01
   0.1006626987278259E+01
   0.1163967546375650E+01
   0.1086026686831202E+01
   0.1007907087193443E+01
   0.1007251825931669E+01
   0.1006796456312481E+01
   0.1013053883282701E+01
   0.1019340792084219E+01
   0.1235123173296761E+01
   0.1032535565187861E+01
   0.1046565480922847E+01
   0.1201701822065578E+01
   0.1014672138144501E+01
   0.1032297498308540E+01
   0.1028222183338733E+01
   0.1014640520410227E+01
   0.1028986926999341E+01
   0.1002003667365966E+01
   0.9608147831457473E+00
   0.1006858072237082E+01
   0.1001324898680459E+01
   0.1010798261832901E+01
   0.1012231336352149E+01
   0.1000939569587515E+01
   0.9979357843525255E+00
   0.9980690509294068E+00
   0.1001192040826550E+01
   0.9842100790524293E+00
   0.9815228436093996E+00
   0.9648740509475457E+00
   0.9680944437803166E+00
   0.9914084286456296E+00
   0.9910913083038574E+00
   0.9925587124656181E+00
   0.1001727549514230E+01
   0.9993245747401772E+00
   0.9941434371395463E+00
   0.1006982475141322E+01
   0.1022613019618600E+01
   0.1001120639139637E+01
   0.1008783935583389E+01
   0.1004774772921340E+01
   0.1009030410930872E+01
   0.9967211493815412E+00
   0.1005570715442230E+01
   0.1003324760114173E+01
   0.9949845984908272E+00
   0.9833501663083029E+00
   0.9944494689142617E+00
   0.9973474193053188E+00
   0.9932503760541443E+00
   0.1001311884906835E+01
   0.1003000708376206E+01
   0.1002188291593111E+01
   0.9947120026401650E+00
   0.9937832198057064E+00
   0.1004861704668893E+01
   0.1020101282070692E+01
   0.1005337229999308E+01
   0.9817045977666798E+00
   0.1004974596061812E+01
   0.1012374662656395E+01
   0.9873720328709660E+00
   0.9551284413725021E+00
   0.9865253756902113E+00
   0.9865916534802135E+00
   0.9920067167869592E+00
   0.9934435620808113E+00
   0.9960682553857636E+00
   0.1037400105928138E+01
   0.1033161102224296E+01
   0.1001442942589849E+01
   0.1001928635177598E+01
   0.9912313107685378E+00
   0.9911145322898061E+00
   0.9649433996998170E+00
   0.9933790316917627E+00
   0.1006090796374753E+01
   0.1001963018637760E+01
   0.9908628976459769E+00
   0.9742169955168838E+00
   0.9420656172337388E+00
   0.9821543954947061E+00
   0.9794783302235188E+00
   0.9704368616041269E+00
   0.9720887189878811E+00
   0.9557898414997535E+00
   0.9498086706711317E+00
   0.9529904616790309E+00
   0.1002635788495221E+01
   0.1002475631460716E+01
   0.1000513073316605E+01
   0.1001674838577961E+01
   0.9610035232182403E+00
   0.9492443247445823E+00
   0.9586632960130739E+00
   0.1001121360678566E+01
   0.1000501199843905E+01
   0.1001159801540511E+01
   0.9807420384794829E+00
   0.9805568735449625E+00
   0.9629217552733440E+00
SCALARS u double 1
LOOKUP_TABLE default
   0.0000000000000000E+00
   0.0000000000000000E+00
   0.0000000000000000E+00
   0.0000000000000000E+00
   0.0000000000000000E+00
   0.0000000000000000E+00
   0.0000000000000000E+00
   0.0000000000000000E+00
   0.0000000000000000E+00
   0.0000000000000000E+00
   0.0000000000000000E+00
   0.0000000000000000E+00
   0.0000000000000000E+00
   0.0000000000000000E+00
   0.0000000000000000E+00
   0.0000000000000000E+00
   0.0000000000000000E+00
   0.0000000000000000E+00
   0.0000000000000000E+00
   0.0000000000000000E+00
   0.0000000000000000E+00
   0.0000000000000000E+00
   0.0000000000000000E+00
   0.0000000000000000E+00
   0.0000000000000000E+00
   0.0000000000000000E+00
   0.0000000000000000E+00
   0.0000000000000000E+00
   0.0000000000000000E+00
   0.0000000000000000E+00
   0.0000000000000000E+00
   0.0000000000000000E+00
   0.0000000000000000E+00
   0.4945973678192738E+00
   0.5336248050513251E+00
   0.5182740404555592E+00
   0.4930714246731555E+00
   0.4847754205069164E+00
   0.4868132653368413E+00
   0.4891430744281520E+00
   0.4958009013999643E+00
   0.4899007394802735E+00
   0.4718072596334898E+00
   0.4448872821972508E+00
   0.4844369958684859E+00
   0.5097703333340552E+00
   0.4401859475311193E+00
   0.4949587097188874E+00
   0.5223003573209618E+00
   0.4962747030736156E+00
   0.5223832221991106E+00
   0.5038168244758501E+00
   0.5644336963923424E+00
   0.5245894641994380E+00
   0.4990985097736291E+00
   0.5729201586902891E+00
   0.5693592828693917E+00
   0.3752192377624557E+00
   0.4003638955707725E+00
   0.5599389981226924E+00
   0.5562259014215843E+00
   0.4942640825316933E+00
   0.4948651958955094E+00
   0.4925619071368217E+00
   0.4913967782807045E+00
   0.5162597182184160E+00
   0.5363670730383686E+00
   0.4951374106576990E+00
   0.4520512890331423E+00
   0.5129007652647544E+00
   0.5117699763445790E+00
   0.4786317418659536E+00
   0.4931122297850041E+00
   0.4600270411490599E+00
   0.5242595707294468E+00
   0.5299947205782720E+00
   0.5129700677652691E+00
   0.5328928660743234E+00
   0.5309782654292692E+00
   0.5309767611424624E+00
   0.5063651340503658E+00
   0.5279536185345521E+00
   0.5409238855073434E+00
   0.5363719066788011E+00
   0.5374201319951170E+00
   0.4965358979110437E+00
   0.4975364856908056E+00
   0.4963815197052237E+00
   0.4955155009819205E+00
   0.4904172548498087E+00
   0.4902500217795184E+00
   0.4861611309726977E+00
   0.4854067564178048E+00
   0.4931955989645604E+00
   0.4910329667939720E+00
   0.4831677513609220E+00
   0.4872468806484693E+00
   0.4880024273792196E+00
   0.4872312392880567E+00
   0.4882163845925029E+00
   0.4952576817170779E+00
   0.4900721164411457E+00
   0.4903599279046205E+00
   0.4944353026095842E+00
   0.4868191758702978E+00
   0.4892735512144806E+00
   0.4881467930726965E+00
   0.4878252396081330E+00
   0.4449106780028005E+00
   0.4700132875184954E+00
   0.4891774917471606E+00
   0.4885974634682718E+00
   0.4510294628034505E+00
   0.4681803399583766E+00
   0.4876666907156787E+00
   0.4868262750090961E+00
   0.4909268404136966E+00
   0.4793945543460240E+00
   0.4657906777213816E+00
   0.3794391075096515E+00
   0.4903637343848398E+00
   0.4487969161866991E+00
   0.4432386725517395E+00
   0.4845716407443451E+00
   0.4621867851108238E+00
   0.4663606659234865E+00
   0.4747787029547967E+00
   0.4893811124179818E+00
   0.5085638676813706E+00
   0.4305372591507563E+00
   0.4927298036614652E+00
   0.5320327256123905E+00
   0.4913855406343020E+00
   0.5209473688353894E+00
   0.5061309364999821E+00
   0.5690650993919024E+00
   0.5274990552036585E+00
   0.5015024129571817E+00
   0.5821782454631254E+00
   0.5691769250212111E+00
   0.3403300368287308E+00
   0.3786151439693276E+00
   0.5753346481750993E+00
   0.5668543263573892E+00
   0.5703059562536266E+00
   0.5291879205953222E+00
   0.5449837175767418E+00
   0.5719102639589700E+00
   0.5385667386742125E+00
   0.5475905556229907E+00
   0.5821515963413856E+00
   0.4925318968536213E+00
   0.5041571115926075E+00
   0.4961293265019189E+00
   0.5562736233265473E+00
   0.4757837005646425E+00
   0.4950183184506469E+00
   0.5496188055878128E+00
   0.5889517159317508E+00
   0.5839552612739288E+00
   0.5468175663611110E+00
   0.5803880219192166E+00
   0.5106065646599292E+00
   0.5029552653040464E+00
   0.5033112976890818E+00
   0.5676222186353559E+00
   0.5564619505294748E+00
   0.4947144959330536E+00
   0.5506785365921163E+00
   0.5513581031285152E+00
   0.5658250452758751E+00
   0.4919965129535599E+00
   0.4927864168211598E+00
   0.3865373443645843E+00
   0.3687905803587807E+00
   0.5574396398904934E+00
   0.5761715377139458E+00
   0.4194266699462380E+00
   0.5822960129598872E+00
   0.4268170191550869E+00
   0.5397379314487069E+00
   0.5016136015784896E+00
   0.5119237866509341E+00
   0.5048466767401558E+00
   0.5752734470849176E+00
   0.5878359740116516E+00
   0.5382541024922227E+00
   0.5679685703586248E+00
   0.5351985016682967E+00
   0.5338430666791060E+00
   0.5582271984786944E+00
   0.5511430283427593E+00
   0.4256686666748775E+00
   0.5272843690175002E+00
   0.5796789075802617E+00
   0.3318300657962349E+00
   0.4761646063987979E+00
   0.5446507503739617E+00
   0.4800729075674229E+00
   0.3006193627932187E+00
   0.5031625583459924E+00
   0.5017187251400440E+00
   0.5129125397567914E+00
   0.5414131226584268E+00
   0.3435098577809668E+00
   0.3397971778372674E+00
   0.3190373713621901E+00
   0.5066176553006243E+00
   0.5123823895045703E+00
   0.5329091199935146E+00
   0.5881345096486899E+00
   0.4645017929156970E+00
   0.3529492325686850E+00
SCALARS v double 1
LOOKUP_TABLE default
   0.0000000000000000E+00
   0.0000000000000000E+00
   0.0000000000000000E+00
   0.0000000000000000E+00
   0.0000000000000000E+00
   0.0000000000000000E+00
   0.0000000000000000E+00
   0.0000000000000000E+00
   0.0000000000000000E+00
   0.0000000000000000E+00
   0.0000000000000000E+00
   0.0000000000000000E+00
   0.0000000000000000E+00
   0.0000000000000000E+00
   0.0000000000000000E+00
   0.0000000000000000E+00
   0.0000000000000000E+00
   0.0000000000000000E+00
   0.0000000000000000E+00
   0.0000000000000000E+00
   0.0000000000000000E+00
   0.0000000000000000E+00
   0.0000000000000000E+00
   0.0000000000000000E+00
   0.0000000000000000E+00
   0.0000000000000000E+00
   0.0000000000000000E+00
   0.0000000000000000E+00
   0.0000000000000000E+00
   0.0000000000000000E+00
   0.0000000000000000E+00
   0.0000000000000000E+00
   0.0000000000000000E+00
   0.0000000000000000E+00
   0.0000000000000000E+00
   0.0000000000000000E+00
   0.0000000000000000E+00
   0.0000000000000000E+00
   0.0000000000000000E+00
   0.0000000000000000E+00
   0.0000000000000000E+00
   0.0000000000000000E+00
   0.0000000000000000E+00
   0.0000000000000000E+00
   0.0000000000000000E+00
   0.0000000000000000E+00
   0.0000000000000000E+00
   0.0000000000000000E+00
   0.0000000000000000E+00
   0.0000000000000000E+00
   0.0000000000000000E+00
   0.0000000000000000E+00
   0.0000000000000000E+00
   0.0000000000000000E+00
   0.0000000000000000E+00
   0.0000000000000000E+00
   0.0000000000000000E+00
   0.0000000000000000E+00
   0.0000000000000000E+00
   0.0000000000000000E+00
   0.0000000000000000E+00
   0.8508087587619580E-03
  -0.1263768295308170E-02
  -0.1294462291558728E-02
   0.0000000000000000E+00
   0.0000000000000000E+00
   0.0000000000000000E+00
   0.0000000000000000E+00
  -0.1933168871879054E-01
   0.5037574410097271E-03
   0.2213187668764500E-02
   0.1420877730198285E-01
  -0.6733052029312992E-02
  -0.8155351469213569E-02
  -0.1324509405694803E-01
   0.5002686647457040E-02
   0.7354203587675237E-03
   0.3481250991334573E-02
   0.1949284091934494E-02
   0.3168726348980154E-02
   0.1754938853417352E-02
  -0.7289644551771547E-02
  -0.6647993687279191E-04
   0.4565692467347731E-02
  -0.4086285417139137E-03
  -0.6653961422387889E-04
  -0.2024326676012531E-03
   0.8053625845709846E-03
   0.0000000000000000E+00
   0.0000000000000000E+00
   0.0000000000000000E+00
   0.0000000000000000E+00
   0.4740180223672647E-03
   0.1623476415617606E-02
  -0.1273520597006917E-02
  -0.9988440150679072E-03
  -0.2077605635514149E-02
  -0.9970531578846764E-03
  -0.7512717511934352E-03
  -0.7430899921340025E-03
   0.6013924753443495E-04
  -0.5976419960071042E-03
   0.8032999048333072E-03
  -0.1730546606977924E-02
   0.3140946067558128E-03
  -0.5786514684533617E-04
  -0.8901903970201320E-03
  -0.1053196719836006E-02
   0.0000000000000000E+00
   0.0000000000000000E+00
   0.0000000000000000E+00
  -0.1035474867166876E-02
  -0.7791748252162669E-02
   0.1821117414186973E-01
  -0.2907383994187022E-04
  -0.1376998535104443E-02
  -0.2028315735145287E-02
  -0.5613334373772468E-02
  -0.1620479264651987E-02
  -0.6358834903460420E-02
  -0.4327530162101480E-02
   0.1516524999339469E-02
   0.3300085344652157E-01
   0.4396951862852238E-04
  -0.2766675172941344E-02
   0.3629410508832353E-02
   0.3917477294121721E-03
   0.0000000000000000E+00
   0.0000000000000000E+00
   0.0000000000000000E+00
   0.0000000000000000E+00
   0.0000000000000000E+00
   0.0000000000000000E+00
   0.0000000000000000E+00
   0.0000000000000000E+00
   0.0000000000000000E+00
   0.0000000000000000E+00
   0.0000000000000000E+00
   0.0000000000000000E+00
   0.0000000000000000E+00
   0.0000000000000000E+00
   0.0000000000000000E+00
   0.0000000000000000E+00
   0.0000000000000000E+00
   0.4996969352742873E-02
   0.3210188374605173E-02
   0.8121798583949623E-02
   0.6089628331858995E-02
   0.1117053116690960E-01
   0.1403199632327012E-01
  -0.3288482339552756E-03
   0.5160327332224191E-02
   0.2928869144075748E-02
   0.3376787771427998E-02
   0.3724195889467934E-02
  -0.1469861433499325E-01
  -0.6149046196226346E-03
   0.6636946594900973E-02
   0.1453262953310555E-02
   0.1957691687422976E-02
   0.4261442251769311E-02
  -0.2811582266909619E-02
   0.1265485694223712E-02
   0.2850417343773889E-02
   0.1533833262958013E-02
   0.2562440543355017E-02
   0.2009329365189712E-02
   0.2152902065393631E-02
   0.8578465504464517E-02
  -0.3835719315423264E-02
   0.6146233397586087E-02
   0.4620498971244546E-04
  -0.4247815465017073E-03
  -0.1674691923091577E-01
  -0.5005037454169865E-02
  -0.4835525884288074E-02
   0.3396938400029330E-02
  -0.6079343609913193E-02
   0.2524451742624392E-04
  -0.3285396789954961E-01
  -0.3188821254105203E-02
   0.4573348451193262E-02
   0.9670300354792900E-03
   0.2132610574014614E-02
   0.4531867222904278E-02
   0.2691321827480330E-02
   0.3250785505858463E-02
   0.5226686425464947E-02
   0.1957689409275241E-02
   0.7476519505066880E-03
  -0.6133216069324432E-04
  -0.5321966052059869E-02
  -0.6966496755775551E-02
  -0.9690391497525027E-03
   0.1057798356664285E-02
  -0.2117730099947609E-02
  -0.3224071940375602E-02
  -0.2538194479304188E-02
  -0.4117268290351150E-02
  -0.7559175656657824E-02
  -0.2014246462476092E-02
   0.6495753164874206E-03
  -0.1932165722704930E-03
   0.1227181404553284E-02
  -0.3503804169261676E-02
   0.4855576334872748E-02
  -0.8634991376554369E-02
   0.3164857373641109E-04
  -0.3337155756610674E-03
   0.2557975987420456E-02
   0.1609327703695530E-02
   0.2028246835575033E-02
  -0.5642904958635632E-02
SCALARS w double 1
LOOKUP_TABLE default
   0.0000000000000000E+00
   0.0000000000000000E+00
   0.0000000000000000E+00
   0.0000000000000000E+00
   0.0000000000000000E+00
   0.0000000000000000E+00
   0.0000000000000000E+00
   0.0000000000000000E+00
   0.0000000000000000E+00
   0.0000000000000000E+00
   0.0000000000000000E+00
   0.0000000000000000E+00
   0.0000000000000000E+00
   0.0000000000000000E+00
   0.0000000000000000E+00
   0.0000000000000000E+00
   0.0000000000000000E+00
   0.0000000000000000E+00
   0.0000000000000000E+00
   0.0000000000000000E+00
   0.0000000000000000E+00
   0.0000000000000000E+00
   0.0000000000000000E+00
   0.0000000000000000E+00
   0.0000000000000000E+00
   0.0000000000000000E+00
   0.0000000000000000E+00
   0.0000000000000000E+00
   0.0000000000000000E+00
   0.0000000000000000E+00
   0.0000000000000000E+00
   0.0000000000000000E+00
   0.0000000000000000E+00
  -0.1007323208191678E+00
  -0.4246422754645427E-01
   0.7113320146243622E-03
   0.5703905385724331E-02
   0.5677984383707985E-03
   0.1606453593699203E-02
   0.3372458863389047E-02
   0.2364336459764224E-02
   0.4714530210476386E-03
   0.3527024651348085E-02
   0.4532836883282580E-01
   0.6564276729181287E-01
   0.8375653340390956E-03
  -0.2265941557351018E-01
   0.4272680455639400E-02
   0.1342684431223803E-01
   0.1030062651303415E-01
   0.4871552725490527E-01
   0.2383979181364485E-02
  -0.6536041013510681E-02
  -0.7361232003649479E-03
   0.3059840076300583E-03
   0.3852877263518584E-02
  -0.3894170037595677E-01
   0.1818957301362063E-01
   0.1121939651471135E-01
   0.3396112622272859E-01
   0.8384113664704460E-02
   0.4924001840507819E-02
   0.4973334914645700E-02
   0.4900458208852330E-02
   0.6056655316289810E-02
   0.2699566707606079E-02
  -0.4126443343408044E-01
  -0.9925923058061455E-01
  -0.1120358549883197E+00
   0.5146227412392532E-02
   0.4213980493755126E-02
  -0.1002565012218377E+00
  -0.9892853606223799E-01
  -0.9835938914083074E-01
  -0.9444625166906528E-01
  -0.6789772316362622E-01
   0.5197107800105942E-02
  -0.1927012269238011E-01
  -0.1562810144566105E-01
  -0.5965351629640207E-02
   0.6821897433029898E-02
  -0.8000746121085088E-01
  -0.2776956718284265E-01
  -0.8085905795625112E-01
  -0.5863342940155396E-01
   0.3074015572033564E-02
   0.2684910255914916E-02
   0.2644248488300095E-02
   0.3456850580472339E-02
   0.3997736833165984E-02
   0.1199155261014013E-02
  -0.1356232213228894E-03
   0.2028500881124966E-02
   0.4893507135787100E-02
   0.3864262920020693E-02
   0.1125880519406776E-02
   0.1187840792957065E-02
   0.1459880922536306E-02
  -0.2249858051140048E-04
   0.9081788363559133E-04
   0.4386512829407595E-02
   0.2712007679986423E-02
   0.2316481438322247E-02
   0.5006621823709115E-02
   0.1069270579195605E-02
   0.2706708914994608E-02
   0.2010204592868792E-02
   0.3345962347545822E-04
   0.8386120768204118E-01
   0.2833933060057888E-02
  -0.8465892595080900E-03
  -0.1275297337645020E-03
   0.1410969287162044E+00
   0.1236587229884566E+00
  -0.1228603566561343E-02
  -0.4383029021451284E-02
  -0.2803887877338283E-03
  -0.6478051320025831E-02
  -0.1893638411863665E-02
   0.1559600012169327E+00
   0.7528209897069739E-01
   0.2567699417434120E-01
   0.1661258219004114E+00