title="tecplot geometry and solution file"
variables = x y z rho u v w p mach temperature
zone t="boundary 1 bc-1", solutiontime= 0.5000000E+02, strandid=1001, i=32, j=46, f=feblock
  0.000000000000E+00  0.000000000000E+00  0.000000000000E+00  0.000000000000E+00  0.000000000000E+00  0.000000000000E+00  0.000000000000E+00
  0.000000000000E+00  0.000000000000E+00  0.000000000000E+00  0.000000000000E+00  0.000000000000E+00  0.000000000000E+00  0.000000000000E+00
  0.000000000000E+00  0.000000000000E+00  0.000000000000E+00  0.000000000000E+00  0.000000000000E+00  0.000000000000E+00  0.000000000000E+00
  0.000000000000E+00  0.000000000000E+00  0.000000000000E+00  0.000000000000E+00  0.000000000000E+00  0.000000000000E+00  0.000000000000E+00
  0.000000000000E+00  0.000000000000E+00  0.000000000000E+00  0.000000000000E+00
  0.250000000000E+01  0.250000000000E+01  0.125000000000E+01  0.146289271009E+01  0.157686156160E+01  0.308372018325E+00  0.000000000000E+00
 -0.125000000000E+01 -0.600232012419E+00  0.250000000000E+01  0.477386199275E+00  0.742988685424E+00 -0.739814786992E+00  0.177790177481E+01
  0.155830813274E+01  0.250000000000E+01 -0.250000000000E+01 -0.154800130438E+01 -0.487811078581E+00  0.250000000000E+01  0.627766083140E+00
 -0.345533899378E+00 -0.178862290564E+01 -0.158811787973E+01  0.125000000000E+01 -0.250000000000E+01 -0.144524380962E+01  0.000000000000E+00
 -0.125000000000E+01 -0.250000000000E+01 -0.250000000000E+01 -0.250000000000E+01
  0.000000000000E+00  0.125000000000E+01  0.000000000000E+00  0.103724302461E+01  0.219251206392E+01  0.922061490191E+00  0.000000000000E+00
  0.000000000000E+00  0.715990576545E+00  0.250000000000E+01  0.202479342020E+01  0.324151231464E+01  0.175434191980E+01  0.310152362409E+01
  0.404200324774E+01  0.375000000000E+01  0.000000000000E+00  0.930412228790E+00  0.299062775774E+01  0.500000000000E+01  0.429310310915E+01
  0.409252726285E+01  0.187029682677E+01  0.284428995242E+01  0.500000000000E+01  0.125000000000E+01  0.394624082883E+01  0.500000000000E+01
  0.500000000000E+01  0.250000000000E+01  0.375000000000E+01  0.500000000000E+01
  0.134427280862E+01  0.106355515641E+01  0.142583438906E+01  0.108609142635E+01  0.103229085707E+01  0.120095672562E+01  0.164467009616E+01
  0.149409287617E+01  0.123520893095E+01  0.102389345172E+01  0.102809501533E+01  0.101301839373E+01  0.103253150997E+01  0.101471954096E+01
  0.100663936621E+01  0.100830884898E+01  0.144945893728E+01  0.116393846731E+01  0.101462846280E+01  0.100426051898E+01  0.100679860398E+01
  0.100724595125E+01  0.104668012025E+01  0.101938421582E+01  0.100424810888E+01  0.106442597161E+01  0.100789379304E+01  0.100288872472E+01
  0.100334576322E+01  0.102847370737E+01  0.100958722562E+01  0.100399309562E+01
  0.000000000000E+00  0.445481591908E+00  0.000000000000E+00  0.468734679380E+00  0.462184231097E+00  0.443610945042E+00  0.000000000000E+00
  0.000000000000E+00  0.379268678555E+00  0.471739202436E+00  0.466577317967E+00  0.479355351708E+00  0.490159517898E+00  0.484514131425E+00
  0.488523933766E+00  0.489829290584E+00  0.000000000000E+00  0.450650440974E+00  0.474814738983E+00  0.495784305431E+00  0.490898776265E+00
  0.486834862829E+00  0.448671685072E+00  0.465808628510E+00  0.496536139659E+00  0.444685307657E+00  0.487700581550E+00  0.497533663750E+00
  0.496383682574E+00  0.470003478955E+00  0.489199397769E+00  0.495521351560E+00
  0.000000000000E+00  0.000000000000E+00  0.000000000000E+00  0.186080897027E-01 -0.276629064683E-02  0.332950202867E-01  0.000000000000E+00
  0.000000000000E+00 -0.594681323822E-02  0.000000000000E+00  0.356676720784E-02 -0.566598099756E-02 -0.416020877152E-02  0.305694412155E-04
 -0.106158777363E-02  0.000000000000E+00  0.000000000000E+00 -0.764122169936E-02  0.359919776232E-03  0.000000000000E+00 -0.203497830439E-02
 -0.138299726536E-02  0.156544329042E-02 -0.158535658154E-02 -0.639645139726E-04  0.000000000000E+00 -0.282707642180E-04 -0.196434382443E-03
  0.807170509020E-03  0.000000000000E+00  0.000000000000E+00  0.000000000000E+00
  0.000000000000E+00  0.452218738932E-01  0.000000000000E+00  0.123933410531E+00  0.247673622726E-01  0.165645090590E+00  0.000000000000E+00
  0.000000000000E+00  0.155764250396E+00  0.351982729399E-02  0.259815031672E-01 -0.651122742058E-02  0.749024783256E-01  0.371888153015E-02
 -0.149079454287E-03  0.459027058990E-03  0.000000000000E+00  0.140954999574E+00 -0.808395482001E-02  0.237203135117E-02 -0.304127205627E-03
 -0.438166878508E-02  0.255055940892E-01 -0.194761108331E-02  0.308400468290E-02  0.837488511991E-01 -0.121869425677E-02  0.268542286519E-02
  0.264054761827E-02  0.279530038431E-02 -0.834448959007E-03  0.345023039214E-02
  0.960185584361E+00  0.782341532104E+00  0.101844376500E+01  0.808728070512E+00  0.746126320295E+00  0.879448608790E+00  0.117475431663E+01
  0.106720087713E+01  0.916623175428E+00  0.737395650673E+00  0.743554366001E+00  0.725759458396E+00  0.757456624037E+00  0.729188789727E+00
  0.720785421809E+00  0.722782116214E+00  0.103532031283E+01  0.858318917816E+00  0.728065215835E+00  0.718615496293E+00  0.721013842128E+00
  0.721151942578E+00  0.760018593033E+00  0.732628729145E+00  0.718531377937E+00  0.791044791395E+00  0.722108339378E+00  0.717199744893E+00
  0.717637247324E+00  0.741799799794E+00  0.724056989622E+00  0.718401008614E+00
  0.000000000000E+00  0.441238865007E+00  0.000000000000E+00  0.475212333575E+00  0.460125600215E+00  0.468825459883E+00  0.000000000000E+00
  0.000000000000E+00  0.402299647620E+00  0.469815278733E+00  0.464413480530E+00  0.478714153167E+00  0.489298547673E+00  0.483067971804E+00
  0.487929224859E+00  0.488960767576E+00  0.000000000000E+00  0.464773409430E+00  0.473796242985E+00  0.495345968744E+00  0.490265403612E+00
  0.486285557323E+00  0.445720649102E+00  0.464383523496E+00  0.496127006203E+00  0.443623518714E+00  0.486963956515E+00  0.497245800653E+00
  0.496058644750E+00  0.467732961820E+00  0.488211579532E+00  0.495097551344E+00
  0.999990336403E+00  0.102982730923E+01  0.999990799731E+00  0.104247144508E+01  0.101190167603E+01  0.102520600954E+01  0.999991455503E+00
  0.999992203842E+00  0.103891124283E+01  0.100826302699E+01  0.101252909204E+01  0.100300571840E+01  0.102702848621E+01  0.100605562859E+01
  0.100244399773E+01  0.100355656278E+01  0.999992756381E+00  0.103239691675E+01  0.100459561262E+01  0.100179353444E+01  0.100260307771E+01
  0.100234974224E+01  0.101657231245E+01  0.100617628259E+01  0.100168864668E+01  0.104043187360E+01  0.100303393285E+01  0.100118748780E+01
  0.100134189337E+01  0.100976788446E+01  0.100405369615E+01  0.100176128347E+01
        12        19        11        11
        11         5        12        12
        10        14         5         5
        19        13        11        11
        19        24        13        13
        30        23        24        24
        19        12        22        22
        28        22        21        21
        11        13         6         6
         7         6         9         9
        15        12        14        14
        18        13        23        23
        15        25        21        21
        27        19        22        22
        18         8         9         9
        27        31        24        24
         4        11         6         6
         5        14        12        12
         4         2         5         5
        21        12        15        15
        14        16        15        15
        24        19        27        27
        22        29        27        27
        23        26        18        18
        17         8        18        18
         5        11         4         4
         6         3         4         4
        26        23        30        30
         5         2        10        10
        16        14        10        10
         3         6         7         7
        21        25        28        28
        29        22        28        28
         6        13         9         9
         2         4         1         1
        31        27        32        32
        25        15        20        20
        24        23        13        13
         8         7         9         9
        13        18         9         9
        31        30        24        24
        12        21        22        22
        29        32        27        27
         3         1         4         4
        26        17        18        18
        16        20        15        15
zone t="boundary 2 bc-2", solutiontime= 0.5000000E+02, strandid=1002, i=33, j=48, f=feblock
  0.500000000000E+01  0.375000000000E+01  0.250000000000E+01  0.288078410721E+01  0.125000000000E+01  0.190974100652E+01  0.326683758169E+01
  0.201431602454E+01  0.000000000000E+00  0.963108083381E+00  0.500000000000E+01  0.403552511878E+01  0.423153924130E+01  0.500000000000E+01
  0.385533350601E+01  0.500000000000E+01  0.398173246726E+01  0.315249557942E+01  0.267000324704E+01  0.154774304040E+01  0.218329375016E+01
  0.893127759452E+00  0.000000000000E+00  0.698517061619E+00  0.964171764089E+00  0.310324758057E+01  0.000000000000E+00  0.000000000000E+00
  0.125000000000E+01  0.500000000000E+01  0.375000000000E+01  0.250000000000E+01  0.000000000000E+00
 -0.250000000000E+01 -0.250000000000E+01 -0.250000000000E+01 -0.250000000000E+01 -0.250000000000E+01 -0.250000000000E+01 -0.250000000000E+01
 -0.250000000000E+01 -0.250000000000E+01 -0.250000000000E+01 -0.250000000000E+01 -0.250000000000E+01 -0.250000000000E+01 -0.250000000000E+01
 -0.250000000000E+01 -0.250000000000E+01 -0.250000000000E+01 -0.250000000000E+01 -0.250000000000E+01 -0.250000000000E+01 -0.250000000000E+01
 -0.250000000000E+01 -0.250000000000E+01 -0.250000000000E+01 -0.250000000000E+01 -0.250000000000E+01 -0.250000000000E+01 -0.250000000000E+01
 -0.250000000000E+01 -0.250000000000E+01 -0.250000000000E+01 -0.250000000000E+01 -0.250000000000E+01
  0.000000000000E+00  0.000000000000E+00  0.000000000000E+00  0.904659890645E+00  0.000000000000E+00  0.717002441913E+00  0.188609243358E+01
  0.176246431481E+01  0.000000000000E+00  0.961328577125E+00  0.125000000000E+01  0.101201586758E+01  0.191586535653E+01  0.250000000000E+01
  0.293121848150E+01  0.375000000000E+01  0.406975391361E+01  0.363585050272E+01  0.285047954584E+01  0.292817774674E+01  0.395907379566E+01
  0.205246550326E+01  0.125000000000E+01  0.306828197606E+01  0.397245519226E+01  0.433168271247E+01  0.250000000000E+01  0.375000000000E+01
  0.500000000000E+01  0.500000000000E+01  0.500000000000E+01  0.500000000000E+01  0.500000000000E+01
  0.830786796786E+00  0.935297075519E+00  0.934222274609E+00  0.968087423305E+00  0.961720427142E+00  0.964848117702E+00  0.984135912188E+00
  0.991412632637E+00  0.144945893728E+01  0.102921756338E+01  0.955877208235E+00  0.960692471812E+00  0.981487203766E+00  0.100642794021E+01
  0.997911692678E+00  0.100977848376E+01  0.100199453477E+01  0.998062871949E+00  0.991085663926E+00  0.100132757055E+01  0.100094584364E+01
  0.101224734579E+01  0.106442597161E+01  0.101082194157E+01  0.100685280007E+01  0.100118396120E+01  0.102847370737E+01  0.100958722562E+01
  0.100510201537E+01  0.100179495514E+01  0.100266315048E+01  0.100321173361E+01  0.100399309562E+01
  0.000000000000E+00  0.000000000000E+00  0.000000000000E+00  0.378986721620E+00  0.000000000000E+00  0.340639493540E+00  0.582176561750E+00
  0.575193777566E+00  0.000000000000E+00  0.489447231169E+00  0.494740756992E+00  0.431507079884E+00  0.568959431142E+00  0.536179198156E+00
  0.568878737634E+00  0.516236442837E+00  0.508557871262E+00  0.527400691908E+00  0.566648002950E+00  0.531829580483E+00  0.506097834996E+00
  0.520701736593E+00  0.444685307657E+00  0.491340596194E+00  0.492735182150E+00  0.501506405300E+00  0.470003478955E+00  0.489199397769E+00
  0.490457842518E+00  0.491429123874E+00  0.486220971580E+00  0.490305624530E+00  0.495521351560E+00
  0.000000000000E+00  0.000000000000E+00  0.000000000000E+00  0.000000000000E+00  0.000000000000E+00  0.000000000000E+00  0.000000000000E+00
  0.000000000000E+00  0.000000000000E+00  0.000000000000E+00  0.000000000000E+00  0.000000000000E+00  0.000000000000E+00  0.000000000000E+00
  0.000000000000E+00  0.000000000000E+00  0.000000000000E+00  0.000000000000E+00  0.000000000000E+00  0.000000000000E+00  0.000000000000E+00
  0.000000000000E+00  0.000000000000E+00  0.000000000000E+00  0.000000000000E+00  0.000000000000E+00  0.000000000000E+00  0.000000000000E+00
  0.000000000000E+00  0.000000000000E+00  0.000000000000E+00  0.000000000000E+00  0.000000000000E+00
  0.000000000000E+00  0.000000000000E+00  0.000000000000E+00 -0.229668649874E-02  0.000000000000E+00  0.183564255436E-01  0.121119075420E-01
  0.454984069517E-01  0.000000000000E+00  0.870784182573E-01 -0.995420975067E-01 -0.211864892978E-01 -0.306440580543E-01 -0.414443953206E-01
 -0.137851420228E-02  0.259878231393E-02  0.609993400941E-03  0.504745229949E-03  0.150975657343E-01  0.284040001726E-01  0.564260579657E-02
  0.553436611569E-01  0.837488511991E-01  0.110456251434E-01  0.679237192601E-02 -0.757362635981E-03  0.279530038431E-02 -0.834448959007E-03
  0.400702466779E-02  0.602766206189E-02 -0.143853169707E-03  0.120119561427E-02  0.345023039214E-02
  0.593415291388E+00  0.668065141499E+00  0.667297334311E+00  0.684257399728E+00  0.686938470087E+00  0.679201276229E+00  0.695811392461E+00
  0.702343802713E+00  0.103532031283E+01  0.723695200820E+00  0.672590441187E+00  0.675702454131E+00  0.694092611687E+00  0.720958736578E+00
  0.712690840868E+00  0.724770665350E+00  0.716580486863E+00  0.713298706042E+00  0.706429403563E+00  0.717737468187E+00  0.715376631167E+00
  0.730938401484E+00  0.791044791395E+00  0.724373350276E+00  0.721010944362E+00  0.715457512673E+00  0.741799799794E+00  0.724056989622E+00
  0.719313184652E+00  0.715893191074E+00  0.716608884514E+00  0.717367962752E+00  0.718401008614E+00
  0.000000000000E+00  0.000000000000E+00  0.000000000000E+00  0.380991677060E+00  0.000000000000E+00  0.343629846081E+00  0.585283712557E+00
  0.579371274506E+00  0.000000000000E+00  0.501053780837E+00  0.508459764214E+00  0.435372706007E+00  0.572637650937E+00  0.537001621690E+00
  0.568921604352E+00  0.514994863312E+00  0.508249385943E+00  0.527254273196E+00  0.567446148417E+00  0.531657890197E+00  0.505982350549E+00
  0.520795557896E+00  0.443623518714E+00  0.490664279303E+00  0.492156105850E+00  0.501392668505E+00  0.467732961820E+00  0.488211579532E+00
  0.490002415367E+00  0.491354393068E+00  0.486078174266E+00  0.490037678247E+00  0.495097551344E+00
  0.999993513566E+00  0.999993715985E+00  0.999993570510E+00  0.989539102108E+00  0.999993169511E+00  0.985524839895E+00  0.989838839718E+00
  0.991798259806E+00  0.999992756381E+00  0.984411184958E+00  0.985091609623E+00  0.984689131579E+00  0.990058405889E+00  0.100289567775E+01
  0.999855182113E+00  0.100485299282E+01  0.100121572204E+01  0.100055639432E+01  0.997896752004E+00  0.100350023810E+01  0.100058089056E+01
  0.101093252192E+01  0.104043187360E+01  0.100326541073E+01  0.100254508110E+01  0.100045601664E+01  0.100976788446E+01  0.100405369615E+01
  0.100192661353E+01  0.100045469621E+01  0.100058772265E+01  0.100109988172E+01  0.100176128347E+01
        15         7        19        19
         8        20        19        19
        18        19        21        21
         7         4         8         8
         3         6         4         4
        19         7         8         8
        19        18        15        15
        14        13        15        15
         8        22        20        20
        27        24        22        22
        19        20        21        21
        32        26        21        21
        17        18        26        26
        17        16        15        15
        25        29        21        21
        12         7        13        13
        10         8         6         6
        25        20        24        24
         4         6         8         8
        12         2         4         4
        10        23        22        22
        26        31        17        17
        30        16        17        17
         4         7        12        12
        13        11        12        12
        21        20        25        25
        24        28        25        25
        22         8        10        10
         6         5        10        10
        31        26        32        32
         4         2         3         3
         5         6         3         3
        11        13        14        14
        22        23        27        27
        28        24        27        27
        15        13         7         7
         2        12         1         1
        29        25        33        33
        23        10         9         9
        21        26        18        18
        16        14        15        15
        18        17        15        15
        29        32        21        21
        22        24        20        20
        28        33        25        25
        11         1        12        12
        31        30        17        17
         5         9        10        10
zone t="boundary 3 bc-3", solutiontime= 0.5000000E+02, strandid=1003, i=33, j=48, f=feblock
  0.375000000000E+01  0.250000000000E+01  0.500000000000E+01  0.403552511878E+01  0.288078410721E+01  0.125000000000E+01  0.190974100652E+01
  0.500000000000E+01  0.326683758169E+01  0.423153924130E+01  0.201431602454E+01  0.000000000000E+00  0.963108083381E+00  0.500000000000E+01
  0.267000324704E+01  0.385533350601E+01  0.893127759452E+00  0.154774304040E+01  0.000000000000E+00  0.500000000000E+01  0.315249557942E+01
  0.218329375016E+01  0.398173246726E+01  0.000000000000E+00  0.698517061619E+00  0.964171764089E+00  0.125000000000E+01  0.000000000000E+00
  0.500000000000E+01  0.310324758057E+01  0.250000000000E+01  0.375000000000E+01  0.000000000000E+00
  0.250000000000E+01  0.250000000000E+01  0.250000000000E+01  0.250000000000E+01  0.250000000000E+01  0.250000000000E+01  0.250000000000E+01
  0.250000000000E+01  0.250000000000E+01  0.250000000000E+01  0.250000000000E+01  0.250000000000E+01  0.250000000000E+01  0.250000000000E+01
  0.250000000000E+01  0.250000000000E+01  0.250000000000E+01  0.250000000000E+01  0.250000000000E+01  0.250000000000E+01  0.250000000000E+01
  0.250000000000E+01  0.250000000000E+01  0.250000000000E+01  0.250000000000E+01  0.250000000000E+01  0.250000000000E+01  0.250000000000E+01
  0.250000000000E+01  0.250000000000E+01  0.250000000000E+01  0.250000000000E+01  0.250000000000E+01
  0.000000000000E+00  0.000000000000E+00  0.000000000000E+00  0.101201586758E+01  0.904659890645E+00  0.000000000000E+00  0.717002441913E+00
  0.125000000000E+01  0.188609243358E+01  0.191586535653E+01  0.176246431481E+01  0.000000000000E+00  0.961328577125E+00  0.250000000000E+01
  0.285047954584E+01  0.293121848150E+01  0.205246550326E+01  0.292817774674E+01  0.125000000000E+01  0.375000000000E+01  0.363585050272E+01
  0.395907379566E+01  0.406975391361E+01  0.250000000000E+01  0.306828197606E+01  0.397245519226E+01  0.500000000000E+01  0.375000000000E+01
  0.500000000000E+01  0.433168271247E+01  0.500000000000E+01  0.500000000000E+01  0.500000000000E+01
  0.941861307370E+00  0.946296672355E+00  0.843729962293E+00  0.964330614210E+00  0.978820687339E+00  0.956977245318E+00  0.983331107190E+00
  0.963499061685E+00  0.982689190096E+00  0.984243336733E+00  0.990264137676E+00  0.134427280862E+01  0.101918340850E+01  0.100829834717E+01
  0.993456086463E+00  0.997998487993E+00  0.100807890700E+01  0.100072119543E+01  0.106355515641E+01  0.100673538874E+01  0.100058326570E+01
  0.100234964508E+01  0.100178056097E+01  0.102389345172E+01  0.100874249188E+01  0.100528395620E+01  0.100522891821E+01  0.100830884898E+01
  0.100196488678E+01  0.100161988452E+01  0.100413211096E+01  0.100321955672E+01  0.100426051898E+01
  0.000000000000E+00  0.000000000000E+00  0.000000000000E+00  0.439071553257E+00  0.399865930089E+00  0.000000000000E+00  0.373793803176E+00
  0.495017254332E+00  0.573054334125E+00  0.569602800657E+00  0.559930980865E+00  0.000000000000E+00  0.483388376543E+00  0.533821488318E+00
  0.556458885167E+00  0.564687675599E+00  0.522615378871E+00  0.522534066346E+00  0.445481591908E+00  0.518327442089E+00  0.524752344354E+00
  0.503889418988E+00  0.509841534514E+00  0.471739202436E+00  0.496245988534E+00  0.494940445414E+00  0.489076065582E+00  0.489829290584E+00
  0.493066971072E+00  0.499148547120E+00  0.486767993188E+00  0.484760788273E+00  0.495784305431E+00
  0.000000000000E+00  0.000000000000E+00  0.000000000000E+00  0.000000000000E+00  0.000000000000E+00  0.000000000000E+00  0.000000000000E+00
  0.000000000000E+00  0.000000000000E+00  0.000000000000E+00  0.000000000000E+00  0.000000000000E+00  0.000000000000E+00  0.000000000000E+00
  0.000000000000E+00  0.000000000000E+00  0.000000000000E+00  0.000000000000E+00  0.000000000000E+00  0.000000000000E+00  0.000000000000E+00
  0.000000000000E+00  0.000000000000E+00  0.000000000000E+00  0.000000000000E+00  0.000000000000E+00  0.000000000000E+00  0.000000000000E+00
  0.000000000000E+00  0.000000000000E+00  0.000000000000E+00  0.000000000000E+00  0.000000000000E+00
  0.000000000000E+00  0.000000000000E+00  0.000000000000E+00 -0.226115492228E-01  0.111961878913E-01  0.000000000000E+00  0.179816118157E-01
 -0.100760651142E+00  0.390395356314E-02 -0.389322924808E-01  0.340376078158E-01  0.000000000000E+00  0.652288374467E-01 -0.424929508457E-01
  0.843970453503E-02 -0.650958923798E-02  0.490063826400E-01  0.135887494667E-01  0.452218738932E-01  0.736814332841E-03 -0.700178380101E-03
  0.243831206711E-02  0.869301384960E-03  0.351982729399E-02  0.103956430218E-01  0.431718802804E-02  0.337500870459E-02  0.459027058990E-03
  0.572624068830E-02  0.341760822481E-03  0.160973265801E-02  0.570016093894E-03  0.237203135117E-02
  0.672750932844E+00  0.675919065524E+00  0.602658030887E+00  0.676093439159E+00  0.691308860226E+00  0.683548251565E+00  0.690066298586E+00
  0.677273842958E+00  0.695201601319E+00  0.696250310258E+00  0.703344028546E+00  0.960185584361E+00  0.719726726904E+00  0.722865650077E+00
  0.709447599267E+00  0.713700514105E+00  0.726067907694E+00  0.716603028148E+00  0.782341532104E+00  0.722284500444E+00  0.716128360259E+00
  0.716551640369E+00  0.716546505214E+00  0.737395650673E+00  0.722683429979E+00  0.719441506640E+00  0.719566307104E+00  0.722782116214E+00
  0.716030646582E+00  0.715847788084E+00  0.718146783741E+00  0.717062472948E+00  0.718615496293E+00
  0.000000000000E+00  0.000000000000E+00  0.000000000000E+00  0.443768052359E+00  0.402287064168E+00  0.000000000000E+00  0.377550015172E+00
  0.509231641790E+00  0.575830373302E+00  0.573705119420E+00  0.562552484670E+00  0.000000000000E+00  0.490560996509E+00  0.534526641192E+00
  0.556587161253E+00  0.564391004247E+00  0.522730520180E+00  0.522053034990E+00  0.441238865007E+00  0.517182883730E+00  0.524230080540E+00
  0.503688666376E+00  0.509490317602E+00  0.469815278733E+00  0.495614921111E+00  0.494483812111E+00  0.488562140207E+00  0.488960767576E+00
  0.492982638532E+00  0.499007439605E+00  0.486462299939E+00  0.484599836179E+00  0.495345968744E+00
  0.999989381252E+00  0.999989452967E+00  0.999989666064E+00  0.981541808250E+00  0.988773957105E+00  0.999989871100E+00  0.982469496751E+00
  0.984104103313E+00  0.990427341275E+00  0.990355126606E+00  0.994362617509E+00  0.999990336403E+00  0.988651708089E+00  0.100368300012E+01
  0.999769041136E+00  0.100118460275E+01  0.100834871527E+01  0.100252122568E+01  0.102982730923E+01  0.100443305354E+01  0.100199527489E+01
  0.100082072303E+01  0.100138208545E+01  0.100826302699E+01  0.100298818589E+01  0.100192398683E+01  0.100215265567E+01  0.100355656278E+01
  0.100047708103E+01  0.100056610177E+01  0.100126814616E+01  0.100066576195E+01  0.100179353444E+01
        15         9        16        16
        15        18        11        11
        22        15        21        21
        11         5         9         9
         5         7         2         2
        11         9        15        15
        16        21        15        15
        16        10        14        14
        18        17        11        11
        17        25        24        24
        22        18        15        15
        22        30        31        31
        30        21        23        23
        16        20        23        23
        22        27        26        26
        10         9         4         4
         7        11        13        13
        25        18        26        26
        11         7         5         5
         5         1         4         4
        17        19        13        13
        23        32        30        30
        23        20        29        29
         4         9         5         5
         4         8        10        10
        26        18        22        22
        26        28        25        25
        13        11        17        17
        13         6         7         7
        31        30        32        32
         2         1         5         5
         2         7         6         6
        14        10         8         8
        24        19        17        17
        24        25        28        28
         9        10        16        16
         3         4         1         1
        33        26        27        27
        12        13        19        19
        21        30        22        22
        16        14        20        20
        16        23        21        21
        22        31        27        27
        18        25        17        17
        26        33        28        28
         4         3         8         8
        23        29        32        32
        13        12         6         6
zone t="boundary 4 bc-4", solutiontime= 0.5000000E+02, strandid=1004, i=32, j=46, f=feblock
  0.125000000000E+01  0.219251206392E+01  0.103724302461E+01  0.500000000000E+01  0.250000000000E+01  0.375000000000E+01  0.404200324774E+01
  0.500000000000E+01  0.000000000000E+00  0.310152362409E+01  0.202479342020E+01  0.324151231464E+01  0.922061490191E+00  0.000000000000E+00
  0.299062775774E+01  0.394624082883E+01  0.500000000000E+01  0.409252726285E+01  0.500000000000E+01  0.429310310915E+01  0.175434191980E+01
  0.284428995242E+01  0.000000000000E+00  0.000000000000E+00  0.715990576545E+00  0.930412228790E+00  0.125000000000E+01  0.187029682677E+01
  0.500000000000E+01  0.375000000000E+01  0.250000000000E+01  0.000000000000E+00
  0.250000000000E+01  0.157686156160E+01  0.146289271009E+01  0.250000000000E+01  0.250000000000E+01  0.250000000000E+01  0.155830813274E+01
  0.125000000000E+01  0.250000000000E+01  0.177790177481E+01  0.477386199275E+00  0.742988685424E+00  0.308372018325E+00  0.125000000000E+01
 -0.487811078581E+00 -0.144524380962E+01 -0.125000000000E+01 -0.345533899378E+00  0.000000000000E+00  0.627766083140E+00 -0.739814786992E+00
 -0.158811787973E+01  0.000000000000E+00 -0.125000000000E+01 -0.600232012419E+00 -0.154800130438E+01 -0.250000000000E+01 -0.178862290564E+01
 -0.250000000000E+01 -0.250000000000E+01 -0.250000000000E+01 -0.250000000000E+01
  0.500000000000E+01  0.500000000000E+01  0.500000000000E+01  0.500000000000E+01  0.500000000000E+01  0.500000000000E+01  0.500000000000E+01
  0.500000000000E+01  0.500000000000E+01  0.500000000000E+01  0.500000000000E+01  0.500000000000E+01  0.500000000000E+01  0.500000000000E+01
  0.500000000000E+01  0.500000000000E+01  0.500000000000E+01  0.500000000000E+01  0.500000000000E+01  0.500000000000E+01  0.500000000000E+01
  0.500000000000E+01  0.500000000000E+01  0.500000000000E+01  0.500000000000E+01  0.500000000000E+01  0.500000000000E+01  0.500000000000E+01
  0.500000000000E+01  0.500000000000E+01  0.500000000000E+01  0.500000000000E+01
  0.100522891821E+01  0.100432974862E+01  0.100432058170E+01  0.100196488678E+01  0.100413211096E+01  0.100321955672E+01  0.100258611646E+01
  0.100201205654E+01  0.100426051898E+01  0.100372307624E+01  0.100446493957E+01  0.100346920790E+01  0.100366005070E+01  0.100424810888E+01
  0.100362320585E+01  0.100164172009E+01  0.100227657326E+01  0.100227285505E+01  0.100213473421E+01  0.100254325508E+01  0.100442398723E+01
  0.100337262055E+01  0.100288872472E+01  0.100334576322E+01  0.100323229985E+01  0.100406112256E+01  0.100510201537E+01  0.100431325826E+01
  0.100179495514E+01  0.100266315048E+01  0.100321173361E+01  0.100399309562E+01
  0.489076065582E+00  0.489239469017E+00  0.490982924842E+00  0.493066971072E+00  0.486767993188E+00  0.484760788273E+00  0.485408159935E+00
  0.494264602836E+00  0.495784305431E+00  0.486802391338E+00  0.488140215320E+00  0.487247252177E+00  0.494422649966E+00  0.496536139659E+00
  0.487848000557E+00  0.483222694813E+00  0.492575456667E+00  0.487265775567E+00  0.494867961650E+00  0.488016257842E+00  0.490096894124E+00
  0.488271360063E+00  0.497533663750E+00  0.496383682574E+00  0.495259136617E+00  0.493215881597E+00  0.490457842518E+00  0.490400277870E+00
  0.491429123874E+00  0.486220971580E+00  0.490305624530E+00  0.495521351560E+00
  0.000000000000E+00 -0.892793920700E-04 -0.129739282998E-02  0.000000000000E+00  0.000000000000E+00  0.000000000000E+00  0.425593277830E-03
  0.797088245806E-03  0.000000000000E+00  0.274673450761E-03 -0.942160860374E-03 -0.819771104902E-03 -0.174517646113E-02 -0.639645139726E-04
 -0.109982692058E-02 -0.102242445918E-02 -0.133224634269E-02 -0.213373702318E-02 -0.132892466863E-02 -0.106372191552E-02 -0.624177478790E-03
 -0.761464754319E-03 -0.196434382443E-03  0.807170509020E-03  0.520710097927E-04  0.161631174549E-02  0.000000000000E+00  0.791614717355E-03
  0.000000000000E+00  0.000000000000E+00  0.000000000000E+00  0.000000000000E+00