# vtk DataFile Version 2.0
FUN3D:global_image_vtk
ASCII
DATASET UNSTRUCTURED_GRID
POINTS 213 double
    0.0000000000000000E+00    0.2500000000000000E+01    0.0000000000000000E+00
    0.1250000000000000E+01    0.2500000000000000E+01    0.0000000000000000E+00
    0.2500000000000000E+01    0.2500000000000000E+01    0.0000000000000000E+00
    0.3750000000000000E+01    0.2500000000000000E+01    0.0000000000000000E+00
    0.5000000000000000E+01    0.2500000000000000E+01    0.0000000000000000E+00
    0.5000000000000000E+01    0.1250000000000000E+01    0.0000000000000000E+00
    0.5000000000000000E+01    0.0000000000000000E+00    0.0000000000000000E+00
    0.5000000000000000E+01   -0.1250000000000000E+01    0.0000000000000000E+00
    0.5000000000000000E+01   -0.2500000000000000E+01    0.0000000000000000E+00
    0.3750000000000000E+01   -0.2500000000000000E+01    0.0000000000000000E+00
    0.2500000000000000E+01   -0.2500000000000000E+01    0.0000000000000000E+00
    0.1250000000000000E+01   -0.2500000000000000E+01    0.0000000000000000E+00
    0.0000000000000000E+00   -0.2500000000000000E+01    0.0000000000000000E+00
    0.0000000000000000E+00   -0.1250000000000000E+01    0.0000000000000000E+00
    0.0000000000000000E+00    0.0000000000000000E+00    0.0000000000000000E+00
    0.0000000000000000E+00    0.1250000000000000E+01    0.0000000000000000E+00
    0.9058375365086910E+00    0.1578994732800803E+01    0.0000000000000000E+00
    0.3982050490726493E+01   -0.1583989954232354E+01    0.0000000000000000E+00
    0.4033849428301197E+01    0.1453322699199022E+01    0.0000000000000000E+00
    0.1040505887381675E+01   -0.1479596339503735E+01    0.0000000000000000E+00
    0.1099454400140349E+01   -0.3227322616384110E+00    0.0000000000000000E+00
    0.7354504170366591E+00    0.6593508822075582E+00    0.0000000000000000E+00
    0.1622302608453282E+01    0.8256214013940779E+00    0.0000000000000000E+00
    0.2145871574390382E+01   -0.1650070333782557E+01    0.0000000000000000E+00
    0.4086422318222992E+01   -0.4612828702537229E+00    0.0000000000000000E+00
    0.2979540174134984E+01   -0.8579242121530853E+00    0.0000000000000000E+00
    0.3045064261640043E+01   -0.1836846154397680E+01    0.0000000000000000E+00
    0.3428197553792836E+01    0.3508002863614053E+00    0.0000000000000000E+00
    0.4309693860063405E+01    0.5185680230613409E+00    0.0000000000000000E+00
    0.1827272193562204E+01    0.1738996113203182E+01    0.0000000000000000E+00
    0.2808563282768077E+01    0.1325493893339706E+01    0.0000000000000000E+00
    0.1895995683864404E+01   -0.8731419609589618E+00    0.0000000000000000E+00
    0.2273179336307740E+01    0.4906150219227333E-01    0.0000000000000000E+00
    0.5000000000000000E+01    0.2500000000000000E+01    0.1250000000000000E+01
    0.5000000000000000E+01    0.2500000000000000E+01    0.2500000000000000E+01
    0.5000000000000000E+01    0.2500000000000000E+01    0.3750000000000000E+01
    0.5000000000000000E+01    0.2500000000000000E+01    0.5000000000000000E+01
    0.3750000000000000E+01    0.2500000000000000E+01    0.5000000000000000E+01
    0.2500000000000000E+01    0.2500000000000000E+01    0.5000000000000000E+01
    0.1250000000000000E+01    0.2500000000000000E+01    0.5000000000000000E+01
    0.0000000000000000E+00    0.2500000000000000E+01    0.5000000000000000E+01
    0.0000000000000000E+00    0.2500000000000000E+01    0.3750000000000000E+01
    0.0000000000000000E+00    0.2500000000000000E+01    0.2500000000000000E+01
    0.0000000000000000E+00    0.2500000000000000E+01    0.1250000000000000E+01
    0.9631080833812172E+00    0.2500000000000000E+01    0.9613285771248219E+00
    0.3981732467264904E+01    0.2500000000000000E+01    0.4069753913607991E+01
    0.4035525118777670E+01    0.2500000000000000E+01    0.1012015867579395E+01
    0.9641717640894248E+00    0.2500000000000000E+01    0.3972455192261839E+01
    0.1547743040396780E+01    0.2500000000000000E+01    0.2928177746738678E+01
    0.6985170616192014E+00    0.2500000000000000E+01    0.3068281976055466E+01
    0.8931277594515110E+00    0.2500000000000000E+01    0.2052465503257726E+01
    0.2183293750162785E+01    0.2500000000000000E+01    0.3959073795658649E+01
    0.3855333506014705E+01    0.2500000000000000E+01    0.2931218481500625E+01
    0.3152495579421047E+01    0.2500000000000000E+01    0.3635850502723324E+01
    0.3103247580566054E+01    0.2500000000000000E+01    0.4331682712472464E+01
    0.3266837581688852E+01    0.2500000000000000E+01    0.1886092433583972E+01
    0.4231539241296245E+01    0.2500000000000000E+01    0.1915865356532799E+01
    0.1909741006522088E+01    0.2500000000000000E+01    0.7170024419130505E+00
    0.2880784107213163E+01    0.2500000000000000E+01    0.9046598906449592E+00
    0.2014316024535771E+01    0.2500000000000000E+01    0.1762464314805728E+01
    0.2670003247036656E+01    0.2500000000000000E+01    0.2850479545835163E+01
    0.5000000000000000E+01    0.1250000000000000E+01    0.5000000000000000E+01
    0.5000000000000000E+01    0.0000000000000000E+00    0.5000000000000000E+01
    0.5000000000000000E+01   -0.1250000000000000E+01    0.5000000000000000E+01
    0.5000000000000000E+01   -0.2500000000000000E+01    0.5000000000000000E+01
    0.5000000000000000E+01   -0.2500000000000000E+01    0.3750000000000000E+01
    0.5000000000000000E+01   -0.2500000000000000E+01    0.2500000000000000E+01
    0.5000000000000000E+01   -0.2500000000000000E+01    0.1250000000000000E+01
    0.5000000000000000E+01    0.1578994732800803E+01    0.9058375365086910E+00
    0.5000000000000000E+01   -0.1583989954232354E+01    0.3982050490726493E+01
    0.5000000000000000E+01    0.1453322699199022E+01    0.4033849428301197E+01
    0.5000000000000000E+01   -0.1479596339503735E+01    0.1040505887381675E+01
    0.5000000000000000E+01   -0.3227322616384110E+00    0.1099454400140349E+01
    0.5000000000000000E+01    0.6593508822075582E+00    0.7354504170366591E+00
    0.5000000000000000E+01    0.8256214013940779E+00    0.1622302608453282E+01
    0.5000000000000000E+01   -0.1650070333782557E+01    0.2145871574390382E+01
    0.5000000000000000E+01   -0.4612828702537229E+00    0.4086422318222992E+01
    0.5000000000000000E+01   -0.8579242121530853E+00    0.2979540174134984E+01
    0.5000000000000000E+01   -0.1836846154397680E+01    0.3045064261640043E+01
    0.5000000000000000E+01    0.3508002863614053E+00    0.3428197553792836E+01
    0.5000000000000000E+01    0.5185680230613409E+00    0.4309693860063405E+01
    0.5000000000000000E+01    0.1738996113203182E+01    0.1827272193562204E+01
    0.5000000000000000E+01    0.1325493893339706E+01    0.2808563282768077E+01
    0.5000000000000000E+01   -0.8731419609589618E+00    0.1895995683864404E+01
    0.5000000000000000E+01    0.4906150219227333E-01    0.2273179336307740E+01
    0.0000000000000000E+00    0.1250000000000000E+01    0.5000000000000000E+01
    0.0000000000000000E+00    0.0000000000000000E+00    0.5000000000000000E+01
    0.0000000000000000E+00   -0.1250000000000000E+01    0.5000000000000000E+01
    0.0000000000000000E+00   -0.2500000000000000E+01    0.5000000000000000E+01
    0.1250000000000000E+01   -0.2500000000000000E+01    0.5000000000000000E+01
    0.2500000000000000E+01   -0.2500000000000000E+01    0.5000000000000000E+01
    0.3750000000000000E+01   -0.2500000000000000E+01    0.5000000000000000E+01
    0.4042003247744892E+01    0.1558308132739014E+01    0.5000000000000000E+01
    0.9304122287900499E+00   -0.1548001304379777E+01    0.5000000000000000E+01
    0.1037243024609388E+01    0.1462892710085612E+01    0.5000000000000000E+01
    0.3946240828834967E+01   -0.1445243809615570E+01    0.5000000000000000E+01
    0.4092527262848217E+01   -0.3455338993778935E+00    0.5000000000000000E+01
    0.4293103109154542E+01    0.6277660831404320E+00    0.5000000000000000E+01
    0.3241512314643519E+01    0.7429886854239611E+00    0.5000000000000000E+01
    0.2844289952419609E+01   -0.1588117879734118E+01    0.5000000000000000E+01
    0.7159905765450471E+00   -0.6002320124191652E+00    0.5000000000000000E+01
    0.1754341919796891E+01   -0.7398147869923652E+00    0.5000000000000000E+01
    0.1870296826774691E+01   -0.1788622905643739E+01    0.5000000000000000E+01
    0.9220614901912976E+00    0.3083720183248586E+00    0.5000000000000000E+01
    0.3101523624086016E+01    0.1777901774806180E+01    0.5000000000000000E+01
    0.2192512063922564E+01    0.1576861561598471E+01    0.5000000000000000E+01
    0.2024793420196460E+01    0.4773861992750707E+00    0.5000000000000000E+01
    0.2990627757741975E+01   -0.4878110785814084E+00    0.5000000000000000E+01
    0.0000000000000000E+00   -0.2500000000000000E+01    0.1250000000000000E+01
    0.0000000000000000E+00   -0.2500000000000000E+01    0.2500000000000000E+01
    0.0000000000000000E+00   -0.2500000000000000E+01    0.3750000000000000E+01
    0.0000000000000000E+00    0.1558308132739014E+01    0.4042003247744892E+01
    0.0000000000000000E+00   -0.1548001304379777E+01    0.9304122287900499E+00
    0.0000000000000000E+00    0.1462892710085612E+01    0.1037243024609388E+01
    0.0000000000000000E+00   -0.1445243809615570E+01    0.3946240828834967E+01
    0.0000000000000000E+00   -0.3455338993778935E+00    0.4092527262848217E+01
    0.0000000000000000E+00    0.6277660831404320E+00    0.4293103109154542E+01
    0.0000000000000000E+00    0.7429886854239611E+00    0.3241512314643519E+01
    0.0000000000000000E+00   -0.1588117879734118E+01    0.2844289952419609E+01
    0.0000000000000000E+00   -0.6002320124191652E+00    0.7159905765450471E+00
    0.0000000000000000E+00   -0.7398147869923652E+00    0.1754341919796891E+01
    0.0000000000000000E+00   -0.1788622905643739E+01    0.1870296826774691E+01
    0.0000000000000000E+00    0.3083720183248586E+00    0.9220614901912976E+00
    0.0000000000000000E+00    0.1777901774806180E+01    0.3101523624086016E+01
    0.0000000000000000E+00    0.1576861561598471E+01    0.2192512063922564E+01
[...]
POINT_DATA 213
SCALARS rho double 1
LOOKUP_TABLE default
   0.1344272815458277E+01
   0.9569772446369024E+00
   0.9462966686866620E+00
   0.9418613175799564E+00
   0.8437300052086467E+00
   0.7737999343081234E+00
   0.7629813656146325E+00
   0.7664572128037611E+00
   0.8307868042356430E+00
   0.9352970813504341E+00
   0.9342222723341982E+00
   0.9617204272818445E+00
   0.1449458949199899E+01
   0.1494092878492643E+01
   0.1644670101691836E+01
   0.1425834397203867E+01
   0.1009016266902359E+01
   0.9508812190483186E+00
   0.9436507418462785E+00
   0.9581570696699921E+00
   0.9415857214110139E+00
   0.1036378581635965E+01
   0.9256167566764946E+00
   0.9322353919111135E+00
   0.9537480345230478E+00
   0.9518769576159897E+00
   0.9348582800992132E+00
   0.9564026808835182E+00
   0.9376096807095580E+00
   0.9300667851456297E+00
   0.9445157945727820E+00
   0.8863506388838839E+00
   0.9423579186578692E+00
   0.9634992919212327E+00
   0.1008298324888827E+01
   0.1006735384089551E+01
   0.1001964935938172E+01
   0.1003219559900763E+01
   0.1004132089137828E+01
   0.1005228910359927E+01
   0.1004260518230705E+01
   0.1008308845688610E+01
   0.1023893451314751E+01
   0.1063555153411629E+01
   0.1019183411881523E+01
   0.1001780578756244E+01
   0.9643309098101229E+00
   0.1005283954547497E+01
   0.1000721192908050E+01
   0.1008742490256054E+01
   0.1008078906182333E+01
   0.1002349642186418E+01
   0.9979984782365116E+00
   0.1000583264779383E+01
   0.1001619872398341E+01
   0.9826891725279021E+00
   0.9842433786739224E+00
   0.9833311016572915E+00
   0.9788207648642941E+00
   0.9902641273443251E+00
   0.9934560833144994E+00
   0.1002012071686753E+01
   0.1002134727943960E+01
   0.1002276539637451E+01
   0.1001794947806172E+01
   0.1009778532188525E+01
   0.1006427920427826E+01
   0.9558772287757811E+00
   0.9249387291269151E+00
   0.1007036881491340E+01
   0.1004505030039969E+01
   0.9143631081670849E+00
   0.9089657267101429E+00
   0.8751678010386360E+00
   0.9767259168527325E+00
   0.1000451180062298E+01
   0.1005831283604040E+01
   0.1012882061547011E+01
   0.1011618327999811E+01
   0.1010438328555749E+01
   0.1005468581502248E+01
   0.9907599796195714E+00
   0.1005139744806262E+01
   0.9860554634517893E+00
   0.1005608551007479E+01
   0.1004248108666943E+01
   0.1002888729619381E+01
   0.1003345764881306E+01
   0.1003993102475876E+01
   0.1005102011219818E+01
   0.1003211733459354E+01
   0.1002663110550403E+01
   0.1002586099065458E+01
   0.1004061124901495E+01
   0.1004320571690324E+01
   0.1001641677029826E+01
   0.1002272816700568E+01
   0.1002543207739638E+01
   0.1003469172903222E+01
   0.1003372602921735E+01
   0.1003232296488575E+01
   0.1004423970293974E+01
   0.1004313250246646E+01
   0.1003660043073651E+01
   0.1003723087072870E+01
   0.1004329728595413E+01
   0.1004464932657533E+01
   0.1003623202558822E+01
   0.1064425981371764E+01
   0.1028473704399424E+01
   0.1009587224420060E+01
   0.1006639366132666E+01
   0.1163938463314428E+01
   0.1086091422953327E+01
   0.1007893790631205E+01
   0.1007245951881584E+01
   0.1006798605705165E+01
   0.1013018392674949E+01
   0.1019384210992781E+01
   0.1235208932020754E+01
   0.1032531510394304E+01
   0.1046680116758633E+01
   0.1200956728942744E+01
   0.1014719538911643E+01
   0.1032290854276111E+01
   0.1028095012395227E+01
   0.1014628459687560E+01
   0.1029217562097291E+01
   0.1001994566198508E+01
   0.9606925011975800E+00
   0.1006852795520047E+01
   0.1001327570223522E+01
   0.1010821936296921E+01
   0.1012247344396041E+01
   0.1000945836854403E+01
   0.9979116840376958E+00
   0.9980628540875446E+00
   0.1001183946583708E+01
   0.9841359167960354E+00
   0.9814872085121683E+00
   0.9648481260786106E+00
   0.9680874262284273E+00
   0.9914126329217023E+00
   0.9910856661148348E+00
   0.9925546294858736E+00
   0.1001727662939295E+01
   0.9993411653012476E+00
   0.9941415388097873E+00
   0.1007039853285097E+01
   0.1022540991144652E+01
   0.1001088338721080E+01
   0.1008798756310123E+01
   0.1004773777833469E+01
   0.1009050470262956E+01
   0.9966476387561172E+00
   0.1004988848926625E+01
   0.1003325510293144E+01
   0.9949431069147761E+00
   0.9832679529580112E+00
   0.9943957431120122E+00
   0.9973419781004346E+00
   0.9932184457079579E+00
   0.1001306218753961E+01
   0.1003001440330763E+01
   0.1002183327517747E+01
   0.9947074637877557E+00
   0.9937965241172301E+00
   0.1004867803195013E+01
   0.1020078622248392E+01
   0.1005365194767319E+01
   0.9816998534466440E+00
   0.1004973151428685E+01
   0.1012382653572314E+01
   0.9871418953649176E+00
   0.9551509054540905E+00
   0.9865075675864493E+00
   0.9864534434198197E+00
   0.9918944800540901E+00
   0.9933508187089014E+00
   0.9954409584824740E+00
   0.1037338864679796E+01
   0.1033537542373393E+01
   0.1001443127561783E+01
   0.1001930322619935E+01
   0.9912473133787776E+00
   0.9910918795868963E+00
   0.9648483782488555E+00
   0.9933274549893809E+00
   0.1006058244911426E+01
   0.1001953771354374E+01
   0.9908735281530122E+00
   0.9740939495899116E+00
   0.9418794425650312E+00
   0.9819377065262146E+00
   0.9794801749419579E+00
   0.9704169629724917E+00
   0.9720476402360948E+00
   0.9557345602550903E+00
   0.9496725830581916E+00
   0.9528671628488730E+00
   0.1002659421042003E+01
   0.1002471428922684E+01
   0.1000509095517047E+01
   0.1001677135855236E+01
   0.9607926543509885E+00
   0.9491622067399531E+00
   0.9584500892776977E+00
   0.1001120970092800E+01
   0.1000495863745704E+01
   0.1001156467180423E+01
   0.9807376513549387E+00
   0.9805999741687640E+00
   0.9628472823653571E+00
SCALARS u double 1
LOOKUP_TABLE default
   0.0000000000000000E+00
   0.0000000000000000E+00
   0.0000000000000000E+00
   0.0000000000000000E+00
   0.0000000000000000E+00
   0.0000000000000000E+00
   0.0000000000000000E+00
   0.0000000000000000E+00
   0.0000000000000000E+00
   0.0000000000000000E+00
   0.0000000000000000E+00
   0.0000000000000000E+00
   0.0000000000000000E+00
   0.0000000000000000E+00
   0.0000000000000000E+00
   0.0000000000000000E+00
   0.0000000000000000E+00
   0.0000000000000000E+00
   0.0000000000000000E+00
   0.0000000000000000E+00
   0.0000000000000000E+00
   0.0000000000000000E+00
   0.0000000000000000E+00
   0.0000000000000000E+00
   0.0000000000000000E+00
   0.0000000000000000E+00
   0.0000000000000000E+00
   0.0000000000000000E+00
   0.0000000000000000E+00
   0.0000000000000000E+00
   0.0000000000000000E+00
   0.0000000000000000E+00
   0.0000000000000000E+00
   0.4950169892895094E+00
   0.5338215089654890E+00
   0.5183273877794051E+00
   0.4930670987409273E+00
   0.4847610467195675E+00
   0.4867680370951505E+00
   0.4890760716924671E+00
   0.4957842937965584E+00
   0.4898293018997467E+00
   0.4717392016394381E+00
   0.4454815960917801E+00
   0.4833883750066029E+00
   0.5098414839238188E+00
   0.4390715027671025E+00
   0.4949404419542175E+00
   0.5225340736855781E+00
   0.4962459943882165E+00
   0.5226153816407695E+00
   0.5038894006954413E+00
   0.5646876620918500E+00
   0.5247523233546475E+00
   0.4991485152243210E+00
   0.5730543384773131E+00
   0.5696027761807053E+00
   0.3737937977572867E+00
   0.3998659135798499E+00
   0.5599309891616606E+00
   0.5564588912288945E+00
   0.4942647755946073E+00
   0.4948680682259609E+00
   0.4925754840040667E+00
   0.4914291355032092E+00
   0.5162364493928229E+00
   0.5361792085809619E+00
   0.4947407290863876E+00
   0.4524111656237512E+00
   0.5128786447426712E+00
   0.5117950441138127E+00
   0.4783514869568113E+00
   0.4931693857485214E+00
   0.4603173968067977E+00
   0.5244884937547406E+00
   0.5297427433670243E+00
   0.5129586819334857E+00
   0.5328355385326655E+00
   0.5308939246801166E+00
   0.5309853746266832E+00
   0.5063665455394530E+00
   0.5282452779461609E+00
   0.5410305760264100E+00
   0.5361251280066367E+00
   0.5374096235183469E+00
   0.4965361410195609E+00
   0.4975336598057850E+00
   0.4963836784043200E+00
   0.4955213544087418E+00
   0.4904578142298590E+00
   0.4903056155954302E+00
   0.4862209701745250E+00
   0.4854084711694869E+00
   0.4932158870455389E+00
   0.4909829435328351E+00
   0.4832227253987816E+00
   0.4872659240515131E+00
   0.4880165075852483E+00
   0.4872473884269765E+00
   0.4882713570502304E+00
   0.4952591464238217E+00
   0.4900969023295803E+00
   0.4904002623227197E+00
   0.4944226664151067E+00
   0.4868025150992040E+00
   0.4892395145773031E+00
   0.4881402513484073E+00
   0.4878480648185432E+00
   0.4446852840182618E+00
   0.4700034832720005E+00
   0.4891994000970377E+00
   0.4885239227576499E+00
   0.4506504574208825E+00
   0.4687346767610723E+00
   0.4877005730734902E+00
   0.4868348589447793E+00
   0.4908987650368764E+00
   0.4793553549498558E+00
   0.4658086398844590E+00
   0.3792686792037398E+00
   0.4901595134296561E+00
   0.4486716885598581E+00
   0.4436109455381275E+00
   0.4845141333433906E+00
   0.4621842336585144E+00
   0.4665773255130394E+00
   0.4748147457711701E+00
   0.4894472321062375E+00
   0.5085579913942627E+00
   0.4315070863939439E+00
   0.4927351860284456E+00
   0.5318295919850532E+00
   0.4913406050662674E+00
   0.5207017342247077E+00
   0.5060978502802365E+00
   0.5688787322396330E+00
   0.5274007236709024E+00
   0.5015064465902901E+00
   0.5821765612802934E+00
   0.5689594154164401E+00
   0.3406394956205418E+00
   0.3789867189482519E+00
   0.5751937796766330E+00
   0.5666480103104587E+00
   0.5704101033161000E+00
   0.5291064442137532E+00
   0.5451904185972346E+00
   0.5718792479047862E+00
   0.5389072976729000E+00
   0.5475483996386242E+00
   0.5821688357582097E+00
   0.4925609260784131E+00
   0.5042165925638677E+00
   0.4961741615159095E+00
   0.5565198949416443E+00
   0.4758833171038471E+00
   0.4950277015787307E+00
   0.5498528606796383E+00
   0.5891181922134854E+00
   0.5841943506777509E+00
   0.5469097849704750E+00
   0.5805396029835875E+00
   0.5106265398327147E+00
   0.5030211378076408E+00
   0.5033643497980665E+00
   0.5676433460393426E+00
   0.5563942505741103E+00
   0.4947263435113758E+00
   0.5505235105696078E+00
   0.5510849915131505E+00
   0.5657330517343789E+00
   0.4920073496047788E+00
   0.4927307535915242E+00
   0.3865134466022817E+00
   0.3687749368988507E+00
   0.5574899173365747E+00
   0.5763742009338210E+00
   0.4194299739167895E+00
   0.5824824206981526E+00
   0.4265198104663684E+00
   0.5392780339003119E+00
   0.5012004145700598E+00
   0.5119527579490989E+00
   0.5049133454021014E+00
   0.5751953158486023E+00
   0.5876354119773992E+00
   0.5379890154483433E+00
   0.5677452503560380E+00
   0.5351252025136375E+00
   0.5338062047307802E+00
   0.5580316739902785E+00
   0.5512691839027176E+00
   0.4261854210295162E+00
   0.5273341547002215E+00
   0.5795692955567020E+00
   0.3318681624935708E+00
   0.4760270131163942E+00
   0.5446181419543731E+00
   0.4798326710199683E+00
   0.3005292999428846E+00
   0.5031068202717451E+00
   0.5017129591499749E+00
   0.5129049965970649E+00
   0.5414836406993481E+00
   0.3437602706857730E+00
   0.3397709308220508E+00
   0.3189930707698156E+00
   0.5065952082190464E+00
   0.5123502961366057E+00
   0.5330322268011568E+00
   0.5879287040517619E+00
   0.4644166898768103E+00
   0.3531265000532713E+00
SCALARS v double 1
LOOKUP_TABLE default
   0.0000000000000000E+00
   0.0000000000000000E+00
   0.0000000000000000E+00
   0.0000000000000000E+00
   0.0000000000000000E+00
   0.0000000000000000E+00
   0.0000000000000000E+00
   0.0000000000000000E+00
   0.0000000000000000E+00
   0.0000000000000000E+00
   0.0000000000000000E+00
   0.0000000000000000E+00
   0.0000000000000000E+00
   0.0000000000000000E+00
   0.0000000000000000E+00
   0.0000000000000000E+00
   0.0000000000000000E+00
   0.0000000000000000E+00
   0.0000000000000000E+00
   0.0000000000000000E+00
   0.0000000000000000E+00
   0.0000000000000000E+00
   0.0000000000000000E+00
   0.0000000000000000E+00
   0.0000000000000000E+00
   0.0000000000000000E+00
   0.0000000000000000E+00
   0.0000000000000000E+00
   0.0000000000000000E+00
   0.0000000000000000E+00
   0.0000000000000000E+00
   0.0000000000000000E+00
   0.0000000000000000E+00
   0.0000000000000000E+00
   0.0000000000000000E+00
   0.0000000000000000E+00
   0.0000000000000000E+00
   0.0000000000000000E+00
   0.0000000000000000E+00
   0.0000000000000000E+00
   0.0000000000000000E+00
   0.0000000000000000E+00
   0.0000000000000000E+00
   0.0000000000000000E+00
   0.0000000000000000E+00
   0.0000000000000000E+00
   0.0000000000000000E+00
   0.0000000000000000E+00
   0.0000000000000000E+00
   0.0000000000000000E+00
   0.0000000000000000E+00
   0.0000000000000000E+00
   0.0000000000000000E+00
   0.0000000000000000E+00
   0.0000000000000000E+00
   0.0000000000000000E+00
   0.0000000000000000E+00
   0.0000000000000000E+00
   0.0000000000000000E+00
   0.0000000000000000E+00
   0.0000000000000000E+00
   0.7970503560320357E-03
  -0.1328845653333821E-02
  -0.1332150527627712E-02
   0.0000000000000000E+00
   0.0000000000000000E+00
   0.0000000000000000E+00
   0.0000000000000000E+00
  -0.1922555087142634E-01
   0.4772230282344904E-03
   0.2183094525626663E-02
   0.1427315666120724E-01
  -0.6488281744370486E-02
  -0.7821570694861064E-02
  -0.1327715768677863E-01
   0.4914219383213665E-02
   0.6907755739375579E-03
   0.3434166310235329E-02
   0.1920802173711101E-02
   0.3147676372253410E-02
   0.1704738203017823E-02
  -0.7316101956154176E-02
  -0.7723695847018681E-04
   0.4468463828155316E-02
  -0.4389505964296161E-03
  -0.6396663744838489E-04
  -0.1964363612072467E-03
   0.8071708798680530E-03
   0.0000000000000000E+00
   0.0000000000000000E+00
   0.0000000000000000E+00
   0.0000000000000000E+00
   0.4255417797464748E-03
   0.1616321253786267E-02
  -0.1297385509635881E-02
  -0.1022360005440821E-02
  -0.2133603511504157E-02
  -0.1063670781977967E-02
  -0.8197020489102430E-03
  -0.7614169663827260E-03
   0.5207118868864649E-04
  -0.6241523013123323E-03
   0.7916315910204418E-03
  -0.1745180280688398E-02
   0.2746818955476663E-03
  -0.8926647982946602E-04
  -0.9421392267836343E-03
  -0.1099752516592917E-02
   0.0000000000000000E+00
   0.0000000000000000E+00
   0.0000000000000000E+00
  -0.1061593755232973E-02
  -0.7641220198225152E-02
   0.1860809502448969E-01
  -0.2827033674282114E-04
  -0.1383000515961233E-02
  -0.2034983766470278E-02
  -0.5665977786771794E-02
  -0.1585359441739673E-02
  -0.5946814745877584E-02
  -0.4160210399168329E-02
   0.1565444075157598E-02
   0.3329501880205413E-01
   0.3057150174833272E-04
  -0.2766288675553865E-02
   0.3566768412952968E-02
   0.3599205311822136E-03
   0.0000000000000000E+00
   0.0000000000000000E+00
   0.0000000000000000E+00
   0.0000000000000000E+00
   0.0000000000000000E+00
   0.0000000000000000E+00
   0.0000000000000000E+00
   0.0000000000000000E+00
   0.0000000000000000E+00
   0.0000000000000000E+00
   0.0000000000000000E+00
   0.0000000000000000E+00
   0.0000000000000000E+00
   0.0000000000000000E+00
   0.0000000000000000E+00
   0.0000000000000000E+00
   0.0000000000000000E+00
   0.5046821807212903E-02
   0.3230743165397217E-02
   0.8149016341404115E-02
   0.6168162866283260E-02
   0.1122922284349706E-01
   0.1429255336589556E-01
  -0.2038895056395081E-03
   0.5118211962140926E-02
   0.2914941054881584E-02
   0.3373718289593729E-02
   0.3728376287452513E-02
  -0.1465691921684156E-01
  -0.6158399690133538E-03
   0.6651397295266493E-02
   0.1541900539702468E-02
   0.1969617750102613E-02
   0.4266028394991670E-02
  -0.2790969303174131E-02
   0.1226991925134667E-02
   0.2819141102504032E-02
   0.1497372224680491E-02
   0.2575077249524252E-02
   0.2030532850933446E-02
   0.2118131618971259E-02
   0.8700316841039162E-02
  -0.3733277192739735E-02
   0.6240989455836124E-02
   0.2523533773107840E-04
  -0.3854057516069422E-03
  -0.1674661553786445E-01
  -0.4882014345501512E-02
  -0.4719999940100183E-02
   0.3445192569361615E-02
  -0.6135440034960488E-02
   0.9937941742411816E-04
  -0.3291342576588256E-01
  -0.3046238489289941E-02
   0.4722559787617320E-02
   0.9228245901603004E-03
   0.2112085118581453E-02
   0.4518497911468315E-02
   0.2720371260347255E-02
   0.3212524815698424E-02
   0.5200523208186702E-02
   0.1941864420330791E-02
   0.7316777471430601E-03
  -0.2542509116641255E-04
  -0.5374576657135522E-02
  -0.6959651332192157E-02
  -0.9443215809505454E-03
   0.1105173483413366E-02
  -0.2080516127814608E-02
  -0.3199978296434031E-02
  -0.2527837343831441E-02
  -0.4115132208315954E-02
  -0.7593899992345220E-02
  -0.1985515590525470E-02
   0.6241648335845673E-03
  -0.2237554858497812E-03
   0.1216763910965089E-02
  -0.3483916408755940E-02
   0.5229188477218333E-02
  -0.8487500756101468E-02
   0.2322562638616483E-04
  -0.3394181361760803E-03
   0.2542435435577379E-02
   0.1663425835449057E-02
   0.2021368280666825E-02
  -0.5620758574277695E-02
SCALARS w double 1
LOOKUP_TABLE default
   0.0000000000000000E+00
   0.0000000000000000E+00
   0.0000000000000000E+00
   0.0000000000000000E+00
   0.0000000000000000E+00
   0.0000000000000000E+00
   0.0000000000000000E+00
   0.0000000000000000E+00
   0.0000000000000000E+00
   0.0000000000000000E+00
   0.0000000000000000E+00
   0.0000000000000000E+00
   0.0000000000000000E+00
   0.0000000000000000E+00
   0.0000000000000000E+00
   0.0000000000000000E+00
   0.0000000000000000E+00
   0.0000000000000000E+00
   0.0000000000000000E+00
   0.0000000000000000E+00
   0.0000000000000000E+00
   0.0000000000000000E+00
   0.0000000000000000E+00
   0.0000000000000000E+00
   0.0000000000000000E+00
   0.0000000000000000E+00
   0.0000000000000000E+00
   0.0000000000000000E+00
   0.0000000000000000E+00
   0.0000000000000000E+00
   0.0000000000000000E+00
   0.0000000000000000E+00
   0.0000000000000000E+00
  -0.1007605904614483E+00
  -0.4249290733699372E-01
   0.7368043887735310E-03
   0.5726255743302401E-02
   0.5699548886717341E-03
   0.1609737351333885E-02
   0.3375007016169235E-02
   0.2372026807454553E-02
   0.4590235232048548E-03
   0.3519828072994683E-02
   0.4522187810696952E-01
   0.6522884065281799E-01
   0.8693240031069795E-03
  -0.2261156885465203E-01
   0.4317186318579566E-02
   0.1358874149985188E-01
   0.1039564088694150E-01
   0.4900638515644346E-01
   0.2438310540863234E-02
  -0.6509573432133742E-02
  -0.7001644774837863E-03
   0.3417934634828437E-03
   0.3903955957889759E-02
  -0.3893226028477807E-01
   0.1798161212698602E-01
   0.1119618477524176E-01
   0.3403761041449403E-01
   0.8439701670140215E-02
   0.4938075055560421E-02
   0.4971278029338336E-02
   0.4872200646347749E-02
   0.6027722864563365E-02
   0.2598812506564262E-02
  -0.4144439594382329E-01
  -0.9954208189692638E-01
  -0.1121673788554851E+00
   0.5070573259348921E-02
   0.4230421172367434E-02
  -0.1004728734417933E+00
  -0.9895247126167166E-01
  -0.9875436834748158E-01
  -0.9462470385346525E-01
  -0.6807109180372301E-01
   0.5154628919035143E-02
  -0.1935392789265744E-01
  -0.1575856220163287E-01
  -0.6003531985459751E-02
   0.6818918281025126E-02
  -0.8010011324350821E-01
  -0.2781134733388657E-01
  -0.8096439803856645E-01
  -0.5873295351492774E-01
   0.3084001884540066E-02
   0.2685415708824425E-02
   0.2640547629334362E-02
   0.3450224004559507E-02
   0.4007015521813631E-02
   0.1201153399740050E-02
  -0.1438652384188267E-03
   0.2040316369460515E-02
   0.4895682167071155E-02
   0.3857468426780499E-02
   0.1114684037476611E-02
   0.1183315963302929E-02
   0.1466174054048539E-02
  -0.1606823359902332E-04
   0.8999956205059278E-04
   0.4386925174804106E-02
   0.2715854581395264E-02
   0.2322815454367920E-02
   0.5010681500182492E-02
   0.1071614467111544E-02
   0.2712265428917673E-02
   0.2014258786160324E-02
   0.2901745233818088E-04
   0.8374884427443459E-01
   0.2795299443787093E-02
  -0.8344512135299257E-03
  -0.1490769646023567E-03
   0.1409549997109540E+00
   0.1239334094798312E+00
  -0.1218693904805584E-02
  -0.4381669681755402E-02
  -0.3041202654876526E-03
  -0.6511229027450161E-02
  -0.1947612587368583E-02
   0.1557642507243441E+00
   0.7490247639531311E-01
   0.2550559568733157E-01
   0.1656450914459683E+00