# vtk DataFile Version 2.0
FUN3D:global_image_vtk
ASCII
DATASET UNSTRUCTURED_GRID
POINTS 213 double
    0.0000000000000000E+00    0.2500000000000000E+01    0.0000000000000000E+00
    0.1250000000000000E+01    0.2500000000000000E+01    0.0000000000000000E+00
    0.2500000000000000E+01    0.2500000000000000E+01    0.0000000000000000E+00
    0.3750000000000000E+01    0.2500000000000000E+01    0.0000000000000000E+00
    0.5000000000000000E+01    0.2500000000000000E+01    0.0000000000000000E+00
    0.5000000000000000E+01    0.1250000000000000E+01    0.0000000000000000E+00
    0.5000000000000000E+01    0.0000000000000000E+00    0.0000000000000000E+00
    0.5000000000000000E+01   -0.1250000000000000E+01    0.0000000000000000E+00
    0.5000000000000000E+01   -0.2500000000000000E+01    0.0000000000000000E+00
    0.3750000000000000E+01   -0.2500000000000000E+01    0.0000000000000000E+00
    0.2500000000000000E+01   -0.2500000000000000E+01    0.0000000000000000E+00
    0.1250000000000000E+01   -0.2500000000000000E+01    0.0000000000000000E+00
    0.0000000000000000E+00   -0.2500000000000000E+01    0.0000000000000000E+00
    0.0000000000000000E+00   -0.1250000000000000E+01    0.0000000000000000E+00
    0.0000000000000000E+00    0.0000000000000000E+00    0.0000000000000000E+00
    0.0000000000000000E+00    0.1250000000000000E+01    0.0000000000000000E+00
    0.9058375365086910E+00    0.1578994732800803E+01    0.0000000000000000E+00
    0.3982050490726493E+01   -0.1583989954232354E+01    0.0000000000000000E+00
    0.4033849428301197E+01    0.1453322699199022E+01    0.0000000000000000E+00
    0.1040505887381675E+01   -0.1479596339503735E+01    0.0000000000000000E+00
    0.1099454400140349E+01   -0.3227322616384110E+00    0.0000000000000000E+00
    0.7354504170366591E+00    0.6593508822075582E+00    0.0000000000000000E+00
    0.1622302608453282E+01    0.8256214013940779E+00    0.0000000000000000E+00
    0.2145871574390382E+01   -0.1650070333782557E+01    0.0000000000000000E+00
    0.4086422318222992E+01   -0.4612828702537229E+00    0.0000000000000000E+00
    0.2979540174134984E+01   -0.8579242121530853E+00    0.0000000000000000E+00
    0.3045064261640043E+01   -0.1836846154397680E+01    0.0000000000000000E+00
    0.3428197553792836E+01    0.3508002863614053E+00    0.0000000000000000E+00
    0.4309693860063405E+01    0.5185680230613409E+00    0.0000000000000000E+00
    0.1827272193562204E+01    0.1738996113203182E+01    0.0000000000000000E+00
    0.2808563282768077E+01    0.1325493893339706E+01    0.0000000000000000E+00
    0.1895995683864404E+01   -0.8731419609589618E+00    0.0000000000000000E+00
    0.2273179336307740E+01    0.4906150219227333E-01    0.0000000000000000E+00
    0.5000000000000000E+01    0.2500000000000000E+01    0.1250000000000000E+01
    0.5000000000000000E+01    0.2500000000000000E+01    0.2500000000000000E+01
    0.5000000000000000E+01    0.2500000000000000E+01    0.3750000000000000E+01
    0.5000000000000000E+01    0.2500000000000000E+01    0.5000000000000000E+01
    0.3750000000000000E+01    0.2500000000000000E+01    0.5000000000000000E+01
    0.2500000000000000E+01    0.2500000000000000E+01    0.5000000000000000E+01
    0.1250000000000000E+01    0.2500000000000000E+01    0.5000000000000000E+01
    0.0000000000000000E+00    0.2500000000000000E+01    0.5000000000000000E+01
    0.0000000000000000E+00    0.2500000000000000E+01    0.3750000000000000E+01
    0.0000000000000000E+00    0.2500000000000000E+01    0.2500000000000000E+01
    0.0000000000000000E+00    0.2500000000000000E+01    0.1250000000000000E+01
    0.9631080833812172E+00    0.2500000000000000E+01    0.9613285771248219E+00
    0.3981732467264904E+01    0.2500000000000000E+01    0.4069753913607991E+01
    0.4035525118777670E+01    0.2500000000000000E+01    0.1012015867579395E+01
    0.9641717640894248E+00    0.2500000000000000E+01    0.3972455192261839E+01
    0.1547743040396780E+01    0.2500000000000000E+01    0.2928177746738678E+01
    0.6985170616192014E+00    0.2500000000000000E+01    0.3068281976055466E+01
    0.8931277594515110E+00    0.2500000000000000E+01    0.2052465503257726E+01
    0.2183293750162785E+01    0.2500000000000000E+01    0.3959073795658649E+01
    0.3855333506014705E+01    0.2500000000000000E+01    0.2931218481500625E+01
    0.3152495579421047E+01    0.2500000000000000E+01    0.3635850502723324E+01
    0.3103247580566054E+01    0.2500000000000000E+01    0.4331682712472464E+01
    0.3266837581688852E+01    0.2500000000000000E+01    0.1886092433583972E+01
    0.4231539241296245E+01    0.2500000000000000E+01    0.1915865356532799E+01
    0.1909741006522088E+01    0.2500000000000000E+01    0.7170024419130505E+00
    0.2880784107213163E+01    0.2500000000000000E+01    0.9046598906449592E+00
    0.2014316024535771E+01    0.2500000000000000E+01    0.1762464314805728E+01
    0.2670003247036656E+01    0.2500000000000000E+01    0.2850479545835163E+01
    0.5000000000000000E+01    0.1250000000000000E+01    0.5000000000000000E+01
    0.5000000000000000E+01    0.0000000000000000E+00    0.5000000000000000E+01
    0.5000000000000000E+01   -0.1250000000000000E+01    0.5000000000000000E+01
    0.5000000000000000E+01   -0.2500000000000000E+01    0.5000000000000000E+01
    0.5000000000000000E+01   -0.2500000000000000E+01    0.3750000000000000E+01
    0.5000000000000000E+01   -0.2500000000000000E+01    0.2500000000000000E+01
    0.5000000000000000E+01   -0.2500000000000000E+01    0.1250000000000000E+01
    0.5000000000000000E+01    0.1578994732800803E+01    0.9058375365086910E+00
    0.5000000000000000E+01   -0.1583989954232354E+01    0.3982050490726493E+01
    0.5000000000000000E+01    0.1453322699199022E+01    0.4033849428301197E+01
    0.5000000000000000E+01   -0.1479596339503735E+01    0.1040505887381675E+01
    0.5000000000000000E+01   -0.3227322616384110E+00    0.1099454400140349E+01
    0.5000000000000000E+01    0.6593508822075582E+00    0.7354504170366591E+00
    0.5000000000000000E+01    0.8256214013940779E+00    0.1622302608453282E+01
    0.5000000000000000E+01   -0.1650070333782557E+01    0.2145871574390382E+01
    0.5000000000000000E+01   -0.4612828702537229E+00    0.4086422318222992E+01
    0.5000000000000000E+01   -0.8579242121530853E+00    0.2979540174134984E+01
    0.5000000000000000E+01   -0.1836846154397680E+01    0.3045064261640043E+01
    0.5000000000000000E+01    0.3508002863614053E+00    0.3428197553792836E+01
    0.5000000000000000E+01    0.5185680230613409E+00    0.4309693860063405E+01
    0.5000000000000000E+01    0.1738996113203182E+01    0.1827272193562204E+01
    0.5000000000000000E+01    0.1325493893339706E+01    0.2808563282768077E+01
    0.5000000000000000E+01   -0.8731419609589618E+00    0.1895995683864404E+01
    0.5000000000000000E+01    0.4906150219227333E-01    0.2273179336307740E+01
    0.0000000000000000E+00    0.1250000000000000E+01    0.5000000000000000E+01
    0.0000000000000000E+00    0.0000000000000000E+00    0.5000000000000000E+01
    0.0000000000000000E+00   -0.1250000000000000E+01    0.5000000000000000E+01
    0.0000000000000000E+00   -0.2500000000000000E+01    0.5000000000000000E+01
    0.1250000000000000E+01   -0.2500000000000000E+01    0.5000000000000000E+01
    0.2500000000000000E+01   -0.2500000000000000E+01    0.5000000000000000E+01
    0.3750000000000000E+01   -0.2500000000000000E+01    0.5000000000000000E+01
    0.4042003247744892E+01    0.1558308132739014E+01    0.5000000000000000E+01
    0.9304122287900499E+00   -0.1548001304379777E+01    0.5000000000000000E+01
    0.1037243024609388E+01    0.1462892710085612E+01    0.5000000000000000E+01
    0.3946240828834967E+01   -0.1445243809615570E+01    0.5000000000000000E+01
    0.4092527262848217E+01   -0.3455338993778935E+00    0.5000000000000000E+01
    0.4293103109154542E+01    0.6277660831404320E+00    0.5000000000000000E+01
    0.3241512314643519E+01    0.7429886854239611E+00    0.5000000000000000E+01
    0.2844289952419609E+01   -0.1588117879734118E+01    0.5000000000000000E+01
    0.7159905765450471E+00   -0.6002320124191652E+00    0.5000000000000000E+01
    0.1754341919796891E+01   -0.7398147869923652E+00    0.5000000000000000E+01
    0.1870296826774691E+01   -0.1788622905643739E+01    0.5000000000000000E+01
    0.9220614901912976E+00    0.3083720183248586E+00    0.5000000000000000E+01
    0.3101523624086016E+01    0.1777901774806180E+01    0.5000000000000000E+01
    0.2192512063922564E+01    0.1576861561598471E+01    0.5000000000000000E+01
    0.2024793420196460E+01    0.4773861992750707E+00    0.5000000000000000E+01
    0.2990627757741975E+01   -0.4878110785814084E+00    0.5000000000000000E+01
    0.0000000000000000E+00   -0.2500000000000000E+01    0.1250000000000000E+01
    0.0000000000000000E+00   -0.2500000000000000E+01    0.2500000000000000E+01
    0.0000000000000000E+00   -0.2500000000000000E+01    0.3750000000000000E+01
    0.0000000000000000E+00    0.1558308132739014E+01    0.4042003247744892E+01
    0.0000000000000000E+00   -0.1548001304379777E+01    0.9304122287900499E+00
    0.0000000000000000E+00    0.1462892710085612E+01    0.1037243024609388E+01
    0.0000000000000000E+00   -0.1445243809615570E+01    0.3946240828834967E+01
    0.0000000000000000E+00   -0.3455338993778935E+00    0.4092527262848217E+01
    0.0000000000000000E+00    0.6277660831404320E+00    0.4293103109154542E+01
    0.0000000000000000E+00    0.7429886854239611E+00    0.3241512314643519E+01
    0.0000000000000000E+00   -0.1588117879734118E+01    0.2844289952419609E+01
    0.0000000000000000E+00   -0.6002320124191652E+00    0.7159905765450471E+00
    0.0000000000000000E+00   -0.7398147869923652E+00    0.1754341919796891E+01
    0.0000000000000000E+00   -0.1788622905643739E+01    0.1870296826774691E+01
    0.0000000000000000E+00    0.3083720183248586E+00    0.9220614901912976E+00
    0.0000000000000000E+00    0.1777901774806180E+01    0.3101523624086016E+01
    0.0000000000000000E+00    0.1576861561598471E+01    0.2192512063922564E+01
[...]
POINT_DATA 213
SCALARS rho double 1
LOOKUP_TABLE default
   0.1344272567811670E+01
   0.9569767200236340E+00
   0.9462961018857601E+00
   0.9418608321956172E+00
   0.8437299398486833E+00
   0.7737994576579059E+00
   0.7629807773252620E+00
   0.7664560610473746E+00
   0.8307864554393336E+00
   0.9352969647722891E+00
   0.9342217632316275E+00
   0.9617197887608595E+00
   0.1449458513787672E+01
   0.1494092371534848E+01
   0.1644669687488742E+01
   0.1425834170199368E+01
   0.1009015775343829E+01
   0.9508808149990331E+00
   0.9436505297152297E+00
   0.9581565964573132E+00
   0.9415852119506565E+00
   0.1036378152552431E+01
   0.9256161655415315E+00
   0.9322347814051118E+00
   0.9537477340548772E+00
   0.9518766664825401E+00
   0.9348579127931241E+00
   0.9564025149847838E+00
   0.9376094638791106E+00
   0.9300662223501764E+00
   0.9445153380695496E+00
   0.8863500352992585E+00
   0.9423575387334915E+00
   0.9635036831297926E+00
   0.1008296855966993E+01
   0.1006736621398934E+01
   0.1001962865394130E+01
   0.1003217518218249E+01
   0.1004131581113943E+01
   0.1005228332956331E+01
   0.1004260189892682E+01
   0.1008308479015811E+01
   0.1023892993947600E+01
   0.1063554580164822E+01
   0.1019183094379127E+01
   0.1001781622124211E+01
   0.9643366818268523E+00
   0.1005283471318204E+01
   0.1000720627321123E+01
   0.1008742036859688E+01
   0.1008078439050175E+01
   0.1002348919492177E+01
   0.9979974517439297E+00
   0.1000582510829922E+01
   0.1001619461427635E+01
   0.9826886993482361E+00
   0.9842438015166980E+00
   0.9833306203573620E+00
   0.9788227901932749E+00
   0.9902634383286834E+00
   0.9934555648991177E+00
   0.1002008871646313E+01
   0.1002132206587737E+01
   0.1002274116728258E+01
   0.1001792786374866E+01
   0.1009780223313748E+01
   0.1006427602124901E+01
   0.9558770448781501E+00
   0.9249402777680439E+00
   0.1007037315635569E+01
   0.1004506769680262E+01
   0.9143630958059814E+00
   0.9089663441255409E+00
   0.8751679191619868E+00
   0.9767250691699070E+00
   0.1000450296162313E+01
   0.1005832265736074E+01
   0.1012882127919234E+01
   0.1011618842482504E+01
   0.1010439312574846E+01
   0.1005470085641672E+01
   0.9907594557968715E+00
   0.1005138686491912E+01
   0.9860548507644569E+00
   0.1005607560806155E+01
   0.1004247768564868E+01
   0.1002888515231709E+01
   0.1003345576780244E+01
   0.1003993298546583E+01
   0.1005101551863509E+01
   0.1003211334533985E+01
   0.1002660993012984E+01
   0.1002582238526870E+01
   0.1004060730758826E+01
   0.1004319986801150E+01
   0.1001639600623369E+01
   0.1002269665088503E+01
   0.1002539480760006E+01
   0.1003467568460556E+01
   0.1003371736634985E+01
   0.1003231910698670E+01
   0.1004423480560430E+01
   0.1004313057522036E+01
   0.1003659779082332E+01
   0.1003722420277480E+01
   0.1004328724946360E+01
   0.1004464108263814E+01
   0.1003622098343159E+01
   0.1064425976134359E+01
   0.1028473223230783E+01
   0.1009586905362537E+01
   0.1006639008312731E+01
   0.1163937993342774E+01
   0.1086091081423559E+01
   0.1007893392566202E+01
   0.1007245521131041E+01
   0.1006798301430019E+01
   0.1013017939730730E+01
   0.1019383669708341E+01
   0.1235208649375831E+01
   0.1032531253515100E+01
   0.1046679527351173E+01
   0.1200956466374641E+01
   0.1014719101144618E+01
   0.1032290306280157E+01
   0.1028094461882535E+01
   0.1014627913365765E+01
   0.1029217120944242E+01
   0.1001995031217606E+01
   0.9606931449029029E+00
   0.1006852219465482E+01
   0.1001327096316972E+01
   0.1010821320536737E+01
   0.1012246929522419E+01
   0.1000945358538651E+01
   0.9979114279225517E+00
   0.9980622473136134E+00
   0.1001183229561130E+01
   0.9841354155051171E+00
   0.9814868873834853E+00
   0.9648478810651805E+00
   0.9680869840778608E+00
   0.9914123374076526E+00
   0.9910853522668019E+00
   0.9925541538590182E+00
   0.1001727083186362E+01
   0.9993406296387217E+00
   0.9941411116853678E+00
   0.1007039371140228E+01
   0.1022540573764631E+01
   0.1001088036644304E+01
   0.1008798221155802E+01
   0.1004773246723977E+01
   0.1009049987956981E+01
   0.9966472492188058E+00
   0.1004988499209305E+01
   0.1003325034206478E+01
   0.9949426559493165E+00
   0.9832676868135646E+00
   0.9943951103776918E+00
   0.9973414772584193E+00
   0.9932177485219186E+00
   0.1001305431355283E+01
   0.1003000821601224E+01
   0.1002182776622400E+01
   0.9947073059976331E+00
   0.9937961003596328E+00
   0.1004867296339054E+01
   0.1020078211312811E+01
   0.1005364832310780E+01
   0.9816995346131808E+00
   0.1004972632672948E+01
   0.1012382057979990E+01
   0.9871415879201082E+00
   0.9551505069187243E+00
   0.9865071478929737E+00
   0.9864530747475727E+00
   0.9918940095815022E+00
   0.9933504698187551E+00
   0.9954405125867043E+00
   0.1037338557717260E+01
   0.1033537131516547E+01
   0.1001443497561629E+01
   0.1001929660023431E+01
   0.9912467671856099E+00
   0.9910913401759024E+00
   0.9648477138879490E+00
   0.9933269911544845E+00
   0.1006058291207453E+01
   0.1001953700619784E+01
   0.9908729831138791E+00
   0.9740939247807980E+00
   0.9418796356420071E+00
   0.9819372459731376E+00
   0.9794797067770474E+00
   0.9704167441543924E+00
   0.9720470597972258E+00
   0.9557343674585042E+00
   0.9496726863758925E+00
   0.9528672715736762E+00
   0.1002658834193012E+01
   0.1002470750534252E+01
   0.1000508833463130E+01
   0.1001677218926158E+01
   0.9607920729093480E+00
   0.9491630944417194E+00
   0.9584503088787976E+00
   0.1001120747147727E+01
   0.1000495625280254E+01
   0.1001156033491692E+01
   0.9807373605341286E+00
   0.9805994680668140E+00
   0.9628474986137733E+00
SCALARS u double 1
LOOKUP_TABLE default
   0.0000000000000000E+00
   0.0000000000000000E+00
   0.0000000000000000E+00
   0.0000000000000000E+00
   0.0000000000000000E+00
   0.0000000000000000E+00
   0.0000000000000000E+00
   0.0000000000000000E+00
   0.0000000000000000E+00
   0.0000000000000000E+00
   0.0000000000000000E+00
   0.0000000000000000E+00
   0.0000000000000000E+00
   0.0000000000000000E+00
   0.0000000000000000E+00
   0.0000000000000000E+00
   0.0000000000000000E+00
   0.0000000000000000E+00
   0.0000000000000000E+00
   0.0000000000000000E+00
   0.0000000000000000E+00
   0.0000000000000000E+00
   0.0000000000000000E+00
   0.0000000000000000E+00
   0.0000000000000000E+00
   0.0000000000000000E+00
   0.0000000000000000E+00
   0.0000000000000000E+00
   0.0000000000000000E+00
   0.0000000000000000E+00
   0.0000000000000000E+00
   0.0000000000000000E+00
   0.0000000000000000E+00
   0.4950105963408902E+00
   0.5338219023052714E+00
   0.5183277394630575E+00
   0.4930688534486790E+00
   0.4847644557041059E+00
   0.4867722116251221E+00
   0.4890778456382356E+00
   0.4957846565641956E+00
   0.4898299267207828E+00
   0.4717396242404276E+00
   0.4454821851854854E+00
   0.4833886408554824E+00
   0.5098466239102395E+00
   0.4390692175595383E+00
   0.4949407120002364E+00
   0.5225346757612200E+00
   0.4962465893822489E+00
   0.5226159156851503E+00
   0.5038902279739260E+00
   0.5646876919847471E+00
   0.5247531198747444E+00
   0.4991522591177616E+00
   0.5730544199032256E+00
   0.5696009569768652E+00
   0.3737938061795966E+00
   0.3998650737750191E+00
   0.5599316706326041E+00
   0.5564593131632456E+00
   0.4942664644736221E+00
   0.4948689723389401E+00
   0.4925741481837239E+00
   0.4914281134947897E+00
   0.5162375404006898E+00
   0.5361792891472417E+00
   0.4947398157641939E+00
   0.4524087861732287E+00
   0.5128793775914076E+00
   0.5117953680582151E+00
   0.4783504172473956E+00
   0.4931683769661001E+00
   0.4603167603892913E+00
   0.5244884906083821E+00
   0.5297428952067518E+00
   0.5129585293792452E+00
   0.5328354136414754E+00
   0.5308943520396376E+00
   0.5309849098360604E+00
   0.5063666068276461E+00
   0.5282444868463051E+00
   0.5410307661593814E+00
   0.5361249140411586E+00
   0.5374097269832827E+00
   0.4965364743609539E+00
   0.4975339075752230E+00
   0.4963837444811356E+00
   0.4955214342630262E+00
   0.4904584613107753E+00
   0.4903069790885431E+00
   0.4862185661404727E+00
   0.4854104129742888E+00
   0.4932166655759735E+00
   0.4909840434563796E+00
   0.4832197234514628E+00
   0.4872660811416855E+00
   0.4880185572546601E+00
   0.4872503763431128E+00
   0.4882707253488456E+00
   0.4952596193620719E+00
   0.4900977848339944E+00
   0.4904011645071598E+00
   0.4944233187370918E+00
   0.4868068022463106E+00
   0.4892417832906769E+00
   0.4881414228042992E+00
   0.4878486222605034E+00
   0.4446850642208967E+00
   0.4700039915394087E+00
   0.4891997104415272E+00
   0.4885235551668420E+00
   0.4506513581495334E+00
   0.4687345604849344E+00
   0.4877006400569206E+00
   0.4868350525326379E+00
   0.4908986861662942E+00
   0.4793559079946939E+00
   0.4658093423703749E+00
   0.3792690413108844E+00
   0.4901596155719309E+00
   0.4486722561484988E+00
   0.4436114242126679E+00
   0.4845145938565158E+00
   0.4621849083652607E+00
   0.4665780570540495E+00
   0.4748154400468105E+00
   0.4894475609859863E+00
   0.5085631334458440E+00
   0.4315068771680952E+00
   0.4927358746579867E+00
   0.5318302515137182E+00
   0.4913412612548864E+00
   0.5207020606450042E+00
   0.5061001963990774E+00
   0.5688795953962761E+00
   0.5274032866907110E+00
   0.5015096534870356E+00
   0.5821762825420753E+00
   0.5689584864806284E+00
   0.3406397078098781E+00
   0.3789865251138961E+00
   0.5751940827447748E+00
   0.5666484764175089E+00
   0.5704099887860957E+00
   0.5291069818719354E+00
   0.5451908525521817E+00
   0.5718796119320206E+00
   0.5389078181909951E+00
   0.5475487477337984E+00
   0.5821693200545229E+00
   0.4925613855694642E+00
   0.5042169645179481E+00
   0.4961746552113666E+00
   0.5565203816493862E+00
   0.4758836582166673E+00
   0.4950291309462410E+00
   0.5498530093813703E+00
   0.5891180724670863E+00
   0.5841943025073243E+00
   0.5469101207947650E+00
   0.5805392473718489E+00
   0.5106279296284927E+00
   0.5030224659041223E+00
   0.5033681347863470E+00
   0.5676425706491477E+00
   0.5563948130916597E+00
   0.4947268269242030E+00
   0.5505239697738259E+00
   0.5510853002144341E+00
   0.5657332748962739E+00
   0.4920080316446020E+00
   0.4927312336981004E+00
   0.3865140798575314E+00
   0.3687754944622071E+00
   0.5574901077091087E+00
   0.5763745604316680E+00
   0.4194301768805688E+00
   0.5824827930783785E+00
   0.4265202803553343E+00
   0.5392784754055764E+00
   0.5012009685010168E+00
   0.5119565145933009E+00
   0.5049148597876809E+00
   0.5751948245674079E+00
   0.5876354084819959E+00
   0.5379882254182839E+00
   0.5677451445747290E+00
   0.5351268623488935E+00
   0.5338073508563148E+00
   0.5580316945124928E+00
   0.5512684830559395E+00
   0.4261843680163385E+00
   0.5273346518038331E+00
   0.5795689546087067E+00
   0.3318688000087147E+00
   0.4760269121902555E+00
   0.5446181040774856E+00
   0.4798321809076146E+00
   0.3005294485755911E+00
   0.5031078056165363E+00
   0.5017143046332309E+00
   0.5129074838371360E+00
   0.5414845120074154E+00
   0.3437604875183556E+00
   0.3397716304509284E+00
   0.3189928760002961E+00
   0.5065980271361494E+00
   0.5123536200776387E+00
   0.5330323602686982E+00
   0.5879288192662377E+00
   0.4644170502420857E+00
   0.3531273769933312E+00
SCALARS v double 1
LOOKUP_TABLE default
   0.0000000000000000E+00
   0.0000000000000000E+00
   0.0000000000000000E+00
   0.0000000000000000E+00
   0.0000000000000000E+00
   0.0000000000000000E+00
   0.0000000000000000E+00
   0.0000000000000000E+00
   0.0000000000000000E+00
   0.0000000000000000E+00
   0.0000000000000000E+00
   0.0000000000000000E+00
   0.0000000000000000E+00
   0.0000000000000000E+00
   0.0000000000000000E+00
   0.0000000000000000E+00
   0.0000000000000000E+00
   0.0000000000000000E+00
   0.0000000000000000E+00
   0.0000000000000000E+00
   0.0000000000000000E+00
   0.0000000000000000E+00
   0.0000000000000000E+00
   0.0000000000000000E+00
   0.0000000000000000E+00
   0.0000000000000000E+00
   0.0000000000000000E+00
   0.0000000000000000E+00
   0.0000000000000000E+00
   0.0000000000000000E+00
   0.0000000000000000E+00
   0.0000000000000000E+00
   0.0000000000000000E+00
   0.0000000000000000E+00
   0.0000000000000000E+00
   0.0000000000000000E+00
   0.0000000000000000E+00
   0.0000000000000000E+00
   0.0000000000000000E+00
   0.0000000000000000E+00
   0.0000000000000000E+00
   0.0000000000000000E+00
   0.0000000000000000E+00
   0.0000000000000000E+00
   0.0000000000000000E+00
   0.0000000000000000E+00
   0.0000000000000000E+00
   0.0000000000000000E+00
   0.0000000000000000E+00
   0.0000000000000000E+00
   0.0000000000000000E+00
   0.0000000000000000E+00
   0.0000000000000000E+00
   0.0000000000000000E+00
   0.0000000000000000E+00
   0.0000000000000000E+00
   0.0000000000000000E+00
   0.0000000000000000E+00
   0.0000000000000000E+00
   0.0000000000000000E+00
   0.0000000000000000E+00
   0.7979642243885415E-03
  -0.1328039476987258E-02
  -0.1330884017168981E-02
   0.0000000000000000E+00
   0.0000000000000000E+00
   0.0000000000000000E+00
   0.0000000000000000E+00
  -0.1922672678764159E-01
   0.4780097859550420E-03
   0.2183256337185222E-02
   0.1427250526343992E-01
  -0.6488819600472414E-02
  -0.7822085672715882E-02
  -0.1327751075418228E-01
   0.4914057942766142E-02
   0.6911536335091620E-03
   0.3434058098445193E-02
   0.1921087028938992E-02
   0.3147955172391893E-02
   0.1705187047899667E-02
  -0.7316742624109520E-02
  -0.7695922200564193E-04
   0.4468049199125933E-02
  -0.4389183548050509E-03
  -0.6359063434034012E-04
  -0.1964081991162018E-03
   0.8072857164088148E-03
   0.0000000000000000E+00
   0.0000000000000000E+00
   0.0000000000000000E+00
   0.0000000000000000E+00
   0.4249959007834750E-03
   0.1616522918454612E-02
  -0.1297077204402413E-02
  -0.1020553499486700E-02
  -0.2132089604241958E-02
  -0.1063270934797999E-02
  -0.8197563652649400E-03
  -0.7602133027418960E-03
   0.5203881323690805E-04
  -0.6234992198967317E-03
   0.7916974660294318E-03
  -0.1744955723092439E-02
   0.2736690631503888E-03
  -0.8966370196376843E-04
  -0.9417929610489493E-03
  -0.1097776667615528E-02
   0.0000000000000000E+00
   0.0000000000000000E+00
   0.0000000000000000E+00
  -0.1061485586181918E-02
  -0.7641312200396097E-02
   0.1860814539805138E-01
  -0.2829663190758485E-04
  -0.1383038263039929E-02
  -0.2034781680536990E-02
  -0.5665929941317731E-02
  -0.1585350578114410E-02
  -0.5946923389196186E-02
  -0.4160312470903810E-02
   0.1565413637239637E-02
   0.3329487869861986E-01
   0.3058535612087173E-04
  -0.2766316509659397E-02
   0.3566687259511396E-02
   0.3599846031125338E-03
   0.0000000000000000E+00
   0.0000000000000000E+00
   0.0000000000000000E+00
   0.0000000000000000E+00
   0.0000000000000000E+00
   0.0000000000000000E+00
   0.0000000000000000E+00
   0.0000000000000000E+00
   0.0000000000000000E+00
   0.0000000000000000E+00
   0.0000000000000000E+00
   0.0000000000000000E+00
   0.0000000000000000E+00
   0.0000000000000000E+00
   0.0000000000000000E+00
   0.0000000000000000E+00
   0.0000000000000000E+00
   0.5046760785437468E-02
   0.3230555940875263E-02
   0.8148981230456010E-02
   0.6168173596997997E-02
   0.1122920522470431E-01
   0.1429252280563570E-01
  -0.2038712289009118E-03
   0.5118182104273710E-02
   0.2914937193471542E-02
   0.3373642647656150E-02
   0.3728384351562807E-02
  -0.1465705657437898E-01
  -0.6159285861797695E-03
   0.6651489504940835E-02
   0.1542091137729865E-02
   0.1969559794815453E-02
   0.4265960795638691E-02
  -0.2790905400426874E-02
   0.1226912509666134E-02
   0.2819043265470232E-02
   0.1496887535289480E-02
   0.2575052957207170E-02
   0.2030264388131218E-02
   0.2118108410586010E-02
   0.8700352068995934E-02
  -0.3733186864417092E-02
   0.6241158348356452E-02
   0.2511556482074154E-04
  -0.3854565096843811E-03
  -0.1674670037468507E-01
  -0.4881934764193365E-02
  -0.4719787606116468E-02
   0.3445160497145820E-02
  -0.6135633430814730E-02
   0.9946500908824114E-04
  -0.3291357641363121E-01
  -0.3046196303348164E-02
   0.4722581548920099E-02
   0.9228822162398386E-03
   0.2112026378808440E-02
   0.4518327788026275E-02
   0.2720042710645605E-02
   0.3212413944653157E-02
   0.5200352995012603E-02
   0.1942117343058371E-02
   0.7317078390455161E-03
  -0.2589776452484996E-04
  -0.5374987503091387E-02
  -0.6960025120202482E-02
  -0.9443757305714887E-03
   0.1105240635774202E-02
  -0.2079956062195526E-02
  -0.3199591546601207E-02
  -0.2527759420293073E-02
  -0.4115383438389524E-02
  -0.7593785682044575E-02
  -0.1985782348318819E-02
   0.6239215916828472E-03
  -0.2232292184541140E-03
   0.1216824176886123E-02
  -0.3484247266894658E-02
   0.5228831753305689E-02
  -0.8487547952320007E-02
   0.2305519283032032E-04
  -0.3397670432442900E-03
   0.2542359113241427E-02
   0.1663435328864745E-02
   0.2021551251897665E-02
  -0.5620680159863134E-02
SCALARS w double 1
LOOKUP_TABLE default
   0.0000000000000000E+00
   0.0000000000000000E+00
   0.0000000000000000E+00
   0.0000000000000000E+00
   0.0000000000000000E+00
   0.0000000000000000E+00
   0.0000000000000000E+00
   0.0000000000000000E+00
   0.0000000000000000E+00
   0.0000000000000000E+00
   0.0000000000000000E+00
   0.0000000000000000E+00
   0.0000000000000000E+00
   0.0000000000000000E+00
   0.0000000000000000E+00
   0.0000000000000000E+00
   0.0000000000000000E+00
   0.0000000000000000E+00
   0.0000000000000000E+00
   0.0000000000000000E+00
   0.0000000000000000E+00
   0.0000000000000000E+00
   0.0000000000000000E+00
   0.0000000000000000E+00
   0.0000000000000000E+00
   0.0000000000000000E+00
   0.0000000000000000E+00
   0.0000000000000000E+00
   0.0000000000000000E+00
   0.0000000000000000E+00
   0.0000000000000000E+00
   0.0000000000000000E+00
   0.0000000000000000E+00
  -0.1007592749423636E+00
  -0.4249196525366226E-01
   0.7382090239303292E-03
   0.5731281088198705E-02
   0.5702918454045795E-03
   0.1607474710113032E-02
   0.3374018742781909E-02
   0.2371868024884777E-02
   0.4586554169378897E-03
   0.3519797114176804E-02
   0.4522216332256367E-01
   0.6522887552462087E-01
   0.8699696483345559E-03
  -0.2261167103050818E-01
   0.4317013902951556E-02
   0.1358859082880694E-01
   0.1039540297606558E-01
   0.4900633981840565E-01
   0.2438605744905762E-02
  -0.6508082453193470E-02
  -0.6986525412041836E-03
   0.3419340949786380E-03
   0.3904470551617562E-02
  -0.3893082013303745E-01
   0.1798163687707075E-01
   0.1119620600356254E-01
   0.3403767982168742E-01
   0.8440265808583331E-02
   0.4943835460807749E-02
   0.4975404815643118E-02
   0.4875009529740213E-02
   0.6030035666875249E-02
   0.2600515004672085E-02
  -0.4144419815897379E-01
  -0.9954140660279720E-01
  -0.1121670874784140E+00
   0.5072700604511545E-02
   0.4233413738490808E-02
  -0.1004722667448423E+00
  -0.9895144658931386E-01
  -0.9875385061662806E-01
  -0.9462335808618735E-01
  -0.6807054135018857E-01
   0.5156680462224199E-02
  -0.1935348041345144E-01
  -0.1575807166076234E-01
  -0.6002969483846605E-02
   0.6822354833915893E-02
  -0.8009864544858050E-01
  -0.2781087265161977E-01
  -0.8096347986385304E-01
  -0.5873227894930414E-01
   0.3083884028128843E-02
   0.2685171575265589E-02
   0.2640295225013814E-02
   0.3449292403381760E-02
   0.4005999631402811E-02
   0.1200298345195201E-02
  -0.1431552131470764E-03
   0.2043845149545236E-02
   0.4894929063322228E-02
   0.3856836675312749E-02
   0.1116006886325332E-02
   0.1186012785923729E-02
   0.1469827120089648E-02
  -0.1648833647639062E-04
   0.8941978693846028E-04
   0.4386471342286793E-02
   0.2715143175150243E-02
   0.2321704413435749E-02
   0.5009933904411666E-02
   0.1069761515914225E-02
   0.2711504307596419E-02
   0.2013762961991677E-02
   0.2890489687963552E-04
   0.8374874457364211E-01
   0.2795350272873825E-02
  -0.8346604935404320E-03
  -0.1491776715956888E-03
   0.1409549176952819E+00
   0.1239330922766202E+00
  -0.1218680530237431E-02
  -0.4381605906938478E-02
  -0.3038941822345006E-03
  -0.6511257168821850E-02
  -0.1947582715332294E-02
   0.1557641716525296E+00
   0.7490239555792939E-01
   0.2550570528980749E-01
   0.1656450241140419E+00