title="tecplot geometry and solution file"
variables = x y z rho u v w p mach temperature
zone t="boundary 1 bc-1", solutiontime= 0.1000000E+02, strandid=1001, i=32, j=46, f=feblock
  0.000000000000E+00  0.000000000000E+00  0.000000000000E+00  0.000000000000E+00  0.000000000000E+00  0.000000000000E+00  0.000000000000E+00
  0.000000000000E+00  0.000000000000E+00  0.000000000000E+00  0.000000000000E+00  0.000000000000E+00  0.000000000000E+00  0.000000000000E+00
  0.000000000000E+00  0.000000000000E+00  0.000000000000E+00  0.000000000000E+00  0.000000000000E+00  0.000000000000E+00  0.000000000000E+00
  0.000000000000E+00  0.000000000000E+00  0.000000000000E+00  0.000000000000E+00  0.000000000000E+00  0.000000000000E+00  0.000000000000E+00
  0.000000000000E+00  0.000000000000E+00  0.000000000000E+00  0.000000000000E+00
  0.250000000000E+01  0.250000000000E+01  0.125000000000E+01  0.146289271009E+01  0.157686156160E+01  0.308372018325E+00  0.000000000000E+00
 -0.125000000000E+01 -0.600232012419E+00  0.250000000000E+01  0.477386199275E+00  0.742988685424E+00 -0.739814786992E+00  0.177790177481E+01
  0.155830813274E+01  0.250000000000E+01 -0.250000000000E+01 -0.154800130438E+01 -0.487811078581E+00  0.250000000000E+01  0.627766083140E+00
 -0.345533899378E+00 -0.178862290564E+01 -0.158811787973E+01  0.125000000000E+01 -0.250000000000E+01 -0.144524380962E+01  0.000000000000E+00
 -0.125000000000E+01 -0.250000000000E+01 -0.250000000000E+01 -0.250000000000E+01
  0.000000000000E+00  0.125000000000E+01  0.000000000000E+00  0.103724302461E+01  0.219251206392E+01  0.922061490191E+00  0.000000000000E+00
  0.000000000000E+00  0.715990576545E+00  0.250000000000E+01  0.202479342020E+01  0.324151231464E+01  0.175434191980E+01  0.310152362409E+01
  0.404200324774E+01  0.375000000000E+01  0.000000000000E+00  0.930412228790E+00  0.299062775774E+01  0.500000000000E+01  0.429310310915E+01
  0.409252726285E+01  0.187029682677E+01  0.284428995242E+01  0.500000000000E+01  0.125000000000E+01  0.394624082883E+01  0.500000000000E+01
  0.500000000000E+01  0.250000000000E+01  0.375000000000E+01  0.500000000000E+01
  0.134396731443E+01  0.106288698451E+01  0.142567428150E+01  0.108605882964E+01  0.103189220444E+01  0.120046423377E+01  0.164281247385E+01
  0.149232149360E+01  0.123491583899E+01  0.102374923472E+01  0.102837493688E+01  0.101298511527E+01  0.103298217534E+01  0.101450507446E+01
  0.100651986118E+01  0.100815215210E+01  0.144787053805E+01  0.116338402383E+01  0.101484564738E+01  0.100300496073E+01  0.100671206182E+01
  0.100730292863E+01  0.104658261608E+01  0.101925912660E+01  0.100388298691E+01  0.106493110406E+01  0.100782052236E+01  0.100321557251E+01
  0.100342440967E+01  0.102865084936E+01  0.100953852160E+01  0.100373888906E+01
  0.000000000000E+00  0.446358067517E+00  0.000000000000E+00  0.467560518809E+00  0.463488632895E+00  0.444130199710E+00  0.000000000000E+00
  0.000000000000E+00  0.379414505825E+00  0.472067561708E+00  0.467070116602E+00  0.479430473235E+00  0.489673616710E+00  0.484503819989E+00
  0.488022629519E+00  0.489655821393E+00  0.000000000000E+00  0.450851287547E+00  0.474819682179E+00  0.496307069734E+00  0.491006291879E+00
  0.486784126866E+00  0.449357094285E+00  0.466802244014E+00  0.497491889381E+00  0.445301187908E+00  0.487563276625E+00  0.498115705349E+00
  0.496792624222E+00  0.469845385517E+00  0.489157969280E+00  0.495743328559E+00
  0.000000000000E+00  0.000000000000E+00  0.000000000000E+00  0.175473956490E-01 -0.213680471462E-02  0.327977165544E-01  0.000000000000E+00
  0.000000000000E+00 -0.650306741846E-02  0.000000000000E+00  0.411751054261E-02 -0.522508559340E-02 -0.408031558089E-02  0.340778571671E-04
 -0.824412954953E-03  0.000000000000E+00  0.000000000000E+00 -0.784106587261E-02  0.397840268346E-03  0.000000000000E+00 -0.213210724441E-02
 -0.139194460002E-02  0.163763178436E-02 -0.186765836000E-02 -0.433681170271E-03  0.000000000000E+00 -0.230219969304E-03 -0.412321626344E-03
  0.823834507063E-03  0.000000000000E+00  0.000000000000E+00  0.000000000000E+00
  0.000000000000E+00  0.455614267168E-01  0.000000000000E+00  0.122821790793E+00  0.248539470315E-01  0.165556369200E+00  0.000000000000E+00
  0.000000000000E+00  0.156230818796E+00  0.371205036714E-02  0.269635130400E-01 -0.607165494829E-02  0.753328032247E-01  0.395754585139E-02
  0.296652381994E-03  0.875169932707E-03  0.000000000000E+00  0.140695032932E+00 -0.764305509324E-02  0.449750646669E-02  0.193996189454E-03
 -0.422658789270E-02  0.257908011631E-01 -0.140470969187E-02  0.448046888688E-02  0.843998417273E-01 -0.110344959549E-02  0.318291832090E-02
  0.318177814262E-02  0.269071373628E-02 -0.853002499043E-03  0.445289710910E-02
  0.959967376337E+00  0.781903701518E+00  0.101832940351E+01  0.808259391021E+00  0.745948416940E+00  0.879215627740E+00  0.117342745489E+01
  0.106593561373E+01  0.916236435293E+00  0.737246514161E+00  0.743709434155E+00  0.725752482291E+00  0.757529075836E+00  0.729040207698E+00
  0.720574541597E+00  0.722624996186E+00  0.103418575017E+01  0.857888309080E+00  0.728168573932E+00  0.718031635462E+00  0.721005601607E+00
  0.721151365940E+00  0.759976782830E+00  0.732624754676E+00  0.718477507342E+00  0.791196676433E+00  0.722072131245E+00  0.717593794865E+00
  0.717814853674E+00  0.741827165871E+00  0.723983486187E+00  0.718433945870E+00
  0.000000000000E+00  0.442116824647E+00  0.000000000000E+00  0.473915290078E+00  0.461387632313E+00  0.469205976050E+00  0.000000000000E+00
  0.000000000000E+00  0.402651489872E+00  0.470158182119E+00  0.464976977776E+00  0.478772828277E+00  0.488971629954E+00  0.483057742845E+00
  0.487470523900E+00  0.488803321842E+00  0.000000000000E+00  0.464894888663E+00  0.473810995615E+00  0.495774318125E+00  0.490354860464E+00
  0.486247485755E+00  0.446407209948E+00  0.465345876110E+00  0.497020981752E+00  0.444398059355E+00  0.486821148870E+00  0.497774938400E+00
  0.496428533871E+00  0.467606670089E+00  0.488183271436E+00  0.495253248344E+00
  0.999990336403E+00  0.102989800241E+01  0.999990799731E+00  0.104189857542E+01  0.101205123871E+01  0.102535489539E+01  0.999991455503E+00
  0.999992203842E+00  0.103871937577E+01  0.100820111491E+01  0.101246458901E+01  0.100302902766E+01  0.102667861216E+01  0.100606326816E+01
  0.100226969893E+01  0.100349435604E+01  0.999992756381E+00  0.103237074612E+01  0.100452320620E+01  0.100223261998E+01  0.100267780683E+01
  0.100229224359E+01  0.101661109177E+01  0.100629430709E+01  0.100197784343E+01  0.104013803596E+01  0.100305655750E+01  0.100141120248E+01
  0.100151121047E+01  0.100963123967E+01  0.100400020303E+01  0.100206092957E+01
        12        19        11        11
        11         5        12        12
        10        14         5         5
        19        13        11        11
        19        24        13        13
        30        23        24        24
        19        12        22        22
        28        22        21        21
        11        13         6         6
         7         6         9         9
        15        12        14        14
        18        13        23        23
        15        25        21        21
        27        19        22        22
        18         8         9         9
        27        31        24        24
         4        11         6         6
         5        14        12        12
         4         2         5         5
        21        12        15        15
        14        16        15        15
        24        19        27        27
        22        29        27        27
        23        26        18        18
        17         8        18        18
         5        11         4         4
         6         3         4         4
        26        23        30        30
         5         2        10        10
        16        14        10        10
         3         6         7         7
        21        25        28        28
        29        22        28        28
         6        13         9         9
         2         4         1         1
        31        27        32        32
        25        15        20        20
        24        23        13        13
         8         7         9         9
        13        18         9         9
        31        30        24        24
        12        21        22        22
        29        32        27        27
         3         1         4         4
        26        17        18        18
        16        20        15        15
zone t="boundary 2 bc-2", solutiontime= 0.1000000E+02, strandid=1002, i=33, j=48, f=feblock
  0.500000000000E+01  0.375000000000E+01  0.250000000000E+01  0.288078410721E+01  0.125000000000E+01  0.190974100652E+01  0.326683758169E+01
  0.201431602454E+01  0.000000000000E+00  0.963108083381E+00  0.500000000000E+01  0.403552511878E+01  0.423153924130E+01  0.500000000000E+01
  0.385533350601E+01  0.500000000000E+01  0.398173246726E+01  0.315249557942E+01  0.267000324704E+01  0.154774304040E+01  0.218329375016E+01
  0.893127759452E+00  0.000000000000E+00  0.698517061619E+00  0.964171764089E+00  0.310324758057E+01  0.000000000000E+00  0.000000000000E+00
  0.125000000000E+01  0.500000000000E+01  0.375000000000E+01  0.250000000000E+01  0.000000000000E+00
 -0.250000000000E+01 -0.250000000000E+01 -0.250000000000E+01 -0.250000000000E+01 -0.250000000000E+01 -0.250000000000E+01 -0.250000000000E+01
 -0.250000000000E+01 -0.250000000000E+01 -0.250000000000E+01 -0.250000000000E+01 -0.250000000000E+01 -0.250000000000E+01 -0.250000000000E+01
 -0.250000000000E+01 -0.250000000000E+01 -0.250000000000E+01 -0.250000000000E+01 -0.250000000000E+01 -0.250000000000E+01 -0.250000000000E+01
 -0.250000000000E+01 -0.250000000000E+01 -0.250000000000E+01 -0.250000000000E+01 -0.250000000000E+01 -0.250000000000E+01 -0.250000000000E+01
 -0.250000000000E+01 -0.250000000000E+01 -0.250000000000E+01 -0.250000000000E+01 -0.250000000000E+01
  0.000000000000E+00  0.000000000000E+00  0.000000000000E+00  0.904659890645E+00  0.000000000000E+00  0.717002441913E+00  0.188609243358E+01
  0.176246431481E+01  0.000000000000E+00  0.961328577125E+00  0.125000000000E+01  0.101201586758E+01  0.191586535653E+01  0.250000000000E+01
  0.293121848150E+01  0.375000000000E+01  0.406975391361E+01  0.363585050272E+01  0.285047954584E+01  0.292817774674E+01  0.395907379566E+01
  0.205246550326E+01  0.125000000000E+01  0.306828197606E+01  0.397245519226E+01  0.433168271247E+01  0.250000000000E+01  0.375000000000E+01
  0.500000000000E+01  0.500000000000E+01  0.500000000000E+01  0.500000000000E+01  0.500000000000E+01
  0.831660791782E+00  0.936966117775E+00  0.935440143564E+00  0.968889915242E+00  0.961483276484E+00  0.965361139280E+00  0.983820163519E+00
  0.991386934629E+00  0.144787053805E+01  0.102907399734E+01  0.955960436758E+00  0.962139549736E+00  0.980840034648E+00  0.100469878835E+01
  0.997286947467E+00  0.100954411449E+01  0.100208023294E+01  0.997824673039E+00  0.991303180349E+00  0.100153831928E+01  0.100104777420E+01
  0.101225017986E+01  0.106493110406E+01  0.101060551478E+01  0.100680735679E+01  0.100111640714E+01  0.102865084936E+01  0.100953852160E+01
  0.100528200940E+01  0.100484996808E+01  0.100458020098E+01  0.100326534035E+01  0.100373888906E+01
  0.000000000000E+00  0.000000000000E+00  0.000000000000E+00  0.379918873638E+00  0.000000000000E+00  0.341371340138E+00  0.580275102567E+00
  0.573747208525E+00  0.000000000000E+00  0.489359572299E+00  0.495708313707E+00  0.433925714112E+00  0.567784175287E+00  0.535918504409E+00
  0.567028809877E+00  0.516414194227E+00  0.508661897913E+00  0.528318094854E+00  0.566433566927E+00  0.532986599804E+00  0.506501848347E+00
  0.520722194017E+00  0.445301187908E+00  0.491841389508E+00  0.492647702802E+00  0.501423012417E+00  0.469845385517E+00  0.489157969280E+00
  0.487891567507E+00  0.491897716021E+00  0.485577780506E+00  0.487620477775E+00  0.495743328559E+00
  0.000000000000E+00  0.000000000000E+00  0.000000000000E+00  0.000000000000E+00  0.000000000000E+00  0.000000000000E+00  0.000000000000E+00
  0.000000000000E+00  0.000000000000E+00  0.000000000000E+00  0.000000000000E+00  0.000000000000E+00  0.000000000000E+00  0.000000000000E+00
  0.000000000000E+00  0.000000000000E+00  0.000000000000E+00  0.000000000000E+00  0.000000000000E+00  0.000000000000E+00  0.000000000000E+00
  0.000000000000E+00  0.000000000000E+00  0.000000000000E+00  0.000000000000E+00  0.000000000000E+00  0.000000000000E+00  0.000000000000E+00
  0.000000000000E+00  0.000000000000E+00  0.000000000000E+00  0.000000000000E+00  0.000000000000E+00
  0.000000000000E+00  0.000000000000E+00  0.000000000000E+00 -0.228788839119E-02  0.000000000000E+00  0.184381644534E-01  0.114380095752E-01
  0.449167553236E-01  0.000000000000E+00  0.866351298639E-01 -0.969152775182E-01 -0.217476292077E-01 -0.302169498038E-01 -0.405212728346E-01
 -0.573269944051E-03  0.169084485877E-02  0.185200994956E-02  0.180747259144E-02  0.153254873107E-01  0.288080203586E-01  0.614169032478E-02
  0.554086685922E-01  0.843998417273E-01  0.111787571881E-01  0.660746983793E-02  0.143360299013E-04  0.269071373628E-02 -0.853002499043E-03
  0.370744672879E-02  0.566466007821E-02  0.102427866171E-02  0.914439100249E-03  0.445289710910E-02
  0.594039569478E+00  0.669257307047E+00  0.668167235115E+00  0.684521980091E+00  0.686769077916E+00  0.679274429370E+00  0.695948544330E+00
  0.702390489083E+00  0.103418575017E+01  0.723546120667E+00  0.672748684542E+00  0.676345763367E+00  0.693934212177E+00  0.719880878139E+00
  0.712448920221E+00  0.724516370520E+00  0.716380705563E+00  0.713137628399E+00  0.706611711665E+00  0.717767028471E+00  0.715686117708E+00
  0.730919625915E+00  0.791196676433E+00  0.724241675816E+00  0.721036593636E+00  0.715447280694E+00  0.741827165871E+00  0.723983486187E+00
  0.719780985761E+00  0.717936816516E+00  0.717572339921E+00  0.717293732171E+00  0.718433945870E+00
  0.000000000000E+00  0.000000000000E+00  0.000000000000E+00  0.382013090034E+00  0.000000000000E+00  0.344443405045E+00  0.583208126509E+00
  0.577850698892E+00  0.000000000000E+00  0.500905376752E+00  0.508863350537E+00  0.437956294128E+00  0.571312016693E+00  0.536611841705E+00
  0.566988865893E+00  0.515199022185E+00  0.508448974318E+00  0.528170878760E+00  0.567226743668E+00  0.532877961230E+00  0.506308300864E+00
  0.520830046023E+00  0.444398059355E+00  0.491159191123E+00  0.492046378162E+00  0.501295394713E+00  0.467606670089E+00  0.488183271436E+00
  0.487321534409E+00  0.491866316539E+00  0.485573767456E+00  0.487391631429E+00  0.495253248344E+00
  0.999993513566E+00  0.999993715985E+00  0.999993570510E+00  0.989101813376E+00  0.999993169511E+00  0.985107191934E+00  0.990351690472E+00
  0.991889897242E+00  0.999992756381E+00  0.984345704542E+00  0.985237591583E+00  0.984144211694E+00  0.990485566177E+00  0.100311978185E+01
  0.100014192590E+01  0.100473362597E+01  0.100085098460E+01  0.100056924501E+01  0.997935259305E+00  0.100333039736E+01  0.100091183519E+01
  0.101090372385E+01  0.104013803596E+01  0.100329785590E+01  0.100262599819E+01  0.100050921734E+01  0.100963123967E+01  0.100400020303E+01
  0.100239870070E+01  0.100026031253E+01  0.100002097883E+01  0.100094280610E+01  0.100206092957E+01
        15         7        19        19
         8        20        19        19
        18        19        21        21
         7         4         8         8
         3         6         4         4
        19         7         8         8
        19        18        15        15
        14        13        15        15
         8        22        20        20
        27        24        22        22
        19        20        21        21
        32        26        21        21
        17        18        26        26
        17        16        15        15
        25        29        21        21
        12         7        13        13
        10         8         6         6
        25        20        24        24
         4         6         8         8
        12         2         4         4
        10        23        22        22
        26        31        17        17
        30        16        17        17
         4         7        12        12
        13        11        12        12
        21        20        25        25
        24        28        25        25
        22         8        10        10
         6         5        10        10
        31        26        32        32
         4         2         3         3
         5         6         3         3
        11        13        14        14
        22        23        27        27
        28        24        27        27
        15        13         7         7
         2        12         1         1
        29        25        33        33
        23        10         9         9
        21        26        18        18
        16        14        15        15
        18        17        15        15
        29        32        21        21
        22        24        20        20
        28        33        25        25
        11         1        12        12
        31        30        17        17
         5         9        10        10
zone t="boundary 3 bc-3", solutiontime= 0.1000000E+02, strandid=1003, i=33, j=48, f=feblock
  0.375000000000E+01  0.250000000000E+01  0.500000000000E+01  0.403552511878E+01  0.288078410721E+01  0.125000000000E+01  0.190974100652E+01
  0.500000000000E+01  0.326683758169E+01  0.423153924130E+01  0.201431602454E+01  0.000000000000E+00  0.963108083381E+00  0.500000000000E+01
  0.267000324704E+01  0.385533350601E+01  0.893127759452E+00  0.154774304040E+01  0.000000000000E+00  0.500000000000E+01  0.315249557942E+01
  0.218329375016E+01  0.398173246726E+01  0.000000000000E+00  0.698517061619E+00  0.964171764089E+00  0.125000000000E+01  0.000000000000E+00
  0.500000000000E+01  0.310324758057E+01  0.250000000000E+01  0.375000000000E+01  0.000000000000E+00
  0.250000000000E+01  0.250000000000E+01  0.250000000000E+01  0.250000000000E+01  0.250000000000E+01  0.250000000000E+01  0.250000000000E+01
  0.250000000000E+01  0.250000000000E+01  0.250000000000E+01  0.250000000000E+01  0.250000000000E+01  0.250000000000E+01  0.250000000000E+01
  0.250000000000E+01  0.250000000000E+01  0.250000000000E+01  0.250000000000E+01  0.250000000000E+01  0.250000000000E+01  0.250000000000E+01
  0.250000000000E+01  0.250000000000E+01  0.250000000000E+01  0.250000000000E+01  0.250000000000E+01  0.250000000000E+01  0.250000000000E+01
  0.250000000000E+01  0.250000000000E+01  0.250000000000E+01  0.250000000000E+01  0.250000000000E+01
  0.000000000000E+00  0.000000000000E+00  0.000000000000E+00  0.101201586758E+01  0.904659890645E+00  0.000000000000E+00  0.717002441913E+00
  0.125000000000E+01  0.188609243358E+01  0.191586535653E+01  0.176246431481E+01  0.000000000000E+00  0.961328577125E+00  0.250000000000E+01
  0.285047954584E+01  0.293121848150E+01  0.205246550326E+01  0.292817774674E+01  0.125000000000E+01  0.375000000000E+01  0.363585050272E+01
  0.395907379566E+01  0.406975391361E+01  0.250000000000E+01  0.306828197606E+01  0.397245519226E+01  0.500000000000E+01  0.375000000000E+01
  0.500000000000E+01  0.433168271247E+01  0.500000000000E+01  0.500000000000E+01  0.500000000000E+01
  0.943813015563E+00  0.947745013616E+00  0.844100339692E+00  0.965891262695E+00  0.980212597885E+00  0.957698591622E+00  0.984137702025E+00
  0.964120585681E+00  0.982837099102E+00  0.984087238100E+00  0.990552518538E+00  0.134396731443E+01  0.101911418990E+01  0.100729591343E+01
  0.993499783277E+00  0.997601354287E+00  0.100791928262E+01  0.100077534063E+01  0.106288698451E+01  0.100618509448E+01  0.100059328565E+01
  0.100249402764E+01  0.100182772395E+01  0.102374923472E+01  0.100882767323E+01  0.100541016809E+01  0.100528537145E+01  0.100815215210E+01
  0.100457473891E+01  0.100186502948E+01  0.100461057560E+01  0.100575088956E+01  0.100300496073E+01
  0.000000000000E+00  0.000000000000E+00  0.000000000000E+00  0.440750769615E+00  0.400715120667E+00  0.000000000000E+00  0.373002209609E+00
  0.495608341901E+00  0.571960835728E+00  0.568804261427E+00  0.558797207755E+00  0.000000000000E+00  0.482762636944E+00  0.533602134853E+00
  0.556443700961E+00  0.564021620318E+00  0.522725131422E+00  0.522942426160E+00  0.446358067517E+00  0.518445515023E+00  0.525241316888E+00
  0.503209791511E+00  0.508926146033E+00  0.472067561708E+00  0.496211883720E+00  0.494406005697E+00  0.486389859735E+00  0.489655821393E+00
  0.493315642251E+00  0.498022703036E+00  0.483719131572E+00  0.484201583956E+00  0.496307069734E+00
  0.000000000000E+00  0.000000000000E+00  0.000000000000E+00  0.000000000000E+00  0.000000000000E+00  0.000000000000E+00  0.000000000000E+00
  0.000000000000E+00  0.000000000000E+00  0.000000000000E+00  0.000000000000E+00  0.000000000000E+00  0.000000000000E+00  0.000000000000E+00
  0.000000000000E+00  0.000000000000E+00  0.000000000000E+00  0.000000000000E+00  0.000000000000E+00  0.000000000000E+00  0.000000000000E+00
  0.000000000000E+00  0.000000000000E+00  0.000000000000E+00  0.000000000000E+00  0.000000000000E+00  0.000000000000E+00  0.000000000000E+00
  0.000000000000E+00  0.000000000000E+00  0.000000000000E+00  0.000000000000E+00  0.000000000000E+00
  0.000000000000E+00  0.000000000000E+00  0.000000000000E+00 -0.224687414603E-01  0.108025267743E-01  0.000000000000E+00  0.177287725731E-01
 -0.979336171728E-01  0.370521795545E-02 -0.377252470100E-01  0.330651338304E-01  0.000000000000E+00  0.645446398831E-01 -0.415866303241E-01
  0.829594102220E-02 -0.598326063350E-02  0.483641652665E-01  0.130710394475E-01  0.455614267168E-01 -0.264513442858E-03 -0.366192305982E-03
  0.204297857396E-02  0.141828225881E-02  0.371205036714E-02  0.101483586082E-01  0.438400666193E-02  0.369773320733E-02  0.875169932707E-03
  0.477775581729E-02  0.687208643317E-03  0.206665628994E-02  0.233642288824E-02  0.449750646669E-02
  0.674144995322E+00  0.676953584085E+00  0.602922583438E+00  0.676677799948E+00  0.691682170201E+00  0.684063493706E+00  0.690393651899E+00
  0.677702085694E+00  0.695241049861E+00  0.696246155899E+00  0.703454712532E+00  0.959967376337E+00  0.719437200104E+00  0.722256211384E+00
  0.709528002515E+00  0.713538332320E+00  0.725990770449E+00  0.716689767633E+00  0.781903701518E+00  0.721786907129E+00  0.716089060832E+00
  0.716741580183E+00  0.716386869066E+00  0.737246514161E+00  0.722653755913E+00  0.719586322491E+00  0.719926707551E+00  0.722624996186E+00
  0.717630078953E+00  0.715881491415E+00  0.718220929501E+00  0.718281545868E+00  0.718031635462E+00
  0.000000000000E+00  0.000000000000E+00  0.000000000000E+00  0.445621159349E+00  0.403307515031E+00  0.000000000000E+00  0.376805236745E+00
  0.509258666704E+00  0.574757244642E+00  0.572779307788E+00  0.561396713209E+00  0.000000000000E+00  0.489927590529E+00  0.534196931894E+00
  0.556550518591E+00  0.563671438731E+00  0.522766409049E+00  0.522430084066E+00  0.442116824647E+00  0.517337071444E+00  0.524735252449E+00
  0.502977133478E+00  0.508645429431E+00  0.470158182119E+00  0.495606863023E+00  0.493931790823E+00  0.485773235820E+00  0.488803321842E+00
  0.493312415393E+00  0.497931473735E+00  0.483507321637E+00  0.484244952124E+00  0.495774318125E+00
  0.999989381252E+00  0.999989452967E+00  0.999989666064E+00  0.980802867275E+00  0.987903073651E+00  0.999989871100E+00  0.982129950585E+00
  0.984091548364E+00  0.990334482382E+00  0.990506309318E+00  0.994229562909E+00  0.999990336403E+00  0.988321122527E+00  0.100383480411E+01
  0.999838369610E+00  0.100135556248E+01  0.100840126402E+01  0.100258832722E+01  0.102989800241E+01  0.100429004119E+01  0.100193025432E+01
  0.100094183565E+01  0.100111186057E+01  0.100820111491E+01  0.100286231745E+01  0.100199986380E+01  0.100259828622E+01  0.100349435604E+01
  0.100010688266E+01  0.100036837148E+01  0.100089460108E+01  0.999844170815E+00  0.100223261998E+01
        15         9        16        16
        15        18        11        11
        22        15        21        21
        11         5         9         9
         5         7         2         2
        11         9        15        15
        16        21        15        15
        16        10        14        14
        18        17        11        11
        17        25        24        24
        22        18        15        15
        22        30        31        31
        30        21        23        23
        16        20        23        23
        22        27        26        26
        10         9         4         4
         7        11        13        13
        25        18        26        26
        11         7         5         5
         5         1         4         4
        17        19        13        13
        23        32        30        30
        23        20        29        29
         4         9         5         5
         4         8        10        10
        26        18        22        22
        26        28        25        25
        13        11        17        17
        13         6         7         7
        31        30        32        32
         2         1         5         5
         2         7         6         6
        14        10         8         8
        24        19        17        17
        24        25        28        28
         9        10        16        16
         3         4         1         1
        33        26        27        27
        12        13        19        19
        21        30        22        22
        16        14        20        20
        16        23        21        21
        22        31        27        27
        18        25        17        17
        26        33        28        28
         4         3         8         8
        23        29        32        32
        13        12         6         6
zone t="boundary 4 bc-4", solutiontime= 0.1000000E+02, strandid=1004, i=32, j=46, f=feblock
  0.125000000000E+01  0.219251206392E+01  0.103724302461E+01  0.500000000000E+01  0.250000000000E+01  0.375000000000E+01  0.404200324774E+01
  0.500000000000E+01  0.000000000000E+00  0.310152362409E+01  0.202479342020E+01  0.324151231464E+01  0.922061490191E+00  0.000000000000E+00
  0.299062775774E+01  0.394624082883E+01  0.500000000000E+01  0.409252726285E+01  0.500000000000E+01  0.429310310915E+01  0.175434191980E+01
  0.284428995242E+01  0.000000000000E+00  0.000000000000E+00  0.715990576545E+00  0.930412228790E+00  0.125000000000E+01  0.187029682677E+01
  0.500000000000E+01  0.375000000000E+01  0.250000000000E+01  0.000000000000E+00
  0.250000000000E+01  0.157686156160E+01  0.146289271009E+01  0.250000000000E+01  0.250000000000E+01  0.250000000000E+01  0.155830813274E+01
  0.125000000000E+01  0.250000000000E+01  0.177790177481E+01  0.477386199275E+00  0.742988685424E+00  0.308372018325E+00  0.125000000000E+01
 -0.487811078581E+00 -0.144524380962E+01 -0.125000000000E+01 -0.345533899378E+00  0.000000000000E+00  0.627766083140E+00 -0.739814786992E+00
 -0.158811787973E+01  0.000000000000E+00 -0.125000000000E+01 -0.600232012419E+00 -0.154800130438E+01 -0.250000000000E+01 -0.178862290564E+01
 -0.250000000000E+01 -0.250000000000E+01 -0.250000000000E+01 -0.250000000000E+01
  0.500000000000E+01  0.500000000000E+01  0.500000000000E+01  0.500000000000E+01  0.500000000000E+01  0.500000000000E+01  0.500000000000E+01
  0.500000000000E+01  0.500000000000E+01  0.500000000000E+01  0.500000000000E+01  0.500000000000E+01  0.500000000000E+01  0.500000000000E+01
  0.500000000000E+01  0.500000000000E+01  0.500000000000E+01  0.500000000000E+01  0.500000000000E+01  0.500000000000E+01  0.500000000000E+01
  0.500000000000E+01  0.500000000000E+01  0.500000000000E+01  0.500000000000E+01  0.500000000000E+01  0.500000000000E+01  0.500000000000E+01
  0.500000000000E+01  0.500000000000E+01  0.500000000000E+01  0.500000000000E+01
  0.100528537145E+01  0.100481218598E+01  0.100454680154E+01  0.100457473891E+01  0.100461057560E+01  0.100575088956E+01  0.100519576332E+01
  0.100477803809E+01  0.100300496073E+01  0.100530947893E+01  0.100474169888E+01  0.100468593208E+01  0.100353651624E+01  0.100388298691E+01
  0.100466944342E+01  0.100338535587E+01  0.100511410590E+01  0.100451869242E+01  0.100476696201E+01  0.100579073113E+01  0.100440704584E+01
  0.100395531245E+01  0.100321557251E+01  0.100342440967E+01  0.100313602808E+01  0.100406100334E+01  0.100528200940E+01  0.100421808798E+01
  0.100484996808E+01  0.100458020098E+01  0.100326534035E+01  0.100373888906E+01
  0.486389859735E+00  0.486751773434E+00  0.489155231907E+00  0.493315642251E+00  0.483719131572E+00  0.484201583956E+00  0.486441470872E+00
  0.494609053784E+00  0.496307069734E+00  0.484751821695E+00  0.486075548727E+00  0.486485076181E+00  0.493032896011E+00  0.497491889381E+00
  0.486350125607E+00  0.485260481658E+00  0.493790674939E+00  0.488634203785E+00  0.495404174223E+00  0.489162958166E+00  0.487289101929E+00
  0.486490889041E+00  0.498115705349E+00  0.496792624222E+00  0.494574238333E+00  0.491697910790E+00  0.487891567507E+00  0.487578130804E+00
  0.491897716021E+00  0.485577780506E+00  0.487620477775E+00  0.495743328559E+00
  0.000000000000E+00  0.267131847712E-03 -0.143225362178E-02  0.000000000000E+00  0.000000000000E+00  0.000000000000E+00  0.771211468032E-03
  0.111096320434E-02  0.000000000000E+00  0.657690842497E-03 -0.411951570445E-03  0.157211691946E-03 -0.200969713387E-02 -0.433681170271E-03
 -0.403859278566E-03 -0.182858817867E-03 -0.225450630643E-03 -0.636452763445E-03  0.890950249695E-04  0.284650935297E-06 -0.581043729510E-03
 -0.128000193058E-03 -0.412321626344E-03  0.823834507063E-03 -0.198012417230E-03  0.144687453017E-02  0.000000000000E+00  0.818684055779E-03
  0.000000000000E+00  0.000000000000E+00  0.000000000000E+00  0.000000000000E+00