# vtk DataFile Version 2.0
FUN3D:global_image_vtk
ASCII
DATASET UNSTRUCTURED_GRID
POINTS 213 double
    0.0000000000000000E+00    0.2500000000000000E+01    0.0000000000000000E+00
    0.1250000000000000E+01    0.2500000000000000E+01    0.0000000000000000E+00
    0.2500000000000000E+01    0.2500000000000000E+01    0.0000000000000000E+00
    0.3750000000000000E+01    0.2500000000000000E+01    0.0000000000000000E+00
    0.5000000000000000E+01    0.2500000000000000E+01    0.0000000000000000E+00
    0.5000000000000000E+01    0.1250000000000000E+01    0.0000000000000000E+00
    0.5000000000000000E+01    0.0000000000000000E+00    0.0000000000000000E+00
    0.5000000000000000E+01   -0.1250000000000000E+01    0.0000000000000000E+00
    0.5000000000000000E+01   -0.2500000000000000E+01    0.0000000000000000E+00
    0.3750000000000000E+01   -0.2500000000000000E+01    0.0000000000000000E+00
    0.2500000000000000E+01   -0.2500000000000000E+01    0.0000000000000000E+00
    0.1250000000000000E+01   -0.2500000000000000E+01    0.0000000000000000E+00
    0.0000000000000000E+00   -0.2500000000000000E+01    0.0000000000000000E+00
    0.0000000000000000E+00   -0.1250000000000000E+01    0.0000000000000000E+00
    0.0000000000000000E+00    0.0000000000000000E+00    0.0000000000000000E+00
    0.0000000000000000E+00    0.1250000000000000E+01    0.0000000000000000E+00
    0.9058375365086910E+00    0.1578994732800803E+01    0.0000000000000000E+00
    0.3982050490726493E+01   -0.1583989954232354E+01    0.0000000000000000E+00
    0.4033849428301197E+01    0.1453322699199022E+01    0.0000000000000000E+00
    0.1040505887381675E+01   -0.1479596339503735E+01    0.0000000000000000E+00
    0.1099454400140349E+01   -0.3227322616384110E+00    0.0000000000000000E+00
    0.7354504170366591E+00    0.6593508822075582E+00    0.0000000000000000E+00
    0.1622302608453282E+01    0.8256214013940779E+00    0.0000000000000000E+00
    0.2145871574390382E+01   -0.1650070333782557E+01    0.0000000000000000E+00
    0.4086422318222992E+01   -0.4612828702537229E+00    0.0000000000000000E+00
    0.2979540174134984E+01   -0.8579242121530853E+00    0.0000000000000000E+00
    0.3045064261640043E+01   -0.1836846154397680E+01    0.0000000000000000E+00
    0.3428197553792836E+01    0.3508002863614053E+00    0.0000000000000000E+00
    0.4309693860063405E+01    0.5185680230613409E+00    0.0000000000000000E+00
    0.1827272193562204E+01    0.1738996113203182E+01    0.0000000000000000E+00
    0.2808563282768077E+01    0.1325493893339706E+01    0.0000000000000000E+00
    0.1895995683864404E+01   -0.8731419609589618E+00    0.0000000000000000E+00
    0.2273179336307740E+01    0.4906150219227333E-01    0.0000000000000000E+00
    0.5000000000000000E+01    0.2500000000000000E+01    0.1250000000000000E+01
    0.5000000000000000E+01    0.2500000000000000E+01    0.2500000000000000E+01
    0.5000000000000000E+01    0.2500000000000000E+01    0.3750000000000000E+01
    0.5000000000000000E+01    0.2500000000000000E+01    0.5000000000000000E+01
    0.3750000000000000E+01    0.2500000000000000E+01    0.5000000000000000E+01
    0.2500000000000000E+01    0.2500000000000000E+01    0.5000000000000000E+01
    0.1250000000000000E+01    0.2500000000000000E+01    0.5000000000000000E+01
    0.0000000000000000E+00    0.2500000000000000E+01    0.5000000000000000E+01
    0.0000000000000000E+00    0.2500000000000000E+01    0.3750000000000000E+01
    0.0000000000000000E+00    0.2500000000000000E+01    0.2500000000000000E+01
    0.0000000000000000E+00    0.2500000000000000E+01    0.1250000000000000E+01
    0.9631080833812172E+00    0.2500000000000000E+01    0.9613285771248219E+00
    0.3981732467264904E+01    0.2500000000000000E+01    0.4069753913607991E+01
    0.4035525118777670E+01    0.2500000000000000E+01    0.1012015867579395E+01
    0.9641717640894248E+00    0.2500000000000000E+01    0.3972455192261839E+01
    0.1547743040396780E+01    0.2500000000000000E+01    0.2928177746738678E+01
    0.6985170616192014E+00    0.2500000000000000E+01    0.3068281976055466E+01
    0.8931277594515110E+00    0.2500000000000000E+01    0.2052465503257726E+01
    0.2183293750162785E+01    0.2500000000000000E+01    0.3959073795658649E+01
    0.3855333506014705E+01    0.2500000000000000E+01    0.2931218481500625E+01
    0.3152495579421047E+01    0.2500000000000000E+01    0.3635850502723324E+01
    0.3103247580566054E+01    0.2500000000000000E+01    0.4331682712472464E+01
    0.3266837581688852E+01    0.2500000000000000E+01    0.1886092433583972E+01
    0.4231539241296245E+01    0.2500000000000000E+01    0.1915865356532799E+01
    0.1909741006522088E+01    0.2500000000000000E+01    0.7170024419130505E+00
    0.2880784107213163E+01    0.2500000000000000E+01    0.9046598906449592E+00
    0.2014316024535771E+01    0.2500000000000000E+01    0.1762464314805728E+01
    0.2670003247036656E+01    0.2500000000000000E+01    0.2850479545835163E+01
    0.5000000000000000E+01    0.1250000000000000E+01    0.5000000000000000E+01
    0.5000000000000000E+01    0.0000000000000000E+00    0.5000000000000000E+01
    0.5000000000000000E+01   -0.1250000000000000E+01    0.5000000000000000E+01
    0.5000000000000000E+01   -0.2500000000000000E+01    0.5000000000000000E+01
    0.5000000000000000E+01   -0.2500000000000000E+01    0.3750000000000000E+01
    0.5000000000000000E+01   -0.2500000000000000E+01    0.2500000000000000E+01
    0.5000000000000000E+01   -0.2500000000000000E+01    0.1250000000000000E+01
    0.5000000000000000E+01    0.1578994732800803E+01    0.9058375365086910E+00
    0.5000000000000000E+01   -0.1583989954232354E+01    0.3982050490726493E+01
    0.5000000000000000E+01    0.1453322699199022E+01    0.4033849428301197E+01
    0.5000000000000000E+01   -0.1479596339503735E+01    0.1040505887381675E+01
    0.5000000000000000E+01   -0.3227322616384110E+00    0.1099454400140349E+01
    0.5000000000000000E+01    0.6593508822075582E+00    0.7354504170366591E+00
    0.5000000000000000E+01    0.8256214013940779E+00    0.1622302608453282E+01
    0.5000000000000000E+01   -0.1650070333782557E+01    0.2145871574390382E+01
    0.5000000000000000E+01   -0.4612828702537229E+00    0.4086422318222992E+01
    0.5000000000000000E+01   -0.8579242121530853E+00    0.2979540174134984E+01
    0.5000000000000000E+01   -0.1836846154397680E+01    0.3045064261640043E+01
    0.5000000000000000E+01    0.3508002863614053E+00    0.3428197553792836E+01
    0.5000000000000000E+01    0.5185680230613409E+00    0.4309693860063405E+01
    0.5000000000000000E+01    0.1738996113203182E+01    0.1827272193562204E+01
    0.5000000000000000E+01    0.1325493893339706E+01    0.2808563282768077E+01
    0.5000000000000000E+01   -0.8731419609589618E+00    0.1895995683864404E+01
    0.5000000000000000E+01    0.4906150219227333E-01    0.2273179336307740E+01
    0.0000000000000000E+00    0.1250000000000000E+01    0.5000000000000000E+01
    0.0000000000000000E+00    0.0000000000000000E+00    0.5000000000000000E+01
    0.0000000000000000E+00   -0.1250000000000000E+01    0.5000000000000000E+01
    0.0000000000000000E+00   -0.2500000000000000E+01    0.5000000000000000E+01
    0.1250000000000000E+01   -0.2500000000000000E+01    0.5000000000000000E+01
    0.2500000000000000E+01   -0.2500000000000000E+01    0.5000000000000000E+01
    0.3750000000000000E+01   -0.2500000000000000E+01    0.5000000000000000E+01
    0.4042003247744892E+01    0.1558308132739014E+01    0.5000000000000000E+01
    0.9304122287900499E+00   -0.1548001304379777E+01    0.5000000000000000E+01
    0.1037243024609388E+01    0.1462892710085612E+01    0.5000000000000000E+01
    0.3946240828834967E+01   -0.1445243809615570E+01    0.5000000000000000E+01
    0.4092527262848217E+01   -0.3455338993778935E+00    0.5000000000000000E+01
    0.4293103109154542E+01    0.6277660831404320E+00    0.5000000000000000E+01
    0.3241512314643519E+01    0.7429886854239611E+00    0.5000000000000000E+01
    0.2844289952419609E+01   -0.1588117879734118E+01    0.5000000000000000E+01
    0.7159905765450471E+00   -0.6002320124191652E+00    0.5000000000000000E+01
    0.1754341919796891E+01   -0.7398147869923652E+00    0.5000000000000000E+01
    0.1870296826774691E+01   -0.1788622905643739E+01    0.5000000000000000E+01
    0.9220614901912976E+00    0.3083720183248586E+00    0.5000000000000000E+01
    0.3101523624086016E+01    0.1777901774806180E+01    0.5000000000000000E+01
    0.2192512063922564E+01    0.1576861561598471E+01    0.5000000000000000E+01
    0.2024793420196460E+01    0.4773861992750707E+00    0.5000000000000000E+01
    0.2990627757741975E+01   -0.4878110785814084E+00    0.5000000000000000E+01
    0.0000000000000000E+00   -0.2500000000000000E+01    0.1250000000000000E+01
    0.0000000000000000E+00   -0.2500000000000000E+01    0.2500000000000000E+01
    0.0000000000000000E+00   -0.2500000000000000E+01    0.3750000000000000E+01
    0.0000000000000000E+00    0.1558308132739014E+01    0.4042003247744892E+01
    0.0000000000000000E+00   -0.1548001304379777E+01    0.9304122287900499E+00
    0.0000000000000000E+00    0.1462892710085612E+01    0.1037243024609388E+01
    0.0000000000000000E+00   -0.1445243809615570E+01    0.3946240828834967E+01
    0.0000000000000000E+00   -0.3455338993778935E+00    0.4092527262848217E+01
    0.0000000000000000E+00    0.6277660831404320E+00    0.4293103109154542E+01
    0.0000000000000000E+00    0.7429886854239611E+00    0.3241512314643519E+01
    0.0000000000000000E+00   -0.1588117879734118E+01    0.2844289952419609E+01
    0.0000000000000000E+00   -0.6002320124191652E+00    0.7159905765450471E+00
    0.0000000000000000E+00   -0.7398147869923652E+00    0.1754341919796891E+01
    0.0000000000000000E+00   -0.1788622905643739E+01    0.1870296826774691E+01
    0.0000000000000000E+00    0.3083720183248586E+00    0.9220614901912976E+00
    0.0000000000000000E+00    0.1777901774806180E+01    0.3101523624086016E+01
    0.0000000000000000E+00    0.1576861561598471E+01    0.2192512063922564E+01
[...]
POINT_DATA 213
SCALARS rho double 1
LOOKUP_TABLE default
   0.1344272808383469E+01
   0.9569772451805756E+00
   0.9462966722231431E+00
   0.9418613066846495E+00
   0.8437299602513515E+00
   0.7737999244442384E+00
   0.7629813659468790E+00
   0.7664572276942858E+00
   0.8307867965628468E+00
   0.9352970753515116E+00
   0.9342222745682623E+00
   0.9617204269754241E+00
   0.1449458937001483E+01
   0.1494092876098635E+01
   0.1644670096008618E+01
   0.1425834388922052E+01
   0.1009016266761810E+01
   0.9508812183110292E+00
   0.9436507227806946E+00
   0.9581570662007177E+00
   0.9415857212070005E+00
   0.1036378579171446E+01
   0.9256167555247553E+00
   0.9322353911946341E+00
   0.9537480352053054E+00
   0.9518769502355195E+00
   0.9348582778282495E+00
   0.9564026713484541E+00
   0.9376096790538131E+00
   0.9300667860252889E+00
   0.9445157928083294E+00
   0.8863506391058891E+00
   0.9423579139306849E+00
   0.9634990524241419E+00
   0.1008298347517123E+01
   0.1006735389478700E+01
   0.1001964884581603E+01
   0.1003219556165647E+01
   0.1004132111299993E+01
   0.1005228918130776E+01
   0.1004260519065511E+01
   0.1008308848895812E+01
   0.1023893451606808E+01
   0.1063555156379859E+01
   0.1019183408311861E+01
   0.1001780561254691E+01
   0.9643306014312374E+00
   0.1005283956158078E+01
   0.1000721195283516E+01
   0.1008742491787450E+01
   0.1008078906860802E+01
   0.1002349644905152E+01
   0.9979984879794155E+00
   0.1000583265252204E+01
   0.1001619884527587E+01
   0.9826891907369141E+00
   0.9842433353621065E+00
   0.9833311073330223E+00
   0.9788206848321526E+00
   0.9902641378596327E+00
   0.9934560863825521E+00
   0.1002012053866756E+01
   0.1002134732551948E+01
   0.1002276573282030E+01
   0.1001794955216671E+01
   0.1009778482823339E+01
   0.1006427940076877E+01
   0.9558772075008295E+00
   0.9249386589804925E+00
   0.1007036849004728E+01
   0.1004504989539593E+01
   0.9143630992657944E+00
   0.9089657050976930E+00
   0.8751678171491316E+00
   0.9767259413030698E+00
   0.1000451196003389E+01
   0.1005831243688732E+01
   0.1012882071703217E+01
   0.1011618337583756E+01
   0.1010438310632247E+01
   0.1005468517398935E+01
   0.9907599886449695E+00
   0.1005139766839342E+01
   0.9860554686099313E+00
   0.1005608566557717E+01
   0.1004248108828272E+01
   0.1002888724792085E+01
   0.1003345763367106E+01
   0.1003993095615514E+01
   0.1005102015387910E+01
   0.1003211733577796E+01
   0.1002663151378758E+01
   0.1002586114658815E+01
   0.1004061122431226E+01
   0.1004320581936650E+01
   0.1001641720795093E+01
   0.1002272854343361E+01
   0.1002543253792659E+01
   0.1003469207926815E+01
   0.1003372620849815E+01
   0.1003232299745141E+01
   0.1004423987542713E+01
   0.1004313258369027E+01
   0.1003660050797171E+01
   0.1003723076372586E+01
   0.1004329748674927E+01
   0.1004464939531974E+01
   0.1003623206146762E+01
   0.1064425971202666E+01
   0.1028473707390382E+01
   0.1009587225578971E+01
   0.1006639366175901E+01
   0.1163938467485145E+01
   0.1086091426510184E+01
   0.1007893793108057E+01
   0.1007245951301275E+01
   0.1006798603997809E+01
   0.1013018393584204E+01
   0.1019384215810011E+01
   0.1235208930863244E+01
   0.1032531509795051E+01
   0.1046680120269295E+01
   0.1200956725473382E+01
   0.1014719540871774E+01
   0.1032290856939844E+01
   0.1028095015141592E+01
   0.1014628462709627E+01
   0.1029217563285583E+01
   0.1001994534319066E+01
   0.9606924711017940E+00
   0.1006852800068913E+01
   0.1001327570488481E+01
   0.1010821941577481E+01
   0.1012247345697629E+01
   0.1000945843685700E+01
   0.9979116925923478E+00
   0.9980628721532587E+00
   0.1001183961402843E+01
   0.9841359120283611E+00
   0.9814872034025037E+00
   0.9648481172778605E+00
   0.9680874229487491E+00
   0.9914126325255819E+00
   0.9910856638504812E+00
   0.9925546319508862E+00
   0.1001727665711107E+01
   0.9993411693217402E+00
   0.9941415402520908E+00
   0.1007039857004986E+01
   0.1022540992234086E+01
   0.1001088335723676E+01
   0.1008798759061721E+01
   0.1004773779080983E+01
   0.1009050472285813E+01
   0.9966476384333292E+00
   0.1004988845912950E+01
   0.1003325514798294E+01
   0.9949431082677214E+00
   0.9832679437440506E+00
   0.9943957350417019E+00
   0.9973419814217561E+00
   0.9932184527747288E+00
   0.1001306230519747E+01
   0.1003001445305256E+01
   0.1002183336674659E+01
   0.9947074633889381E+00
   0.9937965301971667E+00
   0.1004867804303410E+01
   0.1020078624439483E+01
   0.1005365194771882E+01
   0.9816998529420693E+00
   0.1004973156220440E+01
   0.1012382658879198E+01
   0.9871418894973814E+00
   0.9551509045189670E+00
   0.9865075698613684E+00
   0.9864534425367352E+00
   0.9918944848588479E+00
   0.9933508166273928E+00
   0.9954409565648099E+00
   0.1037338866160706E+01
   0.1033537544075629E+01
   0.1001443097533517E+01
   0.1001930324190794E+01
   0.9912473208838026E+00
   0.9910918873412508E+00
   0.9648483823303652E+00
   0.9933274688799232E+00
   0.1006058241538341E+01
   0.1001953761841175E+01
   0.9908735341869108E+00
   0.9740939648994021E+00
   0.9418794298393742E+00
   0.9819377119301584E+00
   0.9794801796520709E+00
   0.9704169609677488E+00
   0.9720476402755724E+00
   0.9557345509372163E+00
   0.9496725723095185E+00
   0.9528671541028981E+00
   0.1002659424348992E+01
   0.1002471440740921E+01
   0.1000509096242646E+01
   0.1001677129901480E+01
   0.9607926672547810E+00
   0.9491621864893834E+00
   0.9584500815112589E+00
   0.1001120970754766E+01
   0.1000495871612288E+01
   0.1001156478646899E+01
   0.9807376519656903E+00
   0.9805999771994074E+00
   0.9628472673126589E+00
SCALARS u double 1
LOOKUP_TABLE default
   0.0000000000000000E+00
   0.0000000000000000E+00
   0.0000000000000000E+00
   0.0000000000000000E+00
   0.0000000000000000E+00
   0.0000000000000000E+00
   0.0000000000000000E+00
   0.0000000000000000E+00
   0.0000000000000000E+00
   0.0000000000000000E+00
   0.0000000000000000E+00
   0.0000000000000000E+00
   0.0000000000000000E+00
   0.0000000000000000E+00
   0.0000000000000000E+00
   0.0000000000000000E+00
   0.0000000000000000E+00
   0.0000000000000000E+00
   0.0000000000000000E+00
   0.0000000000000000E+00
   0.0000000000000000E+00
   0.0000000000000000E+00
   0.0000000000000000E+00
   0.0000000000000000E+00
   0.0000000000000000E+00
   0.0000000000000000E+00
   0.0000000000000000E+00
   0.0000000000000000E+00
   0.0000000000000000E+00
   0.0000000000000000E+00
   0.0000000000000000E+00
   0.0000000000000000E+00
   0.0000000000000000E+00
   0.4950172646358856E+00
   0.5338214872520792E+00
   0.5183274433406633E+00
   0.4930669694841182E+00
   0.4847607848391584E+00
   0.4867679926223136E+00
   0.4890760650320861E+00
   0.4957843059205455E+00
   0.4898292904788854E+00
   0.4717392025678556E+00
   0.4454815919099171E+00
   0.4833883766231368E+00
   0.5098415390691272E+00
   0.4390715540923873E+00
   0.4949404456064237E+00
   0.5225340665077604E+00
   0.4962459885988766E+00
   0.5226153790211165E+00
   0.5038894193638968E+00
   0.5646876751782007E+00
   0.5247523452247939E+00
   0.4991485489442202E+00
   0.5730543344002550E+00
   0.5696028013110739E+00
   0.3737938032263084E+00
   0.3998659297576165E+00
   0.5599309809048899E+00
   0.5564588854511607E+00
   0.4942645997016751E+00
   0.4948679589949418E+00
   0.4925754560770924E+00
   0.4914291242366203E+00
   0.5162364428873722E+00
   0.5361791981185593E+00
   0.4947407576964847E+00
   0.4524112377099138E+00
   0.5128786545397179E+00
   0.5117951370256686E+00
   0.4783515091577875E+00
   0.4931694119230257E+00
   0.4603173858034770E+00
   0.5244884769917759E+00
   0.5297427416295533E+00
   0.5129587310701188E+00
   0.5328355430275175E+00
   0.5308939084407422E+00
   0.5309854262593569E+00
   0.5063665955278168E+00
   0.5282452682133922E+00
   0.5410305708139332E+00
   0.5361251401278972E+00
   0.5374096187171563E+00
   0.4965361397684177E+00
   0.4975336638691930E+00
   0.4963836826490688E+00
   0.4955213516154385E+00
   0.4904578426770105E+00
   0.4903056244320883E+00
   0.4862209723941242E+00
   0.4854081538215979E+00
   0.4932158814508434E+00
   0.4909829242562520E+00
   0.4832226939489994E+00
   0.4872657711439894E+00
   0.4880162513510722E+00
   0.4872472492309863E+00
   0.4882713602985153E+00
   0.4952591364601581E+00
   0.4900968940115688E+00
   0.4904002777821032E+00
   0.4944226494256888E+00
   0.4868023901241890E+00
   0.4892394676656167E+00
   0.4881402141000453E+00
   0.4878479989437784E+00
   0.4446853085446241E+00
   0.4700034789012523E+00
   0.4891993978192439E+00
   0.4885239339067248E+00
   0.4506504405189564E+00
   0.4687346792264750E+00
   0.4877005818099114E+00
   0.4868348629773468E+00
   0.4908987765794932E+00
   0.4793553517925361E+00
   0.4658086283451621E+00
   0.3792686786541951E+00
   0.4901595181324092E+00
   0.4486716850731748E+00
   0.4436109452730615E+00
   0.4845141315184571E+00
   0.4621842312915378E+00
   0.4665773180387978E+00
   0.4748147389950001E+00
   0.4894472312939382E+00
   0.5085578696373584E+00
   0.4315070797871110E+00
   0.4927351822142731E+00
   0.5318295803217696E+00
   0.4913405961300369E+00
   0.5207017367507338E+00
   0.5060978345084445E+00
   0.5688787374809113E+00
   0.5274006911365912E+00
   0.5015064045098091E+00
   0.5821765619330734E+00
   0.5689594312584834E+00
   0.3406394936177304E+00
   0.3789867218421775E+00
   0.5751937778508123E+00
   0.5666480028159416E+00
   0.5704101010872089E+00
   0.5291064427258659E+00
   0.5451904137328631E+00
   0.5718792455105213E+00
   0.5389072946963341E+00
   0.5475484003687170E+00
   0.5821688356951243E+00
   0.4925609250364004E+00
   0.5042166019846114E+00
   0.4961741597996676E+00
   0.5565198904897017E+00
   0.4758833181868062E+00
   0.4950276858342329E+00
   0.5498528649011100E+00
   0.5891181955522330E+00
   0.5841943466847748E+00
   0.5469098039709170E+00
   0.5805396041341223E+00
   0.5106265446854135E+00
   0.5030211472952586E+00
   0.5033643335458569E+00
   0.5676433679708531E+00
   0.5563942522558317E+00
   0.4947263461814173E+00
   0.5505235076924471E+00
   0.5510849916929854E+00
   0.5657330509276256E+00
   0.4920073449004164E+00
   0.4927307510099480E+00
   0.3865134542248096E+00
   0.3687749350648046E+00
   0.5574899167785515E+00
   0.5763741951529748E+00
   0.4194299772976369E+00
   0.5824824200210308E+00
   0.4265198113528244E+00
   0.5392780304758085E+00
   0.5012004078409691E+00
   0.5119527506832358E+00
   0.5049133725308763E+00
   0.5751953382838362E+00
   0.5876354243326778E+00
   0.5379890277506441E+00
   0.5677452593307681E+00
   0.5351251846010263E+00
   0.5338062102204884E+00
   0.5580316873949577E+00
   0.5512691866603937E+00
   0.4261854612209759E+00
   0.5273341539243297E+00
   0.5795693049264298E+00
   0.3318681543174106E+00
   0.4760270107757501E+00
   0.5446181492792216E+00
   0.4798326883761834E+00
   0.3005293013173075E+00
   0.5031068083886208E+00
   0.5017129508959753E+00
   0.5129049593963354E+00
   0.5414836820767486E+00
   0.3437602907592823E+00
   0.3397709246513650E+00
   0.3189930704122276E+00
   0.5065951682085198E+00
   0.5123502380309654E+00
   0.5330322781211612E+00
   0.5879287047262408E+00
   0.4644166840855344E+00
   0.3531264979811242E+00
SCALARS v double 1
LOOKUP_TABLE default
   0.0000000000000000E+00
   0.0000000000000000E+00
   0.0000000000000000E+00
   0.0000000000000000E+00
   0.0000000000000000E+00
   0.0000000000000000E+00
   0.0000000000000000E+00
   0.0000000000000000E+00
   0.0000000000000000E+00
   0.0000000000000000E+00
   0.0000000000000000E+00
   0.0000000000000000E+00
   0.0000000000000000E+00
   0.0000000000000000E+00
   0.0000000000000000E+00
   0.0000000000000000E+00
   0.0000000000000000E+00
   0.0000000000000000E+00
   0.0000000000000000E+00
   0.0000000000000000E+00
   0.0000000000000000E+00
   0.0000000000000000E+00
   0.0000000000000000E+00
   0.0000000000000000E+00
   0.0000000000000000E+00
   0.0000000000000000E+00
   0.0000000000000000E+00
   0.0000000000000000E+00
   0.0000000000000000E+00
   0.0000000000000000E+00
   0.0000000000000000E+00
   0.0000000000000000E+00
   0.0000000000000000E+00
   0.0000000000000000E+00
   0.0000000000000000E+00
   0.0000000000000000E+00
   0.0000000000000000E+00
   0.0000000000000000E+00
   0.0000000000000000E+00
   0.0000000000000000E+00
   0.0000000000000000E+00
   0.0000000000000000E+00
   0.0000000000000000E+00
   0.0000000000000000E+00
   0.0000000000000000E+00
   0.0000000000000000E+00
   0.0000000000000000E+00
   0.0000000000000000E+00
   0.0000000000000000E+00
   0.0000000000000000E+00
   0.0000000000000000E+00
   0.0000000000000000E+00
   0.0000000000000000E+00
   0.0000000000000000E+00
   0.0000000000000000E+00
   0.0000000000000000E+00
   0.0000000000000000E+00
   0.0000000000000000E+00
   0.0000000000000000E+00
   0.0000000000000000E+00
   0.0000000000000000E+00
   0.7970880982625457E-03
  -0.1328927667498091E-02
  -0.1332248589047747E-02
   0.0000000000000000E+00
   0.0000000000000000E+00
   0.0000000000000000E+00
   0.0000000000000000E+00
  -0.1922546404972441E-01
   0.4772089884555992E-03
   0.2183093806625520E-02
   0.1427315740937549E-01
  -0.6488275625967556E-02
  -0.7821528716614970E-02
  -0.1327712525356616E-01
   0.4914229281082004E-02
   0.6907853030240455E-03
   0.3434193454883655E-02
   0.1920807857980587E-02
   0.3147691823970531E-02
   0.1704743146739881E-02
  -0.7316055871314723E-02
  -0.7723741120989234E-04
   0.4468475571713994E-02
  -0.4389389177480013E-03
  -0.6396446201254805E-04
  -0.1964343038787408E-03
   0.8071705495651800E-03
   0.0000000000000000E+00
   0.0000000000000000E+00
   0.0000000000000000E+00
   0.0000000000000000E+00
   0.4255932371195856E-03
   0.1616311634738440E-02
  -0.1297392941635638E-02
  -0.1022426337587601E-02
  -0.2133740822663488E-02
  -0.1063724433037727E-02
  -0.8197728585704428E-03
  -0.7614664777159787E-03
   0.5207094284653947E-04
  -0.6241781950661271E-03
   0.7916143801067782E-03
  -0.1745176499341434E-02
   0.2746728674351175E-03
  -0.8927954291861157E-04
  -0.9421610599576648E-03
  -0.1099828778723493E-02
   0.0000000000000000E+00
   0.0000000000000000E+00
   0.0000000000000000E+00
  -0.1061587693420459E-02
  -0.7641221814972819E-02
   0.1860808961775590E-01
  -0.2827076798819266E-04
  -0.1382997214278577E-02
  -0.2034978212118555E-02
  -0.5665981043717187E-02
  -0.1585356466059858E-02
  -0.5946813191748586E-02
  -0.4160208728023829E-02
   0.1565443300297656E-02
   0.3329502030979324E-01
   0.3056942113794515E-04
  -0.2766290659848391E-02
   0.3566767151206672E-02
   0.3599197781507390E-03
   0.0000000000000000E+00
   0.0000000000000000E+00
   0.0000000000000000E+00
   0.0000000000000000E+00
   0.0000000000000000E+00
   0.0000000000000000E+00
   0.0000000000000000E+00
   0.0000000000000000E+00
   0.0000000000000000E+00
   0.0000000000000000E+00
   0.0000000000000000E+00
   0.0000000000000000E+00
   0.0000000000000000E+00
   0.0000000000000000E+00
   0.0000000000000000E+00
   0.0000000000000000E+00
   0.0000000000000000E+00
   0.5046826146179952E-02
   0.3230744414871501E-02
   0.8149021128395655E-02
   0.6168163377211627E-02
   0.1122922197713366E-01
   0.1429255260025161E-01
  -0.2038895436086520E-03
   0.5118214834825606E-02
   0.2914946535900256E-02
   0.3373721583584353E-02
   0.3728376544293623E-02
  -0.1465691913186852E-01
  -0.6158413592971098E-03
   0.6651403685809838E-02
   0.1541894445553047E-02
   0.1969622117109868E-02
   0.4266038458355339E-02
  -0.2790971110047964E-02
   0.1227001847179023E-02
   0.2819145035986376E-02
   0.1497381275021342E-02
   0.2575090998484689E-02
   0.2030543066700139E-02
   0.2118137933567128E-02
   0.8700317498848486E-02
  -0.3733277916913131E-02
   0.6240987827228000E-02
   0.2523901196498943E-04
  -0.3854047529106481E-03
  -0.1674661579541249E-01
  -0.4882013602001601E-02
  -0.4719999299634641E-02
   0.3445195842118071E-02
  -0.6135439334233878E-02
   0.9938182435827780E-04
  -0.3291342486151271E-01
  -0.3046237618275643E-02
   0.4722560488578892E-02
   0.9228296015208506E-03
   0.2112087486941437E-02
   0.4518512972501876E-02
   0.2720383113471310E-02
   0.3212526031345746E-02
   0.5200535313247736E-02
   0.1941867724754681E-02
   0.7316978240862795E-03
  -0.2541806566738494E-04
  -0.5374563855410974E-02
  -0.6959621292564533E-02
  -0.9443285035825593E-03
   0.1105174377292831E-02
  -0.2080518908082747E-02
  -0.3199978982422346E-02
  -0.2527843606340887E-02
  -0.4115133683877233E-02
  -0.7593905639134330E-02
  -0.1985514839003103E-02
   0.6241824691907851E-03
  -0.2237520750644474E-03
   0.1216768902296031E-02
  -0.3483907451468771E-02
   0.5229195063546207E-02
  -0.8487500532017989E-02
   0.2324415607153039E-04
  -0.3393965065941369E-03
   0.2542438044271484E-02
   0.1663427307126758E-02
   0.2021369453644488E-02
  -0.5620759613644535E-02
SCALARS w double 1
LOOKUP_TABLE default
   0.0000000000000000E+00
   0.0000000000000000E+00
   0.0000000000000000E+00
   0.0000000000000000E+00
   0.0000000000000000E+00
   0.0000000000000000E+00
   0.0000000000000000E+00
   0.0000000000000000E+00
   0.0000000000000000E+00
   0.0000000000000000E+00
   0.0000000000000000E+00
   0.0000000000000000E+00
   0.0000000000000000E+00
   0.0000000000000000E+00
   0.0000000000000000E+00
   0.0000000000000000E+00
   0.0000000000000000E+00
   0.0000000000000000E+00
   0.0000000000000000E+00
   0.0000000000000000E+00
   0.0000000000000000E+00
   0.0000000000000000E+00
   0.0000000000000000E+00
   0.0000000000000000E+00
   0.0000000000000000E+00
   0.0000000000000000E+00
   0.0000000000000000E+00
   0.0000000000000000E+00
   0.0000000000000000E+00
   0.0000000000000000E+00
   0.0000000000000000E+00
   0.0000000000000000E+00
   0.0000000000000000E+00
  -0.1007606538880822E+00
  -0.4249295281107092E-01
   0.7368149176917614E-03
   0.5726242707059792E-02
   0.5700161362637800E-03
   0.1609731591881391E-02
   0.3375008929162788E-02
   0.2372031428938603E-02
   0.4590271163020939E-03
   0.3519827327524479E-02
   0.4522187389577059E-01
   0.6522883742293913E-01
   0.8693007637390327E-03
  -0.2261154839569207E-01
   0.4317187878477609E-02
   0.1358874950361274E-01
   0.1039564303336619E-01
   0.4900638265697700E-01
   0.2438312123977645E-02
  -0.6509589605941685E-02
  -0.7001780120233171E-03
   0.3417601886170984E-03
   0.3903953489234450E-02
  -0.3893229379828544E-01
   0.1798161184272009E-01
   0.1119618827883938E-01
   0.3403760791003095E-01
   0.8439704635528615E-02
   0.4937976941041027E-02
   0.4971160185700175E-02
   0.4872108350706960E-02
   0.6027660467110095E-02
   0.2598781112898768E-02
  -0.4144439549841860E-01
  -0.9954209761272355E-01
  -0.1121673759797890E+00
   0.5070523756601783E-02
   0.4230416415333996E-02
  -0.1004728859607839E+00
  -0.9895249323575531E-01
  -0.9875437569675513E-01
  -0.9462473555079767E-01
  -0.6807110560466399E-01
   0.5154593240454143E-02
  -0.1935392538501436E-01
  -0.1575855845450643E-01
  -0.6003518046064554E-02
   0.6818872076229159E-02
  -0.8010017191304313E-01
  -0.2781134289824534E-01
  -0.8096441895466135E-01
  -0.5873296647363217E-01
   0.3084004914096064E-02
   0.2685422903451684E-02
   0.2640547407577499E-02
   0.3450230293442569E-02
   0.4007024849562420E-02
   0.1201196304669322E-02
  -0.1438535279688625E-03
   0.2040301166907011E-02
   0.4895693792013214E-02
   0.3857469096287047E-02
   0.1114652702219810E-02
   0.1183284419204323E-02
   0.1466073935104787E-02
  -0.1607438793719500E-04
   0.9002562364367702E-04
   0.4386925070876098E-02
   0.2715852177035992E-02
   0.2322825734279947E-02
   0.5010683383884757E-02
   0.1071677033973018E-02
   0.2712257721101256E-02
   0.2014268424075895E-02
   0.2906361356155566E-04
   0.8374885160471389E-01
   0.2795300473829383E-02
  -0.8344489665341275E-03
  -0.1490795278648667E-03
   0.1409549995639259E+00
   0.1239334105357644E+00
  -0.1218694349847074E-02
  -0.4381668773479381E-02
  -0.3041272403697148E-03
  -0.6511227431816592E-02
  -0.1947611030721621E-02
   0.1557642503883619E+00
   0.7490247834529572E-01
   0.2550559411145075E-01
   0.1656450905659663E+00