title="tecplot geometry and solution file"
variables = x y z rho u v w p mach temperature
zone t="boundary 1 bc-1", solutiontime= 0.2000000E+02, strandid=1001, i=32, j=46, f=feblock
  0.000000000000E+00  0.000000000000E+00  0.000000000000E+00  0.000000000000E+00  0.000000000000E+00  0.000000000000E+00  0.000000000000E+00
  0.000000000000E+00  0.000000000000E+00  0.000000000000E+00  0.000000000000E+00  0.000000000000E+00  0.000000000000E+00  0.000000000000E+00
  0.000000000000E+00  0.000000000000E+00  0.000000000000E+00  0.000000000000E+00  0.000000000000E+00  0.000000000000E+00  0.000000000000E+00
  0.000000000000E+00  0.000000000000E+00  0.000000000000E+00  0.000000000000E+00  0.000000000000E+00  0.000000000000E+00  0.000000000000E+00
  0.000000000000E+00  0.000000000000E+00  0.000000000000E+00  0.000000000000E+00
  0.250000000000E+01  0.250000000000E+01  0.125000000000E+01  0.146289271009E+01  0.157686156160E+01  0.308372018325E+00  0.000000000000E+00
 -0.125000000000E+01 -0.600232012419E+00  0.250000000000E+01  0.477386199275E+00  0.742988685424E+00 -0.739814786992E+00  0.177790177481E+01
  0.155830813274E+01  0.250000000000E+01 -0.250000000000E+01 -0.154800130438E+01 -0.487811078581E+00  0.250000000000E+01  0.627766083140E+00
 -0.345533899378E+00 -0.178862290564E+01 -0.158811787973E+01  0.125000000000E+01 -0.250000000000E+01 -0.144524380962E+01  0.000000000000E+00
 -0.125000000000E+01 -0.250000000000E+01 -0.250000000000E+01 -0.250000000000E+01
  0.000000000000E+00  0.125000000000E+01  0.000000000000E+00  0.103724302461E+01  0.219251206392E+01  0.922061490191E+00  0.000000000000E+00
  0.000000000000E+00  0.715990576545E+00  0.250000000000E+01  0.202479342020E+01  0.324151231464E+01  0.175434191980E+01  0.310152362409E+01
  0.404200324774E+01  0.375000000000E+01  0.000000000000E+00  0.930412228790E+00  0.299062775774E+01  0.500000000000E+01  0.429310310915E+01
  0.409252726285E+01  0.187029682677E+01  0.284428995242E+01  0.500000000000E+01  0.125000000000E+01  0.394624082883E+01  0.500000000000E+01
  0.500000000000E+01  0.250000000000E+01  0.375000000000E+01  0.500000000000E+01
  0.134426838429E+01  0.106353843473E+01  0.142583559582E+01  0.108609241674E+01  0.103227491605E+01  0.120094417585E+01  0.164466041021E+01
  0.149408450282E+01  0.123520237201E+01  0.102388266959E+01  0.102808019052E+01  0.101300806536E+01  0.103252724598E+01  0.101471166548E+01
  0.100663076912E+01  0.100829328448E+01  0.144945963739E+01  0.116391890873E+01  0.101461478536E+01  0.100425924201E+01  0.100679000345E+01
  0.100722949579E+01  0.104666259154E+01  0.101936935484E+01  0.100424233906E+01  0.106441906811E+01  0.100787608889E+01  0.100286987135E+01
  0.100332787315E+01  0.102846339742E+01  0.100957111527E+01  0.100398696595E+01
  0.000000000000E+00  0.445502324419E+00  0.000000000000E+00  0.468719323434E+00  0.462217692057E+00  0.443628268418E+00  0.000000000000E+00
  0.000000000000E+00  0.379277590339E+00  0.471752111863E+00  0.466601460968E+00  0.479368284982E+00  0.490161983989E+00  0.484523272833E+00
  0.488507087297E+00  0.489832143070E+00  0.000000000000E+00  0.450678651513E+00  0.474831614002E+00  0.495837701554E+00  0.490906657327E+00
  0.486837480498E+00  0.448689228142E+00  0.465830350954E+00  0.496552794486E+00  0.444692953006E+00  0.487707593464E+00  0.497546045112E+00
  0.496391981187E+00  0.470013950196E+00  0.489213707406E+00  0.495539117582E+00
  0.000000000000E+00  0.000000000000E+00  0.000000000000E+00  0.186083016762E-01 -0.276682154559E-02  0.332956459247E-01  0.000000000000E+00
  0.000000000000E+00 -0.594944039512E-02  0.000000000000E+00  0.356415351726E-02 -0.567669138574E-02 -0.416468410356E-02  0.271896401796E-04
 -0.106237436467E-02  0.000000000000E+00  0.000000000000E+00 -0.764333974626E-02  0.351055415925E-03  0.000000000000E+00 -0.204357464009E-02
 -0.139237157153E-02  0.156573114634E-02 -0.159354800448E-02 -0.669054507045E-04  0.000000000000E+00 -0.285329269761E-04 -0.196298254356E-03
  0.818431854675E-03  0.000000000000E+00  0.000000000000E+00  0.000000000000E+00
  0.000000000000E+00  0.452310343045E-01  0.000000000000E+00  0.123915712760E+00  0.247704441549E-01  0.165641013272E+00  0.000000000000E+00
  0.000000000000E+00  0.155765510661E+00  0.351720110328E-02  0.259830468624E-01 -0.651467336822E-02  0.748948353752E-01  0.371247942312E-02
 -0.161053484253E-03  0.449446106732E-03  0.000000000000E+00  0.140949508334E+00 -0.808694162163E-02  0.234334806596E-02 -0.316579288771E-03
 -0.438227713192E-02  0.254971819841E-01 -0.195496148273E-02  0.306232556550E-02  0.837408964005E-01 -0.119810691594E-02  0.269132542307E-02
  0.265403310989E-02  0.278480355120E-02 -0.838270599598E-03  0.344749794400E-02
  0.960182424159E+00  0.782329414463E+00  0.101844462697E+01  0.808717513420E+00  0.746113029188E+00  0.879439227818E+00  0.117474739815E+01
  0.106719489621E+01  0.916614507917E+00  0.737382950614E+00  0.743541516451E+00  0.725748579100E+00  0.757446397508E+00  0.729178718203E+00
  0.720770748280E+00  0.722769618780E+00  0.103532081290E+01  0.858307859111E+00  0.728052619763E+00  0.718607626292E+00  0.721000133237E+00
  0.721136541524E+00  0.760004221661E+00  0.732614488255E+00  0.718521934915E+00  0.791034776089E+00  0.722091668392E+00  0.717182656330E+00
  0.717623470908E+00  0.741787365660E+00  0.724041440917E+00  0.718394752794E+00
  0.000000000000E+00  0.441260050794E+00  0.000000000000E+00  0.475196702979E+00  0.460159528211E+00  0.468840137708E+00  0.000000000000E+00
  0.000000000000E+00  0.402309075599E+00  0.469829687437E+00  0.464438165877E+00  0.478728385863E+00  0.489302143779E+00  0.483078497742E+00
  0.487915287438E+00  0.488964059531E+00  0.000000000000E+00  0.464797414271E+00  0.473814026151E+00  0.495401577941E+00  0.490275884737E+00
  0.486289424350E+00  0.445738029923E+00  0.464406365862E+00  0.496145347927E+00  0.443630811028E+00  0.486972251202E+00  0.497259456373E+00
  0.496067366910E+00  0.467744895858E+00  0.488227213567E+00  0.495115926631E+00
  0.999990336403E+00  0.102982754970E+01  0.999990799731E+00  0.104245688611E+01  0.101189927666E+01  0.102520578700E+01  0.999991455503E+00
  0.999992203842E+00  0.103890693555E+01  0.100825627928E+01  0.101252619458E+01  0.100300090936E+01  0.102701886138E+01  0.100604954118E+01
  0.100243215144E+01  0.100355470166E+01  0.999992756381E+00  0.103240096346E+01  0.100459177451E+01  0.100178383701E+01  0.100259257946E+01
  0.100234471127E+01  0.101657011431E+01  0.100617139282E+01  0.100168123745E+01  0.104042544868E+01  0.100302839495E+01  0.100118245402E+01
  0.100134052503E+01  0.100976108098E+01  0.100404815664E+01  0.100175867618E+01
        12        19        11        11
        11         5        12        12
        10        14         5         5
        19        13        11        11
        19        24        13        13
        30        23        24        24
        19        12        22        22
        28        22        21        21
        11        13         6         6
         7         6         9         9
        15        12        14        14
        18        13        23        23
        15        25        21        21
        27        19        22        22
        18         8         9         9
        27        31        24        24
         4        11         6         6
         5        14        12        12
         4         2         5         5
        21        12        15        15
        14        16        15        15
        24        19        27        27
        22        29        27        27
        23        26        18        18
        17         8        18        18
         5        11         4         4
         6         3         4         4
        26        23        30        30
         5         2        10        10
        16        14        10        10
         3         6         7         7
        21        25        28        28
        29        22        28        28
         6        13         9         9
         2         4         1         1
        31        27        32        32
        25        15        20        20
        24        23        13        13
         8         7         9         9
        13        18         9         9
        31        30        24        24
        12        21        22        22
        29        32        27        27
         3         1         4         4
        26        17        18        18
        16        20        15        15
zone t="boundary 2 bc-2", solutiontime= 0.2000000E+02, strandid=1002, i=33, j=48, f=feblock
  0.500000000000E+01  0.375000000000E+01  0.250000000000E+01  0.288078410721E+01  0.125000000000E+01  0.190974100652E+01  0.326683758169E+01
  0.201431602454E+01  0.000000000000E+00  0.963108083381E+00  0.500000000000E+01  0.403552511878E+01  0.423153924130E+01  0.500000000000E+01
  0.385533350601E+01  0.500000000000E+01  0.398173246726E+01  0.315249557942E+01  0.267000324704E+01  0.154774304040E+01  0.218329375016E+01
  0.893127759452E+00  0.000000000000E+00  0.698517061619E+00  0.964171764089E+00  0.310324758057E+01  0.000000000000E+00  0.000000000000E+00
  0.125000000000E+01  0.500000000000E+01  0.375000000000E+01  0.250000000000E+01  0.000000000000E+00
 -0.250000000000E+01 -0.250000000000E+01 -0.250000000000E+01 -0.250000000000E+01 -0.250000000000E+01 -0.250000000000E+01 -0.250000000000E+01
 -0.250000000000E+01 -0.250000000000E+01 -0.250000000000E+01 -0.250000000000E+01 -0.250000000000E+01 -0.250000000000E+01 -0.250000000000E+01
 -0.250000000000E+01 -0.250000000000E+01 -0.250000000000E+01 -0.250000000000E+01 -0.250000000000E+01 -0.250000000000E+01 -0.250000000000E+01
 -0.250000000000E+01 -0.250000000000E+01 -0.250000000000E+01 -0.250000000000E+01 -0.250000000000E+01 -0.250000000000E+01 -0.250000000000E+01
 -0.250000000000E+01 -0.250000000000E+01 -0.250000000000E+01 -0.250000000000E+01 -0.250000000000E+01
  0.000000000000E+00  0.000000000000E+00  0.000000000000E+00  0.904659890645E+00  0.000000000000E+00  0.717002441913E+00  0.188609243358E+01
  0.176246431481E+01  0.000000000000E+00  0.961328577125E+00  0.125000000000E+01  0.101201586758E+01  0.191586535653E+01  0.250000000000E+01
  0.293121848150E+01  0.375000000000E+01  0.406975391361E+01  0.363585050272E+01  0.285047954584E+01  0.292817774674E+01  0.395907379566E+01
  0.205246550326E+01  0.125000000000E+01  0.306828197606E+01  0.397245519226E+01  0.433168271247E+01  0.250000000000E+01  0.375000000000E+01
  0.500000000000E+01  0.500000000000E+01  0.500000000000E+01  0.500000000000E+01  0.500000000000E+01
  0.830778981146E+00  0.935291961412E+00  0.934197903697E+00  0.968077354365E+00  0.961707276456E+00  0.964846882204E+00  0.984107051598E+00
  0.991409399789E+00  0.144945963739E+01  0.102920948014E+01  0.955850382935E+00  0.960702795192E+00  0.981460899248E+00  0.100641976559E+01
  0.997903861777E+00  0.100979425601E+01  0.100198678454E+01  0.998055893081E+00  0.991072908327E+00  0.100131055665E+01  0.100093438812E+01
  0.101223769348E+01  0.106441906811E+01  0.101080731920E+01  0.100683991266E+01  0.100116876099E+01  0.102846339742E+01  0.100957111527E+01
  0.100508760950E+01  0.100172951828E+01  0.100263233666E+01  0.100320029496E+01  0.100398696595E+01
  0.000000000000E+00  0.000000000000E+00  0.000000000000E+00  0.378965489693E+00  0.000000000000E+00  0.340647571282E+00  0.582141606280E+00
  0.575191872018E+00  0.000000000000E+00  0.489462224677E+00  0.494720456621E+00  0.431486714524E+00  0.568930598061E+00  0.536178932462E+00
  0.568934552906E+00  0.516295740239E+00  0.508657182680E+00  0.527484113898E+00  0.566663735442E+00  0.531845086612E+00  0.506168015360E+00
  0.520712297063E+00  0.444692953006E+00  0.491350132518E+00  0.492749232517E+00  0.501555472116E+00  0.470013950196E+00  0.489213707406E+00
  0.490452355539E+00  0.491390742372E+00  0.486048353939E+00  0.490250005022E+00  0.495539117582E+00
  0.000000000000E+00  0.000000000000E+00  0.000000000000E+00  0.000000000000E+00  0.000000000000E+00  0.000000000000E+00  0.000000000000E+00
  0.000000000000E+00  0.000000000000E+00  0.000000000000E+00  0.000000000000E+00  0.000000000000E+00  0.000000000000E+00  0.000000000000E+00
  0.000000000000E+00  0.000000000000E+00  0.000000000000E+00  0.000000000000E+00  0.000000000000E+00  0.000000000000E+00  0.000000000000E+00
  0.000000000000E+00  0.000000000000E+00  0.000000000000E+00  0.000000000000E+00  0.000000000000E+00  0.000000000000E+00  0.000000000000E+00
  0.000000000000E+00  0.000000000000E+00  0.000000000000E+00  0.000000000000E+00  0.000000000000E+00
  0.000000000000E+00  0.000000000000E+00  0.000000000000E+00 -0.228646770389E-02  0.000000000000E+00  0.183641467540E-01  0.121351927237E-01
  0.455236055620E-01  0.000000000000E+00  0.870795010715E-01 -0.995463322249E-01 -0.212082398230E-01 -0.306597057777E-01 -0.414704060208E-01
 -0.138996109301E-02  0.261850791384E-02  0.596021973123E-03  0.497554068103E-03  0.151304054525E-01  0.284417483768E-01  0.564608636287E-02
  0.553441684074E-01  0.837408964005E-01  0.110577613760E-01  0.680910564986E-02 -0.785569466376E-03  0.278480355120E-02 -0.838270599598E-03
  0.400061180653E-02  0.607080957710E-02 -0.141958352694E-03  0.120292644794E-02  0.344749794400E-02
  0.593409708824E+00  0.668061488588E+00  0.667279926629E+00  0.684247772119E+00  0.686929076804E+00  0.679190299138E+00  0.695799373628E+00
  0.702332061104E+00  0.103532081290E+01  0.723688794392E+00  0.672571883947E+00  0.675691305457E+00  0.694081594468E+00  0.720955243749E+00
  0.712681808820E+00  0.724783374541E+00  0.716575053769E+00  0.713285320382E+00  0.706419752779E+00  0.717724927677E+00  0.715362416569E+00
  0.730927354889E+00  0.791034776089E+00  0.724359086867E+00  0.720997356400E+00  0.715435207042E+00  0.741787365660E+00  0.724041440917E+00
  0.719303504512E+00  0.715838945877E+00  0.716585926626E+00  0.717365014474E+00  0.718394752794E+00
  0.000000000000E+00  0.000000000000E+00  0.000000000000E+00  0.380970970433E+00  0.000000000000E+00  0.343640946654E+00  0.585245546051E+00
  0.579375261161E+00  0.000000000000E+00  0.501069100318E+00  0.508440434083E+00  0.435359213815E+00  0.572606432683E+00  0.537002479360E+00
  0.568978824277E+00  0.515053622624E+00  0.508348581579E+00  0.527340769459E+00  0.567462992843E+00  0.531675486033E+00  0.506054676861E+00
  0.520807507986E+00  0.443630811028E+00  0.490675352027E+00  0.492171855535E+00  0.501445777724E+00  0.467744895858E+00  0.488227213567E+00
  0.489996667106E+00  0.491319122269E+00  0.485905923811E+00  0.489980307182E+00  0.495115926631E+00
  0.999993513566E+00  0.999993715985E+00  0.999993570510E+00  0.989535471155E+00  0.999993169511E+00  0.985510174031E+00  0.989850770297E+00
  0.991784913230E+00  0.999992756381E+00  0.984410201906E+00  0.985092075430E+00  0.984662303861E+00  0.990069225376E+00  0.100289896498E+01
  0.999850356898E+00  0.100485491804E+01  0.100121587506E+01  0.100054461424E+01  0.997895962630E+00  0.100349975547E+01  0.100057246018E+01
  0.101092688351E+01  0.104042544868E+01  0.100326016873E+01  0.100253901963E+01  0.100044001459E+01  0.100976108098E+01  0.100404815664E+01
  0.100192749050E+01  0.100044423763E+01  0.100058641697E+01  0.100110718200E+01  0.100175867618E+01
        15         7        19        19
         8        20        19        19
        18        19        21        21
         7         4         8         8
         3         6         4         4
        19         7         8         8
        19        18        15        15
        14        13        15        15
         8        22        20        20
        27        24        22        22
        19        20        21        21
        32        26        21        21
        17        18        26        26
        17        16        15        15
        25        29        21        21
        12         7        13        13
        10         8         6         6
        25        20        24        24
         4         6         8         8
        12         2         4         4
        10        23        22        22
        26        31        17        17
        30        16        17        17
         4         7        12        12
        13        11        12        12
        21        20        25        25
        24        28        25        25
        22         8        10        10
         6         5        10        10
        31        26        32        32
         4         2         3         3
         5         6         3         3
        11        13        14        14
        22        23        27        27
        28        24        27        27
        15        13         7         7
         2        12         1         1
        29        25        33        33
        23        10         9         9
        21        26        18        18
        16        14        15        15
        18        17        15        15
        29        32        21        21
        22        24        20        20
        28        33        25        25
        11         1        12        12
        31        30        17        17
         5         9        10        10
zone t="boundary 3 bc-3", solutiontime= 0.2000000E+02, strandid=1003, i=33, j=48, f=feblock
  0.375000000000E+01  0.250000000000E+01  0.500000000000E+01  0.403552511878E+01  0.288078410721E+01  0.125000000000E+01  0.190974100652E+01
  0.500000000000E+01  0.326683758169E+01  0.423153924130E+01  0.201431602454E+01  0.000000000000E+00  0.963108083381E+00  0.500000000000E+01
  0.267000324704E+01  0.385533350601E+01  0.893127759452E+00  0.154774304040E+01  0.000000000000E+00  0.500000000000E+01  0.315249557942E+01
  0.218329375016E+01  0.398173246726E+01  0.000000000000E+00  0.698517061619E+00  0.964171764089E+00  0.125000000000E+01  0.000000000000E+00
  0.500000000000E+01  0.310324758057E+01  0.250000000000E+01  0.375000000000E+01  0.000000000000E+00
  0.250000000000E+01  0.250000000000E+01  0.250000000000E+01  0.250000000000E+01  0.250000000000E+01  0.250000000000E+01  0.250000000000E+01
  0.250000000000E+01  0.250000000000E+01  0.250000000000E+01  0.250000000000E+01  0.250000000000E+01  0.250000000000E+01  0.250000000000E+01
  0.250000000000E+01  0.250000000000E+01  0.250000000000E+01  0.250000000000E+01  0.250000000000E+01  0.250000000000E+01  0.250000000000E+01
  0.250000000000E+01  0.250000000000E+01  0.250000000000E+01  0.250000000000E+01  0.250000000000E+01  0.250000000000E+01  0.250000000000E+01
  0.250000000000E+01  0.250000000000E+01  0.250000000000E+01  0.250000000000E+01  0.250000000000E+01
  0.000000000000E+00  0.000000000000E+00  0.000000000000E+00  0.101201586758E+01  0.904659890645E+00  0.000000000000E+00  0.717002441913E+00
  0.125000000000E+01  0.188609243358E+01  0.191586535653E+01  0.176246431481E+01  0.000000000000E+00  0.961328577125E+00  0.250000000000E+01
  0.285047954584E+01  0.293121848150E+01  0.205246550326E+01  0.292817774674E+01  0.125000000000E+01  0.375000000000E+01  0.363585050272E+01
  0.395907379566E+01  0.406975391361E+01  0.250000000000E+01  0.306828197606E+01  0.397245519226E+01  0.500000000000E+01  0.375000000000E+01
  0.500000000000E+01  0.433168271247E+01  0.500000000000E+01  0.500000000000E+01  0.500000000000E+01
  0.941868431625E+00  0.946282949634E+00  0.843728305629E+00  0.964400622375E+00  0.978854112412E+00  0.956963400315E+00  0.983321569415E+00
  0.963536570024E+00  0.982671924496E+00  0.984233437816E+00  0.990249796714E+00  0.134426838429E+01  0.101917436987E+01  0.100830812171E+01
  0.993441928431E+00  0.997999946820E+00  0.100806158259E+01  0.100070011191E+01  0.106353843473E+01  0.100676927114E+01  0.100057981049E+01
  0.100233598883E+01  0.100177133377E+01  0.102388266959E+01  0.100872463513E+01  0.100526544515E+01  0.100522328985E+01  0.100829328448E+01
  0.100185779559E+01  0.100160296780E+01  0.100409388142E+01  0.100312448266E+01  0.100425924201E+01
  0.000000000000E+00  0.000000000000E+00  0.000000000000E+00  0.439022287828E+00  0.399808680536E+00  0.000000000000E+00  0.373781471360E+00
  0.494927478779E+00  0.573030264014E+00  0.569562188232E+00  0.559933667117E+00  0.000000000000E+00  0.483394439682E+00  0.533810619992E+00
  0.556500305037E+00  0.564763146511E+00  0.522634481574E+00  0.522557646461E+00  0.445502324419E+00  0.518381237725E+00  0.524845180778E+00
  0.503954732554E+00  0.509947243585E+00  0.471752111863E+00  0.496257899270E+00  0.494963543559E+00  0.489129349658E+00  0.489832143070E+00
  0.493005480223E+00  0.499231024964E+00  0.486737176705E+00  0.484538944827E+00  0.495837701554E+00
  0.000000000000E+00  0.000000000000E+00  0.000000000000E+00  0.000000000000E+00  0.000000000000E+00  0.000000000000E+00  0.000000000000E+00
  0.000000000000E+00  0.000000000000E+00  0.000000000000E+00  0.000000000000E+00  0.000000000000E+00  0.000000000000E+00  0.000000000000E+00
  0.000000000000E+00  0.000000000000E+00  0.000000000000E+00  0.000000000000E+00  0.000000000000E+00  0.000000000000E+00  0.000000000000E+00
  0.000000000000E+00  0.000000000000E+00  0.000000000000E+00  0.000000000000E+00  0.000000000000E+00  0.000000000000E+00  0.000000000000E+00
  0.000000000000E+00  0.000000000000E+00  0.000000000000E+00  0.000000000000E+00  0.000000000000E+00
  0.000000000000E+00  0.000000000000E+00  0.000000000000E+00 -0.226393638352E-01  0.112001306474E-01  0.000000000000E+00  0.179824985464E-01
 -0.100767639322E+00  0.390746193057E-02 -0.389578477866E-01  0.340486724731E-01  0.000000000000E+00  0.652249138098E-01 -0.425016132366E-01
  0.845717350763E-02 -0.650672894401E-02  0.490110342563E-01  0.136121561398E-01  0.452310343045E-01  0.799981157741E-03 -0.695487809552E-03
  0.244109204523E-02  0.926420103830E-03  0.351720110328E-02  0.103970485912E-01  0.431281648885E-02  0.333951896689E-02  0.449446106732E-03
  0.583901146093E-02  0.340626643115E-03  0.163630596501E-02  0.684447705568E-03  0.234334806596E-02
  0.672756021544E+00  0.675909263683E+00  0.602656847567E+00  0.676086972173E+00  0.691292244132E+00  0.683538362378E+00  0.690058529004E+00
  0.677282299501E+00  0.695189753900E+00  0.696239998132E+00  0.703330011041E+00  0.960182424159E+00  0.719710701200E+00  0.722871249511E+00
  0.709435289104E+00  0.713692996722E+00  0.726051365268E+00  0.716587522572E+00  0.782329414463E+00  0.722305359231E+00  0.716112954581E+00
  0.716528097601E+00  0.716535014852E+00  0.737382950614E+00  0.722665930624E+00  0.719418192075E+00  0.719559467567E+00  0.722769618780E+00
  0.715958148923E+00  0.715824023345E+00  0.718133036975E+00  0.717024309409E+00  0.718607626292E+00
  0.000000000000E+00  0.000000000000E+00  0.000000000000E+00  0.443738065086E+00  0.402241325890E+00  0.000000000000E+00  0.377537925613E+00
  0.509151099786E+00  0.575806059710E+00  0.573667520009E+00  0.562557379324E+00  0.000000000000E+00  0.490569798229E+00  0.534517033814E+00
  0.556629709266E+00  0.564469777880E+00  0.522751356246E+00  0.522077334310E+00  0.441260050794E+00  0.517237889226E+00  0.524327552693E+00
  0.503758809929E+00  0.509597793056E+00  0.469829687437E+00  0.495628454778E+00  0.494510308967E+00  0.488616076705E+00  0.488964059531E+00
  0.492921100651E+00  0.499093963183E+00  0.486426987460E+00  0.484368151935E+00  0.495401577941E+00
  0.999989381252E+00  0.999989452967E+00  0.999989666064E+00  0.981461167778E+00  0.988716428232E+00  0.999989871100E+00  0.982467964350E+00
  0.984078081518E+00  0.990427864274E+00  0.990350418848E+00  0.994357200299E+00  0.999990336403E+00  0.988638462140E+00  0.100368104504E+01
  0.999765941341E+00  0.100117259384E+01  0.100834307044E+01  0.100252065495E+01  0.102982754970E+01  0.100442825572E+01  0.100197717953E+01
  0.100080147558E+01  0.100137525099E+01  0.100825627928E+01  0.100298165391E+01  0.100190996693E+01  0.100214874125E+01  0.100355470166E+01
  0.100048271611E+01  0.100054978360E+01  0.100128710110E+01  0.100070734044E+01  0.100178383701E+01
        15         9        16        16
        15        18        11        11
        22        15        21        21
        11         5         9         9
         5         7         2         2
        11         9        15        15
        16        21        15        15
        16        10        14        14
        18        17        11        11
        17        25        24        24
        22        18        15        15
        22        30        31        31
        30        21        23        23
        16        20        23        23
        22        27        26        26
        10         9         4         4
         7        11        13        13
        25        18        26        26
        11         7         5         5
         5         1         4         4
        17        19        13        13
        23        32        30        30
        23        20        29        29
         4         9         5         5
         4         8        10        10
        26        18        22        22
        26        28        25        25
        13        11        17        17
        13         6         7         7
        31        30        32        32
         2         1         5         5
         2         7         6         6
        14        10         8         8
        24        19        17        17
        24        25        28        28
         9        10        16        16
         3         4         1         1
        33        26        27        27
        12        13        19        19
        21        30        22        22
        16        14        20        20
        16        23        21        21
        22        31        27        27
        18        25        17        17
        26        33        28        28
         4         3         8         8
        23        29        32        32
        13        12         6         6
zone t="boundary 4 bc-4", solutiontime= 0.2000000E+02, strandid=1004, i=32, j=46, f=feblock
  0.125000000000E+01  0.219251206392E+01  0.103724302461E+01  0.500000000000E+01  0.250000000000E+01  0.375000000000E+01  0.404200324774E+01
  0.500000000000E+01  0.000000000000E+00  0.310152362409E+01  0.202479342020E+01  0.324151231464E+01  0.922061490191E+00  0.000000000000E+00
  0.299062775774E+01  0.394624082883E+01  0.500000000000E+01  0.409252726285E+01  0.500000000000E+01  0.429310310915E+01  0.175434191980E+01
  0.284428995242E+01  0.000000000000E+00  0.000000000000E+00  0.715990576545E+00  0.930412228790E+00  0.125000000000E+01  0.187029682677E+01
  0.500000000000E+01  0.375000000000E+01  0.250000000000E+01  0.000000000000E+00
  0.250000000000E+01  0.157686156160E+01  0.146289271009E+01  0.250000000000E+01  0.250000000000E+01  0.250000000000E+01  0.155830813274E+01
  0.125000000000E+01  0.250000000000E+01  0.177790177481E+01  0.477386199275E+00  0.742988685424E+00  0.308372018325E+00  0.125000000000E+01
 -0.487811078581E+00 -0.144524380962E+01 -0.125000000000E+01 -0.345533899378E+00  0.000000000000E+00  0.627766083140E+00 -0.739814786992E+00
 -0.158811787973E+01  0.000000000000E+00 -0.125000000000E+01 -0.600232012419E+00 -0.154800130438E+01 -0.250000000000E+01 -0.178862290564E+01
 -0.250000000000E+01 -0.250000000000E+01 -0.250000000000E+01 -0.250000000000E+01
  0.500000000000E+01  0.500000000000E+01  0.500000000000E+01  0.500000000000E+01  0.500000000000E+01  0.500000000000E+01  0.500000000000E+01
  0.500000000000E+01  0.500000000000E+01  0.500000000000E+01  0.500000000000E+01  0.500000000000E+01  0.500000000000E+01  0.500000000000E+01
  0.500000000000E+01  0.500000000000E+01  0.500000000000E+01  0.500000000000E+01  0.500000000000E+01  0.500000000000E+01  0.500000000000E+01
  0.500000000000E+01  0.500000000000E+01  0.500000000000E+01  0.500000000000E+01  0.500000000000E+01  0.500000000000E+01  0.500000000000E+01
  0.500000000000E+01  0.500000000000E+01  0.500000000000E+01  0.500000000000E+01
  0.100522328985E+01  0.100430413709E+01  0.100429841847E+01  0.100185779559E+01  0.100409388142E+01  0.100312448266E+01  0.100249901352E+01
  0.100192674427E+01  0.100425924201E+01  0.100366029572E+01  0.100444672002E+01  0.100343697891E+01  0.100364980756E+01  0.100424233906E+01
  0.100359205098E+01  0.100160839670E+01  0.100223043607E+01  0.100221125775E+01  0.100205915425E+01  0.100246476315E+01  0.100441748816E+01
  0.100336324738E+01  0.100286987135E+01  0.100332787315E+01  0.100322051035E+01  0.100404956092E+01  0.100508760950E+01  0.100430750799E+01
  0.100172951828E+01  0.100263233666E+01  0.100320029496E+01  0.100398696595E+01
  0.489129349658E+00  0.489234811806E+00  0.491007713529E+00  0.493005480223E+00  0.486737176705E+00  0.484538944827E+00  0.485194372737E+00
  0.494183291819E+00  0.495837701554E+00  0.486689545780E+00  0.488139634417E+00  0.487158082991E+00  0.494443026638E+00  0.496552794486E+00
  0.487765389501E+00  0.483085447526E+00  0.492510702659E+00  0.487120572298E+00  0.494807250572E+00  0.487851596412E+00  0.490094589431E+00
  0.488159680606E+00  0.497546045112E+00  0.496391981187E+00  0.495267684891E+00  0.493224658522E+00  0.490452355539E+00  0.490379909340E+00
  0.491390742372E+00  0.486048353939E+00  0.490250005022E+00  0.495539117582E+00
  0.000000000000E+00 -0.103065510591E-03 -0.131113881285E-02  0.000000000000E+00  0.000000000000E+00  0.000000000000E+00  0.466973658453E-03
  0.848308327540E-03  0.000000000000E+00  0.267507994881E-03 -0.947688162481E-03 -0.833632105421E-03 -0.174490461001E-02 -0.669054507045E-04
 -0.110388624337E-02 -0.103545631347E-02 -0.134024318312E-02 -0.215445767676E-02 -0.130445744458E-02 -0.105164672745E-02 -0.593864296964E-03
 -0.749155544475E-03 -0.196298254356E-03  0.818431854675E-03  0.659206656306E-04  0.163944340420E-02  0.000000000000E+00  0.805114135729E-03
  0.000000000000E+00  0.000000000000E+00  0.000000000000E+00  0.000000000000E+00