# vtk DataFile Version 2.0
FUN3D:global_image_vtk
ASCII
DATASET UNSTRUCTURED_GRID
POINTS 213 double
    0.0000000000000000E+00    0.2500000000000000E+01    0.0000000000000000E+00
    0.1250000000000000E+01    0.2500000000000000E+01    0.0000000000000000E+00
    0.2500000000000000E+01    0.2500000000000000E+01    0.0000000000000000E+00
    0.3750000000000000E+01    0.2500000000000000E+01    0.0000000000000000E+00
    0.5000000000000000E+01    0.2500000000000000E+01    0.0000000000000000E+00
    0.5000000000000000E+01    0.1250000000000000E+01    0.0000000000000000E+00
    0.5000000000000000E+01    0.0000000000000000E+00    0.0000000000000000E+00
    0.5000000000000000E+01   -0.1250000000000000E+01    0.0000000000000000E+00
    0.5000000000000000E+01   -0.2500000000000000E+01    0.0000000000000000E+00
    0.3750000000000000E+01   -0.2500000000000000E+01    0.0000000000000000E+00
    0.2500000000000000E+01   -0.2500000000000000E+01    0.0000000000000000E+00
    0.1250000000000000E+01   -0.2500000000000000E+01    0.0000000000000000E+00
    0.0000000000000000E+00   -0.2500000000000000E+01    0.0000000000000000E+00
    0.0000000000000000E+00   -0.1250000000000000E+01    0.0000000000000000E+00
    0.0000000000000000E+00    0.0000000000000000E+00    0.0000000000000000E+00
    0.0000000000000000E+00    0.1250000000000000E+01    0.0000000000000000E+00
    0.9058375365086910E+00    0.1578994732800803E+01    0.0000000000000000E+00
    0.3982050490726493E+01   -0.1583989954232354E+01    0.0000000000000000E+00
    0.4033849428301197E+01    0.1453322699199022E+01    0.0000000000000000E+00
    0.1040505887381675E+01   -0.1479596339503735E+01    0.0000000000000000E+00
    0.1099454400140349E+01   -0.3227322616384110E+00    0.0000000000000000E+00
    0.7354504170366591E+00    0.6593508822075582E+00    0.0000000000000000E+00
    0.1622302608453282E+01    0.8256214013940779E+00    0.0000000000000000E+00
    0.2145871574390382E+01   -0.1650070333782557E+01    0.0000000000000000E+00
    0.4086422318222992E+01   -0.4612828702537229E+00    0.0000000000000000E+00
    0.2979540174134984E+01   -0.8579242121530853E+00    0.0000000000000000E+00
    0.3045064261640043E+01   -0.1836846154397680E+01    0.0000000000000000E+00
    0.3428197553792836E+01    0.3508002863614053E+00    0.0000000000000000E+00
    0.4309693860063405E+01    0.5185680230613409E+00    0.0000000000000000E+00
    0.1827272193562204E+01    0.1738996113203182E+01    0.0000000000000000E+00
    0.2808563282768077E+01    0.1325493893339706E+01    0.0000000000000000E+00
    0.1895995683864404E+01   -0.8731419609589618E+00    0.0000000000000000E+00
    0.2273179336307740E+01    0.4906150219227333E-01    0.0000000000000000E+00
    0.5000000000000000E+01    0.2500000000000000E+01    0.1250000000000000E+01
    0.5000000000000000E+01    0.2500000000000000E+01    0.2500000000000000E+01
    0.5000000000000000E+01    0.2500000000000000E+01    0.3750000000000000E+01
    0.5000000000000000E+01    0.2500000000000000E+01    0.5000000000000000E+01
    0.3750000000000000E+01    0.2500000000000000E+01    0.5000000000000000E+01
    0.2500000000000000E+01    0.2500000000000000E+01    0.5000000000000000E+01
    0.1250000000000000E+01    0.2500000000000000E+01    0.5000000000000000E+01
    0.0000000000000000E+00    0.2500000000000000E+01    0.5000000000000000E+01
    0.0000000000000000E+00    0.2500000000000000E+01    0.3750000000000000E+01
    0.0000000000000000E+00    0.2500000000000000E+01    0.2500000000000000E+01
    0.0000000000000000E+00    0.2500000000000000E+01    0.1250000000000000E+01
    0.9631080833812172E+00    0.2500000000000000E+01    0.9613285771248219E+00
    0.3981732467264904E+01    0.2500000000000000E+01    0.4069753913607991E+01
    0.4035525118777670E+01    0.2500000000000000E+01    0.1012015867579395E+01
    0.9641717640894248E+00    0.2500000000000000E+01    0.3972455192261839E+01
    0.1547743040396780E+01    0.2500000000000000E+01    0.2928177746738678E+01
    0.6985170616192014E+00    0.2500000000000000E+01    0.3068281976055466E+01
    0.8931277594515110E+00    0.2500000000000000E+01    0.2052465503257726E+01
    0.2183293750162785E+01    0.2500000000000000E+01    0.3959073795658649E+01
    0.3855333506014705E+01    0.2500000000000000E+01    0.2931218481500625E+01
    0.3152495579421047E+01    0.2500000000000000E+01    0.3635850502723324E+01
    0.3103247580566054E+01    0.2500000000000000E+01    0.4331682712472464E+01
    0.3266837581688852E+01    0.2500000000000000E+01    0.1886092433583972E+01
    0.4231539241296245E+01    0.2500000000000000E+01    0.1915865356532799E+01
    0.1909741006522088E+01    0.2500000000000000E+01    0.7170024419130505E+00
    0.2880784107213163E+01    0.2500000000000000E+01    0.9046598906449592E+00
    0.2014316024535771E+01    0.2500000000000000E+01    0.1762464314805728E+01
    0.2670003247036656E+01    0.2500000000000000E+01    0.2850479545835163E+01
    0.5000000000000000E+01    0.1250000000000000E+01    0.5000000000000000E+01
    0.5000000000000000E+01    0.0000000000000000E+00    0.5000000000000000E+01
    0.5000000000000000E+01   -0.1250000000000000E+01    0.5000000000000000E+01
    0.5000000000000000E+01   -0.2500000000000000E+01    0.5000000000000000E+01
    0.5000000000000000E+01   -0.2500000000000000E+01    0.3750000000000000E+01
    0.5000000000000000E+01   -0.2500000000000000E+01    0.2500000000000000E+01
    0.5000000000000000E+01   -0.2500000000000000E+01    0.1250000000000000E+01
    0.5000000000000000E+01    0.1578994732800803E+01    0.9058375365086910E+00
    0.5000000000000000E+01   -0.1583989954232354E+01    0.3982050490726493E+01
    0.5000000000000000E+01    0.1453322699199022E+01    0.4033849428301197E+01
    0.5000000000000000E+01   -0.1479596339503735E+01    0.1040505887381675E+01
    0.5000000000000000E+01   -0.3227322616384110E+00    0.1099454400140349E+01
    0.5000000000000000E+01    0.6593508822075582E+00    0.7354504170366591E+00
    0.5000000000000000E+01    0.8256214013940779E+00    0.1622302608453282E+01
    0.5000000000000000E+01   -0.1650070333782557E+01    0.2145871574390382E+01
    0.5000000000000000E+01   -0.4612828702537229E+00    0.4086422318222992E+01
    0.5000000000000000E+01   -0.8579242121530853E+00    0.2979540174134984E+01
    0.5000000000000000E+01   -0.1836846154397680E+01    0.3045064261640043E+01
    0.5000000000000000E+01    0.3508002863614053E+00    0.3428197553792836E+01
    0.5000000000000000E+01    0.5185680230613409E+00    0.4309693860063405E+01
    0.5000000000000000E+01    0.1738996113203182E+01    0.1827272193562204E+01
    0.5000000000000000E+01    0.1325493893339706E+01    0.2808563282768077E+01
    0.5000000000000000E+01   -0.8731419609589618E+00    0.1895995683864404E+01
    0.5000000000000000E+01    0.4906150219227333E-01    0.2273179336307740E+01
    0.0000000000000000E+00    0.1250000000000000E+01    0.5000000000000000E+01
    0.0000000000000000E+00    0.0000000000000000E+00    0.5000000000000000E+01
    0.0000000000000000E+00   -0.1250000000000000E+01    0.5000000000000000E+01
    0.0000000000000000E+00   -0.2500000000000000E+01    0.5000000000000000E+01
    0.1250000000000000E+01   -0.2500000000000000E+01    0.5000000000000000E+01
    0.2500000000000000E+01   -0.2500000000000000E+01    0.5000000000000000E+01
    0.3750000000000000E+01   -0.2500000000000000E+01    0.5000000000000000E+01
    0.4042003247744892E+01    0.1558308132739014E+01    0.5000000000000000E+01
    0.9304122287900499E+00   -0.1548001304379777E+01    0.5000000000000000E+01
    0.1037243024609388E+01    0.1462892710085612E+01    0.5000000000000000E+01
    0.3946240828834967E+01   -0.1445243809615570E+01    0.5000000000000000E+01
    0.4092527262848217E+01   -0.3455338993778935E+00    0.5000000000000000E+01
    0.4293103109154542E+01    0.6277660831404320E+00    0.5000000000000000E+01
    0.3241512314643519E+01    0.7429886854239611E+00    0.5000000000000000E+01
    0.2844289952419609E+01   -0.1588117879734118E+01    0.5000000000000000E+01
    0.7159905765450471E+00   -0.6002320124191652E+00    0.5000000000000000E+01
    0.1754341919796891E+01   -0.7398147869923652E+00    0.5000000000000000E+01
    0.1870296826774691E+01   -0.1788622905643739E+01    0.5000000000000000E+01
    0.9220614901912976E+00    0.3083720183248586E+00    0.5000000000000000E+01
    0.3101523624086016E+01    0.1777901774806180E+01    0.5000000000000000E+01
    0.2192512063922564E+01    0.1576861561598471E+01    0.5000000000000000E+01
    0.2024793420196460E+01    0.4773861992750707E+00    0.5000000000000000E+01
    0.2990627757741975E+01   -0.4878110785814084E+00    0.5000000000000000E+01
    0.0000000000000000E+00   -0.2500000000000000E+01    0.1250000000000000E+01
    0.0000000000000000E+00   -0.2500000000000000E+01    0.2500000000000000E+01
    0.0000000000000000E+00   -0.2500000000000000E+01    0.3750000000000000E+01
    0.0000000000000000E+00    0.1558308132739014E+01    0.4042003247744892E+01
    0.0000000000000000E+00   -0.1548001304379777E+01    0.9304122287900499E+00
    0.0000000000000000E+00    0.1462892710085612E+01    0.1037243024609388E+01
    0.0000000000000000E+00   -0.1445243809615570E+01    0.3946240828834967E+01
    0.0000000000000000E+00   -0.3455338993778935E+00    0.4092527262848217E+01
    0.0000000000000000E+00    0.6277660831404320E+00    0.4293103109154542E+01
    0.0000000000000000E+00    0.7429886854239611E+00    0.3241512314643519E+01
    0.0000000000000000E+00   -0.1588117879734118E+01    0.2844289952419609E+01
    0.0000000000000000E+00   -0.6002320124191652E+00    0.7159905765450471E+00
    0.0000000000000000E+00   -0.7398147869923652E+00    0.1754341919796891E+01
    0.0000000000000000E+00   -0.1788622905643739E+01    0.1870296826774691E+01
    0.0000000000000000E+00    0.3083720183248586E+00    0.9220614901912976E+00
    0.0000000000000000E+00    0.1777901774806180E+01    0.3101523624086016E+01
    0.0000000000000000E+00    0.1576861561598471E+01    0.2192512063922564E+01
[...]
POINT_DATA 213
SCALARS rho double 1
LOOKUP_TABLE default
   0.1344272811516331E+01
   0.9569772470826359E+00
   0.9462966740762715E+00
   0.9418613080987472E+00
   0.8437299622216684E+00
   0.7737999293293870E+00
   0.7629813707270233E+00
   0.7664572291080979E+00
   0.8307867990849866E+00
   0.9352970764059804E+00
   0.9342222746934320E+00
   0.9617204292681149E+00
   0.1449458946295256E+01
   0.1494092881475706E+01
   0.1644670103411310E+01
   0.1425834396816260E+01
   0.1009016268976557E+01
   0.9508812196452365E+00
   0.9436507255616202E+00
   0.9581570687735097E+00
   0.9415857227433387E+00
   0.1036378582722142E+01
   0.9256167577719200E+00
   0.9322353930381634E+00
   0.9537480362606738E+00
   0.9518769522157370E+00
   0.9348582788953671E+00
   0.9564026731863854E+00
   0.9376096808844191E+00
   0.9300667876287941E+00
   0.9445157937550032E+00
   0.8863506395868616E+00
   0.9423579155093982E+00
   0.9634990532762785E+00
   0.1008298347489222E+01
   0.1006735389451592E+01
   0.1001964884718637E+01
   0.1003219556329557E+01
   0.1004132111468572E+01
   0.1005228918259219E+01
   0.1004260519171120E+01
   0.1008308849056666E+01
   0.1023893451919892E+01
   0.1063555156651941E+01
   0.1019183408759020E+01
   0.1001780561333193E+01
   0.9643306027375927E+00
   0.1005283956315779E+01
   0.1000721195420337E+01
   0.1008742491986426E+01
   0.1008078907023868E+01
   0.1002349645063005E+01
   0.9979984879980162E+00
   0.1000583265349087E+01
   0.1001619884673550E+01
   0.9826891909357536E+00
   0.9842433356214705E+00
   0.9833311082374311E+00
   0.9788206855848057E+00
   0.9902641380033015E+00
   0.9934560864582603E+00
   0.1002012054017705E+01
   0.1002134732681089E+01
   0.1002276573360913E+01
   0.1001794955320015E+01
   0.1009778482838970E+01
   0.1006427940126039E+01
   0.9558772082534593E+00
   0.9249386601000327E+00
   0.1007036849007582E+01
   0.1004504989552235E+01
   0.9143631001442073E+00
   0.9089657058868853E+00
   0.8751678185605902E+00
   0.9767259416421372E+00
   0.1000451196121274E+01
   0.1005831243667602E+01
   0.1012882071558811E+01
   0.1011618337532708E+01
   0.1010438310516003E+01
   0.1005468517408884E+01
   0.9907599888268168E+00
   0.1005139766799305E+01
   0.9860554687948075E+00
   0.1005608566519513E+01
   0.1004248108937244E+01
   0.1002888724892219E+01
   0.1003345763467341E+01
   0.1003993095720766E+01
   0.1005102015522869E+01
   0.1003211733727977E+01
   0.1002663151501638E+01
   0.1002586114850766E+01
   0.1004061122546089E+01
   0.1004320582053268E+01
   0.1001641720941340E+01
   0.1002272854509807E+01
   0.1002543253989488E+01
   0.1003469208105047E+01
   0.1003372620997702E+01
   0.1003232299854502E+01
   0.1004423987690334E+01
   0.1004313258514371E+01
   0.1003660050904521E+01
   0.1003723076517646E+01
   0.1004329748828646E+01
   0.1004464939701772E+01
   0.1003623206291580E+01
   0.1064425971273292E+01
   0.1028473707789688E+01
   0.1009587225753135E+01
   0.1006639366325080E+01
   0.1163938468300994E+01
   0.1086091426620617E+01
   0.1007893793276238E+01
   0.1007245951458513E+01
   0.1006798604136236E+01
   0.1013018393872873E+01
   0.1019384216167470E+01
   0.1235208932494846E+01
   0.1032531509942860E+01
   0.1046680120838585E+01
   0.1200956726712478E+01
   0.1014719541091101E+01
   0.1032290857338436E+01
   0.1028095015580963E+01
   0.1014628463035675E+01
   0.1029217564344747E+01
   0.1001994534423509E+01
   0.9606924719902948E+00
   0.1006852800235074E+01
   0.1001327570595976E+01
   0.1010821941794543E+01
   0.1012247345823329E+01
   0.1000945843835082E+01
   0.9979116926338458E+00
   0.9980628722381715E+00
   0.1001183961535463E+01
   0.9841359123635072E+00
   0.9814872037164853E+00
   0.9648481187325395E+00
   0.9680874240709194E+00
   0.9914126328208528E+00
   0.9910856639141302E+00
   0.9925546319758294E+00
   0.1001727665802878E+01
   0.9993411693714788E+00
   0.9941415402592345E+00
   0.1007039857030855E+01
   0.1022540992346311E+01
   0.1001088335945864E+01
   0.1008798759254232E+01
   0.1004773779245845E+01
   0.1009050472487837E+01
   0.9966476385087657E+00
   0.1004988846888920E+01
   0.1003325514956227E+01
   0.9949431083315645E+00
   0.9832679439134726E+00
   0.9943957350975043E+00
   0.9973419814623452E+00
   0.9932184528129577E+00
   0.1001306230655800E+01
   0.1003001445453245E+01
   0.1002183336803905E+01
   0.9947074633564367E+00
   0.9937965302207646E+00
   0.1004867804474431E+01
   0.1020078624502863E+01
   0.1005365194899797E+01
   0.9816998530173139E+00
   0.1004973156373907E+01
   0.1012382659084198E+01
   0.9871418906958810E+00
   0.9551509052578342E+00
   0.9865075700145717E+00
   0.9864534426742636E+00
   0.9918944857385776E+00
   0.9933508168544408E+00
   0.9954409578489636E+00
   0.1037338866244621E+01
   0.1033537544622902E+01
   0.1001443097605894E+01
   0.1001930324328233E+01
   0.9912473208693178E+00
   0.9910918873829878E+00
   0.9648483827845225E+00
   0.9933274689378113E+00
   0.1006058241533238E+01
   0.1001953761842697E+01
   0.9908735342491536E+00
   0.9740939652875047E+00
   0.9418794309180596E+00
   0.9819377124651453E+00
   0.9794801797304719E+00
   0.9704169616459998E+00
   0.9720476409094534E+00
   0.9557345513608071E+00
   0.9496725729900629E+00
   0.9528671551699348E+00
   0.1002659424519290E+01
   0.1002471440889678E+01
   0.1000509096331958E+01
   0.1001677129906243E+01
   0.9607926682630981E+00
   0.9491621876242017E+00
   0.9584500824819836E+00
   0.1001120970894243E+01
   0.1000495871717664E+01
   0.1001156478700244E+01
   0.9807376520642711E+00
   0.9805999778715817E+00
   0.9628472683197155E+00
SCALARS u double 1
LOOKUP_TABLE default
   0.0000000000000000E+00
   0.0000000000000000E+00
   0.0000000000000000E+00
   0.0000000000000000E+00
   0.0000000000000000E+00
   0.0000000000000000E+00
   0.0000000000000000E+00
   0.0000000000000000E+00
   0.0000000000000000E+00
   0.0000000000000000E+00
   0.0000000000000000E+00
   0.0000000000000000E+00
   0.0000000000000000E+00
   0.0000000000000000E+00
   0.0000000000000000E+00
   0.0000000000000000E+00
   0.0000000000000000E+00
   0.0000000000000000E+00
   0.0000000000000000E+00
   0.0000000000000000E+00
   0.0000000000000000E+00
   0.0000000000000000E+00
   0.0000000000000000E+00
   0.0000000000000000E+00
   0.0000000000000000E+00
   0.0000000000000000E+00
   0.0000000000000000E+00
   0.0000000000000000E+00
   0.0000000000000000E+00
   0.0000000000000000E+00
   0.0000000000000000E+00
   0.0000000000000000E+00
   0.0000000000000000E+00
   0.4950172638903360E+00
   0.5338214874736249E+00
   0.5183274434870140E+00
   0.4930669695000034E+00
   0.4847607847316323E+00
   0.4867679924353447E+00
   0.4890760648269298E+00
   0.4957843057902449E+00
   0.4898292903119356E+00
   0.4717392022570730E+00
   0.4454815916095788E+00
   0.4833883768388347E+00
   0.5098415389588408E+00
   0.4390715536363283E+00
   0.4949404454477360E+00
   0.5225340664293658E+00
   0.4962459884373957E+00
   0.5226153789108192E+00
   0.5038894192145414E+00
   0.5646876752197989E+00
   0.5247523451586490E+00
   0.4991485487878812E+00
   0.5730543343313133E+00
   0.5696028011668871E+00
   0.3737938033208733E+00
   0.3998659296663356E+00
   0.5599309809859979E+00
   0.5564588854340067E+00
   0.4942645997582766E+00
   0.4948679590739629E+00
   0.4925754561198344E+00
   0.4914291242275297E+00
   0.5162364430560370E+00
   0.5361791982482282E+00
   0.4947407570211324E+00
   0.4524112367890434E+00
   0.5128786546867070E+00
   0.5117951371150634E+00
   0.4783515083617337E+00
   0.4931694111647616E+00
   0.4603173845163931E+00
   0.5244884767022553E+00
   0.5297427416422666E+00
   0.5129587312130043E+00
   0.5328355433192938E+00
   0.5308939086787230E+00
   0.5309854265093863E+00
   0.5063665956360310E+00
   0.5282452682194039E+00
   0.5410305710329786E+00
   0.5361251400004300E+00
   0.5374096188741848E+00
   0.4965361396582362E+00
   0.4975336637647578E+00
   0.4963836825412711E+00
   0.4955213515001370E+00
   0.4904578424694699E+00
   0.4903056242274756E+00
   0.4862209722353880E+00
   0.4854081537911261E+00
   0.4932158812873375E+00
   0.4909829240871726E+00
   0.4832226938357587E+00
   0.4872657711340121E+00
   0.4880162514050300E+00
   0.4872472491217962E+00
   0.4882713600869362E+00
   0.4952591363156980E+00
   0.4900968937948395E+00
   0.4904002775618010E+00
   0.4944226492746733E+00
   0.4868023899710495E+00
   0.4892394674819502E+00
   0.4881402139185108E+00
   0.4878479987873571E+00
   0.4446853082758866E+00
   0.4700034785479413E+00
   0.4891993976391497E+00
   0.4885239337433631E+00
   0.4506504399763394E+00
   0.4687346790374465E+00
   0.4877005816242522E+00
   0.4868348627963109E+00
   0.4908987764281647E+00
   0.4793553515187572E+00
   0.4658086279970028E+00
   0.3792686777889940E+00
   0.4901595180550478E+00
   0.4486716846339154E+00
   0.4436109446187567E+00
   0.4845141312937598E+00
   0.4621842309314009E+00
   0.4665773177110420E+00
   0.4748147386753751E+00
   0.4894472316624945E+00
   0.5085578696656913E+00
   0.4315070791643489E+00
   0.4927351820441236E+00
   0.5318295803114172E+00
   0.4913405959502955E+00
   0.5207017366643649E+00
   0.5060978343951106E+00
   0.5688787375666570E+00
   0.5274006911420891E+00
   0.5015064044099519E+00
   0.5821765618152499E+00
   0.5689594310512426E+00
   0.3406394935734229E+00
   0.3789867215029072E+00
   0.5751937779523213E+00
   0.5666480028790032E+00
   0.5704101010988983E+00
   0.5291064426873308E+00
   0.5451904136940402E+00
   0.5718792455331204E+00
   0.5389072945885282E+00
   0.5475484002755331E+00
   0.5821688357564058E+00
   0.4925609248831574E+00
   0.5042166018459733E+00
   0.4961741596349600E+00
   0.5565198905373578E+00
   0.4758833187073593E+00
   0.4950276856623836E+00
   0.5498528648739063E+00
   0.5891181954472611E+00
   0.5841943466862786E+00
   0.5469098039700038E+00
   0.5805396041541577E+00
   0.5106265445770819E+00
   0.5030211471514917E+00
   0.5033643334308467E+00
   0.5676433680734677E+00
   0.5563942522607043E+00
   0.4947263460227596E+00
   0.5505235077193067E+00
   0.5510849917663176E+00
   0.5657330509417711E+00
   0.4920073447223609E+00
   0.4927307508483353E+00
   0.3865134539511181E+00
   0.3687749348590081E+00
   0.5574899166756910E+00
   0.5763741951657568E+00
   0.4194299772768851E+00
   0.5824824199753627E+00
   0.4265198116523427E+00
   0.5392780304546391E+00
   0.5012004078686632E+00
   0.5119527506408391E+00
   0.5049133723977722E+00
   0.5751953383221033E+00
   0.5876354243855052E+00
   0.5379890273962767E+00
   0.5677452593846501E+00
   0.5351251847301111E+00
   0.5338062103035468E+00
   0.5580316874434431E+00
   0.5512691863883513E+00
   0.4261854604185438E+00
   0.5273341537796320E+00
   0.5795693048378712E+00
   0.3318681539638411E+00
   0.4760270105112146E+00
   0.5446181489161160E+00
   0.4798326878139227E+00
   0.3005293008532284E+00
   0.5031068082722511E+00
   0.5017129507489124E+00
   0.5129049593546247E+00
   0.5414836821498082E+00
   0.3437602902927523E+00
   0.3397709237626653E+00
   0.3189930698918262E+00
   0.5065951681003271E+00
   0.5123502380110442E+00
   0.5330322781490250E+00
   0.5879287047831575E+00
   0.4644166840604787E+00
   0.3531264974970846E+00
SCALARS v double 1
LOOKUP_TABLE default
   0.0000000000000000E+00
   0.0000000000000000E+00
   0.0000000000000000E+00
   0.0000000000000000E+00
   0.0000000000000000E+00
   0.0000000000000000E+00
   0.0000000000000000E+00
   0.0000000000000000E+00
   0.0000000000000000E+00
   0.0000000000000000E+00
   0.0000000000000000E+00
   0.0000000000000000E+00
   0.0000000000000000E+00
   0.0000000000000000E+00
   0.0000000000000000E+00
   0.0000000000000000E+00
   0.0000000000000000E+00
   0.0000000000000000E+00
   0.0000000000000000E+00
   0.0000000000000000E+00
   0.0000000000000000E+00
   0.0000000000000000E+00
   0.0000000000000000E+00
   0.0000000000000000E+00
   0.0000000000000000E+00
   0.0000000000000000E+00
   0.0000000000000000E+00
   0.0000000000000000E+00
   0.0000000000000000E+00
   0.0000000000000000E+00
   0.0000000000000000E+00
   0.0000000000000000E+00
   0.0000000000000000E+00
   0.0000000000000000E+00
   0.0000000000000000E+00
   0.0000000000000000E+00
   0.0000000000000000E+00
   0.0000000000000000E+00
   0.0000000000000000E+00
   0.0000000000000000E+00
   0.0000000000000000E+00
   0.0000000000000000E+00
   0.0000000000000000E+00
   0.0000000000000000E+00
   0.0000000000000000E+00
   0.0000000000000000E+00
   0.0000000000000000E+00
   0.0000000000000000E+00
   0.0000000000000000E+00
   0.0000000000000000E+00
   0.0000000000000000E+00
   0.0000000000000000E+00
   0.0000000000000000E+00
   0.0000000000000000E+00
   0.0000000000000000E+00
   0.0000000000000000E+00
   0.0000000000000000E+00
   0.0000000000000000E+00
   0.0000000000000000E+00
   0.0000000000000000E+00
   0.0000000000000000E+00
   0.7970881551828523E-03
  -0.1328927606167610E-02
  -0.1332248547492115E-02
   0.0000000000000000E+00
   0.0000000000000000E+00
   0.0000000000000000E+00
   0.0000000000000000E+00
  -0.1922546408099361E-01
   0.4772089974325428E-03
   0.2183093797806789E-02
   0.1427315741240815E-01
  -0.6488275798135823E-02
  -0.7821528833426855E-02
  -0.1327712533105412E-01
   0.4914229301219098E-02
   0.6907852779409149E-03
   0.3434193456378425E-02
   0.1920807879474427E-02
   0.3147691786258494E-02
   0.1704743127376202E-02
  -0.7316055927822601E-02
  -0.7723743546077648E-04
   0.4468475539798009E-02
  -0.4389389607443053E-03
  -0.6396446981461547E-04
  -0.1964343056782057E-03
   0.8071705590896586E-03
   0.0000000000000000E+00
   0.0000000000000000E+00
   0.0000000000000000E+00
   0.0000000000000000E+00
   0.4255932931174700E-03
   0.1616311643150598E-02
  -0.1297392945308595E-02
  -0.1022426297953535E-02
  -0.2133740761602514E-02
  -0.1063724362357918E-02
  -0.8197728248931316E-03
  -0.7614664411223322E-03
   0.5207094905542720E-04
  -0.6241781817600662E-03
   0.7916143825819183E-03
  -0.1745176501622465E-02
   0.2746728855264207E-03
  -0.8927953512669577E-04
  -0.9421610556147399E-03
  -0.1099828744687784E-02
   0.0000000000000000E+00
   0.0000000000000000E+00
   0.0000000000000000E+00
  -0.1061587694422269E-02
  -0.7641221531724770E-02
   0.1860808983717408E-01
  -0.2827077814902153E-04
  -0.1382997228627035E-02
  -0.2034978229844864E-02
  -0.5665981060851176E-02
  -0.1585356477151159E-02
  -0.5946813291818739E-02
  -0.4160208757639806E-02
   0.1565443278289073E-02
   0.3329502036117021E-01
   0.3056943130101634E-04
  -0.2766290608367071E-02
   0.3566767189204608E-02
   0.3599197579637181E-03
   0.0000000000000000E+00
   0.0000000000000000E+00
   0.0000000000000000E+00
   0.0000000000000000E+00
   0.0000000000000000E+00
   0.0000000000000000E+00
   0.0000000000000000E+00
   0.0000000000000000E+00
   0.0000000000000000E+00
   0.0000000000000000E+00
   0.0000000000000000E+00
   0.0000000000000000E+00
   0.0000000000000000E+00
   0.0000000000000000E+00
   0.0000000000000000E+00
   0.0000000000000000E+00
   0.0000000000000000E+00
   0.5046826165470735E-02
   0.3230744437937976E-02
   0.8149021179151018E-02
   0.6168163404578965E-02
   0.1122922208284392E-01
   0.1429255265188064E-01
  -0.2038895579342088E-03
   0.5118214866488969E-02
   0.2914946555726885E-02
   0.3373721621476874E-02
   0.3728376583721020E-02
  -0.1465691917040587E-01
  -0.6158413683403462E-03
   0.6651403710464335E-02
   0.1541894412497331E-02
   0.1969622115571627E-02
   0.4266038468325445E-02
  -0.2790971115580364E-02
   0.1227001847968375E-02
   0.2819145050809220E-02
   0.1497381288442571E-02
   0.2575090989003479E-02
   0.2030543074627126E-02
   0.2118137947719696E-02
   0.8700317539774021E-02
  -0.3733277913345938E-02
   0.6240987867464089E-02
   0.2523900955000695E-04
  -0.3854047636692671E-03
  -0.1674661592462860E-01
  -0.4882013675355863E-02
  -0.4719999343893443E-02
   0.3445195844229434E-02
  -0.6135439382819512E-02
   0.9938181004460197E-04
  -0.3291342518127460E-01
  -0.3046237545124752E-02
   0.4722560531946365E-02
   0.9228295880024141E-03
   0.2112087492014176E-02
   0.4518512974296158E-02
   0.2720383132213793E-02
   0.3212526027076847E-02
   0.5200535321547334E-02
   0.1941867723701949E-02
   0.7316978147676340E-03
  -0.2541804716337436E-04
  -0.5374563864569401E-02
  -0.6959621347022203E-02
  -0.9443285308037686E-03
   0.1105174385828369E-02
  -0.2080518976695586E-02
  -0.3199978959570780E-02
  -0.2527843675647669E-02
  -0.4115133748300569E-02
  -0.7593905709852631E-02
  -0.1985514849502376E-02
   0.6241824644577182E-03
  -0.2237520887260017E-03
   0.1216768895136910E-02
  -0.3483907525032167E-02
   0.5229194928841341E-02
  -0.8487500509082143E-02
   0.2324414525805273E-04
  -0.3393965119525977E-03
   0.2542438047824302E-02
   0.1663427338262477E-02
   0.2021369489348267E-02
  -0.5620759712309998E-02
SCALARS w double 1
LOOKUP_TABLE default
   0.0000000000000000E+00
   0.0000000000000000E+00
   0.0000000000000000E+00
   0.0000000000000000E+00
   0.0000000000000000E+00
   0.0000000000000000E+00
   0.0000000000000000E+00
   0.0000000000000000E+00
   0.0000000000000000E+00
   0.0000000000000000E+00
   0.0000000000000000E+00
   0.0000000000000000E+00
   0.0000000000000000E+00
   0.0000000000000000E+00
   0.0000000000000000E+00
   0.0000000000000000E+00
   0.0000000000000000E+00
   0.0000000000000000E+00
   0.0000000000000000E+00
   0.0000000000000000E+00
   0.0000000000000000E+00
   0.0000000000000000E+00
   0.0000000000000000E+00
   0.0000000000000000E+00
   0.0000000000000000E+00
   0.0000000000000000E+00
   0.0000000000000000E+00
   0.0000000000000000E+00
   0.0000000000000000E+00
   0.0000000000000000E+00
   0.0000000000000000E+00
   0.0000000000000000E+00
   0.0000000000000000E+00
  -0.1007606531607930E+00
  -0.4249295236400211E-01
   0.7368150509703071E-03
   0.5726242698921550E-02
   0.5700162315006329E-03
   0.1609731715307689E-02
   0.3375009073709187E-02
   0.2372031491735156E-02
   0.4590271275902798E-03
   0.3519827341201084E-02
   0.4522187405074111E-01
   0.6522883775014844E-01
   0.8693008922518854E-03
  -0.2261154823214939E-01
   0.4317187985110734E-02
   0.1358874962818426E-01
   0.1039564313589900E-01
   0.4900638283605165E-01
   0.2438312265183670E-02
  -0.6509589394614355E-02
  -0.7001778682524685E-03
   0.3417603138319599E-03
   0.3903953638370834E-02
  -0.3893229341421337E-01
   0.1798161188259557E-01
   0.1119618819406575E-01
   0.3403760803922764E-01
   0.8439704788085133E-02
   0.4937976912396089E-02
   0.4971160179862676E-02
   0.4872108416929009E-02
   0.6027660526778882E-02
   0.2598781309267217E-02
  -0.4144439509605414E-01
  -0.9954209704043958E-01
  -0.1121673751248490E+00
   0.5070523896991461E-02
   0.4230416487820591E-02
  -0.1004728854370109E+00
  -0.9895249249953195E-01
  -0.9875437467714206E-01
  -0.9462473484502104E-01
  -0.6807110511818697E-01
   0.5154593338782869E-02
  -0.1935392510625211E-01
  -0.1575855817338075E-01
  -0.6003517848514057E-02
   0.6818872107728237E-02
  -0.8010017127855314E-01
  -0.2781134256876065E-01
  -0.8096441843197859E-01
  -0.5873296599550634E-01
   0.3084004974988003E-02
   0.2685422962799111E-02
   0.2640547470111297E-02
   0.3450230360735687E-02
   0.4007024982196880E-02
   0.1201196424498338E-02
  -0.1438534385147828E-03
   0.2040301190967598E-02
   0.4895693922297838E-02
   0.3857469229883061E-02
   0.1114652777823545E-02
   0.1183284454654680E-02
   0.1466073930139488E-02
  -0.1607429444960825E-04
   0.9002574121284331E-04
   0.4386925187432810E-02
   0.2715852311639057E-02
   0.2322825873377423E-02
   0.5010683513907352E-02
   0.1071677177032606E-02
   0.2712257859764842E-02
   0.2014268541577070E-02
   0.2906374098611577E-04
   0.8374885239189575E-01
   0.2795300483182083E-02
  -0.8344489517770058E-03
  -0.1490794972392175E-03
   0.1409550007073429E+00
   0.1239334113162299E+00
  -0.1218694323557959E-02
  -0.4381668764330688E-02
  -0.3041272167789345E-03
  -0.6511227408923044E-02
  -0.1947611010535130E-02
   0.1557642513574013E+00
   0.7490247879943913E-01
   0.2550559423868094E-01
   0.1656450917668621E+00