# vtk DataFile Version 2.0
FUN3D:global_image_vtk
ASCII
DATASET UNSTRUCTURED_GRID
POINTS 213 double
    0.0000000000000000E+00    0.2500000000000000E+01    0.0000000000000000E+00
    0.1250000000000000E+01    0.2500000000000000E+01    0.0000000000000000E+00
    0.2500000000000000E+01    0.2500000000000000E+01    0.0000000000000000E+00
    0.3750000000000000E+01    0.2500000000000000E+01    0.0000000000000000E+00
    0.5000000000000000E+01    0.2500000000000000E+01    0.0000000000000000E+00
    0.5000000000000000E+01    0.1250000000000000E+01    0.0000000000000000E+00
    0.5000000000000000E+01    0.0000000000000000E+00    0.0000000000000000E+00
    0.5000000000000000E+01   -0.1250000000000000E+01    0.0000000000000000E+00
    0.5000000000000000E+01   -0.2500000000000000E+01    0.0000000000000000E+00
    0.3750000000000000E+01   -0.2500000000000000E+01    0.0000000000000000E+00
    0.2500000000000000E+01   -0.2500000000000000E+01    0.0000000000000000E+00
    0.1250000000000000E+01   -0.2500000000000000E+01    0.0000000000000000E+00
    0.0000000000000000E+00   -0.2500000000000000E+01    0.0000000000000000E+00
    0.0000000000000000E+00   -0.1250000000000000E+01    0.0000000000000000E+00
    0.0000000000000000E+00    0.0000000000000000E+00    0.0000000000000000E+00
    0.0000000000000000E+00    0.1250000000000000E+01    0.0000000000000000E+00
    0.9058375365086910E+00    0.1578994732800803E+01    0.0000000000000000E+00
    0.3982050490726493E+01   -0.1583989954232354E+01    0.0000000000000000E+00
    0.4033849428301197E+01    0.1453322699199022E+01    0.0000000000000000E+00
    0.1040505887381675E+01   -0.1479596339503735E+01    0.0000000000000000E+00
    0.1099454400140349E+01   -0.3227322616384110E+00    0.0000000000000000E+00
    0.7354504170366591E+00    0.6593508822075582E+00    0.0000000000000000E+00
    0.1622302608453282E+01    0.8256214013940779E+00    0.0000000000000000E+00
    0.2145871574390382E+01   -0.1650070333782557E+01    0.0000000000000000E+00
    0.4086422318222992E+01   -0.4612828702537229E+00    0.0000000000000000E+00
    0.2979540174134984E+01   -0.8579242121530853E+00    0.0000000000000000E+00
    0.3045064261640043E+01   -0.1836846154397680E+01    0.0000000000000000E+00
    0.3428197553792836E+01    0.3508002863614053E+00    0.0000000000000000E+00
    0.4309693860063405E+01    0.5185680230613409E+00    0.0000000000000000E+00
    0.1827272193562204E+01    0.1738996113203182E+01    0.0000000000000000E+00
    0.2808563282768077E+01    0.1325493893339706E+01    0.0000000000000000E+00
    0.1895995683864404E+01   -0.8731419609589618E+00    0.0000000000000000E+00
    0.2273179336307740E+01    0.4906150219227333E-01    0.0000000000000000E+00
    0.5000000000000000E+01    0.2500000000000000E+01    0.1250000000000000E+01
    0.5000000000000000E+01    0.2500000000000000E+01    0.2500000000000000E+01
    0.5000000000000000E+01    0.2500000000000000E+01    0.3750000000000000E+01
    0.5000000000000000E+01    0.2500000000000000E+01    0.5000000000000000E+01
    0.3750000000000000E+01    0.2500000000000000E+01    0.5000000000000000E+01
    0.2500000000000000E+01    0.2500000000000000E+01    0.5000000000000000E+01
    0.1250000000000000E+01    0.2500000000000000E+01    0.5000000000000000E+01
    0.0000000000000000E+00    0.2500000000000000E+01    0.5000000000000000E+01
    0.0000000000000000E+00    0.2500000000000000E+01    0.3750000000000000E+01
    0.0000000000000000E+00    0.2500000000000000E+01    0.2500000000000000E+01
    0.0000000000000000E+00    0.2500000000000000E+01    0.1250000000000000E+01
    0.9631080833812172E+00    0.2500000000000000E+01    0.9613285771248219E+00
    0.3981732467264904E+01    0.2500000000000000E+01    0.4069753913607991E+01
    0.4035525118777670E+01    0.2500000000000000E+01    0.1012015867579395E+01
    0.9641717640894248E+00    0.2500000000000000E+01    0.3972455192261839E+01
    0.1547743040396780E+01    0.2500000000000000E+01    0.2928177746738678E+01
    0.6985170616192014E+00    0.2500000000000000E+01    0.3068281976055466E+01
    0.8931277594515110E+00    0.2500000000000000E+01    0.2052465503257726E+01
    0.2183293750162785E+01    0.2500000000000000E+01    0.3959073795658649E+01
    0.3855333506014705E+01    0.2500000000000000E+01    0.2931218481500625E+01
    0.3152495579421047E+01    0.2500000000000000E+01    0.3635850502723324E+01
    0.3103247580566054E+01    0.2500000000000000E+01    0.4331682712472464E+01
    0.3266837581688852E+01    0.2500000000000000E+01    0.1886092433583972E+01
    0.4231539241296245E+01    0.2500000000000000E+01    0.1915865356532799E+01
    0.1909741006522088E+01    0.2500000000000000E+01    0.7170024419130505E+00
    0.2880784107213163E+01    0.2500000000000000E+01    0.9046598906449592E+00
    0.2014316024535771E+01    0.2500000000000000E+01    0.1762464314805728E+01
    0.2670003247036656E+01    0.2500000000000000E+01    0.2850479545835163E+01
    0.5000000000000000E+01    0.1250000000000000E+01    0.5000000000000000E+01
    0.5000000000000000E+01    0.0000000000000000E+00    0.5000000000000000E+01
    0.5000000000000000E+01   -0.1250000000000000E+01    0.5000000000000000E+01
    0.5000000000000000E+01   -0.2500000000000000E+01    0.5000000000000000E+01
    0.5000000000000000E+01   -0.2500000000000000E+01    0.3750000000000000E+01
    0.5000000000000000E+01   -0.2500000000000000E+01    0.2500000000000000E+01
    0.5000000000000000E+01   -0.2500000000000000E+01    0.1250000000000000E+01
    0.5000000000000000E+01    0.1578994732800803E+01    0.9058375365086910E+00
    0.5000000000000000E+01   -0.1583989954232354E+01    0.3982050490726493E+01
    0.5000000000000000E+01    0.1453322699199022E+01    0.4033849428301197E+01
    0.5000000000000000E+01   -0.1479596339503735E+01    0.1040505887381675E+01
    0.5000000000000000E+01   -0.3227322616384110E+00    0.1099454400140349E+01
    0.5000000000000000E+01    0.6593508822075582E+00    0.7354504170366591E+00
    0.5000000000000000E+01    0.8256214013940779E+00    0.1622302608453282E+01
    0.5000000000000000E+01   -0.1650070333782557E+01    0.2145871574390382E+01
    0.5000000000000000E+01   -0.4612828702537229E+00    0.4086422318222992E+01
    0.5000000000000000E+01   -0.8579242121530853E+00    0.2979540174134984E+01
    0.5000000000000000E+01   -0.1836846154397680E+01    0.3045064261640043E+01
    0.5000000000000000E+01    0.3508002863614053E+00    0.3428197553792836E+01
    0.5000000000000000E+01    0.5185680230613409E+00    0.4309693860063405E+01
    0.5000000000000000E+01    0.1738996113203182E+01    0.1827272193562204E+01
    0.5000000000000000E+01    0.1325493893339706E+01    0.2808563282768077E+01
    0.5000000000000000E+01   -0.8731419609589618E+00    0.1895995683864404E+01
    0.5000000000000000E+01    0.4906150219227333E-01    0.2273179336307740E+01
    0.0000000000000000E+00    0.1250000000000000E+01    0.5000000000000000E+01
    0.0000000000000000E+00    0.0000000000000000E+00    0.5000000000000000E+01
    0.0000000000000000E+00   -0.1250000000000000E+01    0.5000000000000000E+01
    0.0000000000000000E+00   -0.2500000000000000E+01    0.5000000000000000E+01
    0.1250000000000000E+01   -0.2500000000000000E+01    0.5000000000000000E+01
    0.2500000000000000E+01   -0.2500000000000000E+01    0.5000000000000000E+01
    0.3750000000000000E+01   -0.2500000000000000E+01    0.5000000000000000E+01
    0.4042003247744892E+01    0.1558308132739014E+01    0.5000000000000000E+01
    0.9304122287900499E+00   -0.1548001304379777E+01    0.5000000000000000E+01
    0.1037243024609388E+01    0.1462892710085612E+01    0.5000000000000000E+01
    0.3946240828834967E+01   -0.1445243809615570E+01    0.5000000000000000E+01
    0.4092527262848217E+01   -0.3455338993778935E+00    0.5000000000000000E+01
    0.4293103109154542E+01    0.6277660831404320E+00    0.5000000000000000E+01
    0.3241512314643519E+01    0.7429886854239611E+00    0.5000000000000000E+01
    0.2844289952419609E+01   -0.1588117879734118E+01    0.5000000000000000E+01
    0.7159905765450471E+00   -0.6002320124191652E+00    0.5000000000000000E+01
    0.1754341919796891E+01   -0.7398147869923652E+00    0.5000000000000000E+01
    0.1870296826774691E+01   -0.1788622905643739E+01    0.5000000000000000E+01
    0.9220614901912976E+00    0.3083720183248586E+00    0.5000000000000000E+01
    0.3101523624086016E+01    0.1777901774806180E+01    0.5000000000000000E+01
    0.2192512063922564E+01    0.1576861561598471E+01    0.5000000000000000E+01
    0.2024793420196460E+01    0.4773861992750707E+00    0.5000000000000000E+01
    0.2990627757741975E+01   -0.4878110785814084E+00    0.5000000000000000E+01
    0.0000000000000000E+00   -0.2500000000000000E+01    0.1250000000000000E+01
    0.0000000000000000E+00   -0.2500000000000000E+01    0.2500000000000000E+01
    0.0000000000000000E+00   -0.2500000000000000E+01    0.3750000000000000E+01
    0.0000000000000000E+00    0.1558308132739014E+01    0.4042003247744892E+01
    0.0000000000000000E+00   -0.1548001304379777E+01    0.9304122287900499E+00
    0.0000000000000000E+00    0.1462892710085612E+01    0.1037243024609388E+01
    0.0000000000000000E+00   -0.1445243809615570E+01    0.3946240828834967E+01
    0.0000000000000000E+00   -0.3455338993778935E+00    0.4092527262848217E+01
    0.0000000000000000E+00    0.6277660831404320E+00    0.4293103109154542E+01
    0.0000000000000000E+00    0.7429886854239611E+00    0.3241512314643519E+01
    0.0000000000000000E+00   -0.1588117879734118E+01    0.2844289952419609E+01
    0.0000000000000000E+00   -0.6002320124191652E+00    0.7159905765450471E+00
    0.0000000000000000E+00   -0.7398147869923652E+00    0.1754341919796891E+01
    0.0000000000000000E+00   -0.1788622905643739E+01    0.1870296826774691E+01
    0.0000000000000000E+00    0.3083720183248586E+00    0.9220614901912976E+00
    0.0000000000000000E+00    0.1777901774806180E+01    0.3101523624086016E+01
    0.0000000000000000E+00    0.1576861561598471E+01    0.2192512063922564E+01
[...]
POINT_DATA 213
SCALARS rho double 1
LOOKUP_TABLE default
   0.1344272808616878E+01
   0.9569772453175294E+00
   0.9462966723552255E+00
   0.9418613073701304E+00
   0.8437299622927689E+00
   0.7737999246034258E+00
   0.7629813661304484E+00
   0.7664572277503726E+00
   0.8307867967862070E+00
   0.9352970755191998E+00
   0.9342222746088139E+00
   0.9617204271421163E+00
   0.1449458937283533E+01
   0.1494092876170472E+01
   0.1644670096161043E+01
   0.1425834389062029E+01
   0.1009016266902092E+01
   0.9508812184070646E+00
   0.9436507235074850E+00
   0.9581570664076478E+00
   0.9415857213116779E+00
   0.1036378579286615E+01
   0.9256167557195129E+00
   0.9322353912854425E+00
   0.9537480352826163E+00
   0.9518769503591429E+00
   0.9348582778715534E+00
   0.9564026716110466E+00
   0.9376096788972018E+00
   0.9300667862174150E+00
   0.9445157931116136E+00
   0.8863506391973957E+00
   0.9423579140713291E+00
   0.9634990616847933E+00
   0.1008298347171922E+01
   0.1006735388741336E+01
   0.1001964886775174E+01
   0.1003219556715506E+01
   0.1004132110957278E+01
   0.1005228918213106E+01
   0.1004260518979442E+01
   0.1008308848976466E+01
   0.1023893451718799E+01
   0.1063555156408838E+01
   0.1019183408495578E+01
   0.1001780560965939E+01
   0.9643306142103326E+00
   0.1005283956200588E+01
   0.1000721195429439E+01
   0.1008742491884351E+01
   0.1008078907004071E+01
   0.1002349645077532E+01
   0.9979984879926143E+00
   0.1000583265700147E+01
   0.1001619884522808E+01
   0.9826891900961039E+00
   0.9842433367328622E+00
   0.9833311071904476E+00
   0.9788206873394598E+00
   0.9902641376756973E+00
   0.9934560864634274E+00
   0.1002012056537233E+01
   0.1002134734213402E+01
   0.1002276573261005E+01
   0.1001794955138654E+01
   0.1009778483756061E+01
   0.1006427940214405E+01
   0.9558772082347702E+00
   0.9249386615851884E+00
   0.1007036849570239E+01
   0.1004504989578092E+01
   0.9143630991701901E+00
   0.9089657054905563E+00
   0.8751678160065981E+00
   0.9767259404080760E+00
   0.1000451195945395E+01
   0.1005831244014327E+01
   0.1012882071481686E+01
   0.1011618337664703E+01
   0.1010438310528373E+01
   0.1005468517964871E+01
   0.9907599876253541E+00
   0.1005139766829288E+01
   0.9860554685772414E+00
   0.1005608566687741E+01
   0.1004248108881795E+01
   0.1002888724724415E+01
   0.1003345763221863E+01
   0.1003993095621258E+01
   0.1005102015374793E+01
   0.1003211733607723E+01
   0.1002663150480540E+01
   0.1002586116458385E+01
   0.1004061122564570E+01
   0.1004320581697667E+01
   0.1001641720094769E+01
   0.1002272855049856E+01
   0.1002543255080408E+01
   0.1003469207895537E+01
   0.1003372620548689E+01
   0.1003232299846526E+01
   0.1004423987233170E+01
   0.1004313258263082E+01
   0.1003660050701407E+01
   0.1003723076244298E+01
   0.1004329748624275E+01
   0.1004464939565433E+01
   0.1003623205853819E+01
   0.1064425971613830E+01
   0.1028473707370278E+01
   0.1009587225616304E+01
   0.1006639366211308E+01
   0.1163938467311266E+01
   0.1086091426347705E+01
   0.1007893793041913E+01
   0.1007245951252254E+01
   0.1006798603977323E+01
   0.1013018393726258E+01
   0.1019384215818818E+01
   0.1235208930947092E+01
   0.1032531509974189E+01
   0.1046680120253821E+01
   0.1200956725623064E+01
   0.1014719540959672E+01
   0.1032290857067841E+01
   0.1028095015329463E+01
   0.1014628462795301E+01
   0.1029217563380528E+01
   0.1001994534767945E+01
   0.9606924718120287E+00
   0.1006852800071050E+01
   0.1001327570550179E+01
   0.1010821941572694E+01
   0.1012247345786307E+01
   0.1000945843640176E+01
   0.9979116926778864E+00
   0.9980628719491641E+00
   0.1001183961196658E+01
   0.9841359121880430E+00
   0.9814872037664953E+00
   0.9648481177016279E+00
   0.9680874233047655E+00
   0.9914126326369214E+00
   0.9910856639255921E+00
   0.9925546319958962E+00
   0.1001727665757367E+01
   0.9993411693666296E+00
   0.9941415403330924E+00
   0.1007039857060074E+01
   0.1022540992318656E+01
   0.1001088335903871E+01
   0.1008798759112214E+01
   0.1004773779187608E+01
   0.1009050472379972E+01
   0.9966476385839738E+00
   0.1004988846089480E+01
   0.1003325514821719E+01
   0.9949431083192051E+00
   0.9832679442057346E+00
   0.9943957354475300E+00
   0.9973419816801977E+00
   0.9932184527183037E+00
   0.1001306230696583E+01
   0.1003001445409345E+01
   0.1002183336737853E+01
   0.9947074634363969E+00
   0.9937965302744542E+00
   0.1004867804361150E+01
   0.1020078624518367E+01
   0.1005365194847518E+01
   0.9816998530359341E+00
   0.1004973156205103E+01
   0.1012382658862358E+01
   0.9871418898668585E+00
   0.9551509046431473E+00
   0.9865075698619423E+00
   0.9864534427413492E+00
   0.9918944847239427E+00
   0.9933508168171872E+00
   0.9954409567032367E+00
   0.1037338866196807E+01
   0.1033537544116679E+01
   0.1001443097966245E+01
   0.1001930324407574E+01
   0.9912473208067090E+00
   0.9910918873664134E+00
   0.9648483822488692E+00
   0.9933274688275553E+00
   0.1006058241644572E+01
   0.1001953762125407E+01
   0.9908735342172361E+00
   0.9740939638238809E+00
   0.9418794302884538E+00
   0.9819377120955829E+00
   0.9794801795879394E+00
   0.9704169609107465E+00
   0.9720476403266387E+00
   0.9557345513798593E+00
   0.9496725724164596E+00
   0.9528671541391494E+00
   0.1002659424262071E+01
   0.1002471440712586E+01
   0.1000509096304340E+01
   0.1001677130150348E+01
   0.9607926669461714E+00
   0.9491621866690969E+00
   0.9584500813918314E+00
   0.1001120970842424E+01
   0.1000495871509724E+01
   0.1001156478942262E+01
   0.9807376520307582E+00
   0.9805999772392128E+00
   0.9628472676104365E+00
SCALARS u double 1
LOOKUP_TABLE default
   0.0000000000000000E+00
   0.0000000000000000E+00
   0.0000000000000000E+00
   0.0000000000000000E+00
   0.0000000000000000E+00
   0.0000000000000000E+00
   0.0000000000000000E+00
   0.0000000000000000E+00
   0.0000000000000000E+00
   0.0000000000000000E+00
   0.0000000000000000E+00
   0.0000000000000000E+00
   0.0000000000000000E+00
   0.0000000000000000E+00
   0.0000000000000000E+00
   0.0000000000000000E+00
   0.0000000000000000E+00
   0.0000000000000000E+00
   0.0000000000000000E+00
   0.0000000000000000E+00
   0.0000000000000000E+00
   0.0000000000000000E+00
   0.0000000000000000E+00
   0.0000000000000000E+00
   0.0000000000000000E+00
   0.0000000000000000E+00
   0.0000000000000000E+00
   0.0000000000000000E+00
   0.0000000000000000E+00
   0.0000000000000000E+00
   0.0000000000000000E+00
   0.0000000000000000E+00
   0.0000000000000000E+00
   0.4950172543315065E+00
   0.5338214883180847E+00
   0.5183274420886176E+00
   0.4930669710721901E+00
   0.4847607882731315E+00
   0.4867679931881024E+00
   0.4890760655817666E+00
   0.4957843054305920E+00
   0.4898292905835399E+00
   0.4717392024357537E+00
   0.4454815919080097E+00
   0.4833883765426403E+00
   0.5098415345140143E+00
   0.4390715532565987E+00
   0.4949404454139950E+00
   0.5225340663458031E+00
   0.4962459885342810E+00
   0.5226153788711246E+00
   0.5038894189879995E+00
   0.5646876755990610E+00
   0.5247523443542870E+00
   0.4991485471200087E+00
   0.5730543341248722E+00
   0.5696028006572622E+00
   0.3737938031764044E+00
   0.3998659300892219E+00
   0.5599309808647317E+00
   0.5564588851669887E+00
   0.4942646028358220E+00
   0.4948679616502193E+00
   0.4925754566668404E+00
   0.4914291238735120E+00
   0.5162364428372448E+00
   0.5361791981557588E+00
   0.4947407569917571E+00
   0.4524112352019174E+00
   0.5128786541722112E+00
   0.5117951345342100E+00
   0.4783515092704744E+00
   0.4931694117014292E+00
   0.4603173868616081E+00
   0.5244884777279264E+00
   0.5297427416778892E+00
   0.5129587298306512E+00
   0.5328355430423580E+00
   0.5308939086166669E+00
   0.5309854252382007E+00
   0.5063665942479381E+00
   0.5282452696001583E+00
   0.5410305711012506E+00
   0.5361251401020074E+00
   0.5374096188164236E+00
   0.4965361396593997E+00
   0.4975336637500647E+00
   0.4963836825738189E+00
   0.4955213515603058E+00
   0.4904578425177966E+00
   0.4903056245301676E+00
   0.4862209715802178E+00
   0.4854081599353025E+00
   0.4932158815967101E+00
   0.4909829248423667E+00
   0.4832226948128318E+00
   0.4872657755670138E+00
   0.4880162578424025E+00
   0.4872472521766693E+00
   0.4882713600634864E+00
   0.4952591366167906E+00
   0.4900968941243291E+00
   0.4904002778695194E+00
   0.4944226499661325E+00
   0.4868023913376801E+00
   0.4892394690168955E+00
   0.4881402153197650E+00
   0.4878480005570413E+00
   0.4446853076574917E+00
   0.4700034789554942E+00
   0.4891993977687413E+00
   0.4885239337660710E+00
   0.4506504409739855E+00
   0.4687346793804599E+00
   0.4877005815496279E+00
   0.4868348628293217E+00
   0.4908987762647499E+00
   0.4793553517079444E+00
   0.4658086285098095E+00
   0.3792686785552030E+00
   0.4901595178981268E+00
   0.4486716850720653E+00
   0.4436109450417935E+00
   0.4845141314253009E+00
   0.4621842310970319E+00
   0.4665773179667131E+00
   0.4748147389832415E+00
   0.4894472311687217E+00
   0.5085578712619954E+00
   0.4315070798835810E+00
   0.4927351821498422E+00
   0.5318295804825955E+00
   0.4913405961943496E+00
   0.5207017365932854E+00
   0.5060978349961117E+00
   0.5688787376339721E+00
   0.5274006919080443E+00
   0.5015064052997839E+00
   0.5821765617503679E+00
   0.5689594311415938E+00
   0.3406394935395014E+00
   0.3789867216201785E+00
   0.5751937775655546E+00
   0.5666480029503617E+00
   0.5704101010592177E+00
   0.5291064425376009E+00
   0.5451904136429435E+00
   0.5718792454568624E+00
   0.5389072946180195E+00
   0.5475484002179988E+00
   0.5821688355493035E+00
   0.4925609249191462E+00
   0.5042166015989739E+00
   0.4961741596732350E+00
   0.5565198904210148E+00
   0.4758833180907927E+00
   0.4950276859878940E+00
   0.5498528646252628E+00
   0.5891181953590624E+00
   0.5841943468002616E+00
   0.5469098032064155E+00
   0.5805396043209049E+00
   0.5106265439695723E+00
   0.5030211468845210E+00
   0.5033643321452668E+00
   0.5676433678123335E+00
   0.5563942518398912E+00
   0.4947263459678168E+00
   0.5505235076304886E+00
   0.5510849915937654E+00
   0.5657330508581216E+00
   0.4920073448116152E+00
   0.4927307509358618E+00
   0.3865134537916767E+00
   0.3687749349659145E+00
   0.5574899166970348E+00
   0.5763741950227053E+00
   0.4194299771699274E+00
   0.5824824198250166E+00
   0.4265198111998108E+00
   0.5392780304776754E+00
   0.5012004078589117E+00
   0.5119527484105371E+00
   0.5049133720176274E+00
   0.5751953378710010E+00
   0.5876354242947731E+00
   0.5379890276352862E+00
   0.5677452592125242E+00
   0.5351251848089192E+00
   0.5338062094433488E+00
   0.5580316872370716E+00
   0.5512691862730058E+00
   0.4261854597559576E+00
   0.5273341536876740E+00
   0.5795693047751170E+00
   0.3318681543892519E+00
   0.4760270107186003E+00
   0.5446181491391887E+00
   0.4798326882201904E+00
   0.3005293013830280E+00
   0.5031068084844043E+00
   0.5017129506555621E+00
   0.5129049589596949E+00
   0.5414836806845229E+00
   0.3437602896615451E+00
   0.3397709246950375E+00
   0.3189930703831368E+00
   0.5065951685690372E+00
   0.5123502389539675E+00
   0.5330322775066477E+00
   0.5879287046171220E+00
   0.4644166840617779E+00
   0.3531264978313538E+00
SCALARS v double 1
LOOKUP_TABLE default
   0.0000000000000000E+00
   0.0000000000000000E+00
   0.0000000000000000E+00
   0.0000000000000000E+00
   0.0000000000000000E+00
   0.0000000000000000E+00
   0.0000000000000000E+00
   0.0000000000000000E+00
   0.0000000000000000E+00
   0.0000000000000000E+00
   0.0000000000000000E+00
   0.0000000000000000E+00
   0.0000000000000000E+00
   0.0000000000000000E+00
   0.0000000000000000E+00
   0.0000000000000000E+00
   0.0000000000000000E+00
   0.0000000000000000E+00
   0.0000000000000000E+00
   0.0000000000000000E+00
   0.0000000000000000E+00
   0.0000000000000000E+00
   0.0000000000000000E+00
   0.0000000000000000E+00
   0.0000000000000000E+00
   0.0000000000000000E+00
   0.0000000000000000E+00
   0.0000000000000000E+00
   0.0000000000000000E+00
   0.0000000000000000E+00
   0.0000000000000000E+00
   0.0000000000000000E+00
   0.0000000000000000E+00
   0.0000000000000000E+00
   0.0000000000000000E+00
   0.0000000000000000E+00
   0.0000000000000000E+00
   0.0000000000000000E+00
   0.0000000000000000E+00
   0.0000000000000000E+00
   0.0000000000000000E+00
   0.0000000000000000E+00
   0.0000000000000000E+00
   0.0000000000000000E+00
   0.0000000000000000E+00
   0.0000000000000000E+00
   0.0000000000000000E+00
   0.0000000000000000E+00
   0.0000000000000000E+00
   0.0000000000000000E+00
   0.0000000000000000E+00
   0.0000000000000000E+00
   0.0000000000000000E+00
   0.0000000000000000E+00
   0.0000000000000000E+00
   0.0000000000000000E+00
   0.0000000000000000E+00
   0.0000000000000000E+00
   0.0000000000000000E+00
   0.0000000000000000E+00
   0.0000000000000000E+00
   0.7970882458056479E-03
  -0.1328924668631227E-02
  -0.1332246342691747E-02
   0.0000000000000000E+00
   0.0000000000000000E+00
   0.0000000000000000E+00
   0.0000000000000000E+00
  -0.1922546752934109E-01
   0.4772087518658865E-03
   0.2183093433085011E-02
   0.1427315759619388E-01
  -0.6488275550915691E-02
  -0.7821530358035149E-02
  -0.1327712627089261E-01
   0.4914229078007686E-02
   0.6907839932569355E-03
   0.3434192435991570E-02
   0.1920807436279793E-02
   0.3147690555490231E-02
   0.1704742387448996E-02
  -0.7316057724720396E-02
  -0.7723785909003264E-04
   0.4468475337556677E-02
  -0.4389392266282380E-03
  -0.6396451397262867E-04
  -0.1964343824431094E-03
   0.8071705090195431E-03
   0.0000000000000000E+00
   0.0000000000000000E+00
   0.0000000000000000E+00
   0.0000000000000000E+00
   0.4255932778298851E-03
   0.1616311745485472E-02
  -0.1297392829977386E-02
  -0.1022424459183383E-02
  -0.2133737023182499E-02
  -0.1063721915523114E-02
  -0.8197711049016163E-03
  -0.7614647543190774E-03
   0.5207100979271161E-04
  -0.6241774787903635E-03
   0.7916147173549084E-03
  -0.1745176461127760E-02
   0.2746734507614498E-03
  -0.8927939206998603E-04
  -0.9421608603736232E-03
  -0.1099826920579451E-02
   0.0000000000000000E+00
   0.0000000000000000E+00
   0.0000000000000000E+00
  -0.1061587773634509E-02
  -0.7641221699364058E-02
   0.1860808970270059E-01
  -0.2827076421801934E-04
  -0.1382997265355998E-02
  -0.2034978304390085E-02
  -0.5665980997562260E-02
  -0.1585356581541750E-02
  -0.5946813238218308E-02
  -0.4160208771520697E-02
   0.1565443290416419E-02
   0.3329502028671943E-01
   0.3056944121548233E-04
  -0.2766290646832867E-02
   0.3566767207844153E-02
   0.3599197762317269E-03
   0.0000000000000000E+00
   0.0000000000000000E+00
   0.0000000000000000E+00
   0.0000000000000000E+00
   0.0000000000000000E+00
   0.0000000000000000E+00
   0.0000000000000000E+00
   0.0000000000000000E+00
   0.0000000000000000E+00
   0.0000000000000000E+00
   0.0000000000000000E+00
   0.0000000000000000E+00
   0.0000000000000000E+00
   0.0000000000000000E+00
   0.0000000000000000E+00
   0.0000000000000000E+00
   0.0000000000000000E+00
   0.5046826097986335E-02
   0.3230744336371850E-02
   0.8149021083556330E-02
   0.6168163384683643E-02
   0.1122922198379398E-01
   0.1429255259221760E-01
  -0.2038895978113039E-03
   0.5118214783988482E-02
   0.2914946461523126E-02
   0.3373721541871288E-02
   0.3728376548227656E-02
  -0.1465691915505681E-01
  -0.6158414572414715E-03
   0.6651403542004337E-02
   0.1541894710601143E-02
   0.1969622200824916E-02
   0.4266037950991862E-02
  -0.2790970881395327E-02
   0.1227001173221839E-02
   0.2819144832857294E-02
   0.1497380973559159E-02
   0.2575090431845320E-02
   0.2030542651487668E-02
   0.2118137896488751E-02
   0.8700317474882008E-02
  -0.3733277943866028E-02
   0.6240987832503426E-02
   0.2523893886708305E-04
  -0.3854048158387817E-03
  -0.1674661584905580E-01
  -0.4882013688522592E-02
  -0.4719999346982739E-02
   0.3445195817190077E-02
  -0.6135439277578634E-02
   0.9938180189718307E-04
  -0.3291342491582559E-01
  -0.3046237645772496E-02
   0.4722560485120510E-02
   0.9228286735328126E-03
   0.2112087254108785E-02
   0.4518512546713669E-02
   0.2720382797819751E-02
   0.3212525984480805E-02
   0.5200535033575779E-02
   0.1941867339571850E-02
   0.7316968418147065E-03
  -0.2541823005586991E-04
  -0.5374564072971533E-02
  -0.6959622521917391E-02
  -0.9443280998762219E-03
   0.1105174345965539E-02
  -0.2080519026540637E-02
  -0.3199979112075947E-02
  -0.2527843358910097E-02
  -0.4115133616459703E-02
  -0.7593905638551871E-02
  -0.1985514919244045E-02
   0.6241819487695562E-03
  -0.2237529264245092E-03
   0.1216768135099726E-02
  -0.3483907736415429E-02
   0.5229194876730973E-02
  -0.8487500624280614E-02
   0.2324353684044113E-04
  -0.3393969320500721E-03
   0.2542437772127936E-02
   0.1663427201278906E-02
   0.2021369415246908E-02
  -0.5620759830025862E-02
SCALARS w double 1
LOOKUP_TABLE default
   0.0000000000000000E+00
   0.0000000000000000E+00
   0.0000000000000000E+00
   0.0000000000000000E+00
   0.0000000000000000E+00
   0.0000000000000000E+00
   0.0000000000000000E+00
   0.0000000000000000E+00
   0.0000000000000000E+00
   0.0000000000000000E+00
   0.0000000000000000E+00
   0.0000000000000000E+00
   0.0000000000000000E+00
   0.0000000000000000E+00
   0.0000000000000000E+00
   0.0000000000000000E+00
   0.0000000000000000E+00
   0.0000000000000000E+00
   0.0000000000000000E+00
   0.0000000000000000E+00
   0.0000000000000000E+00
   0.0000000000000000E+00
   0.0000000000000000E+00
   0.0000000000000000E+00
   0.0000000000000000E+00
   0.0000000000000000E+00
   0.0000000000000000E+00
   0.0000000000000000E+00
   0.0000000000000000E+00
   0.0000000000000000E+00
   0.0000000000000000E+00
   0.0000000000000000E+00
   0.0000000000000000E+00
  -0.1007606511419657E+00
  -0.4249295084569531E-01
   0.7368143328410429E-03
   0.5726240688297090E-02
   0.5700160938935282E-03
   0.1609732658006716E-02
   0.3375008704587359E-02
   0.2372031351171452E-02
   0.4590270589901290E-03
   0.3519827293985773E-02
   0.4522187389320108E-01
   0.6522883744670249E-01
   0.8693013849595114E-03
  -0.2261154922277500E-01
   0.4317188028043398E-02
   0.1358874946673770E-01
   0.1039564302180506E-01
   0.4900638264003629E-01
   0.2438312067107574E-02
  -0.6509589237983939E-02
  -0.7001783801009035E-03
   0.3417608224806541E-03
   0.3903953563136504E-02
  -0.3893229248077325E-01
   0.1798161181573016E-01
   0.1119618789130263E-01
   0.3403760781579386E-01
   0.8439704535034212E-02
   0.4937975594909751E-02
   0.4971160192179571E-02
   0.4872109498110891E-02
   0.6027662061892011E-02
   0.2598782313931418E-02
  -0.4144439532061053E-01
  -0.9954209750669699E-01
  -0.1121673759954556E+00
   0.5070524513082236E-02
   0.4230414845777634E-02
  -0.1004728859945916E+00
  -0.9895249306400886E-01
  -0.9875437568854466E-01
  -0.9462473496600696E-01
  -0.6807110562248345E-01
   0.5154592760860953E-02
  -0.1935392603122817E-01
  -0.1575855846577487E-01
  -0.6003518936142620E-02
   0.6818870737351657E-02
  -0.8010016979723869E-01
  -0.2781134297074109E-01
  -0.8096441903532173E-01
  -0.5873296653325596E-01
   0.3084004682903978E-02
   0.2685422865189241E-02
   0.2640547618272906E-02
   0.3450230392137955E-02
   0.4007024667789657E-02
   0.1201195614273416E-02
  -0.1438531697072395E-03
   0.2040299907680196E-02
   0.4895693535874469E-02
   0.3857469331746658E-02
   0.1114653927215194E-02
   0.1183283976275867E-02
   0.1466074235429507E-02
  -0.1607366405057833E-04
   0.9002565641001408E-04
   0.4386924904193995E-02
   0.2715852535359099E-02
   0.2322825681205865E-02
   0.5010683403938951E-02
   0.1071677703438721E-02
   0.2712257994782905E-02
   0.2014268399904732E-02
   0.2906377417826506E-04
   0.8374885119913085E-01
   0.2795300384314483E-02
  -0.8344489590066222E-03
  -0.1490794542866736E-03
   0.1409549995738611E+00
   0.1239334105306182E+00
  -0.1218694256773959E-02
  -0.4381668785075790E-02
  -0.3041272056272634E-03
  -0.6511227420582516E-02
  -0.1947611083306591E-02
   0.1557642503957870E+00
   0.7490247832564265E-01
   0.2550559408923357E-01
   0.1656450905897456E+00