# vtk DataFile Version 2.0
FUN3D:global_image_vtk
ASCII
DATASET UNSTRUCTURED_GRID
POINTS 213 double
    0.0000000000000000E+00    0.2500000000000000E+01    0.0000000000000000E+00
    0.1250000000000000E+01    0.2500000000000000E+01    0.0000000000000000E+00
    0.2500000000000000E+01    0.2500000000000000E+01    0.0000000000000000E+00
    0.3750000000000000E+01    0.2500000000000000E+01    0.0000000000000000E+00
    0.5000000000000000E+01    0.2500000000000000E+01    0.0000000000000000E+00
    0.5000000000000000E+01    0.1250000000000000E+01    0.0000000000000000E+00
    0.5000000000000000E+01    0.0000000000000000E+00    0.0000000000000000E+00
    0.5000000000000000E+01   -0.1250000000000000E+01    0.0000000000000000E+00
    0.5000000000000000E+01   -0.2500000000000000E+01    0.0000000000000000E+00
    0.3750000000000000E+01   -0.2500000000000000E+01    0.0000000000000000E+00
    0.2500000000000000E+01   -0.2500000000000000E+01    0.0000000000000000E+00
    0.1250000000000000E+01   -0.2500000000000000E+01    0.0000000000000000E+00
    0.0000000000000000E+00   -0.2500000000000000E+01    0.0000000000000000E+00
    0.0000000000000000E+00   -0.1250000000000000E+01    0.0000000000000000E+00
    0.0000000000000000E+00    0.0000000000000000E+00    0.0000000000000000E+00
    0.0000000000000000E+00    0.1250000000000000E+01    0.0000000000000000E+00
    0.9058375365086910E+00    0.1578994732800803E+01    0.0000000000000000E+00
    0.3982050490726493E+01   -0.1583989954232354E+01    0.0000000000000000E+00
    0.4033849428301197E+01    0.1453322699199022E+01    0.0000000000000000E+00
    0.1040505887381675E+01   -0.1479596339503735E+01    0.0000000000000000E+00
    0.1099454400140349E+01   -0.3227322616384110E+00    0.0000000000000000E+00
    0.7354504170366591E+00    0.6593508822075582E+00    0.0000000000000000E+00
    0.1622302608453282E+01    0.8256214013940779E+00    0.0000000000000000E+00
    0.2145871574390382E+01   -0.1650070333782557E+01    0.0000000000000000E+00
    0.4086422318222992E+01   -0.4612828702537229E+00    0.0000000000000000E+00
    0.2979540174134984E+01   -0.8579242121530853E+00    0.0000000000000000E+00
    0.3045064261640043E+01   -0.1836846154397680E+01    0.0000000000000000E+00
    0.3428197553792836E+01    0.3508002863614053E+00    0.0000000000000000E+00
    0.4309693860063405E+01    0.5185680230613409E+00    0.0000000000000000E+00
    0.1827272193562204E+01    0.1738996113203182E+01    0.0000000000000000E+00
    0.2808563282768077E+01    0.1325493893339706E+01    0.0000000000000000E+00
    0.1895995683864404E+01   -0.8731419609589618E+00    0.0000000000000000E+00
    0.2273179336307740E+01    0.4906150219227333E-01    0.0000000000000000E+00
    0.5000000000000000E+01    0.2500000000000000E+01    0.1250000000000000E+01
    0.5000000000000000E+01    0.2500000000000000E+01    0.2500000000000000E+01
    0.5000000000000000E+01    0.2500000000000000E+01    0.3750000000000000E+01
    0.5000000000000000E+01    0.2500000000000000E+01    0.5000000000000000E+01
    0.3750000000000000E+01    0.2500000000000000E+01    0.5000000000000000E+01
    0.2500000000000000E+01    0.2500000000000000E+01    0.5000000000000000E+01
    0.1250000000000000E+01    0.2500000000000000E+01    0.5000000000000000E+01
    0.0000000000000000E+00    0.2500000000000000E+01    0.5000000000000000E+01
    0.0000000000000000E+00    0.2500000000000000E+01    0.3750000000000000E+01
    0.0000000000000000E+00    0.2500000000000000E+01    0.2500000000000000E+01
    0.0000000000000000E+00    0.2500000000000000E+01    0.1250000000000000E+01
    0.9631080833812172E+00    0.2500000000000000E+01    0.9613285771248219E+00
    0.3981732467264904E+01    0.2500000000000000E+01    0.4069753913607991E+01
    0.4035525118777670E+01    0.2500000000000000E+01    0.1012015867579395E+01
    0.9641717640894248E+00    0.2500000000000000E+01    0.3972455192261839E+01
    0.1547743040396780E+01    0.2500000000000000E+01    0.2928177746738678E+01
    0.6985170616192014E+00    0.2500000000000000E+01    0.3068281976055466E+01
    0.8931277594515110E+00    0.2500000000000000E+01    0.2052465503257726E+01
    0.2183293750162785E+01    0.2500000000000000E+01    0.3959073795658649E+01
    0.3855333506014705E+01    0.2500000000000000E+01    0.2931218481500625E+01
    0.3152495579421047E+01    0.2500000000000000E+01    0.3635850502723324E+01
    0.3103247580566054E+01    0.2500000000000000E+01    0.4331682712472464E+01
    0.3266837581688852E+01    0.2500000000000000E+01    0.1886092433583972E+01
    0.4231539241296245E+01    0.2500000000000000E+01    0.1915865356532799E+01
    0.1909741006522088E+01    0.2500000000000000E+01    0.7170024419130505E+00
    0.2880784107213163E+01    0.2500000000000000E+01    0.9046598906449592E+00
    0.2014316024535771E+01    0.2500000000000000E+01    0.1762464314805728E+01
    0.2670003247036656E+01    0.2500000000000000E+01    0.2850479545835163E+01
    0.5000000000000000E+01    0.1250000000000000E+01    0.5000000000000000E+01
    0.5000000000000000E+01    0.0000000000000000E+00    0.5000000000000000E+01
    0.5000000000000000E+01   -0.1250000000000000E+01    0.5000000000000000E+01
    0.5000000000000000E+01   -0.2500000000000000E+01    0.5000000000000000E+01
    0.5000000000000000E+01   -0.2500000000000000E+01    0.3750000000000000E+01
    0.5000000000000000E+01   -0.2500000000000000E+01    0.2500000000000000E+01
    0.5000000000000000E+01   -0.2500000000000000E+01    0.1250000000000000E+01
    0.5000000000000000E+01    0.1578994732800803E+01    0.9058375365086910E+00
    0.5000000000000000E+01   -0.1583989954232354E+01    0.3982050490726493E+01
    0.5000000000000000E+01    0.1453322699199022E+01    0.4033849428301197E+01
    0.5000000000000000E+01   -0.1479596339503735E+01    0.1040505887381675E+01
    0.5000000000000000E+01   -0.3227322616384110E+00    0.1099454400140349E+01
    0.5000000000000000E+01    0.6593508822075582E+00    0.7354504170366591E+00
    0.5000000000000000E+01    0.8256214013940779E+00    0.1622302608453282E+01
    0.5000000000000000E+01   -0.1650070333782557E+01    0.2145871574390382E+01
    0.5000000000000000E+01   -0.4612828702537229E+00    0.4086422318222992E+01
    0.5000000000000000E+01   -0.8579242121530853E+00    0.2979540174134984E+01
    0.5000000000000000E+01   -0.1836846154397680E+01    0.3045064261640043E+01
    0.5000000000000000E+01    0.3508002863614053E+00    0.3428197553792836E+01
    0.5000000000000000E+01    0.5185680230613409E+00    0.4309693860063405E+01
    0.5000000000000000E+01    0.1738996113203182E+01    0.1827272193562204E+01
    0.5000000000000000E+01    0.1325493893339706E+01    0.2808563282768077E+01
    0.5000000000000000E+01   -0.8731419609589618E+00    0.1895995683864404E+01
    0.5000000000000000E+01    0.4906150219227333E-01    0.2273179336307740E+01
    0.0000000000000000E+00    0.1250000000000000E+01    0.5000000000000000E+01
    0.0000000000000000E+00    0.0000000000000000E+00    0.5000000000000000E+01
    0.0000000000000000E+00   -0.1250000000000000E+01    0.5000000000000000E+01
    0.0000000000000000E+00   -0.2500000000000000E+01    0.5000000000000000E+01
    0.1250000000000000E+01   -0.2500000000000000E+01    0.5000000000000000E+01
    0.2500000000000000E+01   -0.2500000000000000E+01    0.5000000000000000E+01
    0.3750000000000000E+01   -0.2500000000000000E+01    0.5000000000000000E+01
    0.4042003247744892E+01    0.1558308132739014E+01    0.5000000000000000E+01
    0.9304122287900499E+00   -0.1548001304379777E+01    0.5000000000000000E+01
    0.1037243024609388E+01    0.1462892710085612E+01    0.5000000000000000E+01
    0.3946240828834967E+01   -0.1445243809615570E+01    0.5000000000000000E+01
    0.4092527262848217E+01   -0.3455338993778935E+00    0.5000000000000000E+01
    0.4293103109154542E+01    0.6277660831404320E+00    0.5000000000000000E+01
    0.3241512314643519E+01    0.7429886854239611E+00    0.5000000000000000E+01
    0.2844289952419609E+01   -0.1588117879734118E+01    0.5000000000000000E+01
    0.7159905765450471E+00   -0.6002320124191652E+00    0.5000000000000000E+01
    0.1754341919796891E+01   -0.7398147869923652E+00    0.5000000000000000E+01
    0.1870296826774691E+01   -0.1788622905643739E+01    0.5000000000000000E+01
    0.9220614901912976E+00    0.3083720183248586E+00    0.5000000000000000E+01
    0.3101523624086016E+01    0.1777901774806180E+01    0.5000000000000000E+01
    0.2192512063922564E+01    0.1576861561598471E+01    0.5000000000000000E+01
    0.2024793420196460E+01    0.4773861992750707E+00    0.5000000000000000E+01
    0.2990627757741975E+01   -0.4878110785814084E+00    0.5000000000000000E+01
    0.0000000000000000E+00   -0.2500000000000000E+01    0.1250000000000000E+01
    0.0000000000000000E+00   -0.2500000000000000E+01    0.2500000000000000E+01
    0.0000000000000000E+00   -0.2500000000000000E+01    0.3750000000000000E+01
    0.0000000000000000E+00    0.1558308132739014E+01    0.4042003247744892E+01
    0.0000000000000000E+00   -0.1548001304379777E+01    0.9304122287900499E+00
    0.0000000000000000E+00    0.1462892710085612E+01    0.1037243024609388E+01
    0.0000000000000000E+00   -0.1445243809615570E+01    0.3946240828834967E+01
    0.0000000000000000E+00   -0.3455338993778935E+00    0.4092527262848217E+01
    0.0000000000000000E+00    0.6277660831404320E+00    0.4293103109154542E+01
    0.0000000000000000E+00    0.7429886854239611E+00    0.3241512314643519E+01
    0.0000000000000000E+00   -0.1588117879734118E+01    0.2844289952419609E+01
    0.0000000000000000E+00   -0.6002320124191652E+00    0.7159905765450471E+00
    0.0000000000000000E+00   -0.7398147869923652E+00    0.1754341919796891E+01
    0.0000000000000000E+00   -0.1788622905643739E+01    0.1870296826774691E+01
    0.0000000000000000E+00    0.3083720183248586E+00    0.9220614901912976E+00
    0.0000000000000000E+00    0.1777901774806180E+01    0.3101523624086016E+01
    0.0000000000000000E+00    0.1576861561598471E+01    0.2192512063922564E+01
[...]
POINT_DATA 213
SCALARS rho double 1
LOOKUP_TABLE default
   0.1344268384290414E+01
   0.9569634003148776E+00
   0.9462829496339912E+00
   0.9418684316249739E+00
   0.8437283056285281E+00
   0.7737780057629595E+00
   0.7629650213768481E+00
   0.7664226477909682E+00
   0.8307789811460118E+00
   0.9352919614120402E+00
   0.9341979036968624E+00
   0.9617072764562958E+00
   0.1449459637393658E+01
   0.1494084502819170E+01
   0.1644660410210860E+01
   0.1425835595824532E+01
   0.1009004089289320E+01
   0.9508648261784500E+00
   0.9436501506657079E+00
   0.9581498805315594E+00
   0.9415729017436417E+00
   0.1036367649377629E+01
   0.9256005901097104E+00
   0.9322183826543498E+00
   0.9537388219388577E+00
   0.9518642231501424E+00
   0.9348365475729989E+00
   0.9563933425799006E+00
   0.9376029151993971E+00
   0.9300520472627150E+00
   0.9445029728391623E+00
   0.8863352782349110E+00
   0.9423500666384850E+00
   0.9635365700241262E+00
   0.1008308121710187E+01
   0.1006769271142103E+01
   0.1001857795594263E+01
   0.1003124482656195E+01
   0.1004093881422582E+01
   0.1005223289850008E+01
   0.1004259242008041E+01
   0.1008293284475268E+01
   0.1023882669587318E+01
   0.1063538434726190E+01
   0.1019174369869239E+01
   0.1001771333773202E+01
   0.9644006223749003E+00
   0.1005265445150103E+01
   0.1000700111907757E+01
   0.1008724635125186E+01
   0.1008061582587159E+01
   0.1002335988826736E+01
   0.9979999468203695E+00
   0.1000579810490221E+01
   0.1001602967798154E+01
   0.9826719244956341E+00
   0.9842334378155114E+00
   0.9833215694151584E+00
   0.9788541124115174E+00
   0.9902497967135110E+00
   0.9934419284311589E+00
   0.1001926744265756E+01
   0.1002059154252949E+01
   0.1002230436067916E+01
   0.1001729518284514E+01
   0.1009794256006951E+01
   0.1006419765588770E+01
   0.9558503829348995E+00
   0.9249373032977937E+00
   0.1007036562028184E+01
   0.1004507872854703E+01
   0.9143634066945631E+00
   0.9089883213894874E+00
   0.8751858031861999E+00
   0.9766913585957364E+00
   0.1000418346601642E+01
   0.1005832644001776E+01
   0.1012900644447970E+01
   0.1011638966824998E+01
   0.1010468389031798E+01
   0.1005447535690797E+01
   0.9907356641703419E+00
   0.1005160415108005E+01
   0.9860338328488391E+00
   0.1005590646598049E+01
   0.1004242339055965E+01
   0.1002869871346828E+01
   0.1003327873145500E+01
   0.1003986965951437E+01
   0.1005087609497354E+01
   0.1003200294956883E+01
   0.1002632336657308E+01
   0.1002499013520527E+01
   0.1004049560921104E+01
   0.1004298418470256E+01
   0.1001608396702730E+01
   0.1002211257746309E+01
   0.1002464763152562E+01
   0.1003436978909253E+01
   0.1003363247377569E+01
   0.1003220510346267E+01
   0.1004417488164772E+01
   0.1004307507987095E+01
   0.1003649807555578E+01
   0.1003660295722426E+01
   0.1004304137090801E+01
   0.1004446720020906E+01
   0.1003592050978733E+01
   0.1064419068113886E+01
   0.1028463397421402E+01
   0.1009571115272186E+01
   0.1006630769116176E+01
   0.1163918908727037E+01
   0.1086092416739513E+01
   0.1007876088886873E+01
   0.1007229495786393E+01
   0.1006790003448536E+01
   0.1013008065356963E+01
   0.1019369354840019E+01
   0.1235202372009469E+01
   0.1032527245981174E+01
   0.1046662591542652E+01
   0.1200944175853000E+01
   0.1014711665478669E+01
   0.1032274916051071E+01
   0.1028080190517493E+01
   0.1014614785361757E+01
   0.1029209480140383E+01
   0.1001986784537248E+01
   0.9607027951921620E+00
   0.1006839912659539E+01
   0.1001310556650079E+01
   0.1010807319201765E+01
   0.1012237693478233E+01
   0.1000934388119399E+01
   0.9979038617770479E+00
   0.9980558930811165E+00
   0.1001168760993251E+01
   0.9841070515975064E+00
   0.9814608992483953E+00
   0.9648468822041106E+00
   0.9680773543654694E+00
   0.9914093997893484E+00
   0.9910729083268880E+00
   0.9925396805247833E+00
   0.1001710557264200E+01
   0.9993235386704532E+00
   0.9941285982409188E+00
   0.1007025533223107E+01
   0.1022529545122590E+01
   0.1001086788259739E+01
   0.1008782903477882E+01
   0.1004757476272751E+01
   0.1009029509174886E+01
   0.9966343717474395E+00
   0.1004979975287587E+01
   0.1003316791846951E+01
   0.9949327038781299E+00
   0.9832511661156733E+00
   0.9943801858476298E+00
   0.9973370015784537E+00
   0.9931987742114237E+00
   0.1001297745770108E+01
   0.1002993338022144E+01
   0.1002168122562131E+01
   0.9947056881844651E+00
   0.9937906771781144E+00
   0.1004853166189126E+01
   0.1020065278514782E+01
   0.1005354402827845E+01
   0.9816911972974992E+00
   0.1004961513243894E+01
   0.1012366536574771E+01
   0.9871315228690004E+00
   0.9551457250245101E+00
   0.9864982517990265E+00
   0.9864419419055023E+00
   0.9918879066488779E+00
   0.9933389936235718E+00
   0.9954309252395257E+00
   0.1037330984025630E+01
   0.1033525251381124E+01
   0.1001425816601668E+01
   0.1001912637395417E+01
   0.9912318965642026E+00
   0.9910788859780052E+00
   0.9648194183878775E+00
   0.9933151807849268E+00
   0.1006057793642460E+01
   0.1001951181514477E+01
   0.9908606476950578E+00
   0.9740751143528893E+00
   0.9418716164096688E+00
   0.9819198421309566E+00
   0.9794668616034887E+00
   0.9704191394093408E+00
   0.9720236964187150E+00
   0.9557216659726372E+00
   0.9496774271739343E+00
   0.9528786173628785E+00
   0.1002641626893946E+01
   0.1002466474704945E+01
   0.1000501533255338E+01
   0.1001691271924332E+01
   0.9607692803490268E+00
   0.9492029823441740E+00
   0.9584629822946364E+00
   0.1001115631545890E+01
   0.1000492093998658E+01
   0.1001169127269118E+01
   0.9807286620776574E+00
   0.9805901086632263E+00
   0.9628511038175139E+00
SCALARS u double 1
LOOKUP_TABLE default
   0.0000000000000000E+00
   0.0000000000000000E+00
   0.0000000000000000E+00
   0.0000000000000000E+00
   0.0000000000000000E+00
   0.0000000000000000E+00
   0.0000000000000000E+00
   0.0000000000000000E+00
   0.0000000000000000E+00
   0.0000000000000000E+00
   0.0000000000000000E+00
   0.0000000000000000E+00
   0.0000000000000000E+00
   0.0000000000000000E+00
   0.0000000000000000E+00
   0.0000000000000000E+00
   0.0000000000000000E+00
   0.0000000000000000E+00
   0.0000000000000000E+00
   0.0000000000000000E+00
   0.0000000000000000E+00
   0.0000000000000000E+00
   0.0000000000000000E+00
   0.0000000000000000E+00
   0.0000000000000000E+00
   0.0000000000000000E+00
   0.0000000000000000E+00
   0.0000000000000000E+00
   0.0000000000000000E+00
   0.0000000000000000E+00
   0.0000000000000000E+00
   0.0000000000000000E+00
   0.0000000000000000E+00
   0.4949274787785491E+00
   0.5338106199915003E+00
   0.5183812377250021E+00
   0.4930054802228225E+00
   0.4845389448272401E+00
   0.4867371767051747E+00
   0.4891293496584408E+00
   0.4958377015540044E+00
   0.4898321430704899E+00
   0.4717521118627140E+00
   0.4455023244192950E+00
   0.4833944396821663E+00
   0.5099472435853097E+00
   0.4390222878280005E+00
   0.4949635435593581E+00
   0.5225576464611619E+00
   0.4962578992703057E+00
   0.5226344815741159E+00
   0.5039547325535031E+00
   0.5647631465105434E+00
   0.5248451807779645E+00
   0.4992310249642406E+00
   0.5730302640142181E+00
   0.5695621882315276E+00
   0.3737814713601161E+00
   0.3998086805358343E+00
   0.5599336671169042E+00
   0.5565003050374843E+00
   0.4941832918189574E+00
   0.4948072505723775E+00
   0.4925107026588085E+00
   0.4913907423716112E+00
   0.5162957402386444E+00
   0.5361789324618274E+00
   0.4947204566210595E+00
   0.4523786445612951E+00
   0.5129054164386655E+00
   0.5118485512749363E+00
   0.4783156882155208E+00
   0.4931481598166197E+00
   0.4602858416247013E+00
   0.5245005277345957E+00
   0.5297463024720388E+00
   0.5129829313787819E+00
   0.5328332812316032E+00
   0.5309085804386889E+00
   0.5310007766222147E+00
   0.5063880166238067E+00
   0.5282242552940281E+00
   0.5410267046190309E+00
   0.5361260501653137E+00
   0.5374173723265923E+00
   0.4965527944862618E+00
   0.4975460451123820E+00
   0.4963919811869966E+00
   0.4955391175818420E+00
   0.4904523555388111E+00
   0.4902500050221957E+00
   0.4860483539392186E+00
   0.4851943727369618E+00
   0.4932246585220249E+00
   0.4910077135286598E+00
   0.4830854475261227E+00
   0.4871205722981329E+00
   0.4878515964121483E+00
   0.4871580829910276E+00
   0.4881596806062301E+00
   0.4952676848910639E+00
   0.4900945894311030E+00
   0.4903799093403572E+00
   0.4944430266375298E+00
   0.4866895457799082E+00
   0.4892348118056183E+00
   0.4881396344167399E+00
   0.4877653895012930E+00
   0.4446929530059033E+00
   0.4700139501960391E+00
   0.4892137074062159E+00
   0.4885070872970457E+00
   0.4506786515129482E+00
   0.4687193234338601E+00
   0.4877075934637942E+00
   0.4868374804977538E+00
   0.4909066573273681E+00
   0.4793682849821919E+00
   0.4658303509535022E+00
   0.3792775903393681E+00
   0.4901619839891622E+00
   0.4486892281423300E+00
   0.4436282684184010E+00
   0.4845232728332846E+00
   0.4622176920567511E+00
   0.4666014609681107E+00
   0.4748316140023608E+00
   0.4894622246774071E+00
   0.5086571826804948E+00
   0.4314867145242806E+00
   0.4927492325172795E+00
   0.5318450866117760E+00
   0.4913501325177092E+00
   0.5207122970628035E+00
   0.5061680153604396E+00
   0.5689345529058251E+00
   0.5274841138980586E+00
   0.5015554721162108E+00
   0.5821416062804950E+00
   0.5689305980611591E+00
   0.3406475712821231E+00
   0.3789654896934998E+00
   0.5751918720182867E+00
   0.5666637354416011E+00
   0.5704143946222897E+00
   0.5291216990617782E+00
   0.5452012779023929E+00
   0.5718751503430499E+00
   0.5389239089628702E+00
   0.5475572456353927E+00
   0.5821734520749343E+00
   0.4925760061495227E+00
   0.5042536774568187E+00
   0.4961891275981103E+00
   0.5565254553830629E+00
   0.4758928525469071E+00
   0.4950530950659662E+00
   0.5498885849284876E+00
   0.5891033848972390E+00
   0.5842282038843499E+00
   0.5469767156267591E+00
   0.5805338905207451E+00
   0.5106936817564560E+00
   0.5030857005871850E+00
   0.5034191468399862E+00
   0.5676671277396240E+00
   0.5564305520740636E+00
   0.4947559407933300E+00
   0.5505308516116854E+00
   0.5510878449350376E+00
   0.5657319828992518E+00
   0.4920280776620940E+00
   0.4927393538413187E+00
   0.3865367963497603E+00
   0.3688042335080091E+00
   0.5574762674797961E+00
   0.5763741474367433E+00
   0.4194219470353065E+00
   0.5824654264891612E+00
   0.4265472110336171E+00
   0.5392932860927068E+00
   0.5012182232981958E+00
   0.5120015227261148E+00
   0.5049953972314827E+00
   0.5751836047076934E+00
   0.5876513878549861E+00
   0.5379493242254921E+00
   0.5677432028331753E+00
   0.5351895230430501E+00
   0.5338512772158664E+00
   0.5580394327832245E+00
   0.5512143949794672E+00
   0.4261541283863919E+00
   0.5273049119727101E+00
   0.5795588146054474E+00
   0.3319003365375143E+00
   0.4760025680045750E+00
   0.5446162684267964E+00
   0.4798242009107299E+00
   0.3005435538919363E+00
   0.5031241035331969E+00
   0.5017696685460413E+00
   0.5129563921377567E+00
   0.5415531469610025E+00
   0.3437628199936070E+00
   0.3398104452257178E+00
   0.3189706244829848E+00
   0.5066536040336672E+00
   0.5124269291042721E+00
   0.5331286677170370E+00
   0.5879290276328384E+00
   0.4644212189589740E+00
   0.3531734086368540E+00
SCALARS v double 1
LOOKUP_TABLE default
   0.0000000000000000E+00
   0.0000000000000000E+00
   0.0000000000000000E+00
   0.0000000000000000E+00
   0.0000000000000000E+00
   0.0000000000000000E+00
   0.0000000000000000E+00
   0.0000000000000000E+00
   0.0000000000000000E+00
   0.0000000000000000E+00
   0.0000000000000000E+00
   0.0000000000000000E+00
   0.0000000000000000E+00
   0.0000000000000000E+00
   0.0000000000000000E+00
   0.0000000000000000E+00
   0.0000000000000000E+00
   0.0000000000000000E+00
   0.0000000000000000E+00
   0.0000000000000000E+00
   0.0000000000000000E+00
   0.0000000000000000E+00
   0.0000000000000000E+00
   0.0000000000000000E+00
   0.0000000000000000E+00
   0.0000000000000000E+00
   0.0000000000000000E+00
   0.0000000000000000E+00
   0.0000000000000000E+00
   0.0000000000000000E+00
   0.0000000000000000E+00
   0.0000000000000000E+00
   0.0000000000000000E+00
   0.0000000000000000E+00
   0.0000000000000000E+00
   0.0000000000000000E+00
   0.0000000000000000E+00
   0.0000000000000000E+00
   0.0000000000000000E+00
   0.0000000000000000E+00
   0.0000000000000000E+00
   0.0000000000000000E+00
   0.0000000000000000E+00
   0.0000000000000000E+00
   0.0000000000000000E+00
   0.0000000000000000E+00
   0.0000000000000000E+00
   0.0000000000000000E+00
   0.0000000000000000E+00
   0.0000000000000000E+00
   0.0000000000000000E+00
   0.0000000000000000E+00
   0.0000000000000000E+00
   0.0000000000000000E+00
   0.0000000000000000E+00
   0.0000000000000000E+00
   0.0000000000000000E+00
   0.0000000000000000E+00
   0.0000000000000000E+00
   0.0000000000000000E+00
   0.0000000000000000E+00
   0.8483083275398265E-03
  -0.1304457444579935E-02
  -0.1340243183123795E-02
   0.0000000000000000E+00
   0.0000000000000000E+00
   0.0000000000000000E+00
   0.0000000000000000E+00
  -0.1923061743740727E-01
   0.4849377023984328E-03
   0.2195615246110722E-02
   0.1426094619534647E-01
  -0.6492466375116840E-02
  -0.7805519464993551E-02
  -0.1326818339988824E-01
   0.4917267548323860E-02
   0.7042039889928755E-03
   0.3452537966833498E-02
   0.1930145200942681E-02
   0.3168601562556014E-02
   0.1729092772284242E-02
  -0.7321766214201807E-02
  -0.7633192450537433E-04
   0.4467884793395308E-02
  -0.4240138293873464E-03
  -0.6690545070449826E-04
  -0.1962982543555612E-03
   0.8184318546751372E-03
   0.0000000000000000E+00
   0.0000000000000000E+00
   0.0000000000000000E+00
   0.0000000000000000E+00
   0.4669736584526709E-03
   0.1639443404198594E-02
  -0.1311138812848243E-02
  -0.1035456313474227E-02
  -0.2154457676763430E-02
  -0.1051646727447636E-02
  -0.8336321054205445E-03
  -0.7491555444749501E-03
   0.6592066563063479E-04
  -0.5938642969635920E-03
   0.8051141357288276E-03
  -0.1744904610008771E-02
   0.2675079948814094E-03
  -0.1030655105908081E-03
  -0.9476881624809151E-03
  -0.1103886243370732E-02
   0.0000000000000000E+00
   0.0000000000000000E+00
   0.0000000000000000E+00
  -0.1062374364668752E-02
  -0.7643339746257774E-02
   0.1860830167618031E-01
  -0.2853292697614517E-04
  -0.1392371571533713E-02
  -0.2043574640089283E-02
  -0.5676691385736101E-02
  -0.1593548004477285E-02
  -0.5949440395116945E-02
  -0.4164684103563955E-02
   0.1565731146340933E-02
   0.3329564592467170E-01
   0.2718964017963329E-04
  -0.2766821545586187E-02
   0.3564153517258344E-02
   0.3510554159253922E-03
   0.0000000000000000E+00
   0.0000000000000000E+00
   0.0000000000000000E+00
   0.0000000000000000E+00
   0.0000000000000000E+00
   0.0000000000000000E+00
   0.0000000000000000E+00
   0.0000000000000000E+00
   0.0000000000000000E+00
   0.0000000000000000E+00
   0.0000000000000000E+00
   0.0000000000000000E+00
   0.0000000000000000E+00
   0.0000000000000000E+00
   0.0000000000000000E+00
   0.0000000000000000E+00
   0.0000000000000000E+00
   0.5061959199268080E-02
   0.3232526444892660E-02
   0.8161333378866880E-02
   0.6169190630751962E-02
   0.1123160588960922E-01
   0.1429320336005221E-01
  -0.2049637473757984E-03
   0.5112345220162874E-02
   0.2924176518106891E-02
   0.3374670713479906E-02
   0.3731899807369696E-02
  -0.1466818387484986E-01
  -0.6097685301622538E-03
   0.6672081702524480E-02
   0.1543469905790397E-02
   0.1983900655560332E-02
   0.4297734043063010E-02
  -0.2770279028379426E-02
   0.1248747423910032E-02
   0.2837684643941728E-02
   0.1523789799123002E-02
   0.2602444710996690E-02
   0.2047878700147571E-02
   0.2125013458171250E-02
   0.8698243560985718E-02
  -0.3737633453941126E-02
   0.6241919017852773E-02
   0.3341470073465687E-04
  -0.3946604750062136E-03
  -0.1677867157116497E-01
  -0.4892254497354815E-02
  -0.4720314431888584E-02
   0.3447871777634165E-02
  -0.6151313641978201E-02
   0.9571809289008701E-04
  -0.3292924703421714E-01
  -0.3045482529871673E-02
   0.4726316058826063E-02
   0.9418068429476880E-03
   0.2128730076802381E-02
   0.4537149938810399E-02
   0.2724907509414659E-02
   0.3212883515984728E-02
   0.5206901986382158E-02
   0.1947775419480845E-02
   0.7434364044106068E-03
  -0.2598625561696058E-04
  -0.5378920356601010E-02
  -0.6963778665966115E-02
  -0.9631551622873883E-03
   0.1118370725304972E-02
  -0.2075572228506909E-02
  -0.3192002127979944E-02
  -0.2523496775020563E-02
  -0.4120784790923483E-02
  -0.7597795791190764E-02
  -0.1995518367548897E-02
   0.6428390160492589E-03
  -0.2127780577121745E-03
   0.1239305585728940E-02
  -0.3507897869408821E-02
   0.5219821249404013E-02
  -0.8489228455898520E-02
   0.2885175248675405E-04
  -0.3438950284516183E-03
   0.2559186638685108E-02
   0.1663731693083203E-02
   0.2025091812405880E-02
  -0.5634402812618474E-02
SCALARS w double 1
LOOKUP_TABLE default
   0.0000000000000000E+00
   0.0000000000000000E+00
   0.0000000000000000E+00
   0.0000000000000000E+00
   0.0000000000000000E+00
   0.0000000000000000E+00
   0.0000000000000000E+00
   0.0000000000000000E+00
   0.0000000000000000E+00
   0.0000000000000000E+00
   0.0000000000000000E+00
   0.0000000000000000E+00
   0.0000000000000000E+00
   0.0000000000000000E+00
   0.0000000000000000E+00
   0.0000000000000000E+00
   0.0000000000000000E+00
   0.0000000000000000E+00
   0.0000000000000000E+00
   0.0000000000000000E+00
   0.0000000000000000E+00
   0.0000000000000000E+00
   0.0000000000000000E+00
   0.0000000000000000E+00
   0.0000000000000000E+00
   0.0000000000000000E+00
   0.0000000000000000E+00
   0.0000000000000000E+00
   0.0000000000000000E+00
   0.0000000000000000E+00
   0.0000000000000000E+00
   0.0000000000000000E+00
   0.0000000000000000E+00
  -0.1007676393217359E+00
  -0.4250161323656107E-01
   0.7999811577411358E-03
   0.5839011460925904E-02
   0.6844477055680196E-03
   0.1636305965013968E-02
   0.3339518966893124E-02
   0.2343348065959587E-02
   0.4494461067324957E-03
   0.3517201103279361E-02
   0.4523103430447940E-01
   0.6522491380981768E-01
   0.9264201038301959E-03
  -0.2263936383521932E-01
   0.4312816488845931E-02
   0.1361215613976632E-01
   0.1039704859121646E-01
   0.4901103425628630E-01
   0.2441092045231881E-02
  -0.6506728944014002E-02
  -0.6954878095516348E-03
   0.3406266431147930E-03
   0.3907461930568758E-02
  -0.3895784778660800E-01
   0.1798249854638620E-01
   0.1120013064743333E-01
   0.3404867247314573E-01
   0.8457173507630398E-02
   0.4999286234730750E-02
   0.5010323005965822E-02
   0.4892054289511433E-02
   0.6070809577096038E-02
   0.2618507913839624E-02
  -0.4147040602079144E-01
  -0.9954633222490915E-01
  -0.1121622571078601E+00
   0.5101613925101646E-02
   0.4314947872661182E-02
  -0.1004491310967525E+00
  -0.9891169181447203E-01
  -0.9872402903548907E-01
  -0.9459714200220881E-01
  -0.6807711169104909E-01
   0.5209115340472918E-02
  -0.1933554301844888E-01
  -0.1576621943845483E-01
  -0.5958394553940656E-02
   0.6898112836682919E-02
  -0.8011017900855186E-01
  -0.2780093837382753E-01
  -0.8093415948637554E-01
  -0.5870830259650706E-01
   0.3062325565497044E-02
   0.2691325423074008E-02
   0.2654033109887149E-02
   0.3447497943999091E-02
   0.4000611806532818E-02
   0.1202926447939128E-02
  -0.1419583526941008E-03
   0.2130260631625999E-02
   0.4886470551755519E-02
   0.3841752146899464E-02
   0.1118574172975778E-02
   0.1226217685220371E-02
   0.1516475504346139E-02
   0.2014942624250827E-05
   0.7668153948604360E-04
   0.4381151471314588E-02
   0.2697018399406528E-02
   0.2314646823288941E-02
   0.4995544981170281E-02
   0.1138596653310503E-02
   0.2713132697173739E-02
   0.1994495070912254E-02
   0.4341183301586129E-04
   0.8374089640050461E-01
   0.2784803551196960E-02
  -0.8382705995975477E-03
  -0.1610534842525806E-03
   0.1409495083338237E+00
   0.1239157127602793E+00
  -0.1198106915943473E-02
  -0.4382277131915239E-02
  -0.3165792887708955E-03
  -0.6514673368217558E-02
  -0.1954961482731462E-02
   0.1557655106612033E+00
   0.7489483537524905E-01
   0.2549718198407732E-01
   0.1656410132720831E+00