# vtk DataFile Version 2.0
FUN3D:global_image_vtk
ASCII
DATASET UNSTRUCTURED_GRID
POINTS 213 double
    0.0000000000000000E+00    0.2500000000000000E+01    0.0000000000000000E+00
    0.1250000000000000E+01    0.2500000000000000E+01    0.0000000000000000E+00
    0.2500000000000000E+01    0.2500000000000000E+01    0.0000000000000000E+00
    0.3750000000000000E+01    0.2500000000000000E+01    0.0000000000000000E+00
    0.5000000000000000E+01    0.2500000000000000E+01    0.0000000000000000E+00
    0.5000000000000000E+01    0.1250000000000000E+01    0.0000000000000000E+00
    0.5000000000000000E+01    0.0000000000000000E+00    0.0000000000000000E+00
    0.5000000000000000E+01   -0.1250000000000000E+01    0.0000000000000000E+00
    0.5000000000000000E+01   -0.2500000000000000E+01    0.0000000000000000E+00
    0.3750000000000000E+01   -0.2500000000000000E+01    0.0000000000000000E+00
    0.2500000000000000E+01   -0.2500000000000000E+01    0.0000000000000000E+00
    0.1250000000000000E+01   -0.2500000000000000E+01    0.0000000000000000E+00
    0.0000000000000000E+00   -0.2500000000000000E+01    0.0000000000000000E+00
    0.0000000000000000E+00   -0.1250000000000000E+01    0.0000000000000000E+00
    0.0000000000000000E+00    0.0000000000000000E+00    0.0000000000000000E+00
    0.0000000000000000E+00    0.1250000000000000E+01    0.0000000000000000E+00
    0.9058375365086910E+00    0.1578994732800803E+01    0.0000000000000000E+00
    0.3982050490726493E+01   -0.1583989954232354E+01    0.0000000000000000E+00
    0.4033849428301197E+01    0.1453322699199022E+01    0.0000000000000000E+00
    0.1040505887381675E+01   -0.1479596339503735E+01    0.0000000000000000E+00
    0.1099454400140349E+01   -0.3227322616384110E+00    0.0000000000000000E+00
    0.7354504170366591E+00    0.6593508822075582E+00    0.0000000000000000E+00
    0.1622302608453282E+01    0.8256214013940779E+00    0.0000000000000000E+00
    0.2145871574390382E+01   -0.1650070333782557E+01    0.0000000000000000E+00
    0.4086422318222992E+01   -0.4612828702537229E+00    0.0000000000000000E+00
    0.2979540174134984E+01   -0.8579242121530853E+00    0.0000000000000000E+00
    0.3045064261640043E+01   -0.1836846154397680E+01    0.0000000000000000E+00
    0.3428197553792836E+01    0.3508002863614053E+00    0.0000000000000000E+00
    0.4309693860063405E+01    0.5185680230613409E+00    0.0000000000000000E+00
    0.1827272193562204E+01    0.1738996113203182E+01    0.0000000000000000E+00
    0.2808563282768077E+01    0.1325493893339706E+01    0.0000000000000000E+00
    0.1895995683864404E+01   -0.8731419609589618E+00    0.0000000000000000E+00
    0.2273179336307740E+01    0.4906150219227333E-01    0.0000000000000000E+00
    0.5000000000000000E+01    0.2500000000000000E+01    0.1250000000000000E+01
    0.5000000000000000E+01    0.2500000000000000E+01    0.2500000000000000E+01
    0.5000000000000000E+01    0.2500000000000000E+01    0.3750000000000000E+01
    0.5000000000000000E+01    0.2500000000000000E+01    0.5000000000000000E+01
    0.3750000000000000E+01    0.2500000000000000E+01    0.5000000000000000E+01
    0.2500000000000000E+01    0.2500000000000000E+01    0.5000000000000000E+01
    0.1250000000000000E+01    0.2500000000000000E+01    0.5000000000000000E+01
    0.0000000000000000E+00    0.2500000000000000E+01    0.5000000000000000E+01
    0.0000000000000000E+00    0.2500000000000000E+01    0.3750000000000000E+01
    0.0000000000000000E+00    0.2500000000000000E+01    0.2500000000000000E+01
    0.0000000000000000E+00    0.2500000000000000E+01    0.1250000000000000E+01
    0.9631080833812172E+00    0.2500000000000000E+01    0.9613285771248219E+00
    0.3981732467264904E+01    0.2500000000000000E+01    0.4069753913607991E+01
    0.4035525118777670E+01    0.2500000000000000E+01    0.1012015867579395E+01
    0.9641717640894248E+00    0.2500000000000000E+01    0.3972455192261839E+01
    0.1547743040396780E+01    0.2500000000000000E+01    0.2928177746738678E+01
    0.6985170616192014E+00    0.2500000000000000E+01    0.3068281976055466E+01
    0.8931277594515110E+00    0.2500000000000000E+01    0.2052465503257726E+01
    0.2183293750162785E+01    0.2500000000000000E+01    0.3959073795658649E+01
    0.3855333506014705E+01    0.2500000000000000E+01    0.2931218481500625E+01
    0.3152495579421047E+01    0.2500000000000000E+01    0.3635850502723324E+01
    0.3103247580566054E+01    0.2500000000000000E+01    0.4331682712472464E+01
    0.3266837581688852E+01    0.2500000000000000E+01    0.1886092433583972E+01
    0.4231539241296245E+01    0.2500000000000000E+01    0.1915865356532799E+01
    0.1909741006522088E+01    0.2500000000000000E+01    0.7170024419130505E+00
    0.2880784107213163E+01    0.2500000000000000E+01    0.9046598906449592E+00
    0.2014316024535771E+01    0.2500000000000000E+01    0.1762464314805728E+01
    0.2670003247036656E+01    0.2500000000000000E+01    0.2850479545835163E+01
    0.5000000000000000E+01    0.1250000000000000E+01    0.5000000000000000E+01
    0.5000000000000000E+01    0.0000000000000000E+00    0.5000000000000000E+01
    0.5000000000000000E+01   -0.1250000000000000E+01    0.5000000000000000E+01
    0.5000000000000000E+01   -0.2500000000000000E+01    0.5000000000000000E+01
    0.5000000000000000E+01   -0.2500000000000000E+01    0.3750000000000000E+01
    0.5000000000000000E+01   -0.2500000000000000E+01    0.2500000000000000E+01
    0.5000000000000000E+01   -0.2500000000000000E+01    0.1250000000000000E+01
    0.5000000000000000E+01    0.1578994732800803E+01    0.9058375365086910E+00
    0.5000000000000000E+01   -0.1583989954232354E+01    0.3982050490726493E+01
    0.5000000000000000E+01    0.1453322699199022E+01    0.4033849428301197E+01
    0.5000000000000000E+01   -0.1479596339503735E+01    0.1040505887381675E+01
    0.5000000000000000E+01   -0.3227322616384110E+00    0.1099454400140349E+01
    0.5000000000000000E+01    0.6593508822075582E+00    0.7354504170366591E+00
    0.5000000000000000E+01    0.8256214013940779E+00    0.1622302608453282E+01
    0.5000000000000000E+01   -0.1650070333782557E+01    0.2145871574390382E+01
    0.5000000000000000E+01   -0.4612828702537229E+00    0.4086422318222992E+01
    0.5000000000000000E+01   -0.8579242121530853E+00    0.2979540174134984E+01
    0.5000000000000000E+01   -0.1836846154397680E+01    0.3045064261640043E+01
    0.5000000000000000E+01    0.3508002863614053E+00    0.3428197553792836E+01
    0.5000000000000000E+01    0.5185680230613409E+00    0.4309693860063405E+01
    0.5000000000000000E+01    0.1738996113203182E+01    0.1827272193562204E+01
    0.5000000000000000E+01    0.1325493893339706E+01    0.2808563282768077E+01
    0.5000000000000000E+01   -0.8731419609589618E+00    0.1895995683864404E+01
    0.5000000000000000E+01    0.4906150219227333E-01    0.2273179336307740E+01
    0.0000000000000000E+00    0.1250000000000000E+01    0.5000000000000000E+01
    0.0000000000000000E+00    0.0000000000000000E+00    0.5000000000000000E+01
    0.0000000000000000E+00   -0.1250000000000000E+01    0.5000000000000000E+01
    0.0000000000000000E+00   -0.2500000000000000E+01    0.5000000000000000E+01
    0.1250000000000000E+01   -0.2500000000000000E+01    0.5000000000000000E+01
    0.2500000000000000E+01   -0.2500000000000000E+01    0.5000000000000000E+01
    0.3750000000000000E+01   -0.2500000000000000E+01    0.5000000000000000E+01
    0.4042003247744892E+01    0.1558308132739014E+01    0.5000000000000000E+01
    0.9304122287900499E+00   -0.1548001304379777E+01    0.5000000000000000E+01
    0.1037243024609388E+01    0.1462892710085612E+01    0.5000000000000000E+01
    0.3946240828834967E+01   -0.1445243809615570E+01    0.5000000000000000E+01
    0.4092527262848217E+01   -0.3455338993778935E+00    0.5000000000000000E+01
    0.4293103109154542E+01    0.6277660831404320E+00    0.5000000000000000E+01
    0.3241512314643519E+01    0.7429886854239611E+00    0.5000000000000000E+01
    0.2844289952419609E+01   -0.1588117879734118E+01    0.5000000000000000E+01
    0.7159905765450471E+00   -0.6002320124191652E+00    0.5000000000000000E+01
    0.1754341919796891E+01   -0.7398147869923652E+00    0.5000000000000000E+01
    0.1870296826774691E+01   -0.1788622905643739E+01    0.5000000000000000E+01
    0.9220614901912976E+00    0.3083720183248586E+00    0.5000000000000000E+01
    0.3101523624086016E+01    0.1777901774806180E+01    0.5000000000000000E+01
    0.2192512063922564E+01    0.1576861561598471E+01    0.5000000000000000E+01
    0.2024793420196460E+01    0.4773861992750707E+00    0.5000000000000000E+01
    0.2990627757741975E+01   -0.4878110785814084E+00    0.5000000000000000E+01
    0.0000000000000000E+00   -0.2500000000000000E+01    0.1250000000000000E+01
    0.0000000000000000E+00   -0.2500000000000000E+01    0.2500000000000000E+01
    0.0000000000000000E+00   -0.2500000000000000E+01    0.3750000000000000E+01
    0.0000000000000000E+00    0.1558308132739014E+01    0.4042003247744892E+01
    0.0000000000000000E+00   -0.1548001304379777E+01    0.9304122287900499E+00
    0.0000000000000000E+00    0.1462892710085612E+01    0.1037243024609388E+01
    0.0000000000000000E+00   -0.1445243809615570E+01    0.3946240828834967E+01
    0.0000000000000000E+00   -0.3455338993778935E+00    0.4092527262848217E+01
    0.0000000000000000E+00    0.6277660831404320E+00    0.4293103109154542E+01
    0.0000000000000000E+00    0.7429886854239611E+00    0.3241512314643519E+01
    0.0000000000000000E+00   -0.1588117879734118E+01    0.2844289952419609E+01
    0.0000000000000000E+00   -0.6002320124191652E+00    0.7159905765450471E+00
    0.0000000000000000E+00   -0.7398147869923652E+00    0.1754341919796891E+01
    0.0000000000000000E+00   -0.1788622905643739E+01    0.1870296826774691E+01
    0.0000000000000000E+00    0.3083720183248586E+00    0.9220614901912976E+00
    0.0000000000000000E+00    0.1777901774806180E+01    0.3101523624086016E+01
    0.0000000000000000E+00    0.1576861561598471E+01    0.2192512063922564E+01
[...]
POINT_DATA 213
SCALARS rho double 1
LOOKUP_TABLE default
   0.1344272811513336E+01
   0.9569772470778243E+00
   0.9462966740625280E+00
   0.9418613080478001E+00
   0.8437299621310774E+00
   0.7737999293189386E+00
   0.7629813707209572E+00
   0.7664572291060863E+00
   0.8307867990830501E+00
   0.9352970763994770E+00
   0.9342222746875171E+00
   0.9617204292598537E+00
   0.1449458946284826E+01
   0.1494092881471643E+01
   0.1644670103404828E+01
   0.1425834396814729E+01
   0.1009016268971261E+01
   0.9508812196417320E+00
   0.9436507255185770E+00
   0.9581570687644611E+00
   0.9415857227383301E+00
   0.1036378582718243E+01
   0.9256167577633221E+00
   0.9322353930323120E+00
   0.9537480362575963E+00
   0.9518769522089666E+00
   0.9348582788894017E+00
   0.9564026731736661E+00
   0.9376096808885327E+00
   0.9300667876196870E+00
   0.9445157937330522E+00
   0.8863506395808731E+00
   0.9423579155026778E+00
   0.9634990529528243E+00
   0.1008298347514555E+01
   0.1006735389466621E+01
   0.1001964884670196E+01
   0.1003219556303008E+01
   0.1004132111454043E+01
   0.1005228918260819E+01
   0.1004260519174314E+01
   0.1008308849051501E+01
   0.1023893451916081E+01
   0.1063555156647873E+01
   0.1019183408753869E+01
   0.1001780561341139E+01
   0.9643306022763720E+00
   0.1005283956311241E+01
   0.1000721195411558E+01
   0.1008742491981278E+01
   0.1008078907017947E+01
   0.1002349645056151E+01
   0.9979984880012744E+00
   0.1000583265341092E+01
   0.1001619884667815E+01
   0.9826891909548310E+00
   0.9842433355823453E+00
   0.9833311082426727E+00
   0.9788206855355013E+00
   0.9902641380059222E+00
   0.9934560864483787E+00
   0.1002012053946270E+01
   0.1002134732626522E+01
   0.1002276573354863E+01
   0.1001794955312989E+01
   0.1009778482818995E+01
   0.1006427940122174E+01
   0.9558772082240775E+00
   0.9249386600081967E+00
   0.1007036848995165E+01
   0.1004504989553786E+01
   0.9143631001514252E+00
   0.9089657058794212E+00
   0.8751678186042569E+00
   0.9767259416715564E+00
   0.1000451196123400E+01
   0.1005831243666208E+01
   0.1012882071565766E+01
   0.1011618337532110E+01
   0.1010438310521876E+01
   0.1005468517410037E+01
   0.9907599888834846E+00
   0.1005139766800152E+01
   0.9860554687974489E+00
   0.1005608566507475E+01
   0.1004248108938466E+01
   0.1002888724893579E+01
   0.1003345763465788E+01
   0.1003993095718771E+01
   0.1005102015521462E+01
   0.1003211733725230E+01
   0.1002663151510098E+01
   0.1002586114799698E+01
   0.1004061122541451E+01
   0.1004320582052318E+01
   0.1001641720951889E+01
   0.1002272854482111E+01
   0.1002543253923719E+01
   0.1003469208089465E+01
   0.1003372620999417E+01
   0.1003232299850526E+01
   0.1004423987688674E+01
   0.1004313258516453E+01
   0.1003660050899618E+01
   0.1003723076515444E+01
   0.1004329748820907E+01
   0.1004464939695889E+01
   0.1003623206302470E+01
   0.1064425971254673E+01
   0.1028473707789514E+01
   0.1009587225749236E+01
   0.1006639366322409E+01
   0.1163938468307490E+01
   0.1086091426626525E+01
   0.1007893793273416E+01
   0.1007245951459112E+01
   0.1006798604137904E+01
   0.1013018393866675E+01
   0.1019384216166150E+01
   0.1235208932491334E+01
   0.1032531509935113E+01
   0.1046680120836711E+01
   0.1200956726706392E+01
   0.1014719541087839E+01
   0.1032290857333247E+01
   0.1028095015573158E+01
   0.1014628463032532E+01
   0.1029217564340046E+01
   0.1001994534412748E+01
   0.9606924719596711E+00
   0.1006852800231610E+01
   0.1001327570588578E+01
   0.1010821941792064E+01
   0.1012247345818368E+01
   0.1000945843834815E+01
   0.9979116926295369E+00
   0.9980628722423146E+00
   0.1001183961537039E+01
   0.9841359123558988E+00
   0.9814872037027527E+00
   0.9648481187195376E+00
   0.9680874240548630E+00
   0.9914126328168168E+00
   0.9910856639099733E+00
   0.9925546319730882E+00
   0.1001727665800126E+01
   0.9993411693662384E+00
   0.9941415402531864E+00
   0.1007039857027018E+01
   0.1022540992342108E+01
   0.1001088335940691E+01
   0.1008798759250747E+01
   0.1004773779240470E+01
   0.1009050472482124E+01
   0.9966476385022673E+00
   0.1004988846884342E+01
   0.1003325514953834E+01
   0.9949431083294396E+00
   0.9832679438936822E+00
   0.9943957350811355E+00
   0.9973419814555899E+00
   0.9932184528150135E+00
   0.1001306230647312E+01
   0.1003001445449372E+01
   0.1002183336797116E+01
   0.9947074633540439E+00
   0.9937965302166430E+00
   0.1004867804472188E+01
   0.1020078624497416E+01
   0.1005365194894849E+01
   0.9816998530127865E+00
   0.1004973156371671E+01
   0.1012382659081503E+01
   0.9871418906838252E+00
   0.9551509052519399E+00
   0.9865075700111248E+00
   0.9864534426640968E+00
   0.9918944857430491E+00
   0.9933508168470363E+00
   0.9954409578446674E+00
   0.1037338866242452E+01
   0.1033537544620388E+01
   0.1001443097603261E+01
   0.1001930324324173E+01
   0.9912473208713266E+00
   0.9910918873809262E+00
   0.9648483827856625E+00
   0.9933274689388464E+00
   0.1006058241530514E+01
   0.1001953761836171E+01
   0.9908735342461924E+00
   0.9740939653369158E+00
   0.9418794308994464E+00
   0.9819377124494023E+00
   0.9794801797309912E+00
   0.9704169616495137E+00
   0.9720476409064808E+00
   0.9557345513424235E+00
   0.9496725729909441E+00
   0.9528671551736320E+00
   0.1002659424518860E+01
   0.1002471440889287E+01
   0.1000509096326755E+01
   0.1001677129898152E+01
   0.9607926682628133E+00
   0.9491621876238309E+00
   0.9584500824877270E+00
   0.1001120970890929E+01
   0.1000495871718233E+01
   0.1001156478688043E+01
   0.9807376520601886E+00
   0.9805999778704338E+00
   0.9628472683130150E+00
SCALARS u double 1
LOOKUP_TABLE default
   0.0000000000000000E+00
   0.0000000000000000E+00
   0.0000000000000000E+00
   0.0000000000000000E+00
   0.0000000000000000E+00
   0.0000000000000000E+00
   0.0000000000000000E+00
   0.0000000000000000E+00
   0.0000000000000000E+00
   0.0000000000000000E+00
   0.0000000000000000E+00
   0.0000000000000000E+00
   0.0000000000000000E+00
   0.0000000000000000E+00
   0.0000000000000000E+00
   0.0000000000000000E+00
   0.0000000000000000E+00
   0.0000000000000000E+00
   0.0000000000000000E+00
   0.0000000000000000E+00
   0.0000000000000000E+00
   0.0000000000000000E+00
   0.0000000000000000E+00
   0.0000000000000000E+00
   0.0000000000000000E+00
   0.0000000000000000E+00
   0.0000000000000000E+00
   0.0000000000000000E+00
   0.0000000000000000E+00
   0.0000000000000000E+00
   0.0000000000000000E+00
   0.0000000000000000E+00
   0.0000000000000000E+00
   0.4950172642323020E+00
   0.5338214874377077E+00
   0.5183274435118653E+00
   0.4930669694831780E+00
   0.4847607846812916E+00
   0.4867679924115202E+00
   0.4890760648395557E+00
   0.4957843058060210E+00
   0.4898292903123723E+00
   0.4717392022613089E+00
   0.4454815916139570E+00
   0.4833883768404642E+00
   0.5098415390565089E+00
   0.4390715536003849E+00
   0.4949404454564856E+00
   0.5225340664366576E+00
   0.4962459884417282E+00
   0.5226153789168608E+00
   0.5038894192387133E+00
   0.5646876752357955E+00
   0.5247523451968479E+00
   0.4991485488255387E+00
   0.5730543343393139E+00
   0.5696028011961517E+00
   0.3737938033118627E+00
   0.3998659296026627E+00
   0.5599309809853920E+00
   0.5564588854558187E+00
   0.4942645997138022E+00
   0.4948679590152624E+00
   0.4925754561019994E+00
   0.4914291242285858E+00
   0.5162364430595052E+00
   0.5361791982478036E+00
   0.4947407570523281E+00
   0.4524112368605915E+00
   0.5128786546979779E+00
   0.5117951371557723E+00
   0.4783515083492106E+00
   0.4931694111612158E+00
   0.4603173844687676E+00
   0.5244884766752147E+00
   0.5297427416392141E+00
   0.5129587312373083E+00
   0.5328355433206963E+00
   0.5308939086765402E+00
   0.5309854265282982E+00
   0.5063665956491672E+00
   0.5282452681446183E+00
   0.5410305710293604E+00
   0.5361251399951653E+00
   0.5374096188788927E+00
   0.4965361396634879E+00
   0.4975336637712005E+00
   0.4963836825446583E+00
   0.4955213515052963E+00
   0.4904578424793895E+00
   0.4903056242170929E+00
   0.4862209722332065E+00
   0.4854081536897972E+00
   0.4932158812890508E+00
   0.4909829240825628E+00
   0.4832226938063782E+00
   0.4872657710271153E+00
   0.4880162512552605E+00
   0.4872472490383860E+00
   0.4882713600842896E+00
   0.4952591363185300E+00
   0.4900968937906360E+00
   0.4904002775635903E+00
   0.4944226492703180E+00
   0.4868023899336227E+00
   0.4892394674573181E+00
   0.4881402138769557E+00
   0.4878479987357708E+00
   0.4446853083103459E+00
   0.4700034785471974E+00
   0.4891993976430553E+00
   0.4885239337421046E+00
   0.4506504399603026E+00
   0.4687346790275437E+00
   0.4877005816313886E+00
   0.4868348628005962E+00
   0.4908987764362678E+00
   0.4793553515239451E+00
   0.4658086279947910E+00
   0.3792686777931216E+00
   0.4901595180645605E+00
   0.4486716846363841E+00
   0.4436109446299236E+00
   0.4845141312973394E+00
   0.4621842309402304E+00
   0.4665773177173366E+00
   0.4748147386775917E+00
   0.4894472316682155E+00
   0.5085578696371083E+00
   0.4315070791685913E+00
   0.4927351820490649E+00
   0.5318295803091232E+00
   0.4913405959501825E+00
   0.5207017366715124E+00
   0.5060978343960735E+00
   0.5688787375654190E+00
   0.5274006911343291E+00
   0.5015064043982638E+00
   0.5821765618217409E+00
   0.5689594310582575E+00
   0.3406394935755627E+00
   0.3789867215076305E+00
   0.5751937779603382E+00
   0.5666480028785165E+00
   0.5704101011045057E+00
   0.5291064426949568E+00
   0.5451904137005605E+00
   0.5718792455382454E+00
   0.5389072945936807E+00
   0.5475484002824943E+00
   0.5821688357629885E+00
   0.4925609248889654E+00
   0.5042166018625405E+00
   0.4961741596404953E+00
   0.5565198905396685E+00
   0.4758833187093127E+00
   0.4950276856653040E+00
   0.5498528648905489E+00
   0.5891181954606264E+00
   0.5841943467027210E+00
   0.5469098039908445E+00
   0.5805396041557571E+00
   0.5106265445929292E+00
   0.5030211471644951E+00
   0.5033643334605723E+00
   0.5676433680756076E+00
   0.5563942522743175E+00
   0.4947263460310254E+00
   0.5505235077245736E+00
   0.5510849917700252E+00
   0.5657330509460999E+00
   0.4920073447290174E+00
   0.4927307508513531E+00
   0.3865134539654611E+00
   0.3687749348662853E+00
   0.5574899166818573E+00
   0.5763741951732145E+00
   0.4194299772740577E+00
   0.5824824199827758E+00
   0.4265198116590583E+00
   0.5392780304567742E+00
   0.5012004078711095E+00
   0.5119527506967715E+00
   0.5049133724179473E+00
   0.5751953383325893E+00
   0.5876354243862839E+00
   0.5379890273992097E+00
   0.5677452593866895E+00
   0.5351251847304204E+00
   0.5338062103313911E+00
   0.5580316874470845E+00
   0.5512691863919972E+00
   0.4261854604550069E+00
   0.5273341537807177E+00
   0.5795693048421627E+00
   0.3318681539676810E+00
   0.4760270105142535E+00
   0.5446181489221575E+00
   0.4798326878127281E+00
   0.3005293008494091E+00
   0.5031068082733496E+00
   0.5017129507575412E+00
   0.5129049593764686E+00
   0.5414836821821574E+00
   0.3437602903245829E+00
   0.3397709237618681E+00
   0.3189930698930295E+00
   0.5065951681018023E+00
   0.5123502379987463E+00
   0.5330322781656047E+00
   0.5879287047859191E+00
   0.4644166840633362E+00
   0.3531264975048663E+00
SCALARS v double 1
LOOKUP_TABLE default
   0.0000000000000000E+00
   0.0000000000000000E+00
   0.0000000000000000E+00
   0.0000000000000000E+00
   0.0000000000000000E+00
   0.0000000000000000E+00
   0.0000000000000000E+00
   0.0000000000000000E+00
   0.0000000000000000E+00
   0.0000000000000000E+00
   0.0000000000000000E+00
   0.0000000000000000E+00
   0.0000000000000000E+00
   0.0000000000000000E+00
   0.0000000000000000E+00
   0.0000000000000000E+00
   0.0000000000000000E+00
   0.0000000000000000E+00
   0.0000000000000000E+00
   0.0000000000000000E+00
   0.0000000000000000E+00
   0.0000000000000000E+00
   0.0000000000000000E+00
   0.0000000000000000E+00
   0.0000000000000000E+00
   0.0000000000000000E+00
   0.0000000000000000E+00
   0.0000000000000000E+00
   0.0000000000000000E+00
   0.0000000000000000E+00
   0.0000000000000000E+00
   0.0000000000000000E+00
   0.0000000000000000E+00
   0.0000000000000000E+00
   0.0000000000000000E+00
   0.0000000000000000E+00
   0.0000000000000000E+00
   0.0000000000000000E+00
   0.0000000000000000E+00
   0.0000000000000000E+00
   0.0000000000000000E+00
   0.0000000000000000E+00
   0.0000000000000000E+00
   0.0000000000000000E+00
   0.0000000000000000E+00
   0.0000000000000000E+00
   0.0000000000000000E+00
   0.0000000000000000E+00
   0.0000000000000000E+00
   0.0000000000000000E+00
   0.0000000000000000E+00
   0.0000000000000000E+00
   0.0000000000000000E+00
   0.0000000000000000E+00
   0.0000000000000000E+00
   0.0000000000000000E+00
   0.0000000000000000E+00
   0.0000000000000000E+00
   0.0000000000000000E+00
   0.0000000000000000E+00
   0.0000000000000000E+00
   0.7970881098371849E-03
  -0.1328927656168161E-02
  -0.1332248577877557E-02
   0.0000000000000000E+00
   0.0000000000000000E+00
   0.0000000000000000E+00
   0.0000000000000000E+00
  -0.1922546394034783E-01
   0.4772090050595586E-03
   0.2183093810326141E-02
   0.1427315740861669E-01
  -0.6488275789266109E-02
  -0.7821528751539209E-02
  -0.1327712529235545E-01
   0.4914229300338827E-02
   0.6907853183527016E-03
   0.3434193474421145E-02
   0.1920807886951728E-02
   0.3147691814906685E-02
   0.1704743152376809E-02
  -0.7316055863451055E-02
  -0.7723743083974330E-04
   0.4468475544100141E-02
  -0.4389389614407702E-03
  -0.6396446820826381E-04
  -0.1964343049306274E-03
   0.8071705573877940E-03
   0.0000000000000000E+00
   0.0000000000000000E+00
   0.0000000000000000E+00
   0.0000000000000000E+00
   0.4255932562021881E-03
   0.1616311643067001E-02
  -0.1297392947771433E-02
  -0.1022426338879136E-02
  -0.2133740816202584E-02
  -0.1063724418465798E-02
  -0.8197728483228835E-03
  -0.7614664809344951E-03
   0.5207094673888506E-04
  -0.6241781981555204E-03
   0.7916143825471130E-03
  -0.1745176504312997E-02
   0.2746728797113996E-03
  -0.8927953777279610E-04
  -0.9421610590329495E-03
  -0.1099828784122493E-02
   0.0000000000000000E+00
   0.0000000000000000E+00
   0.0000000000000000E+00
  -0.1061587691473696E-02
  -0.7641221535964064E-02
   0.1860808983410154E-01
  -0.2827077951299713E-04
  -0.1382997227525826E-02
  -0.2034978226809115E-02
  -0.5665981062224380E-02
  -0.1585356473565549E-02
  -0.5946813290410941E-02
  -0.4160208755163584E-02
   0.1565443278946608E-02
   0.3329502035974276E-01
   0.3056943066283585E-04
  -0.2766290608705645E-02
   0.3566767187142378E-02
   0.3599197576159766E-03
   0.0000000000000000E+00
   0.0000000000000000E+00
   0.0000000000000000E+00
   0.0000000000000000E+00
   0.0000000000000000E+00
   0.0000000000000000E+00
   0.0000000000000000E+00
   0.0000000000000000E+00
   0.0000000000000000E+00
   0.0000000000000000E+00
   0.0000000000000000E+00
   0.0000000000000000E+00
   0.0000000000000000E+00
   0.0000000000000000E+00
   0.0000000000000000E+00
   0.0000000000000000E+00
   0.0000000000000000E+00
   0.5046826167492267E-02
   0.3230744440753310E-02
   0.8149021181418442E-02
   0.6168163403915515E-02
   0.1122922208194682E-01
   0.1429255265011631E-01
  -0.2038895588455108E-03
   0.5118214868475952E-02
   0.2914946558195515E-02
   0.3373721622334062E-02
   0.3728376581875171E-02
  -0.1465691917252913E-01
  -0.6158413639815047E-03
   0.6651403715274570E-02
   0.1541894400748375E-02
   0.1969622111720409E-02
   0.4266038481691175E-02
  -0.2790971132520402E-02
   0.1227001865700190E-02
   0.2819145058715087E-02
   0.1497381295460908E-02
   0.2575090996711841E-02
   0.2030543085655337E-02
   0.2118137949645653E-02
   0.8700317539833252E-02
  -0.3733277912238942E-02
   0.6240987866133421E-02
   0.2523901139282890E-04
  -0.3854047623503776E-03
  -0.1674661592970544E-01
  -0.4882013675918792E-02
  -0.4719999345060013E-02
   0.3445195842646084E-02
  -0.6135439391073289E-02
   0.9938180565483845E-04
  -0.3291342518263136E-01
  -0.3046237543973476E-02
   0.4722560531019090E-02
   0.9228296176296900E-03
   0.2112087502474348E-02
   0.4518512977419838E-02
   0.2720383137531661E-02
   0.3212526025908769E-02
   0.5200535324877511E-02
   0.1941867733110163E-02
   0.7316978390073434E-03
  -0.2541804333180968E-04
  -0.5374563854835556E-02
  -0.6959621287691458E-02
  -0.9443285508600616E-03
   0.1105174383347978E-02
  -0.2080518977033548E-02
  -0.3199978959380335E-02
  -0.2527843681388451E-02
  -0.4115133746625573E-02
  -0.7593905705448718E-02
  -0.1985514847608371E-02
   0.6241824759968583E-03
  -0.2237520613364658E-03
   0.1216768913821995E-02
  -0.3483907510250219E-02
   0.5229194946540606E-02
  -0.8487500506688993E-02
   0.2324416105630750E-04
  -0.3393965013651067E-03
   0.2542438054527661E-02
   0.1663427340011239E-02
   0.2021369489204923E-02
  -0.5620759702032729E-02
SCALARS w double 1
LOOKUP_TABLE default
   0.0000000000000000E+00
   0.0000000000000000E+00
   0.0000000000000000E+00
   0.0000000000000000E+00
   0.0000000000000000E+00
   0.0000000000000000E+00
   0.0000000000000000E+00
   0.0000000000000000E+00
   0.0000000000000000E+00
   0.0000000000000000E+00
   0.0000000000000000E+00
   0.0000000000000000E+00
   0.0000000000000000E+00
   0.0000000000000000E+00
   0.0000000000000000E+00
   0.0000000000000000E+00
   0.0000000000000000E+00
   0.0000000000000000E+00
   0.0000000000000000E+00
   0.0000000000000000E+00
   0.0000000000000000E+00
   0.0000000000000000E+00
   0.0000000000000000E+00
   0.0000000000000000E+00
   0.0000000000000000E+00
   0.0000000000000000E+00
   0.0000000000000000E+00
   0.0000000000000000E+00
   0.0000000000000000E+00
   0.0000000000000000E+00
   0.0000000000000000E+00
   0.0000000000000000E+00
   0.0000000000000000E+00
  -0.1007606532745618E+00
  -0.4249295242588381E-01
   0.7368150779294447E-03
   0.5726242747736656E-02
   0.5700162241589053E-03
   0.1609731721428290E-02
   0.3375009061941324E-02
   0.2372031486393992E-02
   0.4590271267901964E-03
   0.3519827340996387E-02
   0.4522187405210563E-01
   0.6522883775048770E-01
   0.8693008901638873E-03
  -0.2261154819729782E-01
   0.4317187979350099E-02
   0.1358874963221899E-01
   0.1039564313646107E-01
   0.4900638283721317E-01
   0.2438312260570348E-02
  -0.6509589399874153E-02
  -0.7001778599496733E-03
   0.3417603164999975E-03
   0.3903953650484234E-02
  -0.3893229345326590E-01
   0.1798161188410660E-01
   0.1119618821936434E-01
   0.3403760805440176E-01
   0.8439704793714755E-02
   0.4937976977932471E-02
   0.4971160217220241E-02
   0.4872108392330769E-02
   0.6027660496961715E-02
   0.2598781288391876E-02
  -0.4144439509977499E-01
  -0.9954209704430303E-01
  -0.1121673751377247E+00
   0.5070523888420916E-02
   0.4230416541650494E-02
  -0.1004728854358879E+00
  -0.9895249250701817E-01
  -0.9875437468115360E-01
  -0.9462473486795056E-01
  -0.6807110511827164E-01
   0.5154593359129720E-02
  -0.1935392509050260E-01
  -0.1575855816977631E-01
  -0.6003517826355578E-02
   0.6818872165207423E-02
  -0.8010017135744572E-01
  -0.2781134256804251E-01
  -0.8096441843133294E-01
  -0.5873296599637638E-01
   0.3084004973827584E-02
   0.2685422956740442E-02
   0.2640547465060729E-02
   0.3450230357413482E-02
   0.4007024979084881E-02
   0.1201196439896350E-02
  -0.1438534341503735E-03
   0.2040301219993868E-02
   0.4895693923596886E-02
   0.3857469222211996E-02
   0.1114652745345441E-02
   0.1183284464771193E-02
   0.1466073971781583E-02
  -0.1607429973940583E-04
   0.9002574302644242E-04
   0.4386925187670131E-02
   0.2715852311074335E-02
   0.2322825870276694E-02
   0.5010683517308397E-02
   0.1071677155563708E-02
   0.2712257861110577E-02
   0.2014268545577501E-02
   0.2906371839772236E-04
   0.8374885240686322E-01
   0.2795300483523776E-02
  -0.8344489519096507E-03
  -0.1490795003676327E-03
   0.1409550007065896E+00
   0.1239334113132624E+00
  -0.1218694324445488E-02
  -0.4381668768849616E-02
  -0.3041272199631468E-03
  -0.6511227410563112E-02
  -0.1947611011068509E-02
   0.1557642513572085E+00
   0.7490247879910113E-01
   0.2550559423799994E-01
   0.1656450917662333E+00