# vtk DataFile Version 2.0
FUN3D:global_image_vtk
ASCII
DATASET UNSTRUCTURED_GRID
POINTS 213 double
    0.0000000000000000E+00    0.2500000000000000E+01    0.0000000000000000E+00
    0.1250000000000000E+01    0.2500000000000000E+01    0.0000000000000000E+00
    0.2500000000000000E+01    0.2500000000000000E+01    0.0000000000000000E+00
    0.3750000000000000E+01    0.2500000000000000E+01    0.0000000000000000E+00
    0.5000000000000000E+01    0.2500000000000000E+01    0.0000000000000000E+00
    0.5000000000000000E+01    0.1250000000000000E+01    0.0000000000000000E+00
    0.5000000000000000E+01    0.0000000000000000E+00    0.0000000000000000E+00
    0.5000000000000000E+01   -0.1250000000000000E+01    0.0000000000000000E+00
    0.5000000000000000E+01   -0.2500000000000000E+01    0.0000000000000000E+00
    0.3750000000000000E+01   -0.2500000000000000E+01    0.0000000000000000E+00
    0.2500000000000000E+01   -0.2500000000000000E+01    0.0000000000000000E+00
    0.1250000000000000E+01   -0.2500000000000000E+01    0.0000000000000000E+00
    0.0000000000000000E+00   -0.2500000000000000E+01    0.0000000000000000E+00
    0.0000000000000000E+00   -0.1250000000000000E+01    0.0000000000000000E+00
    0.0000000000000000E+00    0.0000000000000000E+00    0.0000000000000000E+00
    0.0000000000000000E+00    0.1250000000000000E+01    0.0000000000000000E+00
    0.9058375365086910E+00    0.1578994732800803E+01    0.0000000000000000E+00
    0.3982050490726493E+01   -0.1583989954232354E+01    0.0000000000000000E+00
    0.4033849428301197E+01    0.1453322699199022E+01    0.0000000000000000E+00
    0.1040505887381675E+01   -0.1479596339503735E+01    0.0000000000000000E+00
    0.1099454400140349E+01   -0.3227322616384110E+00    0.0000000000000000E+00
    0.7354504170366591E+00    0.6593508822075582E+00    0.0000000000000000E+00
    0.1622302608453282E+01    0.8256214013940779E+00    0.0000000000000000E+00
    0.2145871574390382E+01   -0.1650070333782557E+01    0.0000000000000000E+00
    0.4086422318222992E+01   -0.4612828702537229E+00    0.0000000000000000E+00
    0.2979540174134984E+01   -0.8579242121530853E+00    0.0000000000000000E+00
    0.3045064261640043E+01   -0.1836846154397680E+01    0.0000000000000000E+00
    0.3428197553792836E+01    0.3508002863614053E+00    0.0000000000000000E+00
    0.4309693860063405E+01    0.5185680230613409E+00    0.0000000000000000E+00
    0.1827272193562204E+01    0.1738996113203182E+01    0.0000000000000000E+00
    0.2808563282768077E+01    0.1325493893339706E+01    0.0000000000000000E+00
    0.1895995683864404E+01   -0.8731419609589618E+00    0.0000000000000000E+00
    0.2273179336307740E+01    0.4906150219227333E-01    0.0000000000000000E+00
    0.5000000000000000E+01    0.2500000000000000E+01    0.1250000000000000E+01
    0.5000000000000000E+01    0.2500000000000000E+01    0.2500000000000000E+01
    0.5000000000000000E+01    0.2500000000000000E+01    0.3750000000000000E+01
    0.5000000000000000E+01    0.2500000000000000E+01    0.5000000000000000E+01
    0.3750000000000000E+01    0.2500000000000000E+01    0.5000000000000000E+01
    0.2500000000000000E+01    0.2500000000000000E+01    0.5000000000000000E+01
    0.1250000000000000E+01    0.2500000000000000E+01    0.5000000000000000E+01
    0.0000000000000000E+00    0.2500000000000000E+01    0.5000000000000000E+01
    0.0000000000000000E+00    0.2500000000000000E+01    0.3750000000000000E+01
    0.0000000000000000E+00    0.2500000000000000E+01    0.2500000000000000E+01
    0.0000000000000000E+00    0.2500000000000000E+01    0.1250000000000000E+01
    0.9631080833812172E+00    0.2500000000000000E+01    0.9613285771248219E+00
    0.3981732467264904E+01    0.2500000000000000E+01    0.4069753913607991E+01
    0.4035525118777670E+01    0.2500000000000000E+01    0.1012015867579395E+01
    0.9641717640894248E+00    0.2500000000000000E+01    0.3972455192261839E+01
    0.1547743040396780E+01    0.2500000000000000E+01    0.2928177746738678E+01
    0.6985170616192014E+00    0.2500000000000000E+01    0.3068281976055466E+01
    0.8931277594515110E+00    0.2500000000000000E+01    0.2052465503257726E+01
    0.2183293750162785E+01    0.2500000000000000E+01    0.3959073795658649E+01
    0.3855333506014705E+01    0.2500000000000000E+01    0.2931218481500625E+01
    0.3152495579421047E+01    0.2500000000000000E+01    0.3635850502723324E+01
    0.3103247580566054E+01    0.2500000000000000E+01    0.4331682712472464E+01
    0.3266837581688852E+01    0.2500000000000000E+01    0.1886092433583972E+01
    0.4231539241296245E+01    0.2500000000000000E+01    0.1915865356532799E+01
    0.1909741006522088E+01    0.2500000000000000E+01    0.7170024419130505E+00
    0.2880784107213163E+01    0.2500000000000000E+01    0.9046598906449592E+00
    0.2014316024535771E+01    0.2500000000000000E+01    0.1762464314805728E+01
    0.2670003247036656E+01    0.2500000000000000E+01    0.2850479545835163E+01
    0.5000000000000000E+01    0.1250000000000000E+01    0.5000000000000000E+01
    0.5000000000000000E+01    0.0000000000000000E+00    0.5000000000000000E+01
    0.5000000000000000E+01   -0.1250000000000000E+01    0.5000000000000000E+01
    0.5000000000000000E+01   -0.2500000000000000E+01    0.5000000000000000E+01
    0.5000000000000000E+01   -0.2500000000000000E+01    0.3750000000000000E+01
    0.5000000000000000E+01   -0.2500000000000000E+01    0.2500000000000000E+01
    0.5000000000000000E+01   -0.2500000000000000E+01    0.1250000000000000E+01
    0.5000000000000000E+01    0.1578994732800803E+01    0.9058375365086910E+00
    0.5000000000000000E+01   -0.1583989954232354E+01    0.3982050490726493E+01
    0.5000000000000000E+01    0.1453322699199022E+01    0.4033849428301197E+01
    0.5000000000000000E+01   -0.1479596339503735E+01    0.1040505887381675E+01
    0.5000000000000000E+01   -0.3227322616384110E+00    0.1099454400140349E+01
    0.5000000000000000E+01    0.6593508822075582E+00    0.7354504170366591E+00
    0.5000000000000000E+01    0.8256214013940779E+00    0.1622302608453282E+01
    0.5000000000000000E+01   -0.1650070333782557E+01    0.2145871574390382E+01
    0.5000000000000000E+01   -0.4612828702537229E+00    0.4086422318222992E+01
    0.5000000000000000E+01   -0.8579242121530853E+00    0.2979540174134984E+01
    0.5000000000000000E+01   -0.1836846154397680E+01    0.3045064261640043E+01
    0.5000000000000000E+01    0.3508002863614053E+00    0.3428197553792836E+01
    0.5000000000000000E+01    0.5185680230613409E+00    0.4309693860063405E+01
    0.5000000000000000E+01    0.1738996113203182E+01    0.1827272193562204E+01
    0.5000000000000000E+01    0.1325493893339706E+01    0.2808563282768077E+01
    0.5000000000000000E+01   -0.8731419609589618E+00    0.1895995683864404E+01
    0.5000000000000000E+01    0.4906150219227333E-01    0.2273179336307740E+01
    0.0000000000000000E+00    0.1250000000000000E+01    0.5000000000000000E+01
    0.0000000000000000E+00    0.0000000000000000E+00    0.5000000000000000E+01
    0.0000000000000000E+00   -0.1250000000000000E+01    0.5000000000000000E+01
    0.0000000000000000E+00   -0.2500000000000000E+01    0.5000000000000000E+01
    0.1250000000000000E+01   -0.2500000000000000E+01    0.5000000000000000E+01
    0.2500000000000000E+01   -0.2500000000000000E+01    0.5000000000000000E+01
    0.3750000000000000E+01   -0.2500000000000000E+01    0.5000000000000000E+01
    0.4042003247744892E+01    0.1558308132739014E+01    0.5000000000000000E+01
    0.9304122287900499E+00   -0.1548001304379777E+01    0.5000000000000000E+01
    0.1037243024609388E+01    0.1462892710085612E+01    0.5000000000000000E+01
    0.3946240828834967E+01   -0.1445243809615570E+01    0.5000000000000000E+01
    0.4092527262848217E+01   -0.3455338993778935E+00    0.5000000000000000E+01
    0.4293103109154542E+01    0.6277660831404320E+00    0.5000000000000000E+01
    0.3241512314643519E+01    0.7429886854239611E+00    0.5000000000000000E+01
    0.2844289952419609E+01   -0.1588117879734118E+01    0.5000000000000000E+01
    0.7159905765450471E+00   -0.6002320124191652E+00    0.5000000000000000E+01
    0.1754341919796891E+01   -0.7398147869923652E+00    0.5000000000000000E+01
    0.1870296826774691E+01   -0.1788622905643739E+01    0.5000000000000000E+01
    0.9220614901912976E+00    0.3083720183248586E+00    0.5000000000000000E+01
    0.3101523624086016E+01    0.1777901774806180E+01    0.5000000000000000E+01
    0.2192512063922564E+01    0.1576861561598471E+01    0.5000000000000000E+01
    0.2024793420196460E+01    0.4773861992750707E+00    0.5000000000000000E+01
    0.2990627757741975E+01   -0.4878110785814084E+00    0.5000000000000000E+01
    0.0000000000000000E+00   -0.2500000000000000E+01    0.1250000000000000E+01
    0.0000000000000000E+00   -0.2500000000000000E+01    0.2500000000000000E+01
    0.0000000000000000E+00   -0.2500000000000000E+01    0.3750000000000000E+01
    0.0000000000000000E+00    0.1558308132739014E+01    0.4042003247744892E+01
    0.0000000000000000E+00   -0.1548001304379777E+01    0.9304122287900499E+00
    0.0000000000000000E+00    0.1462892710085612E+01    0.1037243024609388E+01
    0.0000000000000000E+00   -0.1445243809615570E+01    0.3946240828834967E+01
    0.0000000000000000E+00   -0.3455338993778935E+00    0.4092527262848217E+01
    0.0000000000000000E+00    0.6277660831404320E+00    0.4293103109154542E+01
    0.0000000000000000E+00    0.7429886854239611E+00    0.3241512314643519E+01
    0.0000000000000000E+00   -0.1588117879734118E+01    0.2844289952419609E+01
    0.0000000000000000E+00   -0.6002320124191652E+00    0.7159905765450471E+00
    0.0000000000000000E+00   -0.7398147869923652E+00    0.1754341919796891E+01
    0.0000000000000000E+00   -0.1788622905643739E+01    0.1870296826774691E+01
    0.0000000000000000E+00    0.3083720183248586E+00    0.9220614901912976E+00
    0.0000000000000000E+00    0.1777901774806180E+01    0.3101523624086016E+01
    0.0000000000000000E+00    0.1576861561598471E+01    0.2192512063922564E+01
[...]
POINT_DATA 213
SCALARS rho double 1
LOOKUP_TABLE default
   0.1344272808383496E+01
   0.9569772451807581E+00
   0.9462966722238669E+00
   0.9418613066870638E+00
   0.8437299602548263E+00
   0.7737999244446533E+00
   0.7629813659470812E+00
   0.7664572276944450E+00
   0.8307867965629683E+00
   0.9352970753517833E+00
   0.9342222745685613E+00
   0.9617204269758438E+00
   0.1449458937001935E+01
   0.1494092876098834E+01
   0.1644670096008911E+01
   0.1425834388922087E+01
   0.1009016266762023E+01
   0.9508812183111981E+00
   0.9436507227825532E+00
   0.9581570662011519E+00
   0.9415857212072318E+00
   0.1036378579171611E+01
   0.9256167555251231E+00
   0.9322353911949272E+00
   0.9537480352054308E+00
   0.9518769502357929E+00
   0.9348582778285368E+00
   0.9564026713489054E+00
   0.9376096790537199E+00
   0.9300667860256724E+00
   0.9445157928093559E+00
   0.8863506391061894E+00
   0.9423579139309480E+00
   0.9634990524334519E+00
   0.1008298347516780E+01
   0.1006735389478035E+01
   0.1001964884582628E+01
   0.1003219556166723E+01
   0.1004132111300482E+01
   0.1005228918130809E+01
   0.1004260519065593E+01
   0.1008308848895963E+01
   0.1023893451607023E+01
   0.1063555156380090E+01
   0.1019183408312007E+01
   0.1001780561254215E+01
   0.9643306014445826E+00
   0.1005283956158336E+01
   0.1000721195283888E+01
   0.1008742491787652E+01
   0.1008078906861017E+01
   0.1002349644905552E+01
   0.9979984879796604E+00
   0.1000583265252511E+01
   0.1001619884527804E+01
   0.9826891907363908E+00
   0.9842433353633330E+00
   0.9833311073330034E+00
   0.9788206848318738E+00
   0.9902641378598164E+00
   0.9934560863830221E+00
   0.1002012053868788E+01
   0.1002134732553762E+01
   0.1002276573282497E+01
   0.1001794955217095E+01
   0.1009778482823565E+01
   0.1006427940077172E+01
   0.9558772075019788E+00
   0.9249386589827423E+00
   0.1007036849004835E+01
   0.1004504989539068E+01
   0.9143630992653627E+00
   0.9089657050978455E+00
   0.8751678171477494E+00
   0.9767259413023218E+00
   0.1000451196003493E+01
   0.1005831243688465E+01
   0.1012882071703009E+01
   0.1011618337583785E+01
   0.1010438310631865E+01
   0.1005468517398526E+01
   0.9907599886431084E+00
   0.1005139766839573E+01
   0.9860554686098472E+00
   0.1005608566558346E+01
   0.1004248108828249E+01
   0.1002888724792260E+01
   0.1003345763367320E+01
   0.1003993095615484E+01
   0.1005102015388152E+01
   0.1003211733577968E+01
   0.1002663151379009E+01
   0.1002586114660566E+01
   0.1004061122431445E+01
   0.1004320581936932E+01
   0.1001641720795367E+01
   0.1002272854344731E+01
   0.1002543253795376E+01
   0.1003469207927812E+01
   0.1003372620850123E+01
   0.1003232299745364E+01
   0.1004423987543041E+01
   0.1004313258369131E+01
   0.1003660050797383E+01
   0.1003723076372959E+01
   0.1004329748675252E+01
   0.1004464939532382E+01
   0.1003623206147029E+01
   0.1064425971203453E+01
   0.1028473707390465E+01
   0.1009587225579164E+01
   0.1006639366176150E+01
   0.1163938467484853E+01
   0.1086091426510140E+01
   0.1007893793108299E+01
   0.1007245951301452E+01
   0.1006798603997914E+01
   0.1013018393584456E+01
   0.1019384215810136E+01
   0.1235208930863423E+01
   0.1032531509795375E+01
   0.1046680120269458E+01
   0.1200956725473642E+01
   0.1014719540871960E+01
   0.1032290856940082E+01
   0.1028095015141880E+01
   0.1014628462709794E+01
   0.1029217563285832E+01
   0.1001994534319220E+01
   0.9606924711028803E+00
   0.1006852800069159E+01
   0.1001327570488826E+01
   0.1010821941577674E+01
   0.1012247345697889E+01
   0.1000945843685867E+01
   0.9979116925925906E+00
   0.9980628721533308E+00
   0.1001183961402952E+01
   0.9841359120287003E+00
   0.9814872034030792E+00
   0.9648481172783543E+00
   0.9680874229493370E+00
   0.9914126325257955E+00
   0.9910856638507187E+00
   0.9925546319510822E+00
   0.1001727665711333E+01
   0.9993411693220149E+00
   0.9941415402523857E+00
   0.1007039857005180E+01
   0.1022540992234299E+01
   0.1001088335723866E+01
   0.1008798759061950E+01
   0.1004773779081268E+01
   0.1009050472286063E+01
   0.9966476384335573E+00
   0.1004988845913092E+01
   0.1003325514798528E+01
   0.9949431082679463E+00
   0.9832679437448920E+00
   0.9943957350426458E+00
   0.9973419814219835E+00
   0.9932184527749415E+00
   0.1001306230520100E+01
   0.1003001445305547E+01
   0.1002183336674940E+01
   0.9947074633890430E+00
   0.9937965301973453E+00
   0.1004867804303603E+01
   0.1020078624439720E+01
   0.1005365194772113E+01
   0.9816998529422525E+00
   0.1004973156220646E+01
   0.1012382658879432E+01
   0.9871418894976969E+00
   0.9551509045192013E+00
   0.9865075698615930E+00
   0.9864534425371294E+00
   0.9918944848588982E+00
   0.9933508166276777E+00
   0.9954409565649922E+00
   0.1037338866160803E+01
   0.1033537544075749E+01
   0.1001443097533408E+01
   0.1001930324191042E+01
   0.9912473208838634E+00
   0.9910918873414465E+00
   0.9648483823303901E+00
   0.9933274688800189E+00
   0.1006058241538372E+01
   0.1001953761841261E+01
   0.9908735341871135E+00
   0.9740939648974400E+00
   0.9418794298398094E+00
   0.9819377119311548E+00
   0.9794801796521604E+00
   0.9704169609677143E+00
   0.9720476402757851E+00
   0.9557345509379167E+00
   0.9496725723093778E+00
   0.9528671541026473E+00
   0.1002659424349116E+01
   0.1002471440741047E+01
   0.1000509096242813E+01
   0.1001677129901661E+01
   0.9607926672550539E+00
   0.9491621864893324E+00
   0.9584500815108771E+00
   0.1001120970754975E+01
   0.1000495871612362E+01
   0.1001156478647186E+01
   0.9807376519658839E+00
   0.9805999771994908E+00
   0.9628472673126863E+00
SCALARS u double 1
LOOKUP_TABLE default
   0.0000000000000000E+00
   0.0000000000000000E+00
   0.0000000000000000E+00
   0.0000000000000000E+00
   0.0000000000000000E+00
   0.0000000000000000E+00
   0.0000000000000000E+00
   0.0000000000000000E+00
   0.0000000000000000E+00
   0.0000000000000000E+00
   0.0000000000000000E+00
   0.0000000000000000E+00
   0.0000000000000000E+00
   0.0000000000000000E+00
   0.0000000000000000E+00
   0.0000000000000000E+00
   0.0000000000000000E+00
   0.0000000000000000E+00
   0.0000000000000000E+00
   0.0000000000000000E+00
   0.0000000000000000E+00
   0.0000000000000000E+00
   0.0000000000000000E+00
   0.0000000000000000E+00
   0.0000000000000000E+00
   0.0000000000000000E+00
   0.0000000000000000E+00
   0.0000000000000000E+00
   0.0000000000000000E+00
   0.0000000000000000E+00
   0.0000000000000000E+00
   0.0000000000000000E+00
   0.0000000000000000E+00
   0.4950172646272787E+00
   0.5338214872529432E+00
   0.5183274433401683E+00
   0.4930669694836103E+00
   0.4847607848379695E+00
   0.4867679926211126E+00
   0.4890760650312902E+00
   0.4957843059205742E+00
   0.4898292904787378E+00
   0.4717392025676466E+00
   0.4454815919096634E+00
   0.4833883766230165E+00
   0.5098415390662010E+00
   0.4390715540963191E+00
   0.4949404456062009E+00
   0.5225340665075021E+00
   0.4962459885986387E+00
   0.5226153790208693E+00
   0.5038894193630885E+00
   0.5646876751773540E+00
   0.5247523452236857E+00
   0.4991485489422578E+00
   0.5730543344002043E+00
   0.5696028013108799E+00
   0.3737938032267684E+00
   0.3998659297611934E+00
   0.5599309809047261E+00
   0.5564588854505197E+00
   0.4942645997019278E+00
   0.4948679589959819E+00
   0.4925754560772644E+00
   0.4914291242362712E+00
   0.5162364428873152E+00
   0.5361791981186205E+00
   0.4947407576954867E+00
   0.4524112377088982E+00
   0.5128786545395181E+00
   0.5117951370250726E+00
   0.4783515091585771E+00
   0.4931694119231806E+00
   0.4603173858051086E+00
   0.5244884769925520E+00
   0.5297427416297130E+00
   0.5129587310697440E+00
   0.5328355430276014E+00
   0.5308939084408687E+00
   0.5309854262590994E+00
   0.5063665955277858E+00
   0.5282452682164550E+00
   0.5410305708138115E+00
   0.5361251401281684E+00
   0.5374096187166025E+00
   0.4965361397683344E+00
   0.4975336638690049E+00
   0.4963836826489469E+00
   0.4955213516154128E+00
   0.4904578426766010E+00
   0.4903056244318424E+00
   0.4862209723937096E+00
   0.4854081538221957E+00
   0.4932158814505789E+00
   0.4909829242559803E+00
   0.4832226939491473E+00
   0.4872657711457597E+00
   0.4880162513539887E+00
   0.4872472492319362E+00
   0.4882713602980213E+00
   0.4952591364598853E+00
   0.4900968940110695E+00
   0.4904002777817155E+00
   0.4944226494252719E+00
   0.4868023901232084E+00
   0.4892394676650262E+00
   0.4881402141001815E+00
   0.4878479989441831E+00
   0.4446853085432173E+00
   0.4700034789012066E+00
   0.4891993978190294E+00
   0.4885239339067065E+00
   0.4506504405195866E+00
   0.4687346792267288E+00
   0.4877005818096781E+00
   0.4868348629773341E+00
   0.4908987765794305E+00
   0.4793553517922494E+00
   0.4658086283451348E+00
   0.3792686786539806E+00
   0.4901595181320108E+00
   0.4486716850730012E+00
   0.4436109452725852E+00
   0.4845141315182774E+00
   0.4621842312912006E+00
   0.4665773180385155E+00
   0.4748147389948112E+00
   0.4894472312936867E+00
   0.5085578696373451E+00
   0.4315070797871344E+00
   0.4927351822140096E+00
   0.5318295803216377E+00
   0.4913405961299029E+00
   0.5207017367503791E+00
   0.5060978345081096E+00
   0.5688787374809490E+00
   0.5274006911364293E+00
   0.5015064045094942E+00
   0.5821765619328749E+00
   0.5689594312584300E+00
   0.3406394936176975E+00
   0.3789867218421057E+00
   0.5751937778504302E+00
   0.5666480028158130E+00
   0.5704101010870177E+00
   0.5291064427255654E+00
   0.5451904137326314E+00
   0.5718792455103074E+00
   0.5389072946961100E+00
   0.5475484003684293E+00
   0.5821688356948262E+00
   0.4925609250361984E+00
   0.5042166019841881E+00
   0.4961741597994204E+00
   0.5565198904895345E+00
   0.4758833181866957E+00
   0.4950276858338072E+00
   0.5498528649006307E+00
   0.5891181955515676E+00
   0.5841943466841087E+00
   0.5469098039702789E+00
   0.5805396041336157E+00
   0.5106265446845579E+00
   0.5030211472944743E+00
   0.5033643335442978E+00
   0.5676433679708341E+00
   0.5563942522553647E+00
   0.4947263461810505E+00
   0.5505235076921988E+00
   0.5510849916927623E+00
   0.5657330509274588E+00
   0.4920073449000499E+00
   0.4927307510097911E+00
   0.3865134542241489E+00
   0.3687749350645060E+00
   0.5574899167783004E+00
   0.5763741951526199E+00
   0.4194299772977502E+00
   0.5824824200206866E+00
   0.4265198113525193E+00
   0.5392780304756768E+00
   0.5012004078408451E+00
   0.5119527506815953E+00
   0.5049133725297588E+00
   0.5751953382836292E+00
   0.5876354243327282E+00
   0.5379890277507060E+00
   0.5677452593308874E+00
   0.5351251846009443E+00
   0.5338062102197622E+00
   0.5580316873948887E+00
   0.5512691866606979E+00
   0.4261854612203569E+00
   0.5273341539241793E+00
   0.5795693049263759E+00
   0.3318681543171483E+00
   0.4760270107756373E+00
   0.5446181492787421E+00
   0.4798326883762741E+00
   0.3005293013173629E+00
   0.5031068083884185E+00
   0.5017129508952852E+00
   0.5129049593952956E+00
   0.5414836820758518E+00
   0.3437602907582738E+00
   0.3397709246511846E+00
   0.3189930704122614E+00
   0.5065951682079298E+00
   0.5123502380307221E+00
   0.5330322781205755E+00
   0.5879287047260969E+00
   0.4644166840854084E+00
   0.3531264979806319E+00
SCALARS v double 1
LOOKUP_TABLE default
   0.0000000000000000E+00
   0.0000000000000000E+00
   0.0000000000000000E+00
   0.0000000000000000E+00
   0.0000000000000000E+00
   0.0000000000000000E+00
   0.0000000000000000E+00
   0.0000000000000000E+00
   0.0000000000000000E+00
   0.0000000000000000E+00
   0.0000000000000000E+00
   0.0000000000000000E+00
   0.0000000000000000E+00
   0.0000000000000000E+00
   0.0000000000000000E+00
   0.0000000000000000E+00
   0.0000000000000000E+00
   0.0000000000000000E+00
   0.0000000000000000E+00
   0.0000000000000000E+00
   0.0000000000000000E+00
   0.0000000000000000E+00
   0.0000000000000000E+00
   0.0000000000000000E+00
   0.0000000000000000E+00
   0.0000000000000000E+00
   0.0000000000000000E+00
   0.0000000000000000E+00
   0.0000000000000000E+00
   0.0000000000000000E+00
   0.0000000000000000E+00
   0.0000000000000000E+00
   0.0000000000000000E+00
   0.0000000000000000E+00
   0.0000000000000000E+00
   0.0000000000000000E+00
   0.0000000000000000E+00
   0.0000000000000000E+00
   0.0000000000000000E+00
   0.0000000000000000E+00
   0.0000000000000000E+00
   0.0000000000000000E+00
   0.0000000000000000E+00
   0.0000000000000000E+00
   0.0000000000000000E+00
   0.0000000000000000E+00
   0.0000000000000000E+00
   0.0000000000000000E+00
   0.0000000000000000E+00
   0.0000000000000000E+00
   0.0000000000000000E+00
   0.0000000000000000E+00
   0.0000000000000000E+00
   0.0000000000000000E+00
   0.0000000000000000E+00
   0.0000000000000000E+00
   0.0000000000000000E+00
   0.0000000000000000E+00
   0.0000000000000000E+00
   0.0000000000000000E+00
   0.0000000000000000E+00
   0.7970880996153381E-03
  -0.1328927667460116E-02
  -0.1332248589085096E-02
   0.0000000000000000E+00
   0.0000000000000000E+00
   0.0000000000000000E+00
   0.0000000000000000E+00
  -0.1922546405452365E-01
   0.4772089881776399E-03
   0.2183093806427467E-02
   0.1427315740964124E-01
  -0.6488275626373563E-02
  -0.7821528719570569E-02
  -0.1327712525471944E-01
   0.4914229281308934E-02
   0.6907853019919404E-03
   0.3434193454620988E-02
   0.1920807857861644E-02
   0.3147691823504080E-02
   0.1704743146058655E-02
  -0.7316055873208813E-02
  -0.7723741105718819E-04
   0.4468475571712239E-02
  -0.4389389174624547E-03
  -0.6396446205743220E-04
  -0.1964343038698892E-03
   0.8071705495537129E-03
   0.0000000000000000E+00
   0.0000000000000000E+00
   0.0000000000000000E+00
   0.0000000000000000E+00
   0.4255932382045269E-03
   0.1616311634624430E-02
  -0.1297392941558008E-02
  -0.1022426336913215E-02
  -0.2133740822238413E-02
  -0.1063724432238607E-02
  -0.8197728581180521E-03
  -0.7614664771040662E-03
   0.5207094284489829E-04
  -0.6241781948466864E-03
   0.7916143799143516E-03
  -0.1745176499243281E-02
   0.2746728674606997E-03
  -0.8927954272564483E-04
  -0.9421610597120383E-03
  -0.1099828777860800E-02
   0.0000000000000000E+00
   0.0000000000000000E+00
   0.0000000000000000E+00
  -0.1061587693485129E-02
  -0.7641221814797037E-02
   0.1860808961776925E-01
  -0.2827076796362759E-04
  -0.1382997214273521E-02
  -0.2034978212174410E-02
  -0.5665981043719516E-02
  -0.1585356466164266E-02
  -0.5946813191809204E-02
  -0.4160208728133038E-02
   0.1565443300295688E-02
   0.3329502030984352E-01
   0.3056942115577037E-04
  -0.2766290659878519E-02
   0.3566767151230696E-02
   0.3599197781732488E-03
   0.0000000000000000E+00
   0.0000000000000000E+00
   0.0000000000000000E+00
   0.0000000000000000E+00
   0.0000000000000000E+00
   0.0000000000000000E+00
   0.0000000000000000E+00
   0.0000000000000000E+00
   0.0000000000000000E+00
   0.0000000000000000E+00
   0.0000000000000000E+00
   0.0000000000000000E+00
   0.0000000000000000E+00
   0.0000000000000000E+00
   0.0000000000000000E+00
   0.0000000000000000E+00
   0.0000000000000000E+00
   0.5046826146119550E-02
   0.3230744414797368E-02
   0.8149021128348978E-02
   0.6168163377241812E-02
   0.1122922197713856E-01
   0.1429255260030875E-01
  -0.2038895435695576E-03
   0.5118214834811366E-02
   0.2914946535910371E-02
   0.3373721583593663E-02
   0.3728376544361177E-02
  -0.1465691913171521E-01
  -0.6158413594744820E-03
   0.6651403685711239E-02
   0.1541894446090125E-02
   0.1969622117330952E-02
   0.4266038458041408E-02
  -0.2790971109240364E-02
   0.1227001846831261E-02
   0.2819145035906848E-02
   0.1497381274842953E-02
   0.2575090998431287E-02
   0.2030543066418743E-02
   0.2118137933568790E-02
   0.8700317498854008E-02
  -0.3733277916945472E-02
   0.6240987827261017E-02
   0.2523901190601833E-04
  -0.3854047529293316E-03
  -0.1674661579493494E-01
  -0.4882013601902927E-02
  -0.4719999299598260E-02
   0.3445195842333491E-02
  -0.6135439333735084E-02
   0.9938182464874681E-04
  -0.3291342486141857E-01
  -0.3046237618316857E-02
   0.4722560488629563E-02
   0.9228296008273459E-03
   0.2112087486749678E-02
   0.4518512972536909E-02
   0.2720383113340471E-02
   0.3212526031403544E-02
   0.5200535313216339E-02
   0.1941867724474731E-02
   0.7316978235120995E-03
  -0.2541806575469608E-04
  -0.5374563855445809E-02
  -0.6959621294648527E-02
  -0.9443285025361399E-03
   0.1105174377322156E-02
  -0.2080518907994352E-02
  -0.3199978982434233E-02
  -0.2527843606120502E-02
  -0.4115133683968523E-02
  -0.7593905639327922E-02
  -0.1985514839055551E-02
   0.6241824689294948E-03
  -0.2237520757771946E-03
   0.1216768901918962E-02
  -0.3483907451769445E-02
   0.5229195062963310E-02
  -0.8487500532092995E-02
   0.2324415566383612E-04
  -0.3393965068336256E-03
   0.2542438044142238E-02
   0.1663427307072619E-02
   0.2021369453647754E-02
  -0.5620759613917280E-02
SCALARS w double 1
LOOKUP_TABLE default
   0.0000000000000000E+00
   0.0000000000000000E+00
   0.0000000000000000E+00
   0.0000000000000000E+00
   0.0000000000000000E+00
   0.0000000000000000E+00
   0.0000000000000000E+00
   0.0000000000000000E+00
   0.0000000000000000E+00
   0.0000000000000000E+00
   0.0000000000000000E+00
   0.0000000000000000E+00
   0.0000000000000000E+00
   0.0000000000000000E+00
   0.0000000000000000E+00
   0.0000000000000000E+00
   0.0000000000000000E+00
   0.0000000000000000E+00
   0.0000000000000000E+00
   0.0000000000000000E+00
   0.0000000000000000E+00
   0.0000000000000000E+00
   0.0000000000000000E+00
   0.0000000000000000E+00
   0.0000000000000000E+00
   0.0000000000000000E+00
   0.0000000000000000E+00
   0.0000000000000000E+00
   0.0000000000000000E+00
   0.0000000000000000E+00
   0.0000000000000000E+00
   0.0000000000000000E+00
   0.0000000000000000E+00
  -0.1007606538845421E+00
  -0.4249295280928538E-01
   0.7368149170550923E-03
   0.5726242705269448E-02
   0.5700161361767435E-03
   0.1609731592434132E-02
   0.3375008930011422E-02
   0.2372031429033140E-02
   0.4590271163780780E-03
   0.3519827327532172E-02
   0.4522187389567636E-01
   0.6522883742290028E-01
   0.8693007637216145E-03
  -0.2261154839700193E-01
   0.4317187878573385E-02
   0.1358874950349750E-01
   0.1039564303338152E-01
   0.4900638265697847E-01
   0.2438312124077207E-02
  -0.6509589605977493E-02
  -0.7001780123137252E-03
   0.3417601886870166E-03
   0.3903953488436716E-02
  -0.3893229379745929E-01
   0.1798161184264887E-01
   0.1119618827771295E-01
   0.3403760790926229E-01
   0.8439704635142342E-02
   0.4937976938211151E-02
   0.4971160183559394E-02
   0.4872108350668234E-02
   0.6027660467270475E-02
   0.2598781113055350E-02
  -0.4144439549836796E-01
  -0.9954209761273566E-01
  -0.1121673759791059E+00
   0.5070523756322979E-02
   0.4230416413607566E-02
  -0.1004728859608913E+00
  -0.9895249323566330E-01
  -0.9875437569659890E-01
  -0.9462473555017004E-01
  -0.6807110560474786E-01
   0.5154593239356093E-02
  -0.1935392538551598E-01
  -0.1575855845470526E-01
  -0.6003518046841657E-02
   0.6818872073939437E-02
  -0.8010017191078771E-01
  -0.2781134289830233E-01
  -0.8096441895477460E-01
  -0.5873296647372657E-01
   0.3084004914336795E-02
   0.2685422903546322E-02
   0.2640547407619320E-02
   0.3450230293751080E-02
   0.4007024849848371E-02
   0.1201196304791193E-02
  -0.1438535281822300E-03
   0.2040301165562682E-02
   0.4895693792226609E-02
   0.3857469096607336E-02
   0.1114652702551007E-02
   0.1183284418238204E-02
   0.1466073932410213E-02
  -0.1607438816260615E-04
   0.9002562367658377E-04
   0.4386925071041136E-02
   0.2715852177104139E-02
   0.2322825734667836E-02
   0.5010683384085075E-02
   0.1071677034756889E-02
   0.2712257721585157E-02
   0.2014268424155759E-02
   0.2906361383449106E-04
   0.8374885160411537E-01
   0.2795300473827236E-02
  -0.8344489664701040E-03
  -0.1490795278171146E-03
   0.1409549995639613E+00
   0.1239334105359418E+00
  -0.1218694349900453E-02
  -0.4381668773460725E-02
  -0.3041272402996453E-03
  -0.6511227431783602E-02
  -0.1947611030661774E-02
   0.1557642503883916E+00
   0.7490247834533886E-01
   0.2550559411147423E-01
   0.1656450905659894E+00