TITLE="fun3d_case_title"
VARIABLES="Iteration" "R_1" "R_2" "R_3" "R_4" "R_5" "R_6" "C_L" "C_D" "C_M_x" "C_M_y" "C_M_z" "Wall Time" "C_x" "C_y" "C_z" "C_Lp" "C_Dp" "C_Lv" "C_Dv" "C_M_xp" "C_M_yp" "C_M_zp" "C_M_xv" "C_M_yv" "C_M_zv" "C_xp" "C_yp" "C_zp" "C_xv" "C_yv" "C_zv"
ZONE  I=100 F=POINT
1  0.2160287136E-01  0.2804960676E-01  0.2161206946E-02  0.5316877842E-02  0.5302634844E-01  0.9016164010E-01 -0.4827433974E+01  0.4293403742E-02 -0.2089877795E+00 -0.3517479335E+00 -0.3178133894E-04  0.3427000000E+00  0.4293403742E-02  0.7565652610E-05 -0.4827433974E+01 -0.4827641946E+01  0.0000000000E+00  0.2079721895E-03  0.4293403742E-02 -0.2089818869E+00 -0.3515601826E+00  0.0000000000E+00 -0.5892624782E-05 -0.1877509491E-03 -0.3178133894E-04  0.0000000000E+00  0.0000000000E+00 -0.4827641946E+01  0.4293403742E-02  0.7565652610E-05  0.2079721895E-03
2  0.1278983770E-01  0.1580664778E-01  0.2338219346E-02  0.4999789711E-02  0.1764388919E-01  0.6778489511E-01 -0.3117099245E+01  0.4054096902E-02  0.5677132443E-01 -0.1152190372E+02 -0.7551647057E-04  0.4049000000E+00  0.4054096902E-02 -0.1028679128E-05 -0.3117099245E+01 -0.3117374550E+01  0.0000000000E+00  0.2753054001E-03  0.4054096902E-02  0.5677429692E-01 -0.1152177862E+02  0.0000000000E+00 -0.2972484327E-05 -0.1251003615E-03 -0.7551647057E-04  0.0000000000E+00  0.0000000000E+00 -0.3117374550E+01  0.4054096902E-02 -0.1028679128E-05  0.2753054001E-03
3  0.6914284220E-02  0.1076187289E-01  0.1725660945E-02  0.5346088171E-02  0.1221734438E-01  0.4801844402E-01 -0.1521018403E+01  0.3934396911E-02  0.3439062887E+00 -0.1870135265E+02 -0.1379405881E-03  0.4631000000E+00  0.3934396911E-02 -0.1295762346E-04 -0.1521018403E+01 -0.1521321371E+01  0.0000000000E+00  0.3029684723E-03  0.3934396911E-02  0.3439038986E+00 -0.1870132778E+02  0.0000000000E+00  0.2390096726E-05 -0.2486177538E-04 -0.1379405881E-03  0.0000000000E+00  0.0000000000E+00 -0.1521321371E+01  0.3934396911E-02 -0.1295762346E-04  0.3029684723E-03
4  0.3305028630E-02  0.7851021600E-02  0.1665814204E-02  0.5098558685E-02  0.8865766360E-02  0.3169478971E-01 -0.2332882491E+00  0.3855754998E-02  0.4894859523E+00 -0.2204641815E+02 -0.1877312918E-03  0.5213000000E+00  0.3855754998E-02 -0.2401886958E-04 -0.2332882491E+00 -0.2335977710E+00  0.0000000000E+00  0.3095219721E-03  0.3855754998E-02  0.4894852360E+00 -0.2204647953E+02  0.0000000000E+00  0.7163027383E-06  0.6138387109E-04 -0.1877312918E-03  0.0000000000E+00  0.0000000000E+00 -0.2335977710E+00  0.3855754998E-02 -0.2401886958E-04  0.3095219721E-03
5  0.1777186624E-02  0.5330471930E-02  0.1198645415E-02  0.3658683379E-02  0.5447574326E-02  0.2044770013E-01  0.6787567946E+00  0.3799809511E-02  0.4689263911E+00 -0.2339668381E+02 -0.2240155041E-03  0.5701000000E+00  0.3799809511E-02 -0.3236475496E-04  0.6787567946E+00  0.6784512641E+00  0.0000000000E+00  0.3055304268E-03  0.3799809511E-02  0.4689278183E+00 -0.2339680240E+02  0.0000000000E+00 -0.1427117859E-05  0.1185911302E-03 -0.2240155041E-03  0.0000000000E+00  0.0000000000E+00  0.6784512641E+00  0.3799809511E-02 -0.3236475496E-04  0.3055304268E-03
6  0.1173982105E-02  0.3578079297E-02  0.8837330634E-03  0.2166808961E-02  0.3275719625E-02  0.1202948583E-01  0.1221582731E+01  0.3759192136E-02  0.3935779875E+00 -0.2396121407E+02 -0.2467262201E-03  0.6283000000E+00  0.3759192136E-02 -0.3796225470E-04  0.1221582731E+01  0.1221284691E+01  0.0000000000E+00  0.2980401878E-03  0.3759192136E-02  0.3935800334E+00 -0.2396136525E+02  0.0000000000E+00 -0.2045835845E-05  0.1511791820E-03 -0.2467262201E-03  0.0000000000E+00  0.0000000000E+00  0.1221284691E+01  0.3759192136E-02 -0.3796225470E-04  0.2980401878E-03
7  0.7238521581E-03  0.2443814693E-02  0.6524611681E-03  0.1378264756E-02  0.2004962721E-02  0.6256269815E-02  0.1552736830E+01  0.3733023327E-02  0.3183592439E+00 -0.2445169380E+02 -0.2616441264E-03  0.6760000000E+00  0.3733023327E-02 -0.4181498027E-04  0.1552736830E+01  0.1552444034E+01  0.0000000000E+00  0.2927956873E-03  0.3733023327E-02  0.3183605824E+00 -0.2445185924E+02  0.0000000000E+00 -0.1338463290E-05  0.1654414479E-03 -0.2616441264E-03  0.0000000000E+00  0.0000000000E+00  0.1552444034E+01  0.3733023327E-02 -0.4181498027E-04  0.2927956873E-03
8  0.4169149637E-03  0.1693149612E-02  0.4391875308E-03  0.9588200706E-03  0.1344975330E-02  0.3328898081E-02  0.1674978559E+01  0.3715354973E-02  0.2836142973E+00 -0.2474864417E+02 -0.2710014844E-03  0.7344000000E+00  0.3715354973E-02 -0.4410381692E-04  0.1674978559E+01  0.1674689042E+01  0.0000000000E+00  0.2895173945E-03  0.3715354973E-02  0.2836140641E+00 -0.2474881715E+02  0.0000000000E+00  0.2331351706E-06  0.1729807402E-03 -0.2710014844E-03  0.0000000000E+00  0.0000000000E+00  0.1674689042E+01  0.3715354973E-02 -0.4410381692E-04  0.2895173945E-03
9  0.2682324957E-03  0.1171248167E-02  0.2855883036E-03  0.8730280622E-03  0.9451845784E-03  0.1631575601E-02  0.1698196873E+01  0.3703070739E-02  0.2844032540E+00 -0.2491073182E+02 -0.2767995240E-03  0.7826000000E+00  0.3703070739E-02 -0.4525735514E-04  0.1698196873E+01  0.1697908921E+01  0.0000000000E+00  0.2879520524E-03  0.3703070739E-02  0.2844014520E+00 -0.2491091023E+02  0.0000000000E+00  0.1802013782E-05  0.1784105034E-03 -0.2767995240E-03  0.0000000000E+00  0.0000000000E+00  0.1697908921E+01  0.3703070739E-02 -0.4525735514E-04  0.2879520524E-03
10  0.2244828563E-03  0.8115281518E-03  0.1858607346E-03  0.8488524588E-03  0.7324156625E-03  0.6994456272E-03  0.1815346435E+01  0.3698118565E-02  0.3019615664E+00 -0.2532454976E+02 -0.2803221248E-03  0.8404000000E+00  0.3698118565E-02 -0.4563727904E-04  0.1815346435E+01  0.1815057781E+01  0.0000000000E+00  0.2886541397E-03  0.3698118565E-02  0.3019586757E+00 -0.2532472849E+02  0.0000000000E+00  0.2890678763E-05  0.1787259113E-03 -0.2803221248E-03  0.0000000000E+00  0.0000000000E+00  0.1815057781E+01  0.3698118565E-02 -0.4563727904E-04  0.2886541397E-03
11  0.1480916871E-03  0.5414365776E-03  0.1265445552E-03  0.5329518776E-03  0.4495829489E-03  0.3474445845E-03  0.1795130865E+01  0.3691696156E-02  0.3190183329E+00 -0.2532694586E+02 -0.2821087614E-03  0.1041800000E+01  0.3691696156E-02 -0.4561884934E-04  0.1795130865E+01  0.1794843173E+01  0.0000000000E+00  0.2876919869E-03  0.3691696156E-02  0.3190147446E+00 -0.2532713011E+02  0.0000000000E+00  0.3588278488E-05  0.1842464376E-03 -0.2821087614E-03  0.0000000000E+00  0.0000000000E+00  0.1794843173E+01  0.3691696156E-02 -0.4561884934E-04  0.2876919869E-03
12  0.1184346726E-03  0.3580114542E-03  0.9050735584E-04  0.4840062061E-03  0.3317302906E-03  0.2006949905E-03  0.1876905599E+01  0.3690156640E-02  0.3283387752E+00 -0.2557808031E+02 -0.2831921842E-03  0.1100200000E+01  0.3690156640E-02 -0.4544976537E-04  0.1876905599E+01  0.1876617425E+01  0.0000000000E+00  0.2881743756E-03  0.3690156640E-02  0.3283348087E+00 -0.2557826496E+02  0.0000000000E+00  0.3966485536E-05  0.1846477039E-03 -0.2831921842E-03  0.0000000000E+00  0.0000000000E+00  0.1876617425E+01  0.3690156640E-02 -0.4544976537E-04  0.2881743756E-03
13  0.7247710073E-04  0.2424551552E-03  0.6396463408E-04  0.2647760668E-03  0.2171472733E-03  0.1232390560E-03  0.1877286698E+01  0.3687514009E-02  0.3325262448E+00 -0.2558632809E+02 -0.2836735127E-03  0.1147800000E+01  0.3687514009E-02 -0.4525246434E-04  0.1877286698E+01  0.1876999087E+01  0.0000000000E+00  0.2876104144E-03  0.3687514009E-02  0.3325219671E+00 -0.2558651571E+02  0.0000000000E+00  0.4277716649E-05  0.1876220904E-03 -0.2836735127E-03  0.0000000000E+00  0.0000000000E+00  0.1876999087E+01  0.3687514009E-02 -0.4525246434E-04  0.2876104144E-03
14  0.5001267828E-04  0.1530127066E-03  0.4518158074E-04  0.9242661087E-04  0.1399652500E-03  0.7816189609E-04  0.1890479754E+01  0.3686163511E-02  0.3337850506E+00 -0.2562530383E+02 -0.2838986792E-03  0.1195500000E+01  0.3686163511E-02 -0.4507072812E-04  0.1890479754E+01  0.1890192294E+01  0.0000000000E+00  0.2874601636E-03  0.3686163511E-02  0.3337805308E+00 -0.2562549264E+02  0.0000000000E+00  0.4519789967E-05  0.1888026375E-03 -0.2838986792E-03  0.0000000000E+00  0.0000000000E+00  0.1890192294E+01  0.3686163511E-02 -0.4507072812E-04  0.2874601636E-03
15  0.2727088116E-04  0.1016545154E-03  0.3245494033E-04  0.6795616420E-04  0.8648564054E-04  0.5139630725E-04  0.1897722695E+01  0.3685375101E-02  0.3340215523E+00 -0.2564670859E+02 -0.2839873162E-03  0.1243100000E+01  0.3685375101E-02 -0.4493085936E-04  0.1897722695E+01  0.1897435346E+01  0.0000000000E+00  0.2873499130E-03  0.3685375101E-02  0.3340168429E+00 -0.2564689811E+02  0.0000000000E+00  0.4709337094E-05  0.1895123337E-03 -0.2839873162E-03  0.0000000000E+00  0.0000000000E+00  0.1897435346E+01  0.3685375101E-02 -0.4493085936E-04  0.2873499130E-03
16  0.1661015765E-04  0.6754028551E-04  0.2224091126E-04  0.4753020057E-04  0.5861304971E-04  0.3585052516E-04  0.1901118994E+01  0.3684914593E-02  0.3344429257E+00 -0.2565736137E+02 -0.2840208516E-03  0.1291100000E+01  0.3684914593E-02 -0.4483289667E-04  0.1901118994E+01  0.1900831697E+01  0.0000000000E+00  0.2872963175E-03  0.3684914593E-02  0.3344380856E+00 -0.2565755125E+02  0.0000000000E+00  0.4840046905E-05  0.1898811910E-03 -0.2840208516E-03  0.0000000000E+00  0.0000000000E+00  0.1900831697E+01  0.3684914593E-02 -0.4483289667E-04  0.2872963175E-03
17  0.1093837490E-04  0.4620485099E-04  0.1507632065E-04  0.3114628307E-04  0.3885001522E-04  0.2632004460E-04  0.1902950291E+01  0.3684654272E-02  0.3349991843E+00 -0.2566363008E+02 -0.2840320895E-03  0.1338800000E+01  0.3684654272E-02 -0.4476722543E-04  0.1902950291E+01  0.1902663019E+01  0.0000000000E+00  0.2872719914E-03  0.3684654272E-02  0.3349942618E+00 -0.2566382015E+02  0.0000000000E+00  0.4922579455E-05  0.1900695696E-03 -0.2840320895E-03  0.0000000000E+00  0.0000000000E+00  0.1902663019E+01  0.3684654272E-02 -0.4476722543E-04  0.2872719914E-03
18  0.7104167246E-05  0.3205630556E-04  0.1023273790E-04  0.1968290388E-04  0.2508559781E-04  0.2007933312E-04  0.1903843922E+01  0.3684515169E-02  0.3355525194E+00 -0.2566732224E+02 -0.2840320753E-03  0.1397200000E+01  0.3684515169E-02 -0.4472230940E-04  0.1903843922E+01  0.1903556669E+01  0.0000000000E+00  0.2872531172E-03  0.3684515169E-02  0.3355475473E+00 -0.2566751243E+02  0.0000000000E+00  0.4972092222E-05  0.1901862601E-03 -0.2840320753E-03  0.0000000000E+00  0.0000000000E+00  0.1903556669E+01  0.3684515169E-02 -0.4472230940E-04  0.2872531172E-03
19  0.4921001960E-05  0.2324920878E-04  0.7085514177E-05  0.1200100471E-04  0.1734557205E-04  0.1553549391E-04  0.1904184387E+01  0.3684449090E-02  0.3359296863E+00 -0.2566924384E+02 -0.2840314915E-03  0.1444900000E+01  0.3684449090E-02 -0.4469286963E-04  0.1904184387E+01  0.1903897149E+01  0.0000000000E+00  0.2872380310E-03  0.3684449090E-02  0.3359246862E+00 -0.2566943410E+02  0.0000000000E+00  0.5000066051E-05  0.1902621344E-03 -0.2840314915E-03  0.0000000000E+00  0.0000000000E+00  0.1903897149E+01  0.3684449090E-02 -0.4469286963E-04  0.2872380310E-03
20  0.3536126110E-05  0.1742419244E-04  0.4990525980E-05  0.7658291073E-05  0.1303573717E-04  0.1187964708E-04  0.1904163761E+01  0.3684420918E-02  0.3361883970E+00 -0.2566980420E+02 -0.2840285442E-03  0.1492700000E+01  0.3684420918E-02 -0.4467226906E-04  0.1904163761E+01  0.1903876536E+01  0.0000000000E+00  0.2872251181E-03  0.3684420918E-02  0.3361833797E+00 -0.2566999451E+02  0.0000000000E+00  0.5017253640E-05  0.1903175488E-03 -0.2840285442E-03  0.0000000000E+00  0.0000000000E+00  0.1903876536E+01  0.3684420918E-02 -0.4467226906E-04  0.2872251181E-03
21  0.2701393285E-05  0.1319421126E-04  0.3553019884E-05  0.5074117512E-05  0.1011362596E-04  0.8913065406E-05  0.1903936039E+01  0.3684408521E-02  0.3363648735E+00 -0.2566944779E+02 -0.2840205545E-03  0.1695000000E+01  0.3684408521E-02 -0.4465634828E-04  0.1903936039E+01  0.1903648825E+01  0.0000000000E+00  0.2872142088E-03  0.3684408521E-02  0.3363598444E+00 -0.2566963815E+02  0.0000000000E+00  0.5029110492E-05  0.1903609022E-03 -0.2840205545E-03  0.0000000000E+00  0.0000000000E+00  0.1903648825E+01  0.3684408521E-02 -0.4465634828E-04  0.2872142088E-03
22  0.2097526634E-05  0.9916359118E-05  0.2536530513E-05  0.3467784933E-05  0.7752740208E-05  0.6563135837E-05  0.1903629794E+01  0.3684401442E-02  0.3364842363E+00 -0.2566865408E+02 -0.2840077746E-03  0.1742900000E+01  0.3684401442E-02 -0.4464330728E-04  0.1903629794E+01  0.1903342588E+01  0.0000000000E+00  0.2872053009E-03  0.3684401442E-02  0.3364791986E+00 -0.2566884448E+02  0.0000000000E+00  0.5037693999E-05  0.1903948806E-03 -0.2840077746E-03  0.0000000000E+00  0.0000000000E+00  0.1903342588E+01  0.3684401442E-02 -0.4464330728E-04  0.2872053009E-03
23  0.1615756050E-05  0.7354733703E-05  0.1807384562E-05  0.2447067147E-05  0.5805015466E-05  0.4759426012E-05  0.1903328469E+01  0.3684396056E-02  0.3365607414E+00 -0.2566778001E+02 -0.2839925448E-03  0.1790600000E+01  0.3684396056E-02 -0.4463268062E-04  0.1903328469E+01  0.1903041270E+01  0.0000000000E+00  0.2871986346E-03  0.3684396056E-02  0.3365556976E+00 -0.2566797043E+02  0.0000000000E+00  0.5043724912E-05  0.1904196563E-03 -0.2839925448E-03  0.0000000000E+00  0.0000000000E+00  0.1903041270E+01  0.3684396056E-02 -0.4463268062E-04  0.2871986346E-03
24  0.1231244248E-05  0.5376528006E-05  0.1277735325E-05  0.1778298309E-05  0.4256332425E-05  0.3401563456E-05  0.1903080748E+01  0.3684391793E-02  0.3366054927E+00 -0.2566704425E+02 -0.2839776014E-03  0.1838500000E+01  0.3684391793E-02 -0.4462440953E-04  0.1903080748E+01  0.1902793554E+01  0.0000000000E+00  0.2871941080E-03  0.3684391793E-02  0.3366004451E+00 -0.2566723468E+02  0.0000000000E+00  0.5047621636E-05  0.1904361881E-03 -0.2839776014E-03  0.0000000000E+00  0.0000000000E+00  0.1902793554E+01  0.3684391793E-02 -0.4462440953E-04  0.2871941080E-03
25  0.9260110805E-06  0.3873093765E-05  0.8934286947E-06  0.1310092140E-05  0.3067379645E-05  0.2389380192E-05  0.1902902277E+01  0.3684388722E-02  0.3366274857E+00 -0.2566652370E+02 -0.2839649651E-03  0.1886400000E+01  0.3684388722E-02 -0.4461838657E-04  0.1902902277E+01  0.1902615086E+01  0.0000000000E+00  0.2871912747E-03  0.3684388722E-02  0.3366224359E+00 -0.2566671414E+02  0.0000000000E+00  0.5049883643E-05  0.1904465190E-03 -0.2839649651E-03  0.0000000000E+00  0.0000000000E+00  0.1902615086E+01  0.3684388722E-02 -0.4461838657E-04  0.2871912747E-03
26  0.6851842679E-06  0.2748325904E-05  0.6168863991E-06  0.9622557894E-06  0.2173506381E-05  0.1642440286E-05  0.1902785880E+01  0.3684386735E-02  0.3366352700E+00 -0.2566619967E+02 -0.2839555657E-03  0.1934300000E+01  0.3684386735E-02 -0.4461432230E-04  0.1902785880E+01  0.1902498691E+01  0.0000000000E+00  0.2871895422E-03  0.3684386735E-02  0.3366302190E+00 -0.2566639012E+02  0.0000000000E+00  0.5051038896E-05  0.1904529842E-03 -0.2839555657E-03  0.0000000000E+00  0.0000000000E+00  0.1902498691E+01  0.3684386735E-02 -0.4461432230E-04  0.2871895422E-03
27  0.4967445425E-06  0.1920811651E-05  0.4209629709E-06  0.6962588126E-06  0.1512755234E-05  0.1100986921E-05  0.1902713750E+01  0.3684385503E-02  0.3366359042E+00 -0.2566601158E+02 -0.2839493724E-03  0.1982200000E+01  0.3684385503E-02 -0.4461179167E-04  0.1902713750E+01  0.1902426561E+01  0.0000000000E+00  0.2871884237E-03  0.3684385503E-02  0.3366308527E+00 -0.2566620204E+02  0.0000000000E+00  0.5051539521E-05  0.1904573519E-03 -0.2839493724E-03  0.0000000000E+00  0.0000000000E+00  0.1902426561E+01  0.3684385503E-02 -0.4461179167E-04  0.2871884237E-03
28  0.3529584113E-06  0.1323550958E-05  0.2850480362E-06  0.4935560869E-06  0.1034065912E-05  0.7196017998E-06  0.1902668260E+01  0.3684384684E-02  0.3366342006E+00 -0.2566590019E+02 -0.2839457674E-03  0.2030000000E+01  0.3684384684E-02 -0.4461033718E-04  0.1902668260E+01  0.1902381073E+01  0.0000000000E+00  0.2871876242E-03  0.3684384684E-02  0.3366291488E+00 -0.2566609065E+02  0.0000000000E+00  0.5051704771E-05  0.1904606043E-03 -0.2839457674E-03  0.0000000000E+00  0.0000000000E+00  0.1902381073E+01  0.3684384684E-02 -0.4461033718E-04  0.2871876242E-03
29  0.2465765502E-06  0.9011222818E-06  0.1932356602E-06  0.3427899524E-06  0.6958837957E-06  0.4608664561E-06  0.1902637029E+01  0.3684384058E-02  0.3366326167E+00 -0.2566582595E+02 -0.2839439383E-03  0.2077900000E+01  0.3684384058E-02 -0.4460955867E-04  0.1902637029E+01  0.1902349842E+01  0.0000000000E+00  0.2871870130E-03  0.3684384058E-02  0.3366275649E+00 -0.2566601641E+02  0.0000000000E+00  0.5051728904E-05  0.1904631305E-03 -0.2839439383E-03  0.0000000000E+00  0.0000000000E+00  0.1902349842E+01  0.3684384058E-02 -0.4460955867E-04  0.2871870130E-03
30  0.1704946482E-06  0.6080389793E-06  0.1327182129E-06  0.2344799987E-06  0.4635292577E-06  0.2921262366E-06  0.1902613459E+01  0.3684383542E-02  0.3366319491E+00 -0.2566576960E+02 -0.2839431514E-03  0.2136500000E+01  0.3684383542E-02 -0.4460915884E-04  0.1902613459E+01  0.1902326272E+01  0.0000000000E+00  0.2871865480E-03  0.3684383542E-02  0.3366268974E+00 -0.2566596006E+02  0.0000000000E+00  0.5051713767E-05  0.1904650418E-03 -0.2839431514E-03  0.0000000000E+00  0.0000000000E+00  0.1902326272E+01  0.3684383542E-02 -0.4460915884E-04  0.2871865480E-03
31  0.1175525770E-06  0.4079199893E-06  0.9330797564E-07  0.1594389300E-06  0.3079138186E-06  0.1854095883E-06  0.1902594910E+01  0.3684383131E-02  0.3366321395E+00 -0.2566572467E+02 -0.2839428774E-03  0.2338400000E+01  0.3684383131E-02 -0.4460894719E-04  0.1902594910E+01  0.1902307724E+01  0.0000000000E+00  0.2871862139E-03  0.3684383131E-02  0.3366270878E+00 -0.2566591514E+02  0.0000000000E+00  0.5051703500E-05  0.1904663934E-03 -0.2839428774E-03  0.0000000000E+00  0.0000000000E+00  0.1902307724E+01  0.3684383131E-02 -0.4460894719E-04  0.2871862139E-03
32  0.8135680435E-07  0.2729237417E-06  0.6743141154E-07  0.1092024814E-06  0.2055909238E-06  0.1188158699E-06  0.1902580560E+01  0.3684382838E-02  0.3366328614E+00 -0.2566568985E+02 -0.2839427995E-03  0.2386400000E+01  0.3684382838E-02 -0.4460881859E-04  0.1902580560E+01  0.1902293374E+01  0.0000000000E+00  0.2871859918E-03  0.3684382838E-02  0.3366278097E+00 -0.2566588031E+02  0.0000000000E+00  0.5051710380E-05  0.1904672747E-03 -0.2839427995E-03  0.0000000000E+00  0.0000000000E+00  0.1902293374E+01  0.3684382838E-02 -0.4460881859E-04  0.2871859918E-03
33  0.5664142532E-07  0.1826124813E-06  0.4994472197E-07  0.7647763770E-07  0.1387688038E-06  0.7720515135E-07  0.1902570026E+01  0.3684382659E-02  0.3366338005E+00 -0.2566566458E+02 -0.2839427645E-03  0.2441500000E+01  0.3684382659E-02 -0.4460872453E-04  0.1902570026E+01  0.1902282840E+01  0.0000000000E+00  0.2871858552E-03  0.3684382659E-02  0.3366287488E+00 -0.2566585504E+02  0.0000000000E+00  0.5051731862E-05  0.1904678076E-03 -0.2839427645E-03  0.0000000000E+00  0.0000000000E+00  0.1902282840E+01  0.3684382659E-02 -0.4460872453E-04  0.2871858552E-03
34  0.3957600704E-07  0.1225247666E-06  0.3763442785E-07  0.5520785440E-07  0.9491187868E-07  0.5110976334E-07  0.1902562780E+01  0.3684382572E-02  0.3366347427E+00 -0.2566564753E+02 -0.2839427201E-03  0.2489300000E+01  0.3684382572E-02 -0.4460864760E-04  0.1902562780E+01  0.1902275594E+01  0.0000000000E+00  0.2871857756E-03  0.3684382572E-02  0.3366296910E+00 -0.2566583799E+02  0.0000000000E+00  0.5051760655E-05  0.1904681140E-03 -0.2839427201E-03  0.0000000000E+00  0.0000000000E+00  0.1902275594E+01  0.3684382572E-02 -0.4460864760E-04  0.2871857756E-03
35  0.2761055120E-07  0.8269381230E-07  0.2859556728E-07  0.4078391226E-07  0.6578304398E-07  0.3478005154E-07  0.1902558107E+01  0.3684382546E-02  0.3366355702E+00 -0.2566563675E+02 -0.2839426622E-03  0.2537200000E+01  0.3684382546E-02 -0.4460858392E-04  0.1902558107E+01  0.1902270922E+01  0.0000000000E+00  0.2871857298E-03  0.3684382546E-02  0.3366305184E+00 -0.2566582722E+02  0.0000000000E+00  0.5051789965E-05  0.1904682893E-03 -0.2839426622E-03  0.0000000000E+00  0.0000000000E+00  0.1902270922E+01  0.3684382546E-02 -0.4460858392E-04  0.2871857298E-03
36  0.1914359328E-07  0.5635034479E-07  0.2173616784E-07  0.3029700545E-07  0.4617513318E-07  0.2454074662E-07  0.1902555264E+01  0.3684382551E-02  0.3366362354E+00 -0.2566563028E+02 -0.2839426021E-03  0.2585100000E+01  0.3684382551E-02 -0.4460853340E-04  0.1902555264E+01  0.1902268078E+01  0.0000000000E+00  0.2871857024E-03  0.3684382551E-02  0.3366311836E+00 -0.2566582075E+02  0.0000000000E+00  0.5051815500E-05  0.1904683947E-03 -0.2839426021E-03  0.0000000000E+00  0.0000000000E+00  0.1902268078E+01  0.3684382551E-02 -0.4460853340E-04  0.2871857024E-03
37  0.1316055717E-07  0.3891787819E-07  0.1643788874E-07  0.2228659018E-07  0.3280710464E-07  0.1793753532E-07  0.1902553620E+01  0.3684382569E-02  0.3366367353E+00 -0.2566562655E+02 -0.2839425503E-03  0.2633000000E+01  0.3684382569E-02 -0.4460849562E-04  0.1902553620E+01  0.1902266434E+01  0.0000000000E+00  0.2871856849E-03  0.3684382569E-02  0.3366316835E+00 -0.2566581702E+02  0.0000000000E+00  0.5051835546E-05  0.1904684629E-03 -0.2839425503E-03  0.0000000000E+00  0.0000000000E+00  0.1902266434E+01  0.3684382569E-02 -0.4460849562E-04  0.2871856849E-03
38  0.8978275955E-08  0.2731023270E-07  0.1233535048E-07  0.1611212727E-07  0.2356779202E-07  0.1341464177E-07  0.1902552717E+01  0.3684382588E-02  0.3366370919E+00 -0.2566562450E+02 -0.2839425118E-03  0.2681000000E+01  0.3684382588E-02 -0.4460846894E-04  0.1902552717E+01  0.1902265531E+01  0.0000000000E+00  0.2871856732E-03  0.3684382588E-02  0.3366320400E+00 -0.2566581497E+02  0.0000000000E+00  0.5051850189E-05  0.1904685088E-03 -0.2839425118E-03  0.0000000000E+00  0.0000000000E+00  0.1902265531E+01  0.3684382588E-02 -0.4460846894E-04  0.2871856732E-03
39  0.6099032401E-08  0.1947071740E-07  0.9183489350E-08  0.1143465211E-07  0.1707910865E-07  0.1010463783E-07  0.1902552256E+01  0.3684382603E-02  0.3366373371E+00 -0.2566562346E+02 -0.2839424864E-03  0.2729000000E+01  0.3684382603E-02 -0.4460845101E-04  0.1902552256E+01  0.1902265071E+01  0.0000000000E+00  0.2871856654E-03  0.3684382603E-02  0.3366322852E+00 -0.2566581393E+02  0.0000000000E+00  0.5051860406E-05  0.1904685394E-03 -0.2839424864E-03  0.0000000000E+00  0.0000000000E+00  0.1902265071E+01  0.3684382603E-02 -0.4460845101E-04  0.2871856654E-03
40  0.4145799202E-08  0.1406191479E-07  0.6791160604E-08  0.7979828722E-08  0.1244495750E-07  0.7580348653E-08  0.1902552052E+01  0.3684382616E-02  0.3366375031E+00 -0.2566562305E+02 -0.2839424715E-03  0.2787700000E+01  0.3684382616E-02 -0.4460843937E-04  0.1902552052E+01  0.1902264867E+01  0.0000000000E+00  0.2871856606E-03  0.3684382616E-02  0.3366324512E+00 -0.2566581351E+02  0.0000000000E+00  0.5051867377E-05  0.1904685587E-03 -0.2839424715E-03  0.0000000000E+00  0.0000000000E+00  0.1902264867E+01  0.3684382616E-02 -0.4460843937E-04  0.2871856606E-03
41  0.2834583576E-08  0.1023936684E-07  0.4996495109E-08  0.5487870564E-08  0.9088400444E-08  0.5635485574E-08  0.1902551993E+01  0.3684382626E-02  0.3366376162E+00 -0.2566562298E+02 -0.2839424638E-03  0.2989800000E+01  0.3684382626E-02 -0.4460843196E-04  0.1902551993E+01  0.1902264807E+01  0.0000000000E+00  0.2871856580E-03  0.3684382626E-02  0.3366325643E+00 -0.2566581345E+02  0.0000000000E+00  0.5051872122E-05  0.1904685699E-03 -0.2839424638E-03  0.0000000000E+00  0.0000000000E+00  0.1902264807E+01  0.3684382626E-02 -0.4460843196E-04  0.2871856580E-03
42  0.1958408934E-08  0.7479960939E-08  0.3662072489E-08  0.3726431477E-08  0.6635164317E-08  0.4150447379E-08  0.1902552008E+01  0.3684382635E-02  0.3366376953E+00 -0.2566562311E+02 -0.2839424605E-03  0.3037800000E+01  0.3684382635E-02 -0.4460842727E-04  0.1902552008E+01  0.1902264822E+01  0.0000000000E+00  0.2871856566E-03  0.3684382635E-02  0.3366326434E+00 -0.2566581358E+02  0.0000000000E+00  0.5051875384E-05  0.1904685758E-03 -0.2839424605E-03  0.0000000000E+00  0.0000000000E+00  0.1902264822E+01  0.3684382635E-02 -0.4460842727E-04  0.2871856566E-03
43  0.1371647595E-08  0.5458550490E-08  0.2675381999E-08  0.2503867416E-08  0.4834620898E-08  0.3033064746E-08  0.1902552055E+01  0.3684382642E-02  0.3366377525E+00 -0.2566562330E+02 -0.2839424595E-03  0.3085900000E+01  0.3684382642E-02 -0.4460842427E-04  0.1902552055E+01  0.1902264869E+01  0.0000000000E+00  0.2871856560E-03  0.3684382642E-02  0.3366327006E+00 -0.2566581377E+02  0.0000000000E+00  0.5051877655E-05  0.1904685787E-03 -0.2839424595E-03  0.0000000000E+00  0.0000000000E+00  0.1902264869E+01  0.3684382642E-02 -0.4460842427E-04  0.2871856560E-03
44  0.9749222697E-09  0.3966870163E-08  0.1948095260E-08  0.1670064708E-08  0.3511681120E-08  0.2202520182E-08  0.1902552108E+01  0.3684382647E-02  0.3366377950E+00 -0.2566562350E+02 -0.2839424596E-03  0.3134000000E+01  0.3684382647E-02 -0.4460842232E-04  0.1902552108E+01  0.1902264922E+01  0.0000000000E+00  0.2871856557E-03  0.3684382647E-02  0.3366327431E+00 -0.2566581396E+02  0.0000000000E+00  0.5051879250E-05  0.1904685800E-03 -0.2839424596E-03  0.0000000000E+00  0.0000000000E+00  0.1902264922E+01  0.3684382647E-02 -0.4460842232E-04  0.2871856557E-03
45  0.7021300562E-09  0.2864949249E-08  0.1413111818E-08  0.1110696942E-08  0.2540165526E-08  0.1589671149E-08  0.1902552155E+01  0.3684382651E-02  0.3366378269E+00 -0.2566562366E+02 -0.2839424601E-03  0.3182100000E+01  0.3684382651E-02 -0.4460842102E-04  0.1902552155E+01  0.1902264970E+01  0.0000000000E+00  0.2871856556E-03  0.3684382651E-02  0.3366327750E+00 -0.2566581412E+02  0.0000000000E+00  0.5051880376E-05  0.1904685806E-03 -0.2839424601E-03  0.0000000000E+00  0.0000000000E+00  0.1902264970E+01  0.3684382651E-02 -0.4460842102E-04  0.2871856556E-03
46  0.5104632886E-09  0.2053857933E-08  0.1020442169E-08  0.7404359886E-09  0.1827952898E-08  0.1139372447E-08  0.1902552192E+01  0.3684382654E-02  0.3366378509E+00 -0.2566562378E+02 -0.2839424607E-03  0.3230300000E+01  0.3684382654E-02 -0.4460842012E-04  0.1902552192E+01  0.1902265007E+01  0.0000000000E+00  0.2871856556E-03  0.3684382654E-02  0.3366327990E+00 -0.2566581424E+02  0.0000000000E+00  0.5051881175E-05  0.1904685807E-03 -0.2839424607E-03  0.0000000000E+00  0.0000000000E+00  0.1902265007E+01  0.3684382654E-02 -0.4460842012E-04  0.2871856556E-03
47  0.3728618675E-09  0.1460835865E-08  0.7331277840E-09  0.4971420528E-09  0.1307596928E-08  0.8100356571E-09  0.1902552219E+01  0.3684382657E-02  0.3366378688E+00 -0.2566562386E+02 -0.2839424611E-03  0.3278900000E+01  0.3684382657E-02 -0.4460841948E-04  0.1902552219E+01  0.1902265034E+01  0.0000000000E+00  0.2871856556E-03  0.3684382657E-02  0.3366328169E+00 -0.2566581433E+02  0.0000000000E+00  0.5051881748E-05  0.1904685807E-03 -0.2839424611E-03  0.0000000000E+00  0.0000000000E+00  0.1902265034E+01  0.3684382657E-02 -0.4460841948E-04  0.2871856556E-03
48  0.2724230328E-09  0.1031006121E-08  0.5238257203E-09  0.3370873609E-09  0.9295192502E-09  0.5709509959E-09  0.1902552238E+01  0.3684382658E-02  0.3366378821E+00 -0.2566562392E+02 -0.2839424613E-03  0.3327300000E+01  0.3684382658E-02 -0.4460841898E-04  0.1902552238E+01  0.1902265053E+01  0.0000000000E+00  0.2871856556E-03  0.3684382658E-02  0.3366328302E+00 -0.2566581439E+02  0.0000000000E+00  0.5051882168E-05  0.1904685804E-03 -0.2839424613E-03  0.0000000000E+00  0.0000000000E+00  0.1902265053E+01  0.3684382658E-02 -0.4460841898E-04  0.2871856556E-03
49  0.1984540475E-09  0.7224687587E-09  0.3722076933E-09  0.2307872692E-09  0.6568990688E-09  0.3992081542E-09  0.1902552252E+01  0.3684382659E-02  0.3366378919E+00 -0.2566562396E+02 -0.2839424613E-03  0.3375500000E+01  0.3684382659E-02 -0.4460841860E-04  0.1902552252E+01  0.1902265067E+01  0.0000000000E+00  0.2871856556E-03  0.3684382659E-02  0.3366328400E+00 -0.2566581443E+02  0.0000000000E+00  0.5051882485E-05  0.1904685802E-03 -0.2839424613E-03  0.0000000000E+00  0.0000000000E+00  0.1902265067E+01  0.3684382659E-02 -0.4460841860E-04  0.2871856556E-03
50  0.1439036621E-09  0.5031660896E-09  0.2630831482E-09  0.1591879815E-09  0.4620345422E-09  0.2773420106E-09  0.1902552262E+01  0.3684382660E-02  0.3366378991E+00 -0.2566562399E+02 -0.2839424611E-03  0.3434300000E+01  0.3684382660E-02 -0.4460841828E-04  0.1902552262E+01  0.1902265077E+01  0.0000000000E+00  0.2871856557E-03  0.3684382660E-02  0.3366328472E+00 -0.2566581446E+02  0.0000000000E+00  0.5051882731E-05  0.1904685799E-03 -0.2839424611E-03  0.0000000000E+00  0.0000000000E+00  0.1902265077E+01  0.3684382660E-02 -0.4460841828E-04  0.2871856557E-03
51  0.1038359812E-09  0.3487216771E-09  0.1850765321E-09  0.1103203905E-09  0.3239332704E-09  0.1918815103E-09  0.1902552270E+01  0.3684382661E-02  0.3366379045E+00 -0.2566562401E+02 -0.2839424608E-03  0.3637100000E+01  0.3684382661E-02 -0.4460841802E-04  0.1902552270E+01  0.1902265084E+01  0.0000000000E+00  0.2871856557E-03  0.3684382661E-02  0.3366328527E+00 -0.2566581448E+02  0.0000000000E+00  0.5051882926E-05  0.1904685796E-03 -0.2839424608E-03  0.0000000000E+00  0.0000000000E+00  0.1902265084E+01  0.3684382661E-02 -0.4460841802E-04  0.2871856557E-03
52  0.7460210834E-10  0.2408249209E-09  0.1296875094E-09  0.7668093048E-10  0.2267455319E-09  0.1325102865E-09  0.1902552276E+01  0.3684382661E-02  0.3366379086E+00 -0.2566562403E+02 -0.2839424605E-03  0.3685300000E+01  0.3684382661E-02 -0.4460841781E-04  0.1902552276E+01  0.1902265090E+01  0.0000000000E+00  0.2871856558E-03  0.3684382661E-02  0.3366328567E+00 -0.2566581450E+02  0.0000000000E+00  0.5051883083E-05  0.1904685794E-03 -0.2839424605E-03  0.0000000000E+00  0.0000000000E+00  0.1902265090E+01  0.3684382661E-02 -0.4460841781E-04  0.2871856558E-03