# vtk DataFile Version 2.0
FUN3D:global_image_vtk
ASCII
DATASET UNSTRUCTURED_GRID
POINTS 213 double
    0.0000000000000000E+00    0.2500000000000000E+01    0.0000000000000000E+00
    0.1250000000000000E+01    0.2500000000000000E+01    0.0000000000000000E+00
    0.2500000000000000E+01    0.2500000000000000E+01    0.0000000000000000E+00
    0.3750000000000000E+01    0.2500000000000000E+01    0.0000000000000000E+00
    0.5000000000000000E+01    0.2500000000000000E+01    0.0000000000000000E+00
    0.5000000000000000E+01    0.1250000000000000E+01    0.0000000000000000E+00
    0.5000000000000000E+01    0.0000000000000000E+00    0.0000000000000000E+00
    0.5000000000000000E+01   -0.1250000000000000E+01    0.0000000000000000E+00
    0.5000000000000000E+01   -0.2500000000000000E+01    0.0000000000000000E+00
    0.3750000000000000E+01   -0.2500000000000000E+01    0.0000000000000000E+00
    0.2500000000000000E+01   -0.2500000000000000E+01    0.0000000000000000E+00
    0.1250000000000000E+01   -0.2500000000000000E+01    0.0000000000000000E+00
    0.0000000000000000E+00   -0.2500000000000000E+01    0.0000000000000000E+00
    0.0000000000000000E+00   -0.1250000000000000E+01    0.0000000000000000E+00
    0.0000000000000000E+00    0.0000000000000000E+00    0.0000000000000000E+00
    0.0000000000000000E+00    0.1250000000000000E+01    0.0000000000000000E+00
    0.9058375365086910E+00    0.1578994732800803E+01    0.0000000000000000E+00
    0.3982050490726493E+01   -0.1583989954232354E+01    0.0000000000000000E+00
    0.4033849428301197E+01    0.1453322699199022E+01    0.0000000000000000E+00
    0.1040505887381675E+01   -0.1479596339503735E+01    0.0000000000000000E+00
    0.1099454400140349E+01   -0.3227322616384110E+00    0.0000000000000000E+00
    0.7354504170366591E+00    0.6593508822075582E+00    0.0000000000000000E+00
    0.1622302608453282E+01    0.8256214013940779E+00    0.0000000000000000E+00
    0.2145871574390382E+01   -0.1650070333782557E+01    0.0000000000000000E+00
    0.4086422318222992E+01   -0.4612828702537229E+00    0.0000000000000000E+00
    0.2979540174134984E+01   -0.8579242121530853E+00    0.0000000000000000E+00
    0.3045064261640043E+01   -0.1836846154397680E+01    0.0000000000000000E+00
    0.3428197553792836E+01    0.3508002863614053E+00    0.0000000000000000E+00
    0.4309693860063405E+01    0.5185680230613409E+00    0.0000000000000000E+00
    0.1827272193562204E+01    0.1738996113203182E+01    0.0000000000000000E+00
    0.2808563282768077E+01    0.1325493893339706E+01    0.0000000000000000E+00
    0.1895995683864404E+01   -0.8731419609589618E+00    0.0000000000000000E+00
    0.2273179336307740E+01    0.4906150219227333E-01    0.0000000000000000E+00
    0.5000000000000000E+01    0.2500000000000000E+01    0.1250000000000000E+01
    0.5000000000000000E+01    0.2500000000000000E+01    0.2500000000000000E+01
    0.5000000000000000E+01    0.2500000000000000E+01    0.3750000000000000E+01
    0.5000000000000000E+01    0.2500000000000000E+01    0.5000000000000000E+01
    0.3750000000000000E+01    0.2500000000000000E+01    0.5000000000000000E+01
    0.2500000000000000E+01    0.2500000000000000E+01    0.5000000000000000E+01
    0.1250000000000000E+01    0.2500000000000000E+01    0.5000000000000000E+01
    0.0000000000000000E+00    0.2500000000000000E+01    0.5000000000000000E+01
    0.0000000000000000E+00    0.2500000000000000E+01    0.3750000000000000E+01
    0.0000000000000000E+00    0.2500000000000000E+01    0.2500000000000000E+01
    0.0000000000000000E+00    0.2500000000000000E+01    0.1250000000000000E+01
    0.9631080833812172E+00    0.2500000000000000E+01    0.9613285771248219E+00
    0.3981732467264904E+01    0.2500000000000000E+01    0.4069753913607991E+01
    0.4035525118777670E+01    0.2500000000000000E+01    0.1012015867579395E+01
    0.9641717640894248E+00    0.2500000000000000E+01    0.3972455192261839E+01
    0.1547743040396780E+01    0.2500000000000000E+01    0.2928177746738678E+01
    0.6985170616192014E+00    0.2500000000000000E+01    0.3068281976055466E+01
    0.8931277594515110E+00    0.2500000000000000E+01    0.2052465503257726E+01
    0.2183293750162785E+01    0.2500000000000000E+01    0.3959073795658649E+01
    0.3855333506014705E+01    0.2500000000000000E+01    0.2931218481500625E+01
    0.3152495579421047E+01    0.2500000000000000E+01    0.3635850502723324E+01
    0.3103247580566054E+01    0.2500000000000000E+01    0.4331682712472464E+01
    0.3266837581688852E+01    0.2500000000000000E+01    0.1886092433583972E+01
    0.4231539241296245E+01    0.2500000000000000E+01    0.1915865356532799E+01
    0.1909741006522088E+01    0.2500000000000000E+01    0.7170024419130505E+00
    0.2880784107213163E+01    0.2500000000000000E+01    0.9046598906449592E+00
    0.2014316024535771E+01    0.2500000000000000E+01    0.1762464314805728E+01
    0.2670003247036656E+01    0.2500000000000000E+01    0.2850479545835163E+01
    0.5000000000000000E+01    0.1250000000000000E+01    0.5000000000000000E+01
    0.5000000000000000E+01    0.0000000000000000E+00    0.5000000000000000E+01
    0.5000000000000000E+01   -0.1250000000000000E+01    0.5000000000000000E+01
    0.5000000000000000E+01   -0.2500000000000000E+01    0.5000000000000000E+01
    0.5000000000000000E+01   -0.2500000000000000E+01    0.3750000000000000E+01
    0.5000000000000000E+01   -0.2500000000000000E+01    0.2500000000000000E+01
    0.5000000000000000E+01   -0.2500000000000000E+01    0.1250000000000000E+01
    0.5000000000000000E+01    0.1578994732800803E+01    0.9058375365086910E+00
    0.5000000000000000E+01   -0.1583989954232354E+01    0.3982050490726493E+01
    0.5000000000000000E+01    0.1453322699199022E+01    0.4033849428301197E+01
    0.5000000000000000E+01   -0.1479596339503735E+01    0.1040505887381675E+01
    0.5000000000000000E+01   -0.3227322616384110E+00    0.1099454400140349E+01
    0.5000000000000000E+01    0.6593508822075582E+00    0.7354504170366591E+00
    0.5000000000000000E+01    0.8256214013940779E+00    0.1622302608453282E+01
    0.5000000000000000E+01   -0.1650070333782557E+01    0.2145871574390382E+01
    0.5000000000000000E+01   -0.4612828702537229E+00    0.4086422318222992E+01
    0.5000000000000000E+01   -0.8579242121530853E+00    0.2979540174134984E+01
    0.5000000000000000E+01   -0.1836846154397680E+01    0.3045064261640043E+01
    0.5000000000000000E+01    0.3508002863614053E+00    0.3428197553792836E+01
    0.5000000000000000E+01    0.5185680230613409E+00    0.4309693860063405E+01
    0.5000000000000000E+01    0.1738996113203182E+01    0.1827272193562204E+01
    0.5000000000000000E+01    0.1325493893339706E+01    0.2808563282768077E+01
    0.5000000000000000E+01   -0.8731419609589618E+00    0.1895995683864404E+01
    0.5000000000000000E+01    0.4906150219227333E-01    0.2273179336307740E+01
    0.0000000000000000E+00    0.1250000000000000E+01    0.5000000000000000E+01
    0.0000000000000000E+00    0.0000000000000000E+00    0.5000000000000000E+01
    0.0000000000000000E+00   -0.1250000000000000E+01    0.5000000000000000E+01
    0.0000000000000000E+00   -0.2500000000000000E+01    0.5000000000000000E+01
    0.1250000000000000E+01   -0.2500000000000000E+01    0.5000000000000000E+01
    0.2500000000000000E+01   -0.2500000000000000E+01    0.5000000000000000E+01
    0.3750000000000000E+01   -0.2500000000000000E+01    0.5000000000000000E+01
    0.4042003247744892E+01    0.1558308132739014E+01    0.5000000000000000E+01
    0.9304122287900499E+00   -0.1548001304379777E+01    0.5000000000000000E+01
    0.1037243024609388E+01    0.1462892710085612E+01    0.5000000000000000E+01
    0.3946240828834967E+01   -0.1445243809615570E+01    0.5000000000000000E+01
    0.4092527262848217E+01   -0.3455338993778935E+00    0.5000000000000000E+01
    0.4293103109154542E+01    0.6277660831404320E+00    0.5000000000000000E+01
    0.3241512314643519E+01    0.7429886854239611E+00    0.5000000000000000E+01
    0.2844289952419609E+01   -0.1588117879734118E+01    0.5000000000000000E+01
    0.7159905765450471E+00   -0.6002320124191652E+00    0.5000000000000000E+01
    0.1754341919796891E+01   -0.7398147869923652E+00    0.5000000000000000E+01
    0.1870296826774691E+01   -0.1788622905643739E+01    0.5000000000000000E+01
    0.9220614901912976E+00    0.3083720183248586E+00    0.5000000000000000E+01
    0.3101523624086016E+01    0.1777901774806180E+01    0.5000000000000000E+01
    0.2192512063922564E+01    0.1576861561598471E+01    0.5000000000000000E+01
    0.2024793420196460E+01    0.4773861992750707E+00    0.5000000000000000E+01
    0.2990627757741975E+01   -0.4878110785814084E+00    0.5000000000000000E+01
    0.0000000000000000E+00   -0.2500000000000000E+01    0.1250000000000000E+01
    0.0000000000000000E+00   -0.2500000000000000E+01    0.2500000000000000E+01
    0.0000000000000000E+00   -0.2500000000000000E+01    0.3750000000000000E+01
    0.0000000000000000E+00    0.1558308132739014E+01    0.4042003247744892E+01
    0.0000000000000000E+00   -0.1548001304379777E+01    0.9304122287900499E+00
    0.0000000000000000E+00    0.1462892710085612E+01    0.1037243024609388E+01
    0.0000000000000000E+00   -0.1445243809615570E+01    0.3946240828834967E+01
    0.0000000000000000E+00   -0.3455338993778935E+00    0.4092527262848217E+01
    0.0000000000000000E+00    0.6277660831404320E+00    0.4293103109154542E+01
    0.0000000000000000E+00    0.7429886854239611E+00    0.3241512314643519E+01
    0.0000000000000000E+00   -0.1588117879734118E+01    0.2844289952419609E+01
    0.0000000000000000E+00   -0.6002320124191652E+00    0.7159905765450471E+00
    0.0000000000000000E+00   -0.7398147869923652E+00    0.1754341919796891E+01
    0.0000000000000000E+00   -0.1788622905643739E+01    0.1870296826774691E+01
    0.0000000000000000E+00    0.3083720183248586E+00    0.9220614901912976E+00
    0.0000000000000000E+00    0.1777901774806180E+01    0.3101523624086016E+01
    0.0000000000000000E+00    0.1576861561598471E+01    0.2192512063922564E+01
[...]
POINT_DATA 213
SCALARS rho double 1
LOOKUP_TABLE default
   0.1344272808386463E+01
   0.9569772451853870E+00
   0.9462966722368875E+00
   0.9418613067355992E+00
   0.8437299603419448E+00
   0.7737999244546868E+00
   0.7629813659529451E+00
   0.7664572276962979E+00
   0.8307867965647838E+00
   0.9352970753580154E+00
   0.9342222745741771E+00
   0.9617204269836859E+00
   0.1449458937011915E+01
   0.1494092876102699E+01
   0.1644670096015100E+01
   0.1425834388923584E+01
   0.1009016266767106E+01
   0.9508812183145344E+00
   0.9436507228237395E+00
   0.9581570662097664E+00
   0.9415857212120090E+00
   0.1036378579175346E+01
   0.9256167555333534E+00
   0.9322353912004858E+00
   0.9537480352083831E+00
   0.9518769502422905E+00
   0.9348582778342154E+00
   0.9564026713611737E+00
   0.9376096790496994E+00
   0.9300667860343964E+00
   0.9445157928302816E+00
   0.8863506391118778E+00
   0.9423579139374053E+00
   0.9634990527475963E+00
   0.1008298347491791E+01
   0.1006735389463673E+01
   0.1001964884630043E+01
   0.1003219556192196E+01
   0.1004132111314523E+01
   0.1005228918129176E+01
   0.1004260519062320E+01
   0.1008308848900977E+01
   0.1023893451610620E+01
   0.1063555156383927E+01
   0.1019183408317012E+01
   0.1001780561246745E+01
   0.9643306018924590E+00
   0.1005283956162616E+01
   0.1000721195292296E+01
   0.1008742491792599E+01
   0.1008078906866722E+01
   0.1002349644912006E+01
   0.9979984879761580E+00
   0.1000583265260200E+01
   0.1001619884533322E+01
   0.9826891907178371E+00
   0.9842433354012322E+00
   0.9833311073277812E+00
   0.9788206848814529E+00
   0.9902641378570125E+00
   0.9934560863924347E+00
   0.1002012053938190E+01
   0.1002134732606513E+01
   0.1002276573288080E+01
   0.1001794955223698E+01
   0.1009778482843315E+01
   0.1006427940080743E+01
   0.9558772075302144E+00
   0.9249386590723284E+00
   0.1007036849017145E+01
   0.1004504989538043E+01
   0.9143630992585756E+00
   0.9089657051051563E+00
   0.8751678171054652E+00
   0.9767259412736505E+00
   0.1000451196001263E+01
   0.1005831243690124E+01
   0.1012882071696261E+01
   0.1011618337584355E+01
   0.1010438310626374E+01
   0.1005468517397782E+01
   0.9907599885883016E+00
   0.1005139766838495E+01
   0.9860554686072892E+00
   0.1005608566569755E+01
   0.1004248108827050E+01
   0.1002888724790727E+01
   0.1003345763368659E+01
   0.1003993095617509E+01
   0.1005102015389319E+01
   0.1003211733580543E+01
   0.1002663151370299E+01
   0.1002586114709883E+01
   0.1004061122435866E+01
   0.1004320581937600E+01
   0.1001641720784545E+01
   0.1002272854371056E+01
   0.1002543253858429E+01
   0.1003469207942397E+01
   0.1003372620848102E+01
   0.1003232299749115E+01
   0.1004423987544375E+01
   0.1004313258366947E+01
   0.1003660050802075E+01
   0.1003723076374789E+01
   0.1004329748682666E+01
   0.1004464939537858E+01
   0.1003623206135874E+01
   0.1064425971221288E+01
   0.1028473707390555E+01
   0.1009587225582870E+01
   0.1006639366178573E+01
   0.1163938467478650E+01
   0.1086091426504276E+01
   0.1007893793110880E+01
   0.1007245951300677E+01
   0.1006798603996142E+01
   0.1013018393590402E+01
   0.1019384215811331E+01
   0.1235208930866756E+01
   0.1032531509802800E+01
   0.1046680120271168E+01
   0.1200956725479468E+01
   0.1014719540875035E+01
   0.1032290856945033E+01
   0.1028095015149398E+01
   0.1014628462712771E+01
   0.1029217563290283E+01
   0.1001994534329829E+01
   0.9606924711324187E+00
   0.1006852800072378E+01
   0.1001327570495878E+01
   0.1010821941579960E+01
   0.1012247345702591E+01
   0.1000945843685969E+01
   0.9979116925966571E+00
   0.9980628721491169E+00
   0.1001183961401268E+01
   0.9841359120359694E+00
   0.9814872034162375E+00
   0.9648481172908621E+00
   0.9680874229648065E+00
   0.9914126325296175E+00
   0.9910856638546383E+00
   0.9925546319536271E+00
   0.1001727665713859E+01
   0.9993411693269811E+00
   0.9941415402581391E+00
   0.1007039857008825E+01
   0.1022540992238289E+01
   0.1001088335728850E+01
   0.1008798759065207E+01
   0.1004773779086358E+01
   0.1009050472291527E+01
   0.9966476384398278E+00
   0.1004988845917528E+01
   0.1003325514800688E+01
   0.9949431082698470E+00
   0.9832679437638419E+00
   0.9943957350580716E+00
   0.9973419814285119E+00
   0.9932184527726740E+00
   0.1001306230528235E+01
   0.1003001445309130E+01
   0.1002183336681448E+01
   0.9947074633913315E+00
   0.9937965302012889E+00
   0.1004867804305654E+01
   0.1020078624444930E+01
   0.1005365194776830E+01
   0.9816998529465966E+00
   0.1004973156222677E+01
   0.1012382658881893E+01
   0.9871418895094378E+00
   0.9551509045248617E+00
   0.9865075698648156E+00
   0.9864534425469029E+00
   0.9918944848543770E+00
   0.9933508166347982E+00
   0.9954409565691064E+00
   0.1037338866162875E+01
   0.1033537544078143E+01
   0.1001443097536151E+01
   0.1001930324194855E+01
   0.9912473208817939E+00
   0.9910918873433128E+00
   0.9648483823292253E+00
   0.9933274688788886E+00
   0.1006058241541065E+01
   0.1001953761847701E+01
   0.9908735341898725E+00
   0.9740939648499901E+00
   0.9418794298579876E+00
   0.9819377119459041E+00
   0.9794801796515515E+00
   0.9704169609642351E+00
   0.9720476402785452E+00
   0.9557345509556003E+00
   0.9496725723086367E+00
   0.9528671540992006E+00
   0.1002659424349422E+01
   0.1002471440741313E+01
   0.1000509096247850E+01
   0.1001677129909571E+01
   0.9607926672550674E+00
   0.9491621864897546E+00
   0.9584500815055148E+00
   0.1001120970758082E+01
   0.1000495871611719E+01
   0.1001156478659101E+01
   0.9807376519697729E+00
   0.9805999772005550E+00
   0.9628472673193588E+00
SCALARS u double 1
LOOKUP_TABLE default
   0.0000000000000000E+00
   0.0000000000000000E+00
   0.0000000000000000E+00
   0.0000000000000000E+00
   0.0000000000000000E+00
   0.0000000000000000E+00
   0.0000000000000000E+00
   0.0000000000000000E+00
   0.0000000000000000E+00
   0.0000000000000000E+00
   0.0000000000000000E+00
   0.0000000000000000E+00
   0.0000000000000000E+00
   0.0000000000000000E+00
   0.0000000000000000E+00
   0.0000000000000000E+00
   0.0000000000000000E+00
   0.0000000000000000E+00
   0.0000000000000000E+00
   0.0000000000000000E+00
   0.0000000000000000E+00
   0.0000000000000000E+00
   0.0000000000000000E+00
   0.0000000000000000E+00
   0.0000000000000000E+00
   0.0000000000000000E+00
   0.0000000000000000E+00
   0.0000000000000000E+00
   0.0000000000000000E+00
   0.0000000000000000E+00
   0.0000000000000000E+00
   0.0000000000000000E+00
   0.0000000000000000E+00
   0.4950172642939228E+00
   0.5338214872879944E+00
   0.5183274433158105E+00
   0.4930669695009414E+00
   0.4847607848894974E+00
   0.4867679926461390E+00
   0.4890760650194607E+00
   0.4957843059047680E+00
   0.4898292904784489E+00
   0.4717392025636190E+00
   0.4454815919055393E+00
   0.4833883766215074E+00
   0.5098415389714599E+00
   0.4390715541283384E+00
   0.4949404455976740E+00
   0.5225340665004680E+00
   0.4962459885945446E+00
   0.5226153790150750E+00
   0.5038894193397249E+00
   0.5646876751622025E+00
   0.5247523451865943E+00
   0.4991485489065634E+00
   0.5730543343922553E+00
   0.5696028012818102E+00
   0.3737938032353195E+00
   0.3998659298212945E+00
   0.5599309809054952E+00
   0.5564588854293476E+00
   0.4942645997461472E+00
   0.4948679590536404E+00
   0.4925754560949265E+00
   0.4914291242355619E+00
   0.5162364428839029E+00
   0.5361791981189818E+00
   0.4947407576652871E+00
   0.4524112376383696E+00
   0.5128786545284463E+00
   0.5117951369849597E+00
   0.4783515091703124E+00
   0.4931694119265730E+00
   0.4603173858511027E+00
   0.5244884770188152E+00
   0.5297427416326074E+00
   0.5129587310458145E+00
   0.5328355430261151E+00
   0.5308939084429251E+00
   0.5309854262404439E+00
   0.5063665955146825E+00
   0.5282452682881785E+00
   0.5410305708175502E+00
   0.5361251401331625E+00
   0.5374096187124471E+00
   0.4965361397631654E+00
   0.4975336638627463E+00
   0.4963836826456823E+00
   0.4955213516102787E+00
   0.4904578426670908E+00
   0.4903056244424707E+00
   0.4862209723963049E+00
   0.4854081539229236E+00
   0.4932158814491301E+00
   0.4909829242608609E+00
   0.4832226939783781E+00
   0.4872657712508828E+00
   0.4880162515008372E+00
   0.4872472493143941E+00
   0.4882713603011611E+00
   0.4952591364573260E+00
   0.4900968940157724E+00
   0.4904002777803133E+00
   0.4944226494300432E+00
   0.4868023901616159E+00
   0.4892394676902486E+00
   0.4881402141415995E+00
   0.4878479989953635E+00
   0.4446853085101627E+00
   0.4700034789019967E+00
   0.4891993978153384E+00
   0.4885239339079822E+00
   0.4506504405349926E+00
   0.4687346792363782E+00
   0.4877005818027739E+00
   0.4868348629730616E+00
   0.4908987765713905E+00
   0.4793553517873494E+00
   0.4658086283473738E+00
   0.3792686786500671E+00
   0.4901595181228951E+00
   0.4486716850707063E+00
   0.4436109452618943E+00
   0.4845141315148785E+00
   0.4621842312827079E+00
   0.4665773180325029E+00
   0.4748147389927825E+00
   0.4894472312882171E+00
   0.5085578696659411E+00
   0.4315070797828691E+00
   0.4927351822093317E+00
   0.5318295803240637E+00
   0.4913405961301500E+00
   0.5207017367435859E+00
   0.5060978345074820E+00
   0.5688787374821497E+00
   0.5274006911443501E+00
   0.5015064045214974E+00
   0.5821765619265816E+00
   0.5689594312514686E+00
   0.3406394936155911E+00
   0.3789867218374544E+00
   0.5751937778427954E+00
   0.5666480028164284E+00
   0.5704101010816014E+00
   0.5291064427182397E+00
   0.5451904137263424E+00
   0.5718792455053958E+00
   0.5389072946911814E+00
   0.5475484003617558E+00
   0.5821688356885416E+00
   0.4925609250305926E+00
   0.5042166019680443E+00
   0.4961741597941322E+00
   0.5565198904873911E+00
   0.4758833181848530E+00
   0.4950276858313123E+00
   0.5498528648844673E+00
   0.5891181955388661E+00
   0.5841943466683315E+00
   0.5469098039500763E+00
   0.5805396041325214E+00
   0.5106265446695659E+00
   0.5030211472822548E+00
   0.5033643335161313E+00
   0.5676433679687133E+00
   0.5563942522422186E+00
   0.4947263461731511E+00
   0.5505235076871798E+00
   0.5510849916892778E+00
   0.5657330509232968E+00
   0.4920073448937596E+00
   0.4927307510069296E+00
   0.3865134542104662E+00
   0.3687749350575271E+00
   0.5574899167723846E+00
   0.5763741951455166E+00
   0.4194299773004649E+00
   0.5824824200136167E+00
   0.4265198113461089E+00
   0.5392780304736732E+00
   0.5012004078385223E+00
   0.5119527506273036E+00
   0.5049133725107005E+00
   0.5751953382733502E+00
   0.5876354243318991E+00
   0.5379890277477108E+00
   0.5677452593287290E+00
   0.5351251846007169E+00
   0.5338062101926446E+00
   0.5580316873913160E+00
   0.5512691866567488E+00
   0.4261854611845129E+00
   0.5273341539232446E+00
   0.5795693049221382E+00
   0.3318681543135704E+00
   0.4760270107727112E+00
   0.5446181492731798E+00
   0.4798326883773785E+00
   0.3005293013211264E+00
   0.5031068083875216E+00
   0.5017129508873467E+00
   0.5129049593744910E+00
   0.5414836820443992E+00
   0.3437602907274505E+00
   0.3397709246521619E+00
   0.3189930704110241E+00
   0.5065951682070445E+00
   0.5123502380432623E+00
   0.5330322781045813E+00
   0.5879287047234791E+00
   0.4644166840826768E+00
   0.3531264979733418E+00
SCALARS v double 1
LOOKUP_TABLE default
   0.0000000000000000E+00
   0.0000000000000000E+00
   0.0000000000000000E+00
   0.0000000000000000E+00
   0.0000000000000000E+00
   0.0000000000000000E+00
   0.0000000000000000E+00
   0.0000000000000000E+00
   0.0000000000000000E+00
   0.0000000000000000E+00
   0.0000000000000000E+00
   0.0000000000000000E+00
   0.0000000000000000E+00
   0.0000000000000000E+00
   0.0000000000000000E+00
   0.0000000000000000E+00
   0.0000000000000000E+00
   0.0000000000000000E+00
   0.0000000000000000E+00
   0.0000000000000000E+00
   0.0000000000000000E+00
   0.0000000000000000E+00
   0.0000000000000000E+00
   0.0000000000000000E+00
   0.0000000000000000E+00
   0.0000000000000000E+00
   0.0000000000000000E+00
   0.0000000000000000E+00
   0.0000000000000000E+00
   0.0000000000000000E+00
   0.0000000000000000E+00
   0.0000000000000000E+00
   0.0000000000000000E+00
   0.0000000000000000E+00
   0.0000000000000000E+00
   0.0000000000000000E+00
   0.0000000000000000E+00
   0.0000000000000000E+00
   0.0000000000000000E+00
   0.0000000000000000E+00
   0.0000000000000000E+00
   0.0000000000000000E+00
   0.0000000000000000E+00
   0.0000000000000000E+00
   0.0000000000000000E+00
   0.0000000000000000E+00
   0.0000000000000000E+00
   0.0000000000000000E+00
   0.0000000000000000E+00
   0.0000000000000000E+00
   0.0000000000000000E+00
   0.0000000000000000E+00
   0.0000000000000000E+00
   0.0000000000000000E+00
   0.0000000000000000E+00
   0.0000000000000000E+00
   0.0000000000000000E+00
   0.0000000000000000E+00
   0.0000000000000000E+00
   0.0000000000000000E+00
   0.0000000000000000E+00
   0.7970881436099130E-03
  -0.1328927617496742E-02
  -0.1332248558661721E-02
   0.0000000000000000E+00
   0.0000000000000000E+00
   0.0000000000000000E+00
   0.0000000000000000E+00
  -0.1922546419037262E-01
   0.4772089808290938E-03
   0.2183093794105893E-02
   0.1427315741316766E-01
  -0.6488275634837747E-02
  -0.7821528798504396E-02
  -0.1327712529226527E-01
   0.4914229281963244E-02
   0.6907852626129643E-03
   0.3434193436841409E-02
   0.1920807850503854E-02
   0.3147691795322574E-02
   0.1704743121739545E-02
  -0.7316055935686675E-02
  -0.7723741583071774E-04
   0.4468475567412132E-02
  -0.4389389170511665E-03
  -0.6396446361917038E-04
  -0.1964343046263582E-03
   0.8071705512674004E-03
   0.0000000000000000E+00
   0.0000000000000000E+00
   0.0000000000000000E+00
   0.0000000000000000E+00
   0.4255932740364460E-03
   0.1616311634822218E-02
  -0.1297392939172610E-02
  -0.1022426296661918E-02
  -0.2133740768062882E-02
  -0.1063724376928577E-02
  -0.8197728351396964E-03
  -0.7614664379043816E-03
   0.5207094516313196E-04
  -0.6241781786701970E-03
   0.7916143801415479E-03
  -0.1745176496651312E-02
   0.2746728732503128E-03
  -0.8927954027221811E-04
  -0.9421610565393864E-03
  -0.1099828739288052E-02
   0.0000000000000000E+00
   0.0000000000000000E+00
   0.0000000000000000E+00
  -0.1061587696369335E-02
  -0.7641221810733013E-02
   0.1860808962082800E-01
  -0.2827076662389837E-04
  -0.1382997215380010E-02
  -0.2034978215154773E-02
  -0.5665981042343993E-02
  -0.1585356469645631E-02
  -0.5946813193156296E-02
  -0.4160208730500078E-02
   0.1565443299640139E-02
   0.3329502031122058E-01
   0.3056942177612132E-04
  -0.2766290659509959E-02
   0.3566767153269055E-02
   0.3599197784984389E-03
   0.0000000000000000E+00
   0.0000000000000000E+00
   0.0000000000000000E+00
   0.0000000000000000E+00
   0.0000000000000000E+00
   0.0000000000000000E+00
   0.0000000000000000E+00
   0.0000000000000000E+00
   0.0000000000000000E+00
   0.0000000000000000E+00
   0.0000000000000000E+00
   0.0000000000000000E+00
   0.0000000000000000E+00
   0.0000000000000000E+00
   0.0000000000000000E+00
   0.0000000000000000E+00
   0.0000000000000000E+00
   0.5046826144158603E-02
   0.3230744412056308E-02
   0.8149021126128494E-02
   0.6168163377875010E-02
   0.1122922197803083E-01
   0.1429255260201600E-01
  -0.2038895426973670E-03
   0.5118214832838644E-02
   0.2914946533431709E-02
   0.3373721582727141E-02
   0.3728376546139643E-02
  -0.1465691912974522E-01
  -0.6158413636556603E-03
   0.6651403680999803E-02
   0.1541894457302459E-02
   0.1969622120961401E-02
   0.4266038444989896E-02
  -0.2790971093107085E-02
   0.1227001829447601E-02
   0.2819145028080777E-02
   0.1497381268003141E-02
   0.2575090990776636E-02
   0.2030543055672066E-02
   0.2118137931641404E-02
   0.8700317498789294E-02
  -0.3733277918020115E-02
   0.6240987828558727E-02
   0.2523901012248974E-04
  -0.3854047542293198E-03
  -0.1674661579033501E-01
  -0.4882013601438746E-02
  -0.4719999298468015E-02
   0.3445195843702033E-02
  -0.6135439325979247E-02
   0.9938182874861196E-04
  -0.3291342486015605E-01
  -0.3046237619427007E-02
   0.4722560489506168E-02
   0.9228295718937968E-03
   0.2112087476481466E-02
   0.4518512969378436E-02
   0.2720383108153579E-02
   0.3212526032514170E-02
   0.5200535309917940E-02
   0.1941867715346684E-02
   0.7316977998470101E-03
  -0.2541806949884811E-04
  -0.5374563865144310E-02
  -0.6959621351896444E-02
  -0.9443284835250716E-03
   0.1105174379773313E-02
  -0.2080518907744837E-02
  -0.3199978982612881E-02
  -0.2527843600600039E-02
  -0.4115133685552298E-02
  -0.7593905643538386E-02
  -0.1985514840896965E-02
   0.6241824576518704E-03
  -0.2237521024532358E-03
   0.1216768883610933E-02
  -0.3483907466250584E-02
   0.5229195045846656E-02
  -0.8487500534411134E-02
   0.2324414027366006E-04
  -0.3393965171814534E-03
   0.2542438037568090E-02
   0.1663427305377945E-02
   0.2021369453787713E-02
  -0.5620759623921965E-02
SCALARS w double 1
LOOKUP_TABLE default
   0.0000000000000000E+00
   0.0000000000000000E+00
   0.0000000000000000E+00
   0.0000000000000000E+00
   0.0000000000000000E+00
   0.0000000000000000E+00
   0.0000000000000000E+00
   0.0000000000000000E+00
   0.0000000000000000E+00
   0.0000000000000000E+00
   0.0000000000000000E+00
   0.0000000000000000E+00
   0.0000000000000000E+00
   0.0000000000000000E+00
   0.0000000000000000E+00
   0.0000000000000000E+00
   0.0000000000000000E+00
   0.0000000000000000E+00
   0.0000000000000000E+00
   0.0000000000000000E+00
   0.0000000000000000E+00
   0.0000000000000000E+00
   0.0000000000000000E+00
   0.0000000000000000E+00
   0.0000000000000000E+00
   0.0000000000000000E+00
   0.0000000000000000E+00
   0.0000000000000000E+00
   0.0000000000000000E+00
   0.0000000000000000E+00
   0.0000000000000000E+00
   0.0000000000000000E+00
   0.0000000000000000E+00
  -0.1007606537743129E+00
  -0.4249295274918906E-01
   0.7368148907331644E-03
   0.5726242658245365E-02
   0.5700161436059283E-03
   0.1609731585761756E-02
   0.3375008940930712E-02
   0.2372031434278174E-02
   0.4590271171020944E-03
   0.3519827327729310E-02
   0.4522187389440604E-01
   0.6522883742259963E-01
   0.8693007658265858E-03
  -0.2261154843054422E-01
   0.4317187884238213E-02
   0.1358874949957803E-01
   0.1039564303280404E-01
   0.4900638265581543E-01
   0.2438312128591215E-02
  -0.6509589600682057E-02
  -0.7001780203256395E-03
   0.3417601859488545E-03
   0.3903953477120126E-02
  -0.3893229375923353E-01
   0.1798161184120888E-01
   0.1119618825353953E-01
   0.3403760789485583E-01
   0.8439704629899073E-02
   0.4937976875505123E-02
   0.4971160148341099E-02
   0.4872108375304675E-02
   0.6027660496925737E-02
   0.2598781133773011E-02
  -0.4144439549469812E-01
  -0.9954209760886054E-01
  -0.1121673759669129E+00
   0.5070523765171395E-02
   0.4230416361505032E-02
  -0.1004728859619074E+00
  -0.9895249322826954E-01
  -0.9875437569274356E-01
  -0.9462473552786817E-01
  -0.6807110560457981E-01
   0.5154593220107568E-02
  -0.1935392540076417E-01
  -0.1575855845811144E-01
  -0.6003518068222499E-02
   0.6818872018750570E-02
  -0.8010017183415051E-01
  -0.2781134289896330E-01
  -0.8096441895530768E-01
  -0.5873296647276251E-01
   0.3084004915259284E-02
   0.2685422909509673E-02
   0.2640547412628327E-02
   0.3450230296764542E-02
   0.4007024852673142E-02
   0.1201196289270947E-02
  -0.1438535323322323E-03
   0.2040301137881596E-02
   0.4895693790712634E-02
   0.3857469103959925E-02
   0.1114652734695997E-02
   0.1183284409088627E-02
   0.1466073893463364E-02
  -0.1607438264713047E-04
   0.9002562182977237E-04
   0.4386925070640595E-02
   0.2715852177601145E-02
   0.2322825737380641E-02
   0.5010683380484045E-02
   0.1071677055441985E-02
   0.2712257719754806E-02
   0.2014268420073621E-02
   0.2906363614941300E-04
   0.8374885158974583E-01
   0.2795300473487760E-02
  -0.8344489664012753E-03
  -0.1490795247360166E-03
   0.1409549995646794E+00
   0.1239334105387322E+00
  -0.1218694348959107E-02
  -0.4381668768960174E-02
  -0.3041272371844056E-03
  -0.6511227430176417E-02
  -0.1947611030188162E-02
   0.1557642503885547E+00
   0.7490247834563364E-01
   0.2550559411213210E-01
   0.1656450905665952E+00