title="tecplot geometry and solution file"
variables = x y z mach temperature lambda1 lambda2 lambda3 lambda4 lambda5
zone t="boundary 1 bc-1", solutiontime= 0.2000000E+02, strandid=1001, i=32, j=46, f=feblock
 -0.547468544169E-02  0.000000000000E+00 -0.567606031243E-02  0.000000000000E+00  0.000000000000E+00  0.000000000000E+00 -0.525159244851E-02
 -0.425776897977E-02  0.000000000000E+00  0.000000000000E+00  0.000000000000E+00  0.000000000000E+00  0.000000000000E+00  0.000000000000E+00
  0.000000000000E+00  0.000000000000E+00 -0.338395986572E-02  0.000000000000E+00  0.000000000000E+00  0.000000000000E+00  0.000000000000E+00
  0.000000000000E+00  0.000000000000E+00  0.000000000000E+00  0.000000000000E+00  0.000000000000E+00  0.000000000000E+00  0.000000000000E+00
  0.000000000000E+00  0.000000000000E+00  0.000000000000E+00  0.000000000000E+00
  0.250494197117E+01  0.250494197117E+01  0.127822156907E+01  0.146289271009E+01  0.157686156160E+01  0.308372018325E+00  0.261948602442E-01
 -0.122573481164E+01 -0.600232012419E+00  0.250494197117E+01  0.477386199275E+00  0.742988685424E+00 -0.739814786992E+00  0.177790177481E+01
  0.155830813274E+01  0.250494197117E+01 -0.249658903664E+01 -0.154800130438E+01 -0.487811078581E+00  0.250494197117E+01  0.627766083140E+00
 -0.345533899378E+00 -0.178862290564E+01 -0.158811787973E+01  0.125000000000E+01 -0.249658903664E+01 -0.144524380962E+01  0.000000000000E+00
 -0.125000000000E+01 -0.249658903664E+01 -0.249658903664E+01 -0.249658903664E+01
  0.803813859867E-04  0.125000000000E+01  0.822460170215E-04  0.103724302461E+01  0.219251206392E+01  0.922061490191E+00  0.103872438719E-03
  0.341545874230E-04  0.715990576545E+00  0.250000000000E+01  0.202479342020E+01  0.324151231464E+01  0.175434191980E+01  0.310152362409E+01
  0.404200324774E+01  0.375000000000E+01  0.810725962649E-04  0.930412228790E+00  0.299062775774E+01  0.500000000000E+01  0.429310310915E+01
  0.409252726285E+01  0.187029682677E+01  0.284428995242E+01  0.500000000000E+01  0.125000000000E+01  0.394624082883E+01  0.500000000000E+01
  0.500000000000E+01  0.250000000000E+01  0.375000000000E+01  0.500000000000E+01
  0.000000000000E+00  0.440666214091E+00  0.000000000000E+00  0.474617251435E+00  0.460123126357E+00  0.468636774984E+00  0.000000000000E+00
  0.000000000000E+00  0.402549872254E+00  0.469884091894E+00  0.464193478194E+00  0.478749614938E+00  0.489549465334E+00  0.483128669053E+00
  0.488002259909E+00  0.489034104323E+00  0.000000000000E+00  0.465240564346E+00  0.473760502823E+00  0.495364297290E+00  0.490293371229E+00
  0.486277598054E+00  0.445854520604E+00  0.464358879564E+00  0.496127933522E+00  0.443900347073E+00  0.486930056481E+00  0.497248722542E+00
  0.496055921459E+00  0.467744048732E+00  0.488189258165E+00  0.495091099977E+00
  0.999990300362E+00  0.102983027301E+01  0.999990762612E+00  0.104241479569E+01  0.101187755093E+01  0.102516586953E+01  0.999991420552E+00
  0.999992171067E+00  0.103882587599E+01  0.100825880510E+01  0.101253541373E+01  0.100301664923E+01  0.102705528947E+01  0.100604152563E+01
  0.100244540576E+01  0.100354834274E+01  0.999992724186E+00  0.103209927148E+01  0.100459382920E+01  0.100178631734E+01  0.100260315206E+01
  0.100234717451E+01  0.101657069468E+01  0.100620508927E+01  0.100168367826E+01  0.104024762909E+01  0.100303428499E+01  0.100118707696E+01
  0.100134422954E+01  0.100976315298E+01  0.100405567247E+01  0.100176392267E+01
  0.406998092459E+01  0.647778840467E+01  0.412561582919E+01  0.844490731923E+01  0.514477037129E+01  0.498419725222E+01  0.502967050643E+01
  0.234676000122E+01  0.160519127911E+01  0.249958844719E+01  0.696008682429E+01  0.343908111377E+01  0.821029481078E+01  0.158712040256E+01
  0.158924147775E+02  0.121998706350E+02  0.425776353846E+01  0.420213544696E+01  0.254965702037E+01  0.809270135818E+02  0.237950465236E+02
  0.132496856392E+02  0.658834109252E+01  0.205870271942E+01  0.827943056137E+02  0.854626713219E+01  0.113073888352E+02  0.898964784167E+02
  0.791620964876E+02  0.225717144306E+01  0.108088107575E+02  0.740403215507E+02
  0.799124571978E+00  0.253617349209E+01  0.105402323941E+01  0.270330840837E+01  0.206083294228E+01  0.313303189859E+01  0.433215985808E+00
  0.823130184038E+00  0.218619664365E+01  0.143508307852E+01  0.229084100883E+01  0.113540321164E+01  0.258960076190E+01  0.877157186723E+00
  0.321651804128E+01  0.261031567405E+01  0.685934264605E+00  0.282656422242E+01  0.987318530998E+00  0.167018980184E+02  0.483914095937E+01
  0.265137844956E+01  0.225028840383E+01  0.945844205109E+00  0.173218521959E+02  0.236292389290E+01  0.231795249716E+01  0.188263017607E+02
  0.165289209321E+02  0.114920608467E+01  0.247944668270E+01  0.153849270594E+02
  0.218499347377E+00  0.134532743119E+00  0.255178542144E+00  0.377030163133E+00 -0.659823844593E-01  0.150570499749E+00  0.389382740866E+00
 -0.309097011300E+00  0.509484376677E+00 -0.315488730230E-02  0.158381369279E+00  0.271027992966E+00  0.220796599728E+00  0.122062856590E+00
  0.298362355751E+00  0.791158602424E-02 -0.306010287176E+00 -0.665329092246E+00  0.361724931290E+00 -0.116028453964E-01  0.249611019095E+00
  0.149415767787E+00  0.283841694705E+00  0.154286655702E+00 -0.210419489489E-01 -0.147122341896E+00  0.931027295169E-01  0.163933672757E+00
  0.128043928033E+00 -0.887042470592E-02 -0.306185808192E-01 -0.143034496404E-01
 -0.202612964282E+01 -0.610214309675E+01 -0.259685199695E+01 -0.641478569937E+01 -0.497896113264E+01 -0.914823058744E+01 -0.150289745882E+01
 -0.157087003556E+01 -0.939802660018E+01 -0.492467699252E+01 -0.447219946124E+01 -0.376961727012E+01 -0.344998285540E+01 -0.428488995614E+01
 -0.270534695734E+01 -0.305098957272E+01 -0.123598431146E+01 -0.710914916487E+01 -0.380882147155E+01 -0.112943142629E+01 -0.236985838677E+01
 -0.263508581502E+01 -0.407407727506E+01 -0.382668522371E+01 -0.106115686687E+01 -0.563112743159E+01 -0.260250741852E+01 -0.969617294261E+00
 -0.117579498606E+01 -0.437125535789E+01 -0.278422950896E+01 -0.119295388990E+01
 -0.107919302827E+01 -0.268598486406E+01 -0.136255989243E+01 -0.335322886114E+01 -0.177103744825E+01 -0.249543790924E+01 -0.775766874727E+00
 -0.502852513584E+00 -0.129687214938E+01 -0.697457645993E+00 -0.239413664515E+01 -0.115710809546E+01 -0.280461048989E+01 -0.354320634652E+00
 -0.623389445203E+01 -0.474948587284E+01 -0.835990801471E+00 -0.218864835288E+01 -0.805227516269E+00 -0.336103385063E+02 -0.954598926300E+01
 -0.513373860276E+01 -0.226725956130E+01 -0.581529306090E+00 -0.344326138459E+02 -0.331525682631E+01 -0.431580588234E+01 -0.374912575493E+02
 -0.329428001909E+02 -0.570575697174E+00 -0.418102862366E+01 -0.307264380734E+02
        12        19        11        11
        11         5        12        12
        10        14         5         5
        19        13        11        11
        19        24        13        13
        30        23        24        24
        19        12        22        22
        28        22        21        21
        11        13         6         6
         7         6         9         9
        15        12        14        14
        18        13        23        23
        15        25        21        21
        27        19        22        22
        18         8         9         9
        27        31        24        24
         4        11         6         6
         5        14        12        12
         4         2         5         5
        21        12        15        15
        14        16        15        15
        24        19        27        27
        22        29        27        27
        23        26        18        18
        17         8        18        18
         5        11         4         4
         6         3         4         4
        26        23        30        30
         5         2        10        10
        16        14        10        10
         3         6         7         7
        21        25        28        28
        29        22        28        28
         6        13         9         9
         2         4         1         1
        31        27        32        32
        25        15        20        20
        24        23        13        13
         8         7         9         9
        13        18         9         9
        31        30        24        24
        12        21        22        22
        29        32        27        27
         3         1         4         4
        26        17        18        18
        16        20        15        15
zone t="boundary 2 bc-2", solutiontime= 0.2000000E+02, strandid=1002, i=33, j=48, f=feblock
  0.500195253374E+01  0.375034811161E+01  0.249861146299E+01  0.288036674177E+01  0.124717526933E+01  0.190856698521E+01  0.326577190273E+01
  0.201394856120E+01 -0.338395986572E-02  0.962374249381E+00  0.500000000000E+01  0.403430190008E+01  0.423029563807E+01  0.500000000000E+01
  0.385439188940E+01  0.500000000000E+01  0.398133433176E+01  0.315200081417E+01  0.266958028869E+01  0.154798029824E+01  0.218327860466E+01
  0.893688440338E+00  0.000000000000E+00  0.699009761768E+00  0.964460899052E+00  0.310303671659E+01  0.000000000000E+00  0.000000000000E+00
  0.125000000000E+01  0.500000000000E+01  0.375000000000E+01  0.250000000000E+01  0.000000000000E+00
 -0.249658903664E+01 -0.249658903664E+01 -0.249658903664E+01 -0.249658903664E+01 -0.249658903664E+01 -0.249658903664E+01 -0.249658903664E+01
 -0.249658903664E+01 -0.249658903664E+01 -0.249658903664E+01 -0.249658903664E+01 -0.249658903664E+01 -0.249658903664E+01 -0.249658903664E+01
 -0.249658903664E+01 -0.249658903664E+01 -0.249658903664E+01 -0.249658903664E+01 -0.249658903664E+01 -0.249658903664E+01 -0.249658903664E+01
 -0.249658903664E+01 -0.249658903664E+01 -0.249658903664E+01 -0.249658903664E+01 -0.249658903664E+01 -0.249658903664E+01 -0.249658903664E+01
 -0.249658903664E+01 -0.249658903664E+01 -0.249658903664E+01 -0.249658903664E+01 -0.249658903664E+01
  0.108225889030E-03  0.145875369682E-03  0.100893326425E-03  0.901663374396E+00  0.110858761917E-03  0.714928318829E+00  0.188140648011E+01
  0.175892165504E+01  0.810725962649E-04  0.957504300331E+00  0.125000000000E+01  0.100596698996E+01  0.191313519089E+01  0.250000000000E+01
  0.292898096716E+01  0.375000000000E+01  0.406883369524E+01  0.363389289944E+01  0.284756860985E+01  0.292582308120E+01  0.395754054931E+01
  0.205027256979E+01  0.125000000000E+01  0.306703272692E+01  0.397155766662E+01  0.433068622168E+01  0.250000000000E+01  0.375000000000E+01
  0.500000000000E+01  0.500000000000E+01  0.500000000000E+01  0.500000000000E+01  0.500000000000E+01
  0.000000000000E+00  0.000000000000E+00  0.000000000000E+00  0.380610262149E+00  0.000000000000E+00  0.343302163911E+00  0.585285498568E+00
  0.579523873721E+00  0.000000000000E+00  0.500979747332E+00  0.508782814017E+00  0.434361560749E+00  0.572843977212E+00  0.537166654001E+00
  0.569106490033E+00  0.515013352172E+00  0.508252450097E+00  0.527349030424E+00  0.567655252726E+00  0.531857855076E+00  0.506012444339E+00
  0.521051129094E+00  0.443900347073E+00  0.490706184896E+00  0.492149786373E+00  0.501385664791E+00  0.467744048732E+00  0.488189258165E+00
  0.489961991134E+00  0.491321546659E+00  0.486017931588E+00  0.489981935261E+00  0.495091099977E+00
  0.999993488485E+00  0.999993690942E+00  0.999993544242E+00  0.989581137391E+00  0.999993139053E+00  0.985581489207E+00  0.989839349776E+00
  0.991729030504E+00  0.999992724186E+00  0.984216351929E+00  0.985140607796E+00  0.984808793931E+00  0.990067211347E+00  0.100292629404E+01
  0.999859927063E+00  0.100487346357E+01  0.100122739133E+01  0.100057008832E+01  0.997888967161E+00  0.100350843654E+01  0.100059307424E+01
  0.101090476404E+01  0.104024762909E+01  0.100327844767E+01  0.100254887617E+01  0.100046793890E+01  0.100976315298E+01  0.100405567247E+01
  0.100192580062E+01  0.100045822703E+01  0.100058944082E+01  0.100110055989E+01  0.100176392267E+01
  0.665111520482E+01  0.572675488639E+01  0.793477655150E+01  0.815891018748E+01  0.767160285428E+01  0.789846705544E+01  0.976891892268E+01
  0.857215291923E+01  0.425776353846E+01  0.868404108675E+01  0.116059134698E+02  0.964619919248E+01  0.106302119117E+02  0.882218141213E+01
  0.702032810147E+01  0.623777373892E+01  0.464343107205E+01  0.556803035656E+01  0.707612095499E+01  0.396813984606E+01  0.727100369886E+01
  0.680276428048E+01  0.854626713219E+01  0.338308814791E+01  0.119275410049E+02  0.873567150638E+01  0.225717144306E+01  0.108088107575E+02
  0.662479377350E+02  0.730579979494E+01  0.291743272959E+02  0.572833707246E+02  0.740403215507E+02
 -0.124609884761E+01  0.137043760590E+00  0.122401090416E+00  0.262754093482E+01  0.208825739941E+00  0.284241547053E+01 -0.164132678195E+01
  0.239548249160E+00  0.685934264605E+00  0.319116869172E+01 -0.254999476627E+01 -0.617901264872E-01 -0.238476344205E+01 -0.229292885968E+01
 -0.216675332408E+01 -0.146365192915E+01 -0.200579376420E+01 -0.190517725997E+01 -0.188910935658E+01 -0.116565130548E+01 -0.974197836138E+00
  0.105578589964E+01  0.236292389290E+01 -0.533497276063E-01  0.111693720006E+01 -0.113705455680E+01  0.114920608467E+01  0.247944668270E+01
  0.117952525276E+02 -0.405299588545E+00  0.285322418105E+01  0.875236843759E+01  0.153849270594E+02
 -0.195330360337E-01  0.296811606600E-01  0.182928470453E+00  0.542385987767E+00  0.181522155662E+00  0.770707594508E+00 -0.114471329200E+00
 -0.219815428020E+00 -0.306010287176E+00  0.116323447083E+00 -0.589684931055E-01 -0.117443620780E+00  0.539414542141E-01 -0.159019190424E-01
  0.836377299584E-03  0.199271347656E-01 -0.256706622529E-01  0.794033192356E-02  0.923317741331E-01  0.105896919895E+00 -0.514750979101E-02
 -0.289679841819E-02 -0.147122341896E+00 -0.324676683430E-01 -0.480129643355E-01  0.350197482124E-02 -0.887042470592E-02 -0.306185808192E-01
 -0.544896103921E-02  0.160431894434E-02  0.276846759499E-03 -0.849207859520E-02 -0.143034496404E-01
 -0.804188804511E+00 -0.119583243214E+01 -0.146491230244E+01 -0.649935036278E+01 -0.223287566261E+01 -0.101250029672E+02 -0.140383704060E+01
 -0.324905770875E+01 -0.123598431146E+01 -0.634573385168E+01 -0.454079102954E+00 -0.181501530019E+01 -0.657559725225E+00 -0.346301952746E+00
 -0.126716362756E+01 -0.441197534111E+00 -0.136690614453E+01 -0.204354565531E+01 -0.232106043860E+01 -0.321422982258E+01 -0.241777932996E+01
 -0.392866230283E+01 -0.563112743159E+01 -0.336379929219E+01 -0.254286144757E+01 -0.205201473647E+01 -0.437125535789E+01 -0.278422950896E+01
 -0.165098068558E+01 -0.781465802093E+00 -0.179606877185E+01 -0.200478524847E+01 -0.119295388990E+01
 -0.865378481737E+00 -0.764515231093E-02  0.849501807185E-02 -0.308904745850E+01 -0.186996160581E-01 -0.349820307667E+01 -0.210294443979E+01
 -0.215854151869E+01 -0.835990801471E+00 -0.366950811299E+01 -0.258759495603E+01 -0.255998055790E+01 -0.229623943377E+01 -0.167792187740E+01
 -0.119702346386E+01 -0.125913844672E+01 -0.546272863065E+00 -0.881616884528E+00 -0.137291013590E+01 -0.580571231698E+00 -0.182444274604E+01
 -0.203507134586E+01 -0.331525682631E+01 -0.776968126925E+00 -0.419476111716E+01 -0.230783302629E+01 -0.570575697174E+00 -0.418102862366E+01
 -0.268820642336E+02 -0.219250832821E+01 -0.109218325878E+02 -0.227335223846E+02 -0.307264380734E+02
        15         7        19        19
         8        20        19        19
        18        19        21        21
         7         4         8         8
         3         6         4         4
        19         7         8         8
        19        18        15        15
        14        13        15        15
         8        22        20        20
        27        24        22        22
        19        20        21        21
        32        26        21        21
        17        18        26        26
        17        16        15        15
        25        29        21        21
        12         7        13        13
        10         8         6         6
        25        20        24        24
         4         6         8         8
        12         2         4         4
        10        23        22        22
        26        31        17        17
        30        16        17        17
         4         7        12        12
        13        11        12        12
        21        20        25        25
        24        28        25        25
        22         8        10        10
         6         5        10        10
        31        26        32        32
         4         2         3         3
         5         6         3         3
        11        13        14        14
        22        23        27        27
        28        24        27        27
        15        13         7         7
         2        12         1         1
        29        25        33        33
        23        10         9         9
        21        26        18        18
        16        14        15        15
        18        17        15        15
        29        32        21        21
        22        24        20        20
        28        33        25        25
        11         1        12        12
        31        30        17        17
         5         9        10        10
zone t="boundary 3 bc-3", solutiontime= 0.2000000E+02, strandid=1003, i=33, j=48, f=feblock
  0.375059096892E+01  0.249769609313E+01  0.500322133174E+01  0.403612218725E+01  0.287976772365E+01  0.124541910518E+01  0.190552237404E+01
  0.500000000000E+01  0.326671104552E+01  0.423253755448E+01  0.201271136506E+01 -0.547468544169E-02  0.958895643487E+00  0.500000000000E+01
  0.266968147299E+01  0.385584487271E+01  0.890374214836E+00  0.154654013699E+01  0.000000000000E+00  0.500000000000E+01  0.315261136744E+01
  0.218304199515E+01  0.398195307895E+01  0.000000000000E+00  0.697379952124E+00  0.963757277315E+00  0.125000000000E+01  0.000000000000E+00
  0.500000000000E+01  0.310330738524E+01  0.250000000000E+01  0.375000000000E+01  0.000000000000E+00
  0.250494197117E+01  0.250494197117E+01  0.250494197117E+01  0.250494197117E+01  0.250494197117E+01  0.250494197117E+01  0.250494197117E+01
  0.250494197117E+01  0.250494197117E+01  0.250494197117E+01  0.250494197117E+01  0.250494197117E+01  0.250494197117E+01  0.250494197117E+01
  0.250494197117E+01  0.250494197117E+01  0.250494197117E+01  0.250494197117E+01  0.250494197117E+01  0.250494197117E+01  0.250494197117E+01
  0.250494197117E+01  0.250494197117E+01  0.250494197117E+01  0.250494197117E+01  0.250494197117E+01  0.250494197117E+01  0.250494197117E+01
  0.250494197117E+01  0.250494197117E+01  0.250494197117E+01  0.250494197117E+01  0.250494197117E+01
  0.135649900494E-03  0.110129816467E-03  0.966887303890E-04  0.101756752009E+01  0.908094589218E+00  0.103942505801E-03  0.722629083213E+00
  0.125000000000E+01  0.188965661746E+01  0.191862696980E+01  0.176708239098E+01  0.803813859867E-04  0.969652551954E+00  0.250000000000E+01
  0.285339433501E+01  0.293325058812E+01  0.205656223819E+01  0.293157016932E+01  0.125000000000E+01  0.375000000000E+01  0.363766838842E+01
  0.396069444983E+01  0.407056385475E+01  0.250000000000E+01  0.307031995245E+01  0.397359820314E+01  0.500000000000E+01  0.375000000000E+01
  0.500000000000E+01  0.433260781310E+01  0.500000000000E+01  0.500000000000E+01  0.500000000000E+01
  0.000000000000E+00  0.000000000000E+00  0.000000000000E+00  0.444930326687E+00  0.402807304829E+00  0.000000000000E+00  0.379033816204E+00
  0.508818740007E+00  0.575701380330E+00  0.573472074602E+00  0.562547829758E+00  0.000000000000E+00  0.491637802825E+00  0.534336813543E+00
  0.556352181579E+00  0.564140551432E+00  0.522485305911E+00  0.521817734730E+00  0.440666214091E+00  0.517132977413E+00  0.524068294234E+00
  0.503616120436E+00  0.509419881731E+00  0.469884091894E+00  0.495645014420E+00  0.494503343531E+00  0.488630212220E+00  0.489034104323E+00
  0.492987209122E+00  0.498957573931E+00  0.486507800265E+00  0.484614058974E+00  0.495364297290E+00
  0.999989345567E+00  0.999989414891E+00  0.999989632591E+00  0.981380974378E+00  0.988680684584E+00  0.999989832933E+00  0.982276351823E+00
  0.984074897465E+00  0.990406099424E+00  0.990319064682E+00  0.994391010835E+00  0.999990300362E+00  0.988748587757E+00  0.100365238200E+01
  0.999773192633E+00  0.100117376381E+01  0.100830261588E+01  0.100251270964E+01  0.102983027301E+01  0.100441979611E+01  0.100199190108E+01
  0.100081961865E+01  0.100137906157E+01  0.100825880510E+01  0.100297440226E+01  0.100191721483E+01  0.100214792073E+01  0.100354834274E+01
  0.100047555022E+01  0.100056537700E+01  0.100126704333E+01  0.100066742194E+01  0.100178631734E+01
  0.107927087795E+02  0.524683145253E+01  0.956561195005E+01  0.101687076546E+02  0.966243469121E+01  0.521076752380E+01  0.881994197072E+01
  0.128793300795E+02  0.108209538302E+02  0.110789640669E+02  0.998551742081E+01  0.406998092459E+01  0.936064575118E+01  0.910398479036E+01
  0.770781328204E+01  0.817978144732E+01  0.743732440148E+01  0.488323141463E+01  0.647778840467E+01  0.658211475499E+01  0.561794211403E+01
  0.643797071147E+01  0.511300053972E+01  0.249958844719E+01  0.290459696595E+01  0.161455876474E+02  0.593626795728E+02  0.121998706350E+02
  0.633761908981E+01  0.820883195016E+01  0.544962189176E+02  0.289351247695E+02  0.809270135818E+02
  0.432463554686E+00  0.710688430198E+00 -0.194791161641E+01  0.205419951398E+01  0.458931529282E+01 -0.667430826856E-01  0.398399150845E+01
 -0.281640439238E+01 -0.212369531546E+01 -0.295656791999E+01  0.451819289799E+00  0.799124571978E+00  0.323246692236E+01 -0.240487428665E+01
 -0.173468654813E+01 -0.210775963153E+01  0.158008727547E+01 -0.908813551626E+00  0.253617349209E+01 -0.163328446155E+01 -0.192780355878E+01
 -0.129434193976E+01 -0.195445944579E+01  0.143508307852E+01 -0.134312203018E+00  0.194040844784E+01  0.104178151974E+02  0.261031567405E+01
 -0.625356110336E+00 -0.130386647759E+01  0.822664200977E+01  0.273328272283E+01  0.167018980184E+02
 -0.185791024400E+00 -0.629169865203E-01  0.938989319918E-01 -0.802622036407E+00 -0.890167594838E+00 -0.787718902190E-02  0.557313268924E-02
  0.617306970711E-01  0.206666549058E+00  0.357078798004E-01  0.201077050428E+00  0.218499347377E+00  0.198790643918E+00 -0.200189156769E-01
 -0.473387691980E-01  0.159795815254E-01 -0.697303489276E-01 -0.158872494070E+00  0.134532743119E+00 -0.269006682437E-01 -0.385803222396E-02
  0.166248354036E-01  0.566460361880E-02 -0.315488730230E-02  0.344108627540E-01  0.784420230552E-01 -0.205990407808E-01  0.791158602424E-02
 -0.156234911716E-01 -0.120727339141E-02 -0.660262191519E-02 -0.235514634206E-02 -0.116028453964E-01
 -0.232279442888E+01 -0.194704939807E+01 -0.114014949873E+01 -0.805606391751E+01 -0.886182282082E+01 -0.211703205756E+01 -0.775168195848E+01
 -0.532218753205E+00 -0.284933116088E+01 -0.103438440584E+01 -0.397661706710E+01 -0.202612964282E+01 -0.592552253013E+01 -0.447100383506E+00
 -0.296646205929E+01 -0.154368218646E+01 -0.431480502312E+01 -0.390564728263E+01 -0.610214309675E+01 -0.555308900531E+00 -0.216110326699E+01
 -0.270348192727E+01 -0.148123449904E+01 -0.492467699252E+01 -0.397166272489E+01 -0.281399682201E+01 -0.177694634157E+01 -0.305098957272E+01
 -0.732054317259E+00 -0.210548018295E+01 -0.206715732472E+01 -0.181957133703E+01 -0.112943142629E+01
 -0.587205554071E-02 -0.582293737883E-01 -0.111493092156E+01 -0.354449367888E+01 -0.411094502952E+01 -0.491111450366E-01 -0.404322190249E+01
 -0.290864790159E+01 -0.224941544534E+01 -0.218238214932E+01 -0.266748624004E+01 -0.107919302827E+01 -0.371853974088E+01 -0.172287532034E+01
 -0.163092091539E+01 -0.160078504429E+01 -0.234480876244E+01 -0.941607254277E+00 -0.268598486406E+01 -0.128809473333E+01 -0.869974074662E+00
 -0.141560826199E+01 -0.724659241171E+00 -0.697457645993E+00 -0.607491123362E+00 -0.593772808910E+01 -0.239538247229E+02 -0.474948587284E+01
 -0.177479944429E+01 -0.206408684039E+01 -0.215649311135E+02 -0.107901636102E+02 -0.336103385063E+02
        15         9        16        16
        15        18        11        11
        22        15        21        21
        11         5         9         9
         5         7         2         2
        11         9        15        15
        16        21        15        15
        16        10        14        14
        18        17        11        11
        17        25        24        24
        22        18        15        15
        22        30        31        31
        30        21        23        23
        16        20        23        23
        22        27        26        26
        10         9         4         4
         7        11        13        13
        25        18        26        26
        11         7         5         5
         5         1         4         4
        17        19        13        13
        23        32        30        30
        23        20        29        29
         4         9         5         5
         4         8        10        10
        26        18        22        22
        26        28        25        25
        13        11        17        17
        13         6         7         7
        31        30        32        32
         2         1         5         5
         2         7         6         6
        14        10         8         8
        24        19        17        17
        24        25        28        28
         9        10        16        16
         3         4         1         1
        33        26        27        27
        12        13        19        19
        21        30        22        22
        16        14        20        20
        16        23        21        21
        22        31        27        27
        18        25        17        17
        26        33        28        28
         4         3         8         8
        23        29        32        32
        13        12         6         6
zone t="boundary 4 bc-4", solutiontime= 0.2000000E+02, strandid=1004, i=32, j=46, f=feblock
  0.125000000000E+01  0.219251206392E+01  0.103724302461E+01  0.500000000000E+01  0.250000000000E+01  0.375000000000E+01  0.404200324774E+01
  0.500000000000E+01  0.000000000000E+00  0.310152362409E+01  0.202479342020E+01  0.324151231464E+01  0.922061490191E+00  0.000000000000E+00
  0.299062775774E+01  0.394624082883E+01  0.500000000000E+01  0.409252726285E+01  0.500000000000E+01  0.429310310915E+01  0.175434191980E+01
  0.284428995242E+01  0.000000000000E+00  0.000000000000E+00  0.715990576545E+00  0.930412228790E+00  0.125000000000E+01  0.187029682677E+01
  0.500000000000E+01  0.375000000000E+01  0.250000000000E+01  0.000000000000E+00
  0.250494197117E+01  0.157686156160E+01  0.146289271009E+01  0.250494197117E+01  0.250494197117E+01  0.250494197117E+01  0.155830813274E+01
  0.125000000000E+01  0.250494197117E+01  0.177790177481E+01  0.477386199275E+00  0.742988685424E+00  0.308372018325E+00  0.125000000000E+01
 -0.487811078581E+00 -0.144524380962E+01 -0.125000000000E+01 -0.345533899378E+00  0.000000000000E+00  0.627766083140E+00 -0.739814786992E+00
 -0.158811787973E+01  0.000000000000E+00 -0.125000000000E+01 -0.600232012419E+00 -0.154800130438E+01 -0.249658903664E+01 -0.178862290564E+01
 -0.249658903664E+01 -0.249658903664E+01 -0.249658903664E+01 -0.249658903664E+01
  0.500000000000E+01  0.500000000000E+01  0.500000000000E+01  0.500000000000E+01  0.500000000000E+01  0.500000000000E+01  0.500000000000E+01
  0.500000000000E+01  0.500000000000E+01  0.500000000000E+01  0.500000000000E+01  0.500000000000E+01  0.500000000000E+01  0.500000000000E+01
  0.500000000000E+01  0.500000000000E+01  0.500000000000E+01  0.500000000000E+01  0.500000000000E+01  0.500000000000E+01  0.500000000000E+01
  0.500000000000E+01  0.500000000000E+01  0.500000000000E+01  0.500000000000E+01  0.500000000000E+01  0.500000000000E+01  0.500000000000E+01
  0.500000000000E+01  0.500000000000E+01  0.500000000000E+01  0.500000000000E+01
  0.488630212220E+00  0.488908716439E+00  0.490613563023E+00  0.492987209122E+00  0.486507800265E+00  0.484614058974E+00  0.485349379989E+00
  0.494165072826E+00  0.495364297290E+00  0.486547191318E+00  0.487827844382E+00  0.487055837589E+00  0.494058544536E+00  0.496127933522E+00
  0.487591516691E+00  0.483167459327E+00  0.492383185910E+00  0.487198277340E+00  0.494738152002E+00  0.487948631654E+00  0.489652457880E+00
  0.487975472983E+00  0.497248722542E+00  0.496055921459E+00  0.494948818827E+00  0.492779385287E+00  0.489961991134E+00  0.489965023644E+00
  0.491321546659E+00  0.486017931588E+00  0.489981935261E+00  0.495091099977E+00
  0.100214792073E+01  0.100152366602E+01  0.100177921758E+01  0.100047555022E+01  0.100126704333E+01  0.100066742194E+01  0.100025486927E+01
  0.100050300652E+01  0.100178631734E+01  0.100112357820E+01  0.100132836583E+01  0.100072276399E+01  0.100164069721E+01  0.100168367826E+01
  0.100096358335E+01  0.100001091236E+01  0.100083203976E+01  0.100022366105E+01  0.100062122326E+01  0.100023363627E+01  0.100174700863E+01
  0.100098998959E+01  0.100118707696E+01  0.100134422954E+01  0.100132700903E+01  0.100179943015E+01  0.100192580062E+01  0.100163765934E+01
  0.100045822703E+01  0.100058944082E+01  0.100110055989E+01  0.100176392267E+01
  0.593626795728E+02  0.569684264088E+02  0.599419384605E+02  0.633761908981E+01  0.544962189176E+02  0.289351247695E+02  0.199523934431E+02
  0.626114925607E+01  0.809270135818E+02  0.446931205259E+02  0.606649389471E+02  0.418545323368E+02  0.726043856231E+02  0.827943056137E+02
  0.471704772840E+02  0.190261940848E+02  0.698977310546E+01  0.242789826122E+02  0.580919913068E+01  0.244064709726E+02  0.745550602324E+02
  0.445384243749E+02  0.898964784167E+02  0.791620964876E+02  0.841043965330E+02  0.662314996257E+02  0.662479377350E+02  0.694853726162E+02
  0.730579979494E+01  0.291743272959E+02  0.572833707246E+02  0.740403215507E+02