# vtk DataFile Version 2.0
FUN3D:global_image_vtk
ASCII
DATASET UNSTRUCTURED_GRID
POINTS 350 double
    0.5000000000000000E+01    0.0000000000000000E+00    0.5000000000000000E+01
    0.4000000000000000E+01    0.0000000000000000E+00    0.5000000000000000E+01
    0.3000000000000000E+01    0.0000000000000000E+00    0.5000000000000000E+01
    0.2000000000000000E+01    0.0000000000000000E+00    0.5000000000000000E+01
    0.9999999999999998E+00    0.0000000000000000E+00    0.5000000000000000E+01
    0.0000000000000000E+00    0.0000000000000000E+00    0.5000000000000000E+01
    0.0000000000000000E+00    0.0000000000000000E+00    0.4000000000000000E+01
    0.0000000000000000E+00    0.0000000000000000E+00    0.3000000000000000E+01
    0.0000000000000000E+00    0.0000000000000000E+00    0.2000000000000000E+01
    0.0000000000000000E+00    0.0000000000000000E+00    0.9999999999999998E+00
    0.0000000000000000E+00    0.0000000000000000E+00    0.0000000000000000E+00
    0.1000000000000000E+01    0.0000000000000000E+00    0.0000000000000000E+00
    0.2000000000000000E+01    0.0000000000000000E+00    0.0000000000000000E+00
    0.3000000000000000E+01    0.0000000000000000E+00    0.0000000000000000E+00
    0.4000000000000000E+01    0.0000000000000000E+00    0.0000000000000000E+00
    0.5000000000000000E+01    0.0000000000000000E+00    0.0000000000000000E+00
    0.5000000000000000E+01    0.0000000000000000E+00    0.1000000000000000E+01
    0.5000000000000000E+01    0.0000000000000000E+00    0.2000000000000000E+01
    0.5000000000000000E+01    0.0000000000000000E+00    0.3000000000000000E+01
    0.5000000000000000E+01    0.0000000000000000E+00    0.4000000000000000E+01
    0.4322050724693945E+01    0.0000000000000000E+00    0.4272847764579289E+01
    0.4395933514933383E+01    0.0000000000000000E+00    0.6968157305690375E+00
    0.4822566552045414E+00    0.0000000000000000E+00    0.4869914123714657E+00
    0.6915840874870021E+00    0.0000000000000000E+00    0.4412138888481547E+01
    0.3399851674277183E+01    0.0000000000000000E+00    0.4097916069546335E+01
    0.2387722604716090E+01    0.0000000000000000E+00    0.4289612581570788E+01
    0.2530539425941974E+01    0.0000000000000000E+00    0.3425796000045182E+01
    0.4218243643927281E+01    0.0000000000000000E+00    0.1577295032585114E+01
    0.4374706835472756E+01    0.0000000000000000E+00    0.2456049093849535E+01
    0.3551860412513510E+01    0.0000000000000000E+00    0.2339930221808592E+01
    0.2949794352503393E+01    0.0000000000000000E+00    0.5481475950050476E+00
    0.7861633687955188E+00    0.0000000000000000E+00    0.2248355130517770E+01
    0.5798833877919640E+00    0.0000000000000000E+00    0.2968095534677868E+01
    0.9567989459488916E+00    0.0000000000000000E+00    0.9597666531489262E+00
    0.1484741644122566E+01    0.0000000000000000E+00    0.4363965165706898E+01
    0.1026777559850325E+01    0.0000000000000000E+00    0.3706650893855072E+01
    0.2039106473515760E+01    0.0000000000000000E+00    0.1998969209862488E+01
    0.1300624340922514E+01    0.0000000000000000E+00    0.1814065253577793E+01
    0.1818986365136347E+01    0.0000000000000000E+00    0.1286729705298721E+01
    0.3653583824847581E+01    0.0000000000000000E+00    0.9901573836014240E+00
    0.4143524820619449E+01    0.0000000000000000E+00    0.3349542163936307E+01
    0.1820064053502506E+01    0.0000000000000000E+00    0.3699731047579209E+01
    0.1584392186197914E+01    0.0000000000000000E+00    0.2795974726684905E+01
    0.1600595232801024E+01    0.0000000000000000E+00    0.6068725132371939E+00
    0.2227190852919879E+01    0.0000000000000000E+00    0.7878662077383224E+00
    0.6087173311333847E+00    0.0000000000000000E+00    0.1604437407448898E+01
    0.2791514824717063E+01    0.0000000000000000E+00    0.1521675228311488E+01
    0.2652084981436515E+01    0.0000000000000000E+00    0.2569083733163254E+01
    0.3287666143370331E+01    0.0000000000000000E+00    0.3173897562080839E+01
    0.3566016613004364E+01    0.0000000000000000E+00    0.1597010715137857E+01
    0.5000000000000000E+01   -0.8333333333333334E+00    0.5000000000000000E+01
    0.4000000000000000E+01   -0.8333333333333334E+00    0.5000000000000000E+01
    0.3000000000000000E+01   -0.8333333333333334E+00    0.5000000000000000E+01
    0.2000000000000000E+01   -0.8333333333333334E+00    0.5000000000000000E+01
    0.9999999999999998E+00   -0.8333333333333334E+00    0.5000000000000000E+01
    0.0000000000000000E+00   -0.8333333333333334E+00    0.5000000000000000E+01
    0.0000000000000000E+00   -0.8333333333333334E+00    0.4000000000000000E+01
    0.0000000000000000E+00   -0.8333333333333334E+00    0.3000000000000000E+01
    0.0000000000000000E+00   -0.8333333333333334E+00    0.2000000000000000E+01
    0.0000000000000000E+00   -0.8333333333333334E+00    0.9999999999999998E+00
    0.0000000000000000E+00   -0.8333333333333334E+00    0.0000000000000000E+00
    0.1000000000000000E+01   -0.8333333333333334E+00    0.0000000000000000E+00
    0.2000000000000000E+01   -0.8333333333333334E+00    0.0000000000000000E+00
    0.3000000000000000E+01   -0.8333333333333334E+00    0.0000000000000000E+00
    0.4000000000000000E+01   -0.8333333333333334E+00    0.0000000000000000E+00
    0.5000000000000000E+01   -0.8333333333333334E+00    0.0000000000000000E+00
    0.5000000000000000E+01   -0.8333333333333334E+00    0.1000000000000000E+01
    0.5000000000000000E+01   -0.8333333333333334E+00    0.2000000000000000E+01
    0.5000000000000000E+01   -0.8333333333333334E+00    0.3000000000000000E+01
    0.5000000000000000E+01   -0.8333333333333334E+00    0.4000000000000000E+01
    0.4322050724693945E+01   -0.8333333333333334E+00    0.4272847764579289E+01
    0.4395933514933383E+01   -0.8333333333333334E+00    0.6968157305690375E+00
    0.4822566552045414E+00   -0.8333333333333334E+00    0.4869914123714657E+00
    0.6915840874870021E+00   -0.8333333333333334E+00    0.4412138888481547E+01
    0.3399851674277183E+01   -0.8333333333333334E+00    0.4097916069546335E+01
    0.2387722604716090E+01   -0.8333333333333334E+00    0.4289612581570788E+01
    0.2530539425941974E+01   -0.8333333333333334E+00    0.3425796000045182E+01
    0.4218243643927281E+01   -0.8333333333333334E+00    0.1577295032585114E+01
    0.4374706835472756E+01   -0.8333333333333334E+00    0.2456049093849535E+01
    0.3551860412513510E+01   -0.8333333333333334E+00    0.2339930221808592E+01
    0.2949794352503393E+01   -0.8333333333333334E+00    0.5481475950050476E+00
    0.7861633687955188E+00   -0.8333333333333334E+00    0.2248355130517770E+01
    0.5798833877919640E+00   -0.8333333333333334E+00    0.2968095534677868E+01
    0.9567989459488916E+00   -0.8333333333333334E+00    0.9597666531489262E+00
    0.1484741644122566E+01   -0.8333333333333334E+00    0.4363965165706898E+01
    0.1026777559850325E+01   -0.8333333333333334E+00    0.3706650893855072E+01
    0.2039106473515760E+01   -0.8333333333333334E+00    0.1998969209862488E+01
    0.1300624340922514E+01   -0.8333333333333334E+00    0.1814065253577793E+01
    0.1818986365136347E+01   -0.8333333333333334E+00    0.1286729705298721E+01
    0.3653583824847581E+01   -0.8333333333333334E+00    0.9901573836014240E+00
    0.4143524820619449E+01   -0.8333333333333334E+00    0.3349542163936307E+01
    0.1820064053502506E+01   -0.8333333333333334E+00    0.3699731047579209E+01
    0.1584392186197914E+01   -0.8333333333333334E+00    0.2795974726684905E+01
    0.1600595232801024E+01   -0.8333333333333334E+00    0.6068725132371939E+00
    0.2227190852919879E+01   -0.8333333333333334E+00    0.7878662077383224E+00
    0.6087173311333847E+00   -0.8333333333333334E+00    0.1604437407448898E+01
    0.2791514824717063E+01   -0.8333333333333334E+00    0.1521675228311488E+01
    0.2652084981436515E+01   -0.8333333333333334E+00    0.2569083733163254E+01
    0.3287666143370331E+01   -0.8333333333333334E+00    0.3173897562080839E+01
    0.3566016613004364E+01   -0.8333333333333334E+00    0.1597010715137857E+01
    0.5000000000000000E+01   -0.1666666666666667E+01    0.5000000000000000E+01
    0.4000000000000000E+01   -0.1666666666666667E+01    0.5000000000000000E+01
    0.3000000000000000E+01   -0.1666666666666667E+01    0.5000000000000000E+01
    0.2000000000000000E+01   -0.1666666666666667E+01    0.5000000000000000E+01
    0.9999999999999998E+00   -0.1666666666666667E+01    0.5000000000000000E+01
    0.0000000000000000E+00   -0.1666666666666667E+01    0.5000000000000000E+01
    0.0000000000000000E+00   -0.1666666666666667E+01    0.4000000000000000E+01
    0.0000000000000000E+00   -0.1666666666666667E+01    0.3000000000000000E+01
    0.0000000000000000E+00   -0.1666666666666667E+01    0.2000000000000000E+01
    0.0000000000000000E+00   -0.1666666666666667E+01    0.9999999999999998E+00
    0.0000000000000000E+00   -0.1666666666666667E+01    0.0000000000000000E+00
    0.1000000000000000E+01   -0.1666666666666667E+01    0.0000000000000000E+00
    0.2000000000000000E+01   -0.1666666666666667E+01    0.0000000000000000E+00
    0.3000000000000000E+01   -0.1666666666666667E+01    0.0000000000000000E+00
    0.4000000000000000E+01   -0.1666666666666667E+01    0.0000000000000000E+00
    0.5000000000000000E+01   -0.1666666666666667E+01    0.0000000000000000E+00
    0.5000000000000000E+01   -0.1666666666666667E+01    0.1000000000000000E+01
    0.5000000000000000E+01   -0.1666666666666667E+01    0.2000000000000000E+01
    0.5000000000000000E+01   -0.1666666666666667E+01    0.3000000000000000E+01
    0.5000000000000000E+01   -0.1666666666666667E+01    0.4000000000000000E+01
    0.4322050724693945E+01   -0.1666666666666667E+01    0.4272847764579289E+01
    0.4395933514933383E+01   -0.1666666666666667E+01    0.6968157305690375E+00
    0.4822566552045414E+00   -0.1666666666666667E+01    0.4869914123714657E+00
    0.6915840874870021E+00   -0.1666666666666667E+01    0.4412138888481547E+01
    0.3399851674277183E+01   -0.1666666666666667E+01    0.4097916069546335E+01
[...]
POINT_DATA 350
SCALARS rho double 1
LOOKUP_TABLE default
   0.1000000000000000E+01
   0.1000000000000000E+01
   0.9999999999999997E+00
   0.1000000000000000E+01
   0.1000000000000000E+01
   0.1000000000000000E+01
   0.9999999999999991E+00
   0.9999999999999993E+00
   0.1000000000000000E+01
   0.9999999999999999E+00
   0.1000000000000000E+01
   0.9999999999999997E+00
   0.9999999999999998E+00
   0.9999999999999998E+00
   0.9999999999999999E+00
   0.9999999999999996E+00
   0.9999999999999994E+00
   0.9999999999999994E+00
   0.1000000000000000E+01
   0.9999999999999998E+00
   0.9999999999999997E+00
   0.1000000000000000E+01
   0.1000000000000000E+01
   0.1000000000000000E+01
   0.9999999999999998E+00
   0.9999999999999997E+00
   0.9999999999999999E+00
   0.9999999999999999E+00
   0.9999999999999999E+00
   0.1000000000000000E+01
   0.1000000000000000E+01
   0.9999999999999996E+00
   0.1000000000000000E+01
   0.1000000000000000E+01
   0.9999999999999999E+00
   0.9999999999999999E+00
   0.1000000000000000E+01
   0.9999999999999999E+00
   0.9999999999999999E+00
   0.1000000000000000E+01
   0.9999999999999999E+00
   0.9999999999999997E+00
   0.1000000000000000E+01
   0.1000000000000000E+01
   0.1000000000000000E+01
   0.1000000000000000E+01
   0.9999999999999999E+00
   0.1000000000000000E+01
   0.9999999999999996E+00
   0.9999999999999999E+00
   0.1000000000000000E+01
   0.1000000000000000E+01
   0.9999999999999996E+00
   0.1000000000000000E+01
   0.1000000000000000E+01
   0.9999999999999997E+00
   0.1000000000000000E+01
   0.9999999999999986E+00
   0.1000000000000000E+01
   0.9999999999999997E+00
   0.1000000000000000E+01
   0.9999999999999998E+00
   0.9999999999999998E+00
   0.1000000000000000E+01
   0.9999999999999998E+00
   0.9999999999999994E+00
   0.9999999999999991E+00
   0.9999999999999988E+00
   0.9999999999999996E+00
   0.9999999999999997E+00
   0.9999999999999997E+00
   0.9999999999999998E+00
   0.9999999999999998E+00
   0.1000000000000000E+01
   0.9999999999999996E+00
   0.9999999999999997E+00
   0.9999999999999996E+00
   0.9999999999999997E+00
   0.1000000000000000E+01
   0.9999999999999999E+00
   0.9999999999999999E+00
   0.9999999999999994E+00
   0.1000000000000000E+01
   0.1000000000000000E+01
   0.9999999999999994E+00
   0.1000000000000000E+01
   0.1000000000000000E+01
   0.1000000000000000E+01
   0.9999999999999999E+00
   0.1000000000000000E+01
   0.9999999999999997E+00
   0.9999999999999996E+00
   0.9999999999999999E+00
   0.1000000000000000E+01
   0.9999999999999999E+00
   0.9999999999999998E+00
   0.9999999999999999E+00
   0.9999999999999999E+00
   0.9999999999999998E+00
   0.9999999999999998E+00
   0.1000000000000000E+01
   0.1000000000000000E+01
   0.9999999999999998E+00
   0.9999999999999996E+00
   0.1000000000000000E+01
   0.1000000000000000E+01
   0.1000000000000000E+01
   0.1000000000000000E+01
   0.1000000000000000E+01
   0.9999999999999998E+00
   0.9999999999999998E+00
   0.9999999999999999E+00
   0.1000000000000000E+01
   0.1000000000000000E+01
   0.9999999999999997E+00
   0.9999999999999999E+00
   0.1000000000000000E+01
   0.9999999999999996E+00
   0.9999999999999993E+00
   0.1000000000000000E+01
   0.1000000000000000E+01
   0.1000000000000000E+01
   0.1000000000000000E+01
   0.1000000000000000E+01
   0.9999999999999998E+00
   0.1000000000000000E+01
   0.9999999999999999E+00
   0.1000000000000000E+01
   0.1000000000000000E+01
   0.1000000000000000E+01
   0.1000000000000000E+01
   0.1000000000000000E+01
   0.1000000000000000E+01
   0.1000000000000000E+01
   0.9999999999999996E+00
   0.1000000000000000E+01
   0.1000000000000000E+01
   0.1000000000000000E+01
   0.1000000000000000E+01
   0.1000000000000000E+01
   0.9999999999999999E+00
   0.1000000000000000E+01
   0.1000000000000000E+01
   0.1000000000000000E+01
   0.1000000000000000E+01
   0.9999999999999999E+00
   0.1000000000000000E+01
   0.1000000000000000E+01
   0.1000000000000000E+01
   0.9999999999999998E+00
   0.1000000000000000E+01
   0.1000000000000000E+01
   0.9999999999999998E+00
   0.9999999999999990E+00
   0.1000000000000000E+01
   0.9999999999999998E+00
   0.9999999999999993E+00
   0.9999999999999996E+00
   0.1000000000000000E+01
   0.1000000000000000E+01
   0.1000000000000000E+01
   0.9999999999999996E+00
   0.1000000000000000E+01
   0.9999999999999998E+00
   0.1000000000000000E+01
   0.1000000000000000E+01
   0.1000000000000000E+01
   0.1000000000000000E+01
   0.9999999999999999E+00
   0.9999999999999998E+00
   0.1000000000000000E+01
   0.1000000000000000E+01
   0.9999999999999999E+00
   0.1000000000000000E+01
   0.9999999999999999E+00
   0.9999999999999999E+00
   0.1000000000000000E+01
   0.9999999999999999E+00
   0.9999999999999997E+00
   0.1000000000000000E+01
   0.1000000000000000E+01
   0.1000000000000000E+01
   0.1000000000000000E+01
   0.1000000000000000E+01
   0.9999999999999998E+00
   0.1000000000000000E+01
   0.1000000000000000E+01
   0.1000000000000000E+01
   0.9999999999999998E+00
   0.1000000000000000E+01
   0.1000000000000000E+01
   0.1000000000000000E+01
   0.1000000000000000E+01
   0.1000000000000000E+01
   0.9999999999999998E+00
   0.9999999999999999E+00
   0.1000000000000000E+01
   0.1000000000000000E+01
   0.1000000000000000E+01
   0.1000000000000000E+01
   0.1000000000000001E+01
   0.1000000000000000E+01
   0.9999999999999996E+00
   0.9999999999999996E+00
   0.1000000000000001E+01
   0.1000000000000000E+01
   0.9999999999999999E+00
   0.1000000000000000E+01
   0.1000000000000001E+01
   0.1000000000000000E+01
   0.1000000000000000E+01
   0.1000000000000000E+01
   0.1000000000000000E+01
   0.1000000000000001E+01
   0.9999999999999999E+00
   0.1000000000000000E+01
   0.9999999999999999E+00
   0.1000000000000001E+01
   0.1000000000000000E+01
   0.1000000000000000E+01
   0.1000000000000000E+01
   0.1000000000000000E+01
   0.9999999999999999E+00
   0.1000000000000000E+01
   0.1000000000000000E+01
   0.1000000000000000E+01
   0.1000000000000000E+01
   0.1000000000000000E+01
   0.1000000000000000E+01
   0.1000000000000000E+01
   0.9999999999999998E+00
   0.9999999999999997E+00
   0.1000000000000000E+01
   0.1000000000000000E+01
   0.1000000000000000E+01
   0.1000000000000000E+01
   0.1000000000000000E+01
   0.1000000000000000E+01
   0.1000000000000000E+01
   0.1000000000000000E+01
   0.1000000000000000E+01
   0.1000000000000000E+01
   0.1000000000000000E+01
   0.9999999999999999E+00
   0.1000000000000000E+01
   0.1000000000000000E+01
   0.9999999999999999E+00
   0.1000000000000000E+01
   0.1000000000000000E+01
   0.1000000000000000E+01
   0.1000000000000001E+01
   0.1000000000000000E+01
   0.1000000000000000E+01
   0.1000000000000001E+01
   0.1000000000000000E+01
   0.9999999999999998E+00
   0.1000000000000000E+01
   0.1000000000000000E+01
   0.1000000000000001E+01
   0.1000000000000000E+01
   0.1000000000000000E+01
   0.9999999999999998E+00
   0.9999999999999991E+00
   0.9999999999999993E+00
   0.9999999999999997E+00
   0.9999999999999993E+00
   0.1000000000000000E+01
   0.9999999999999999E+00
   0.9999999999999996E+00
   0.1000000000000000E+01
   0.1000000000000000E+01
   0.1000000000000000E+01
   0.1000000000000000E+01
   0.1000000000000000E+01
   0.1000000000000000E+01
   0.9999999999999998E+00
   0.9999999999999998E+00
   0.1000000000000000E+01
   0.9999999999999999E+00
   0.1000000000000000E+01
   0.1000000000000000E+01
   0.1000000000000000E+01
   0.1000000000000000E+01
   0.1000000000000000E+01
   0.1000000000000000E+01
   0.1000000000000000E+01
   0.1000000000000000E+01
   0.1000000000000000E+01
   0.1000000000000000E+01
   0.1000000000000000E+01
   0.1000000000000000E+01
   0.1000000000000000E+01
   0.1000000000000000E+01
   0.1000000000000000E+01
   0.1000000000000000E+01
   0.1000000000000000E+01
   0.1000000000000000E+01
   0.1000000000000000E+01
   0.1000000000000000E+01
   0.1000000000000000E+01
   0.9999999999999997E+00
   0.1000000000000000E+01
   0.9999999999999999E+00
   0.9999999999999998E+00
   0.1000000000000000E+01
   0.9999999999999997E+00
   0.1000000000000000E+01
   0.1000000000000000E+01
   0.1000000000000000E+01
   0.1000000000000000E+01
   0.1000000000000000E+01
   0.1000000000000001E+01
   0.1000000000000001E+01
   0.1000000000000001E+01
   0.1000000000000001E+01
   0.1000000000000000E+01
   0.9999999999999992E+00
   0.9999999999999997E+00
   0.9999999999999999E+00
   0.9999999999999992E+00
   0.9999999999999998E+00
   0.9999999999999996E+00
   0.1000000000000000E+01
   0.1000000000000000E+01
   0.1000000000000000E+01
   0.1000000000000000E+01
   0.9999999999999999E+00
   0.1000000000000000E+01
   0.1000000000000000E+01
   0.1000000000000000E+01
   0.9999999999999994E+00
   0.9999999999999998E+00
   0.1000000000000000E+01
   0.9999999999999998E+00
   0.9999999999999999E+00
   0.1000000000000000E+01
   0.1000000000000000E+01
   0.9999999999999999E+00
   0.9999999999999998E+00
   0.9999999999999999E+00
   0.1000000000000000E+01
   0.9999999999999999E+00
   0.1000000000000000E+01
   0.9999999999999996E+00
   0.9999999999999998E+00
   0.9999999999999998E+00
   0.1000000000000000E+01
   0.1000000000000000E+01
   0.9999999999999997E+00
   0.1000000000000000E+01
SCALARS u double 1
LOOKUP_TABLE default
   0.5000000000000000E+00
   0.5000000000000000E+00
   0.4999999999999998E+00
   0.5000000000000002E+00
   0.5000000000000000E+00
   0.5000000000000002E+00
   0.5000000000000008E+00
   0.5000000000000009E+00
   0.4999999999999994E+00
   0.4999999999999991E+00
   0.4999999999999989E+00
   0.4999999999999996E+00
   0.4999999999999996E+00
   0.4999999999999999E+00
   0.4999999999999997E+00
   0.4999999999999989E+00
   0.4999999999999993E+00
   0.4999999999999993E+00
   0.4999999999999998E+00
   0.5000000000000000E+00
   0.5000000000000001E+00
   0.4999999999999994E+00
   0.4999999999999995E+00
   0.4999999999999999E+00
   0.4999999999999998E+00
   0.5000000000000000E+00
   0.4999999999999999E+00
   0.4999999999999999E+00
   0.4999999999999999E+00
   0.4999999999999994E+00
   0.4999999999999997E+00
   0.4999999999999999E+00
   0.5000000000000000E+00
   0.4999999999999996E+00
   0.4999999999999998E+00
   0.5000000000000002E+00
   0.4999999999999994E+00
   0.4999999999999996E+00
   0.4999999999999994E+00
   0.4999999999999997E+00
   0.4999999999999997E+00
   0.5000000000000003E+00
   0.5000000000000002E+00
   0.4999999999999996E+00
   0.4999999999999996E+00
   0.4999999999999992E+00
   0.4999999999999995E+00
   0.4999999999999998E+00
   0.4999999999999998E+00
   0.4999999999999994E+00
   0.4999999999999994E+00
   0.5000000000000002E+00
   0.4999999999999998E+00
   0.4999999999999999E+00
   0.4999999999999995E+00
   0.4999999999999997E+00
   0.4999999999999992E+00
   0.5000000000000009E+00
   0.4999999999999998E+00
   0.4999999999999995E+00
   0.4999999999999994E+00
   0.4999999999999997E+00
   0.4999999999999999E+00
   0.5000000000000001E+00
   0.4999999999999997E+00
   0.4999999999999996E+00
   0.4999999999999992E+00
   0.4999999999999996E+00
   0.4999999999999998E+00
   0.4999999999999999E+00
   0.4999999999999999E+00
   0.4999999999999996E+00
   0.4999999999999999E+00
   0.4999999999999994E+00
   0.4999999999999999E+00
   0.4999999999999997E+00
   0.4999999999999998E+00
   0.4999999999999997E+00
   0.5000000000000000E+00
   0.4999999999999996E+00
   0.4999999999999998E+00
   0.4999999999999999E+00
   0.4999999999999998E+00
   0.4999999999999996E+00
   0.4999999999999999E+00
   0.4999999999999998E+00
   0.4999999999999999E+00
   0.4999999999999998E+00
   0.4999999999999996E+00
   0.4999999999999998E+00
   0.4999999999999998E+00
   0.5000000000000001E+00
   0.4999999999999998E+00
   0.4999999999999998E+00
   0.4999999999999998E+00
   0.4999999999999997E+00
   0.4999999999999995E+00
   0.4999999999999998E+00
   0.4999999999999997E+00
   0.4999999999999994E+00
   0.4999999999999995E+00
   0.5000000000000004E+00
   0.4999999999999999E+00
   0.4999999999999998E+00
   0.4999999999999994E+00
   0.4999999999999993E+00
   0.4999999999999992E+00
   0.4999999999999991E+00
   0.4999999999999996E+00
   0.4999999999999994E+00
   0.4999999999999997E+00
   0.4999999999999997E+00
   0.4999999999999997E+00
   0.4999999999999999E+00
   0.4999999999999996E+00
   0.4999999999999993E+00
   0.4999999999999989E+00
   0.4999999999999994E+00
   0.4999999999999998E+00
   0.5000000000000000E+00
   0.4999999999999998E+00
   0.4999999999999995E+00
   0.4999999999999997E+00
   0.4999999999999993E+00
   0.5000000000000000E+00
   0.4999999999999996E+00
   0.4999999999999997E+00
   0.4999999999999996E+00
   0.4999999999999999E+00
   0.4999999999999996E+00
   0.4999999999999996E+00
   0.4999999999999998E+00
   0.4999999999999994E+00
   0.4999999999999997E+00
   0.4999999999999994E+00
   0.4999999999999996E+00
   0.4999999999999997E+00
   0.4999999999999998E+00
   0.4999999999999996E+00
   0.4999999999999997E+00
   0.4999999999999998E+00
   0.4999999999999999E+00
   0.4999999999999996E+00
   0.4999999999999996E+00
   0.4999999999999996E+00
   0.4999999999999996E+00
   0.4999999999999995E+00
   0.4999999999999996E+00
   0.4999999999999996E+00
   0.4999999999999996E+00
   0.4999999999999994E+00
   0.4999999999999997E+00
   0.4999999999999997E+00
   0.5000000000000003E+00
   0.4999999999999998E+00
   0.4999999999999997E+00
   0.5000000000000007E+00
   0.4999999999999999E+00
   0.5000000000000001E+00
   0.4999999999999993E+00
   0.4999999999999988E+00
   0.4999999999999998E+00
   0.4999999999999995E+00
   0.4999999999999996E+00
   0.4999999999999998E+00
   0.4999999999999994E+00
   0.4999999999999994E+00
   0.4999999999999992E+00
   0.4999999999999997E+00
   0.4999999999999995E+00
   0.4999999999999998E+00
   0.4999999999999995E+00
   0.4999999999999995E+00
   0.4999999999999999E+00
   0.4999999999999998E+00
   0.5000000000000000E+00
   0.5000000000000000E+00
   0.4999999999999997E+00
   0.5000000000000000E+00
   0.4999999999999997E+00
   0.5000000000000001E+00
   0.4999999999999996E+00
   0.5000000000000000E+00
   0.4999999999999997E+00
   0.4999999999999999E+00
   0.5000000000000002E+00
   0.4999999999999999E+00
   0.4999999999999996E+00
   0.4999999999999997E+00
   0.4999999999999995E+00
   0.5000000000000000E+00
   0.5000000000000003E+00
   0.5000000000000000E+00
   0.4999999999999999E+00
   0.4999999999999999E+00
   0.4999999999999996E+00
   0.4999999999999994E+00
   0.4999999999999998E+00
   0.4999999999999998E+00
   0.4999999999999993E+00
   0.4999999999999992E+00
   0.4999999999999994E+00
   0.4999999999999997E+00
   0.4999999999999999E+00
   0.4999999999999996E+00
   0.4999999999999992E+00
   0.5000000000000000E+00
   0.4999999999999996E+00
   0.4999999999999991E+00
   0.4999999999999996E+00
   0.4999999999999992E+00
   0.4999999999999998E+00
   0.4999999999999996E+00
   0.4999999999999994E+00
   0.4999999999999998E+00
   0.4999999999999997E+00
   0.4999999999999996E+00
   0.4999999999999989E+00
   0.4999999999999997E+00
   0.4999999999999996E+00
   0.4999999999999995E+00
   0.4999999999999996E+00
   0.4999999999999998E+00
   0.4999999999999996E+00
   0.4999999999999994E+00
   0.4999999999999993E+00
   0.5000000000000000E+00
   0.5000000000000000E+00
   0.4999999999999998E+00
   0.4999999999999998E+00
   0.4999999999999998E+00
   0.4999999999999997E+00
   0.4999999999999998E+00
   0.4999999999999995E+00
   0.4999999999999996E+00
   0.4999999999999998E+00
   0.4999999999999995E+00
   0.4999999999999997E+00
   0.4999999999999996E+00
   0.4999999999999999E+00
   0.4999999999999998E+00
   0.5000000000000001E+00
   0.4999999999999999E+00
   0.4999999999999997E+00
   0.4999999999999996E+00
   0.4999999999999995E+00
   0.4999999999999997E+00
   0.4999999999999998E+00
   0.5000000000000000E+00
   0.4999999999999998E+00
   0.4999999999999993E+00
   0.4999999999999995E+00
   0.4999999999999998E+00
   0.4999999999999996E+00
   0.4999999999999994E+00
   0.4999999999999996E+00
   0.4999999999999992E+00
   0.4999999999999996E+00
   0.4999999999999992E+00
   0.4999999999999994E+00
   0.4999999999999992E+00
   0.4999999999999997E+00
   0.4999999999999997E+00
   0.4999999999999998E+00
   0.4999999999999995E+00
   0.4999999999999997E+00
   0.4999999999999995E+00
   0.4999999999999992E+00
   0.4999999999999993E+00
   0.4999999999999994E+00
   0.4999999999999999E+00
   0.4999999999999997E+00
   0.4999999999999995E+00
   0.4999999999999993E+00
   0.4999999999999998E+00
   0.4999999999999998E+00
   0.4999999999999998E+00
   0.4999999999999997E+00
   0.4999999999999996E+00
   0.4999999999999996E+00
   0.4999999999999998E+00
   0.4999999999999999E+00
   0.4999999999999996E+00
   0.4999999999999999E+00
   0.4999999999999996E+00
   0.4999999999999998E+00
   0.4999999999999998E+00
   0.4999999999999996E+00
   0.4999999999999998E+00
   0.4999999999999997E+00
   0.4999999999999996E+00
   0.4999999999999998E+00
   0.4999999999999998E+00
   0.4999999999999994E+00
   0.4999999999999996E+00
   0.4999999999999996E+00
   0.4999999999999997E+00
   0.4999999999999999E+00
   0.4999999999999999E+00
   0.4999999999999997E+00
   0.4999999999999998E+00
   0.4999999999999999E+00
   0.4999999999999997E+00
   0.4999999999999998E+00
   0.4999999999999996E+00
   0.4999999999999997E+00
   0.4999999999999990E+00
   0.4999999999999996E+00
   0.4999999999999993E+00
   0.4999999999999994E+00
   0.5000000000000006E+00
   0.4999999999999996E+00
   0.4999999999999991E+00
   0.4999999999999993E+00
   0.5000000000000001E+00
   0.4999999999999997E+00
   0.4999999999999994E+00
   0.4999999999999995E+00
   0.4999999999999993E+00
   0.4999999999999997E+00
   0.4999999999999997E+00
   0.4999999999999994E+00
   0.5000000000000000E+00
   0.4999999999999997E+00
   0.4999999999999998E+00
   0.4999999999999999E+00
   0.4999999999999996E+00
   0.4999999999999999E+00
   0.4999999999999996E+00
   0.4999999999999996E+00
   0.4999999999999999E+00
   0.5000000000000002E+00
   0.4999999999999997E+00
   0.4999999999999998E+00
   0.4999999999999999E+00
   0.4999999999999992E+00
   0.4999999999999996E+00
   0.4999999999999998E+00
   0.4999999999999996E+00
   0.4999999999999996E+00
   0.4999999999999994E+00
   0.4999999999999996E+00
   0.4999999999999995E+00
   0.4999999999999999E+00
   0.5000000000000000E+00
   0.4999999999999997E+00
   0.4999999999999997E+00
   0.4999999999999997E+00
   0.4999999999999997E+00
   0.4999999999999996E+00
SCALARS v double 1
LOOKUP_TABLE default
   0.0000000000000000E+00
   0.0000000000000000E+00
   0.0000000000000000E+00
   0.0000000000000000E+00
   0.0000000000000000E+00
   0.0000000000000000E+00
   0.0000000000000000E+00
   0.0000000000000000E+00
   0.0000000000000000E+00
   0.0000000000000000E+00
   0.0000000000000000E+00
   0.0000000000000000E+00
   0.0000000000000000E+00
   0.0000000000000000E+00
   0.0000000000000000E+00
   0.0000000000000000E+00
   0.0000000000000000E+00
   0.0000000000000000E+00
   0.0000000000000000E+00
   0.0000000000000000E+00
   0.0000000000000000E+00
   0.0000000000000000E+00
   0.0000000000000000E+00
   0.0000000000000000E+00
   0.0000000000000000E+00
   0.0000000000000000E+00
   0.0000000000000000E+00
   0.0000000000000000E+00
   0.0000000000000000E+00
   0.0000000000000000E+00
   0.0000000000000000E+00
   0.0000000000000000E+00
   0.0000000000000000E+00
   0.0000000000000000E+00
   0.0000000000000000E+00
   0.0000000000000000E+00
   0.0000000000000000E+00
   0.0000000000000000E+00
   0.0000000000000000E+00
   0.0000000000000000E+00
   0.0000000000000000E+00
   0.0000000000000000E+00
   0.0000000000000000E+00
   0.0000000000000000E+00
   0.0000000000000000E+00
   0.0000000000000000E+00
   0.0000000000000000E+00
   0.0000000000000000E+00
   0.0000000000000000E+00
   0.0000000000000000E+00
   0.1155573107036871E-15
   0.2903258374737055E-15
   0.9853630583994024E-16
  -0.9201489972945855E-16
   0.3496868818572408E-15
   0.7074005350146834E-16
   0.1175174240830270E-15
   0.3519430080726937E-15
   0.2815615885433751E-16
   0.1456963072692733E-15
  -0.1077795677471776E-15
  -0.1554934600320123E-15
  -0.6806563860778805E-16