title="tecplot geometry and solution file"
variables = x y z rho u v w p mach temperature
zone t="boundary 1 bc-1", solutiontime= 0.4300000E+03, strandid=1001, i=32, j=46, f=feblock
  0.000000000000E+00  0.000000000000E+00  0.000000000000E+00  0.000000000000E+00  0.000000000000E+00  0.000000000000E+00  0.000000000000E+00
  0.000000000000E+00  0.000000000000E+00  0.000000000000E+00  0.000000000000E+00  0.000000000000E+00  0.000000000000E+00  0.000000000000E+00
  0.000000000000E+00  0.000000000000E+00  0.000000000000E+00  0.000000000000E+00  0.000000000000E+00  0.000000000000E+00  0.000000000000E+00
  0.000000000000E+00  0.000000000000E+00  0.000000000000E+00  0.000000000000E+00  0.000000000000E+00  0.000000000000E+00  0.000000000000E+00
  0.000000000000E+00  0.000000000000E+00  0.000000000000E+00  0.000000000000E+00
  0.250000000000E+01  0.250000000000E+01  0.125000000000E+01  0.146289271009E+01  0.157686156160E+01  0.308372018325E+00  0.000000000000E+00
 -0.125000000000E+01 -0.600232012419E+00  0.250000000000E+01  0.477386199275E+00  0.742988685424E+00 -0.739814786992E+00  0.177790177481E+01
  0.155830813274E+01  0.250000000000E+01 -0.250000000000E+01 -0.154800130438E+01 -0.487811078581E+00  0.250000000000E+01  0.627766083140E+00
 -0.345533899378E+00 -0.178862290564E+01 -0.158811787973E+01  0.125000000000E+01 -0.250000000000E+01 -0.144524380962E+01  0.000000000000E+00
 -0.125000000000E+01 -0.250000000000E+01 -0.250000000000E+01 -0.250000000000E+01
  0.000000000000E+00  0.125000000000E+01  0.000000000000E+00  0.103724302461E+01  0.219251206392E+01  0.922061490191E+00  0.000000000000E+00
  0.000000000000E+00  0.715990576545E+00  0.250000000000E+01  0.202479342020E+01  0.324151231464E+01  0.175434191980E+01  0.310152362409E+01
  0.404200324774E+01  0.375000000000E+01  0.000000000000E+00  0.930412228790E+00  0.299062775774E+01  0.500000000000E+01  0.429310310915E+01
  0.409252726285E+01  0.187029682677E+01  0.284428995242E+01  0.500000000000E+01  0.125000000000E+01  0.394624082883E+01  0.500000000000E+01
  0.500000000000E+01  0.250000000000E+01  0.375000000000E+01  0.500000000000E+01
  0.134427144975E+01  0.106355395610E+01  0.142583204958E+01  0.108608796985E+01  0.103229115331E+01  0.120095364261E+01  0.164466727720E+01
  0.149409064466E+01  0.123520367005E+01  0.102389313800E+01  0.102809523679E+01  0.101301828701E+01  0.103252946677E+01  0.101471891608E+01
  0.100663883751E+01  0.100830819000E+01  0.144945745181E+01  0.116393552245E+01  0.101462863988E+01  0.100426040828E+01  0.100679807418E+01
  0.100724553335E+01  0.104668119168E+01  0.101938460958E+01  0.100424800574E+01  0.106442280105E+01  0.100789341931E+01  0.100288843772E+01
  0.100334542048E+01  0.102847362147E+01  0.100958665736E+01  0.100399273190E+01
  0.000000000000E+00  0.445481415359E+00  0.000000000000E+00  0.468737856532E+00  0.462182264488E+00  0.443613738897E+00  0.000000000000E+00
  0.000000000000E+00  0.379272522542E+00  0.471738849344E+00  0.466574953400E+00  0.479355157630E+00  0.490159653003E+00  0.484514724088E+00
  0.488524784344E+00  0.489830188379E+00  0.000000000000E+00  0.450653304267E+00  0.474814029885E+00  0.495784888033E+00  0.490899471583E+00
  0.486835368308E+00  0.448668668957E+00  0.465807174640E+00  0.496536481858E+00  0.444686657931E+00  0.487701045651E+00  0.497534090387E+00
  0.496384264437E+00  0.470002877962E+00  0.489199905621E+00  0.495522026741E+00
  0.000000000000E+00  0.000000000000E+00  0.000000000000E+00  0.186085476041E-01 -0.276688485720E-02  0.332952483493E-01  0.000000000000E+00
  0.000000000000E+00 -0.594701650034E-02  0.000000000000E+00  0.356648472272E-02 -0.566638318626E-02 -0.416060191660E-02  0.305514135312E-04
 -0.106175910004E-02  0.000000000000E+00  0.000000000000E+00 -0.764112890887E-02  0.359618935267E-03  0.000000000000E+00 -0.203512297028E-02
 -0.138312915203E-02  0.156561481929E-02 -0.158521020005E-02 -0.638374271401E-04  0.000000000000E+00 -0.283455438307E-04 -0.196339458573E-03
  0.807126802765E-03  0.000000000000E+00  0.000000000000E+00  0.000000000000E+00
  0.000000000000E+00  0.452181758551E-01  0.000000000000E+00  0.123933295957E+00  0.247647172408E-01  0.165644512491E+00  0.000000000000E+00
  0.000000000000E+00  0.155763097740E+00  0.351822589554E-02  0.259783175094E-01 -0.651224678820E-02  0.748997921541E-01  0.371839291908E-02
 -0.149294531028E-03  0.459062480792E-03  0.000000000000E+00  0.140954084881E+00 -0.808565308272E-02  0.237177367892E-02 -0.304305768080E-03
 -0.438193607148E-02  0.255017492002E-01 -0.194957029275E-02  0.308362572080E-02  0.837461436061E-01 -0.121909328372E-02  0.268514649783E-02
  0.264043121065E-02  0.279387073704E-02 -0.834662802673E-03  0.345019195530E-02
  0.960184574024E+00  0.782340562373E+00  0.101844205136E+01  0.808726658248E+00  0.746125892340E+00  0.879446499870E+00  0.117475225752E+01
  0.106719924506E+01  0.916620147900E+00  0.737395239046E+00  0.743553973004E+00  0.725759211528E+00  0.757455251123E+00  0.729188343804E+00
  0.720785048320E+00  0.722781670994E+00  0.103531921597E+01  0.858317141426E+00  0.728065073504E+00  0.718615293944E+00  0.721013448848E+00
  0.721151587204E+00  0.760018786621E+00  0.732628403661E+00  0.718531161692E+00  0.791043235814E+00  0.722107949893E+00  0.717199383112E+00
  0.717636870913E+00  0.741799737613E+00  0.724056580184E+00  0.718400634683E+00
  0.000000000000E+00  0.441238348384E+00  0.000000000000E+00  0.475214987021E+00  0.460123708856E+00  0.468827815405E+00  0.000000000000E+00
  0.000000000000E+00  0.402302516798E+00  0.469814974359E+00  0.464411128942E+00  0.478714034184E+00  0.489298241651E+00  0.483068557888E+00
  0.487930073118E+00  0.488961654628E+00  0.000000000000E+00  0.464775721414E+00  0.473795651891E+00  0.495346592024E+00  0.490266103446E+00
  0.486286083902E+00  0.445717618051E+00  0.464382274634E+00  0.496127394917E+00  0.443624103833E+00  0.486964461957E+00  0.497246279768E+00
  0.496059270892E+00  0.467732355362E+00  0.488212087362E+00  0.495098264817E+00
  0.999990295028E+00  0.102982719499E+01  0.999990757903E+00  0.104247294232E+01  0.101190080524E+01  0.102520618293E+01  0.999991416700E+00
  0.999992168096E+00  0.103891223624E+01  0.100826277309E+01  0.101252833877E+01  0.100300548289E+01  0.102702865700E+01  0.100605563290E+01
  0.100244400478E+01  0.100355660048E+01  0.999992721792E+00  0.103239739214E+01  0.100459524090E+01  0.100179336279E+01  0.100260305842E+01
  0.100234966417E+01  0.101657153079E+01  0.100617544692E+01  0.100168844809E+01  0.104043292670E+01  0.100303376377E+01  0.100118726928E+01
  0.100134171022E+01  0.100976788415E+01  0.100405369352E+01  0.100176112495E+01
        12        19        11        11
        11         5        12        12
        10        14         5         5
        19        13        11        11
        19        24        13        13
        30        23        24        24
        19        12        22        22
        28        22        21        21
        11        13         6         6
         7         6         9         9
        15        12        14        14
        18        13        23        23
        15        25        21        21
        27        19        22        22
        18         8         9         9
        27        31        24        24
         4        11         6         6
         5        14        12        12
         4         2         5         5
        21        12        15        15
        14        16        15        15
        24        19        27        27
        22        29        27        27
        23        26        18        18
        17         8        18        18
         5        11         4         4
         6         3         4         4
        26        23        30        30
         5         2        10        10
        16        14        10        10
         3         6         7         7
        21        25        28        28
        29        22        28        28
         6        13         9         9
         2         4         1         1
        31        27        32        32
        25        15        20        20
        24        23        13        13
         8         7         9         9
        13        18         9         9
        31        30        24        24
        12        21        22        22
        29        32        27        27
         3         1         4         4
        26        17        18        18
        16        20        15        15
zone t="boundary 2 bc-2", solutiontime= 0.4300000E+03, strandid=1002, i=33, j=48, f=feblock
  0.500000000000E+01  0.375000000000E+01  0.250000000000E+01  0.288078410721E+01  0.125000000000E+01  0.190974100652E+01  0.326683758169E+01
  0.201431602454E+01  0.000000000000E+00  0.963108083381E+00  0.500000000000E+01  0.403552511878E+01  0.423153924130E+01  0.500000000000E+01
  0.385533350601E+01  0.500000000000E+01  0.398173246726E+01  0.315249557942E+01  0.267000324704E+01  0.154774304040E+01  0.218329375016E+01
  0.893127759452E+00  0.000000000000E+00  0.698517061619E+00  0.964171764089E+00  0.310324758057E+01  0.000000000000E+00  0.000000000000E+00
  0.125000000000E+01  0.500000000000E+01  0.375000000000E+01  0.250000000000E+01  0.000000000000E+00
 -0.250000000000E+01 -0.250000000000E+01 -0.250000000000E+01 -0.250000000000E+01 -0.250000000000E+01 -0.250000000000E+01 -0.250000000000E+01
 -0.250000000000E+01 -0.250000000000E+01 -0.250000000000E+01 -0.250000000000E+01 -0.250000000000E+01 -0.250000000000E+01 -0.250000000000E+01
 -0.250000000000E+01 -0.250000000000E+01 -0.250000000000E+01 -0.250000000000E+01 -0.250000000000E+01 -0.250000000000E+01 -0.250000000000E+01
 -0.250000000000E+01 -0.250000000000E+01 -0.250000000000E+01 -0.250000000000E+01 -0.250000000000E+01 -0.250000000000E+01 -0.250000000000E+01
 -0.250000000000E+01 -0.250000000000E+01 -0.250000000000E+01 -0.250000000000E+01 -0.250000000000E+01
  0.000000000000E+00  0.000000000000E+00  0.000000000000E+00  0.904659890645E+00  0.000000000000E+00  0.717002441913E+00  0.188609243358E+01
  0.176246431481E+01  0.000000000000E+00  0.961328577125E+00  0.125000000000E+01  0.101201586758E+01  0.191586535653E+01  0.250000000000E+01
  0.293121848150E+01  0.375000000000E+01  0.406975391361E+01  0.363585050272E+01  0.285047954584E+01  0.292817774674E+01  0.395907379566E+01
  0.205246550326E+01  0.125000000000E+01  0.306828197606E+01  0.397245519226E+01  0.433168271247E+01  0.250000000000E+01  0.375000000000E+01
  0.500000000000E+01  0.500000000000E+01  0.500000000000E+01  0.500000000000E+01  0.500000000000E+01
  0.830787404619E+00  0.935297256516E+00  0.934221982201E+00  0.968087712964E+00  0.961719528640E+00  0.964848332237E+00  0.984136201196E+00
  0.991412447221E+00  0.144945745181E+01  0.102921689328E+01  0.955878696104E+00  0.960692919711E+00  0.981487961555E+00  0.100642910902E+01
  0.997912123405E+00  0.100977863889E+01  0.100199481640E+01  0.998063237304E+00  0.991085838873E+00  0.100132719336E+01  0.100094600697E+01
  0.101224609891E+01  0.106442280105E+01  0.101082190542E+01  0.100685258284E+01  0.100118414341E+01  0.102847362147E+01  0.100958665736E+01
  0.100510171621E+01  0.100179475839E+01  0.100266316001E+01  0.100321164520E+01  0.100399273190E+01
  0.000000000000E+00  0.000000000000E+00  0.000000000000E+00  0.378986940981E+00  0.000000000000E+00  0.340639444189E+00  0.582179008590E+00
  0.575195820706E+00  0.000000000000E+00  0.489449421631E+00  0.494741335616E+00  0.431507386879E+00  0.568961825125E+00  0.536179830600E+00
  0.568879739555E+00  0.516235685155E+00  0.508555697342E+00  0.527399281789E+00  0.566648549344E+00  0.531828923407E+00  0.506096459922E+00
  0.520701999313E+00  0.444686657931E+00  0.491339919570E+00  0.492734936079E+00  0.501504484116E+00  0.470002877962E+00  0.489199905621E+00
  0.490458183073E+00  0.491426954407E+00  0.486218276399E+00  0.490304438478E+00  0.495522026741E+00
  0.000000000000E+00  0.000000000000E+00  0.000000000000E+00  0.000000000000E+00  0.000000000000E+00  0.000000000000E+00  0.000000000000E+00
  0.000000000000E+00  0.000000000000E+00  0.000000000000E+00  0.000000000000E+00  0.000000000000E+00  0.000000000000E+00  0.000000000000E+00
  0.000000000000E+00  0.000000000000E+00  0.000000000000E+00  0.000000000000E+00  0.000000000000E+00  0.000000000000E+00  0.000000000000E+00
  0.000000000000E+00  0.000000000000E+00  0.000000000000E+00  0.000000000000E+00  0.000000000000E+00  0.000000000000E+00  0.000000000000E+00
  0.000000000000E+00  0.000000000000E+00  0.000000000000E+00  0.000000000000E+00  0.000000000000E+00
  0.000000000000E+00  0.000000000000E+00  0.000000000000E+00 -0.229669079220E-02  0.000000000000E+00  0.183565246239E-01  0.121122187202E-01
  0.454986544011E-01  0.000000000000E+00  0.870789633751E-01 -0.995426184121E-01 -0.211864965759E-01 -0.306441470027E-01 -0.414442957836E-01
 -0.137883052002E-02  0.259919185124E-02  0.609478623895E-03  0.503572990376E-03  0.150967302792E-01  0.284025719757E-01  0.564163871805E-02
  0.553419833468E-01  0.837461436061E-01  0.110441021443E-01  0.679169190061E-02 -0.758115824632E-03  0.279387073704E-02 -0.834662802673E-03
  0.400708385704E-02  0.602719172485E-02 -0.143884582674E-03  0.120121439691E-02  0.345019195530E-02
  0.593415710011E+00  0.668065253460E+00  0.667297107170E+00  0.684257572494E+00  0.686937806164E+00  0.679201335783E+00  0.695811645476E+00
  0.702343853195E+00  0.103531921597E+01  0.723694676305E+00  0.672591690741E+00  0.675702734381E+00  0.694093188903E+00  0.720959962494E+00
  0.712691281871E+00  0.724770829826E+00  0.716580562988E+00  0.713298992100E+00  0.706429557622E+00  0.717737239018E+00  0.715376602524E+00
  0.730937675051E+00  0.791043235814E+00  0.724372849964E+00  0.721010721427E+00  0.715457540785E+00  0.741799737613E+00  0.724056580184E+00
  0.719312938115E+00  0.715892799223E+00  0.716608905065E+00  0.717367939534E+00  0.718400634683E+00
  0.000000000000E+00  0.000000000000E+00  0.000000000000E+00  0.380991906500E+00  0.000000000000E+00  0.343629824950E+00  0.585286157424E+00
  0.579373264282E+00  0.000000000000E+00  0.501056069140E+00  0.508460362676E+00  0.435373026572E+00  0.572640041190E+00  0.537002098944E+00
  0.568922553870E+00  0.514994090651E+00  0.508247257160E+00  0.527252853130E+00  0.567446661127E+00  0.531657143909E+00  0.505981016593E+00
  0.520795579399E+00  0.443624103833E+00  0.490663730453E+00  0.492155873749E+00  0.501390784676E+00  0.467732355362E+00  0.488212087362E+00
  0.490002767114E+00  0.491352304715E+00  0.486075475228E+00  0.490036479234E+00  0.495098264817E+00
  0.999993487379E+00  0.999993690057E+00  0.999993543115E+00  0.989539055875E+00  0.999993137282E+00  0.985524707174E+00  0.989838908967E+00
  0.991798516580E+00  0.999992721792E+00  0.984411112416E+00  0.985091906406E+00  0.984689080896E+00  0.990058464829E+00  0.100289621837E+01
  0.999855369243E+00  0.100485306649E+01  0.100121554699E+01  0.100055642931E+01  0.997896793475E+00  0.100350029570E+01  0.100058068723E+01
  0.101093276247E+01  0.104043292670E+01  0.100326475367E+01  0.100254498742E+01  0.100045587387E+01  0.100976788415E+01  0.100405369352E+01
  0.100192656835E+01  0.100045434508E+01  0.100058774183E+01  0.100109993754E+01  0.100176112495E+01
        15         7        19        19
         8        20        19        19
        18        19        21        21
         7         4         8         8
         3         6         4         4
        19         7         8         8
        19        18        15        15
        14        13        15        15
         8        22        20        20
        27        24        22        22
        19        20        21        21
        32        26        21        21
        17        18        26        26
        17        16        15        15
        25        29        21        21
        12         7        13        13
        10         8         6         6
        25        20        24        24
         4         6         8         8
        12         2         4         4
        10        23        22        22
        26        31        17        17
        30        16        17        17
         4         7        12        12
        13        11        12        12
        21        20        25        25
        24        28        25        25
        22         8        10        10
         6         5        10        10
        31        26        32        32
         4         2         3         3
         5         6         3         3
        11        13        14        14
        22        23        27        27
        28        24        27        27
        15        13         7         7
         2        12         1         1
        29        25        33        33
        23        10         9         9
        21        26        18        18
        16        14        15        15
        18        17        15        15
        29        32        21        21
        22        24        20        20
        28        33        25        25
        11         1        12        12
        31        30        17        17
         5         9        10        10
zone t="boundary 3 bc-3", solutiontime= 0.4300000E+03, strandid=1003, i=33, j=48, f=feblock
  0.375000000000E+01  0.250000000000E+01  0.500000000000E+01  0.403552511878E+01  0.288078410721E+01  0.125000000000E+01  0.190974100652E+01
  0.500000000000E+01  0.326683758169E+01  0.423153924130E+01  0.201431602454E+01  0.000000000000E+00  0.963108083381E+00  0.500000000000E+01
  0.267000324704E+01  0.385533350601E+01  0.893127759452E+00  0.154774304040E+01  0.000000000000E+00  0.500000000000E+01  0.315249557942E+01
  0.218329375016E+01  0.398173246726E+01  0.000000000000E+00  0.698517061619E+00  0.964171764089E+00  0.125000000000E+01  0.000000000000E+00
  0.500000000000E+01  0.310324758057E+01  0.250000000000E+01  0.375000000000E+01  0.000000000000E+00
  0.250000000000E+01  0.250000000000E+01  0.250000000000E+01  0.250000000000E+01  0.250000000000E+01  0.250000000000E+01  0.250000000000E+01
  0.250000000000E+01  0.250000000000E+01  0.250000000000E+01  0.250000000000E+01  0.250000000000E+01  0.250000000000E+01  0.250000000000E+01
  0.250000000000E+01  0.250000000000E+01  0.250000000000E+01  0.250000000000E+01  0.250000000000E+01  0.250000000000E+01  0.250000000000E+01
  0.250000000000E+01  0.250000000000E+01  0.250000000000E+01  0.250000000000E+01  0.250000000000E+01  0.250000000000E+01  0.250000000000E+01
  0.250000000000E+01  0.250000000000E+01  0.250000000000E+01  0.250000000000E+01  0.250000000000E+01
  0.000000000000E+00  0.000000000000E+00  0.000000000000E+00  0.101201586758E+01  0.904659890645E+00  0.000000000000E+00  0.717002441913E+00
  0.125000000000E+01  0.188609243358E+01  0.191586535653E+01  0.176246431481E+01  0.000000000000E+00  0.961328577125E+00  0.250000000000E+01
  0.285047954584E+01  0.293121848150E+01  0.205246550326E+01  0.292817774674E+01  0.125000000000E+01  0.375000000000E+01  0.363585050272E+01
  0.395907379566E+01  0.406975391361E+01  0.250000000000E+01  0.306828197606E+01  0.397245519226E+01  0.500000000000E+01  0.375000000000E+01
  0.500000000000E+01  0.433168271247E+01  0.500000000000E+01  0.500000000000E+01  0.500000000000E+01
  0.941861271893E+00  0.946296420096E+00  0.843730490041E+00  0.964330993920E+00  0.978820741306E+00  0.956975891555E+00  0.983331403711E+00
  0.963500307992E+00  0.982689307389E+00  0.984243964258E+00  0.990263816150E+00  0.134427144975E+01  0.101918251330E+01  0.100829903951E+01
  0.993456155325E+00  0.997998684819E+00  0.100807808367E+01  0.100072116330E+01  0.106355395610E+01  0.100673529184E+01  0.100058356095E+01
  0.100234980714E+01  0.100178076644E+01  0.102389313800E+01  0.100874208384E+01  0.100528370901E+01  0.100522860296E+01  0.100830819000E+01
  0.100196461762E+01  0.100162012368E+01  0.100413205399E+01  0.100321958155E+01  0.100426040828E+01
  0.000000000000E+00  0.000000000000E+00  0.000000000000E+00  0.439071269955E+00  0.399865812389E+00  0.000000000000E+00  0.373794144963E+00
  0.495017683570E+00  0.573056190093E+00  0.569605109625E+00  0.559932658732E+00  0.000000000000E+00  0.483390704892E+00  0.533822130061E+00
  0.556458763064E+00  0.564688360904E+00  0.522615496360E+00  0.522533036249E+00  0.445481415359E+00  0.518326924779E+00  0.524750915687E+00
  0.503888174303E+00  0.509839746267E+00  0.471738849344E+00  0.496245454566E+00  0.494940396470E+00  0.489076358330E+00  0.489830188379E+00
  0.493064988019E+00  0.499146611950E+00  0.486766642365E+00  0.484757871933E+00  0.495784888033E+00
  0.000000000000E+00  0.000000000000E+00  0.000000000000E+00  0.000000000000E+00  0.000000000000E+00  0.000000000000E+00  0.000000000000E+00
  0.000000000000E+00  0.000000000000E+00  0.000000000000E+00  0.000000000000E+00  0.000000000000E+00  0.000000000000E+00  0.000000000000E+00
  0.000000000000E+00  0.000000000000E+00  0.000000000000E+00  0.000000000000E+00  0.000000000000E+00  0.000000000000E+00  0.000000000000E+00
  0.000000000000E+00  0.000000000000E+00  0.000000000000E+00  0.000000000000E+00  0.000000000000E+00  0.000000000000E+00  0.000000000000E+00
  0.000000000000E+00  0.000000000000E+00  0.000000000000E+00  0.000000000000E+00  0.000000000000E+00
  0.000000000000E+00  0.000000000000E+00  0.000000000000E+00 -0.226115181912E-01  0.111963818073E-01  0.000000000000E+00  0.179816810308E-01
 -0.100761228722E+00  0.390410745224E-02 -0.389325429233E-01  0.340377326189E-01  0.000000000000E+00  0.652293782604E-01 -0.424929711824E-01
  0.843881031268E-02 -0.650994097271E-02  0.490054841734E-01  0.135873484339E-01  0.452181758551E-01  0.737198718852E-03 -0.701222645382E-03
  0.243744359695E-02  0.868929787302E-03  0.351822589554E-02  0.103945255645E-01  0.431655358359E-02  0.337507309802E-02  0.459062480792E-03
  0.572579995271E-02  0.341101726267E-03  0.160978319023E-02  0.569905804633E-03  0.237177367892E-02
  0.672750879374E+00  0.675918855462E+00  0.602658384215E+00  0.676093765445E+00  0.691308921476E+00  0.683547254555E+00  0.690066482570E+00
  0.677274860616E+00  0.695201827902E+00  0.696250866011E+00  0.703344068657E+00  0.960184574024E+00  0.719726358959E+00  0.722866646264E+00
  0.709447759126E+00  0.713700946730E+00  0.726067414006E+00  0.716602922760E+00  0.782340562373E+00  0.722284532363E+00  0.716128636946E+00
  0.716551643783E+00  0.716546536244E+00  0.737395239046E+00  0.722682910973E+00  0.719441264192E+00  0.719566095391E+00  0.722781670994E+00
  0.716030181706E+00  0.715847822179E+00  0.718146783271E+00  0.717062470382E+00  0.718615293944E+00
  0.000000000000E+00  0.000000000000E+00  0.000000000000E+00  0.443767745459E+00  0.402286944574E+00  0.000000000000E+00  0.377550369545E+00
  0.509232128688E+00  0.575832179754E+00  0.573707405285E+00  0.562554064412E+00  0.000000000000E+00  0.490563299840E+00  0.534527096543E+00
  0.556586982170E+00  0.564391577749E+00  0.522730517385E+00  0.522052000170E+00  0.441238348384E+00  0.517182331791E+00  0.524228630763E+00
  0.503687457534E+00  0.509488571178E+00  0.469814974359E+00  0.495614442414E+00  0.494483780212E+00  0.488562428343E+00  0.488961654628E+00
  0.492980744788E+00  0.499005552222E+00  0.486460936507E+00  0.484596927548E+00  0.495346592024E+00
  0.999989339439E+00  0.999989408764E+00  0.999989626853E+00  0.981541895460E+00  0.988773990194E+00  0.999989827144E+00  0.982469462434E+00
  0.984104309047E+00  0.990427545862E+00  0.990355285694E+00  0.994362997073E+00  0.999990295028E+00  0.988652071037E+00  0.100368369414E+01
  0.999769197113E+00  0.100118501219E+01  0.100834885320E+01  0.100252111043E+01  0.102982719499E+01  0.100443319461E+01  0.100199536635E+01
  0.100082056599E+01  0.100138192342E+01  0.100826277309E+01  0.100298787130E+01  0.100192389555E+01  0.100215267510E+01  0.100355660048E+01
  0.100047670023E+01  0.100056591053E+01  0.100126820231E+01  0.100066573360E+01  0.100179336279E+01
        15         9        16        16
        15        18        11        11
        22        15        21        21
        11         5         9         9
         5         7         2         2
        11         9        15        15
        16        21        15        15
        16        10        14        14
        18        17        11        11
        17        25        24        24
        22        18        15        15
        22        30        31        31
        30        21        23        23
        16        20        23        23
        22        27        26        26
        10         9         4         4
         7        11        13        13
        25        18        26        26
        11         7         5         5
         5         1         4         4
        17        19        13        13
        23        32        30        30
        23        20        29        29
         4         9         5         5
         4         8        10        10
        26        18        22        22
        26        28        25        25
        13        11        17        17
        13         6         7         7
        31        30        32        32
         2         1         5         5
         2         7         6         6
        14        10         8         8
        24        19        17        17
        24        25        28        28
         9        10        16        16
         3         4         1         1
        33        26        27        27
        12        13        19        19
        21        30        22        22
        16        14        20        20
        16        23        21        21
        22        31        27        27
        18        25        17        17
        26        33        28        28
         4         3         8         8
        23        29        32        32
        13        12         6         6
zone t="boundary 4 bc-4", solutiontime= 0.4300000E+03, strandid=1004, i=32, j=46, f=feblock
  0.125000000000E+01  0.219251206392E+01  0.103724302461E+01  0.500000000000E+01  0.250000000000E+01  0.375000000000E+01  0.404200324774E+01
  0.500000000000E+01  0.000000000000E+00  0.310152362409E+01  0.202479342020E+01  0.324151231464E+01  0.922061490191E+00  0.000000000000E+00
  0.299062775774E+01  0.394624082883E+01  0.500000000000E+01  0.409252726285E+01  0.500000000000E+01  0.429310310915E+01  0.175434191980E+01
  0.284428995242E+01  0.000000000000E+00  0.000000000000E+00  0.715990576545E+00  0.930412228790E+00  0.125000000000E+01  0.187029682677E+01
  0.500000000000E+01  0.375000000000E+01  0.250000000000E+01  0.000000000000E+00
  0.250000000000E+01  0.157686156160E+01  0.146289271009E+01  0.250000000000E+01  0.250000000000E+01  0.250000000000E+01  0.155830813274E+01
  0.125000000000E+01  0.250000000000E+01  0.177790177481E+01  0.477386199275E+00  0.742988685424E+00  0.308372018325E+00  0.125000000000E+01
 -0.487811078581E+00 -0.144524380962E+01 -0.125000000000E+01 -0.345533899378E+00  0.000000000000E+00  0.627766083140E+00 -0.739814786992E+00
 -0.158811787973E+01  0.000000000000E+00 -0.125000000000E+01 -0.600232012419E+00 -0.154800130438E+01 -0.250000000000E+01 -0.178862290564E+01
 -0.250000000000E+01 -0.250000000000E+01 -0.250000000000E+01 -0.250000000000E+01
  0.500000000000E+01  0.500000000000E+01  0.500000000000E+01  0.500000000000E+01  0.500000000000E+01  0.500000000000E+01  0.500000000000E+01
  0.500000000000E+01  0.500000000000E+01  0.500000000000E+01  0.500000000000E+01  0.500000000000E+01  0.500000000000E+01  0.500000000000E+01
  0.500000000000E+01  0.500000000000E+01  0.500000000000E+01  0.500000000000E+01  0.500000000000E+01  0.500000000000E+01  0.500000000000E+01
  0.500000000000E+01  0.500000000000E+01  0.500000000000E+01  0.500000000000E+01  0.500000000000E+01  0.500000000000E+01  0.500000000000E+01
  0.500000000000E+01  0.500000000000E+01  0.500000000000E+01  0.500000000000E+01
  0.100522860296E+01  0.100432972648E+01  0.100432034607E+01  0.100196461762E+01  0.100413205399E+01  0.100321958155E+01  0.100258623147E+01
  0.100201175168E+01  0.100426040828E+01  0.100372310398E+01  0.100446502193E+01  0.100346952087E+01  0.100365984943E+01  0.100424800574E+01
  0.100362337539E+01  0.100164192044E+01  0.100227632655E+01  0.100227311604E+01  0.100213446569E+01  0.100254347564E+01  0.100442386350E+01
  0.100337264032E+01  0.100288843772E+01  0.100334542048E+01  0.100323223007E+01  0.100406087098E+01  0.100510171621E+01  0.100431307089E+01
  0.100179475839E+01  0.100266316001E+01  0.100321164520E+01  0.100399273190E+01
  0.489076358330E+00  0.489238598352E+00  0.490983331207E+00  0.493064988019E+00  0.486766642365E+00  0.484757871933E+00  0.485404956103E+00
  0.494262733298E+00  0.495784888033E+00  0.486800248056E+00  0.488139336923E+00  0.487244593114E+00  0.494423292533E+00  0.496536481858E+00
  0.487845782841E+00  0.483219469629E+00  0.492573587429E+00  0.487262277696E+00  0.494865946616E+00  0.488012490944E+00  0.490096716739E+00
  0.488269666899E+00  0.497534090387E+00  0.496384264437E+00  0.495259755633E+00  0.493216438775E+00  0.490458183073E+00  0.490400009023E+00
  0.491426954407E+00  0.486218276399E+00  0.490304438478E+00  0.495522026741E+00
  0.000000000000E+00 -0.893974727167E-04 -0.129755094675E-02  0.000000000000E+00  0.000000000000E+00  0.000000000000E+00  0.425702024734E-03
  0.797025453470E-03  0.000000000000E+00  0.274712867067E-03 -0.942431012344E-03 -0.820006428323E-03 -0.174523851010E-02 -0.638374271401E-04
 -0.110022754560E-02 -0.102277498110E-02 -0.133259275261E-02 -0.213434241165E-02 -0.132929468880E-02 -0.106401266042E-02 -0.624409194076E-03
 -0.761703322358E-03 -0.196339458573E-03  0.807126802765E-03  0.520225910385E-04  0.161630463754E-02  0.000000000000E+00  0.791646921536E-03
  0.000000000000E+00  0.000000000000E+00  0.000000000000E+00  0.000000000000E+00