# vtk DataFile Version 2.0
FUN3D:global_image_vtk
ASCII
DATASET UNSTRUCTURED_GRID
POINTS 213 double
    0.0000000000000000E+00    0.2500000000000000E+01    0.0000000000000000E+00
    0.1250000000000000E+01    0.2500000000000000E+01    0.0000000000000000E+00
    0.2500000000000000E+01    0.2500000000000000E+01    0.0000000000000000E+00
    0.3750000000000000E+01    0.2500000000000000E+01    0.0000000000000000E+00
    0.5000000000000000E+01    0.2500000000000000E+01    0.0000000000000000E+00
    0.5000000000000000E+01    0.1250000000000000E+01    0.0000000000000000E+00
    0.5000000000000000E+01    0.0000000000000000E+00    0.0000000000000000E+00
    0.5000000000000000E+01   -0.1250000000000000E+01    0.0000000000000000E+00
    0.5000000000000000E+01   -0.2500000000000000E+01    0.0000000000000000E+00
    0.3750000000000000E+01   -0.2500000000000000E+01    0.0000000000000000E+00
    0.2500000000000000E+01   -0.2500000000000000E+01    0.0000000000000000E+00
    0.1250000000000000E+01   -0.2500000000000000E+01    0.0000000000000000E+00
    0.0000000000000000E+00   -0.2500000000000000E+01    0.0000000000000000E+00
    0.0000000000000000E+00   -0.1250000000000000E+01    0.0000000000000000E+00
    0.0000000000000000E+00    0.0000000000000000E+00    0.0000000000000000E+00
    0.0000000000000000E+00    0.1250000000000000E+01    0.0000000000000000E+00
    0.9058375365086910E+00    0.1578994732800803E+01    0.0000000000000000E+00
    0.3982050490726493E+01   -0.1583989954232354E+01    0.0000000000000000E+00
    0.4033849428301197E+01    0.1453322699199022E+01    0.0000000000000000E+00
    0.1040505887381675E+01   -0.1479596339503735E+01    0.0000000000000000E+00
    0.1099454400140349E+01   -0.3227322616384110E+00    0.0000000000000000E+00
    0.7354504170366591E+00    0.6593508822075582E+00    0.0000000000000000E+00
    0.1622302608453282E+01    0.8256214013940779E+00    0.0000000000000000E+00
    0.2145871574390382E+01   -0.1650070333782557E+01    0.0000000000000000E+00
    0.4086422318222992E+01   -0.4612828702537229E+00    0.0000000000000000E+00
    0.2979540174134984E+01   -0.8579242121530853E+00    0.0000000000000000E+00
    0.3045064261640043E+01   -0.1836846154397680E+01    0.0000000000000000E+00
    0.3428197553792836E+01    0.3508002863614053E+00    0.0000000000000000E+00
    0.4309693860063405E+01    0.5185680230613409E+00    0.0000000000000000E+00
    0.1827272193562204E+01    0.1738996113203182E+01    0.0000000000000000E+00
    0.2808563282768077E+01    0.1325493893339706E+01    0.0000000000000000E+00
    0.1895995683864404E+01   -0.8731419609589618E+00    0.0000000000000000E+00
    0.2273179336307740E+01    0.4906150219227333E-01    0.0000000000000000E+00
    0.5000000000000000E+01    0.2500000000000000E+01    0.1250000000000000E+01
    0.5000000000000000E+01    0.2500000000000000E+01    0.2500000000000000E+01
    0.5000000000000000E+01    0.2500000000000000E+01    0.3750000000000000E+01
    0.5000000000000000E+01    0.2500000000000000E+01    0.5000000000000000E+01
    0.3750000000000000E+01    0.2500000000000000E+01    0.5000000000000000E+01
    0.2500000000000000E+01    0.2500000000000000E+01    0.5000000000000000E+01
    0.1250000000000000E+01    0.2500000000000000E+01    0.5000000000000000E+01
    0.0000000000000000E+00    0.2500000000000000E+01    0.5000000000000000E+01
    0.0000000000000000E+00    0.2500000000000000E+01    0.3750000000000000E+01
    0.0000000000000000E+00    0.2500000000000000E+01    0.2500000000000000E+01
    0.0000000000000000E+00    0.2500000000000000E+01    0.1250000000000000E+01
    0.9631080833812172E+00    0.2500000000000000E+01    0.9613285771248219E+00
    0.3981732467264904E+01    0.2500000000000000E+01    0.4069753913607991E+01
    0.4035525118777670E+01    0.2500000000000000E+01    0.1012015867579395E+01
    0.9641717640894248E+00    0.2500000000000000E+01    0.3972455192261839E+01
    0.1547743040396780E+01    0.2500000000000000E+01    0.2928177746738678E+01
    0.6985170616192014E+00    0.2500000000000000E+01    0.3068281976055466E+01
    0.8931277594515110E+00    0.2500000000000000E+01    0.2052465503257726E+01
    0.2183293750162785E+01    0.2500000000000000E+01    0.3959073795658649E+01
    0.3855333506014705E+01    0.2500000000000000E+01    0.2931218481500625E+01
    0.3152495579421047E+01    0.2500000000000000E+01    0.3635850502723324E+01
    0.3103247580566054E+01    0.2500000000000000E+01    0.4331682712472464E+01
    0.3266837581688852E+01    0.2500000000000000E+01    0.1886092433583972E+01
    0.4231539241296245E+01    0.2500000000000000E+01    0.1915865356532799E+01
    0.1909741006522088E+01    0.2500000000000000E+01    0.7170024419130505E+00
    0.2880784107213163E+01    0.2500000000000000E+01    0.9046598906449592E+00
    0.2014316024535771E+01    0.2500000000000000E+01    0.1762464314805728E+01
    0.2670003247036656E+01    0.2500000000000000E+01    0.2850479545835163E+01
    0.5000000000000000E+01    0.1250000000000000E+01    0.5000000000000000E+01
    0.5000000000000000E+01    0.0000000000000000E+00    0.5000000000000000E+01
    0.5000000000000000E+01   -0.1250000000000000E+01    0.5000000000000000E+01
    0.5000000000000000E+01   -0.2500000000000000E+01    0.5000000000000000E+01
    0.5000000000000000E+01   -0.2500000000000000E+01    0.3750000000000000E+01
    0.5000000000000000E+01   -0.2500000000000000E+01    0.2500000000000000E+01
    0.5000000000000000E+01   -0.2500000000000000E+01    0.1250000000000000E+01
    0.5000000000000000E+01    0.1578994732800803E+01    0.9058375365086910E+00
    0.5000000000000000E+01   -0.1583989954232354E+01    0.3982050490726493E+01
    0.5000000000000000E+01    0.1453322699199022E+01    0.4033849428301197E+01
    0.5000000000000000E+01   -0.1479596339503735E+01    0.1040505887381675E+01
    0.5000000000000000E+01   -0.3227322616384110E+00    0.1099454400140349E+01
    0.5000000000000000E+01    0.6593508822075582E+00    0.7354504170366591E+00
    0.5000000000000000E+01    0.8256214013940779E+00    0.1622302608453282E+01
    0.5000000000000000E+01   -0.1650070333782557E+01    0.2145871574390382E+01
    0.5000000000000000E+01   -0.4612828702537229E+00    0.4086422318222992E+01
    0.5000000000000000E+01   -0.8579242121530853E+00    0.2979540174134984E+01
    0.5000000000000000E+01   -0.1836846154397680E+01    0.3045064261640043E+01
    0.5000000000000000E+01    0.3508002863614053E+00    0.3428197553792836E+01
    0.5000000000000000E+01    0.5185680230613409E+00    0.4309693860063405E+01
    0.5000000000000000E+01    0.1738996113203182E+01    0.1827272193562204E+01
    0.5000000000000000E+01    0.1325493893339706E+01    0.2808563282768077E+01
    0.5000000000000000E+01   -0.8731419609589618E+00    0.1895995683864404E+01
    0.5000000000000000E+01    0.4906150219227333E-01    0.2273179336307740E+01
    0.0000000000000000E+00    0.1250000000000000E+01    0.5000000000000000E+01
    0.0000000000000000E+00    0.0000000000000000E+00    0.5000000000000000E+01
    0.0000000000000000E+00   -0.1250000000000000E+01    0.5000000000000000E+01
    0.0000000000000000E+00   -0.2500000000000000E+01    0.5000000000000000E+01
    0.1250000000000000E+01   -0.2500000000000000E+01    0.5000000000000000E+01
    0.2500000000000000E+01   -0.2500000000000000E+01    0.5000000000000000E+01
    0.3750000000000000E+01   -0.2500000000000000E+01    0.5000000000000000E+01
    0.4042003247744892E+01    0.1558308132739014E+01    0.5000000000000000E+01
    0.9304122287900499E+00   -0.1548001304379777E+01    0.5000000000000000E+01
    0.1037243024609388E+01    0.1462892710085612E+01    0.5000000000000000E+01
    0.3946240828834967E+01   -0.1445243809615570E+01    0.5000000000000000E+01
    0.4092527262848217E+01   -0.3455338993778935E+00    0.5000000000000000E+01
    0.4293103109154542E+01    0.6277660831404320E+00    0.5000000000000000E+01
    0.3241512314643519E+01    0.7429886854239611E+00    0.5000000000000000E+01
    0.2844289952419609E+01   -0.1588117879734118E+01    0.5000000000000000E+01
    0.7159905765450471E+00   -0.6002320124191652E+00    0.5000000000000000E+01
    0.1754341919796891E+01   -0.7398147869923652E+00    0.5000000000000000E+01
    0.1870296826774691E+01   -0.1788622905643739E+01    0.5000000000000000E+01
    0.9220614901912976E+00    0.3083720183248586E+00    0.5000000000000000E+01
    0.3101523624086016E+01    0.1777901774806180E+01    0.5000000000000000E+01
    0.2192512063922564E+01    0.1576861561598471E+01    0.5000000000000000E+01
    0.2024793420196460E+01    0.4773861992750707E+00    0.5000000000000000E+01
    0.2990627757741975E+01   -0.4878110785814084E+00    0.5000000000000000E+01
    0.0000000000000000E+00   -0.2500000000000000E+01    0.1250000000000000E+01
    0.0000000000000000E+00   -0.2500000000000000E+01    0.2500000000000000E+01
    0.0000000000000000E+00   -0.2500000000000000E+01    0.3750000000000000E+01
    0.0000000000000000E+00    0.1558308132739014E+01    0.4042003247744892E+01
    0.0000000000000000E+00   -0.1548001304379777E+01    0.9304122287900499E+00
    0.0000000000000000E+00    0.1462892710085612E+01    0.1037243024609388E+01
    0.0000000000000000E+00   -0.1445243809615570E+01    0.3946240828834967E+01
    0.0000000000000000E+00   -0.3455338993778935E+00    0.4092527262848217E+01
    0.0000000000000000E+00    0.6277660831404320E+00    0.4293103109154542E+01
    0.0000000000000000E+00    0.7429886854239611E+00    0.3241512314643519E+01
    0.0000000000000000E+00   -0.1588117879734118E+01    0.2844289952419609E+01
    0.0000000000000000E+00   -0.6002320124191652E+00    0.7159905765450471E+00
    0.0000000000000000E+00   -0.7398147869923652E+00    0.1754341919796891E+01
    0.0000000000000000E+00   -0.1788622905643739E+01    0.1870296826774691E+01
    0.0000000000000000E+00    0.3083720183248586E+00    0.9220614901912976E+00
    0.0000000000000000E+00    0.1777901774806180E+01    0.3101523624086016E+01
    0.0000000000000000E+00    0.1576861561598471E+01    0.2192512063922564E+01
[...]
POINT_DATA 213
SCALARS rho double 1
LOOKUP_TABLE default
   0.1344271449750195E+01
   0.9569758915553407E+00
   0.9462964200959111E+00
   0.9418612718928607E+00
   0.8437304900409589E+00
   0.7738004326021175E+00
   0.7629818923545224E+00
   0.7664577919363407E+00
   0.8307874046189031E+00
   0.9352972565159604E+00
   0.9342219822012755E+00
   0.9617195286396110E+00
   0.1449457451807614E+01
   0.1494090644662723E+01
   0.1644667277204186E+01
   0.1425832049575565E+01
   0.1009014435352251E+01
   0.9508810865006260E+00
   0.9436508501899432E+00
   0.9581561034484437E+00
   0.9415852462543789E+00
   0.1036377240648765E+01
   0.9256161101056330E+00
   0.9322349872514422E+00
   0.9537479579704251E+00
   0.9518769567196905E+00
   0.9348583129228468E+00
   0.9564028419902144E+00
   0.9376098403686721E+00
   0.9300661525860473E+00
   0.9445157493356197E+00
   0.8863506519304659E+00
   0.9423579969834164E+00
   0.9635003079921048E+00
   0.1008299039511912E+01
   0.1006735291839016E+01
   0.1001964617623832E+01
   0.1003219581551883E+01
   0.1004132053992158E+01
   0.1005228602964920E+01
   0.1004260408276864E+01
   0.1008308190003037E+01
   0.1023893138001629E+01
   0.1063553956096204E+01
   0.1019182513304051E+01
   0.1001780766443437E+01
   0.9643309939204624E+00
   0.1005283709011389E+01
   0.1000721163302672E+01
   0.1008742083839902E+01
   0.1008078083670681E+01
   0.1002349807136925E+01
   0.9979986848188680E+00
   0.1000583560954853E+01
   0.1001620123677898E+01
   0.9826893073889398E+00
   0.9842439642575325E+00
   0.9833314037112113E+00
   0.9788207413061877E+00
   0.9902638161504502E+00
   0.9934561553250069E+00
   0.1002011751677771E+01
   0.1002134465686947E+01
   0.1002276326550651E+01
   0.1001794758391340E+01
   0.1009778638885413E+01
   0.1006429109017502E+01
   0.9558786961035040E+00
   0.9249398411695736E+00
   0.1007036755524023E+01
   0.1004504925174877E+01
   0.9143642077256238E+00
   0.9089667861105273E+00
   0.8751688903722714E+00
   0.9767271885714487E+00
   0.1000452621148908E+01
   0.1005831087460284E+01
   0.1012882803225224E+01
   0.1011618951276806E+01
   0.1010438648581254E+01
   0.1005468280913280E+01
   0.9907612680193852E+00
   0.1005140325681997E+01
   0.9860567246293236E+00
   0.1005609737622694E+01
   0.1004248005740175E+01
   0.1002888437724274E+01
   0.1003345420478464E+01
   0.1003992731903480E+01
   0.1005101716205729E+01
   0.1003211645199605E+01
   0.1002663160013483E+01
   0.1002586231472169E+01
   0.1004060870975029E+01
   0.1004320346069439E+01
   0.1001641920442108E+01
   0.1002273116038103E+01
   0.1002543475641195E+01
   0.1003469520871977E+01
   0.1003372640318011E+01
   0.1003232230073990E+01
   0.1004423863500628E+01
   0.1004313070891116E+01
   0.1003659849431757E+01
   0.1003723103982408E+01
   0.1004329726476608E+01
   0.1004465021926473E+01
   0.1003623375387112E+01
   0.1064422801050699E+01
   0.1028473621467184E+01
   0.1009586657364688E+01
   0.1006638837513464E+01
   0.1163935522449674E+01
   0.1086087969851714E+01
   0.1007893419313062E+01
   0.1007245533350528E+01
   0.1006798074183509E+01
   0.1013018287009749E+01
   0.1019384609577789E+01
   0.1235203670049668E+01
   0.1032529466771668E+01
   0.1046681191677587E+01
   0.1200953642609217E+01
   0.1014718916076710E+01
   0.1032291153305961E+01
   0.1028095236789671E+01
   0.1014628639880929E+01
   0.1029216893275058E+01
   0.1001994816403715E+01
   0.9606929197106813E+00
   0.1006852582841261E+01
   0.1001327193356230E+01
   0.1010821905420694E+01
   0.1012246098910489E+01
   0.1000946006966710E+01
   0.9979121234054471E+00
   0.9980632373041451E+00
   0.1001184143414436E+01
   0.9841362011963061E+00
   0.9814879615545139E+00
   0.9648483322370180E+00
   0.9680877129642970E+00
   0.9914124472212122E+00
   0.9910858388733198E+00
   0.9925545095931522E+00
   0.1001727533894392E+01
   0.9993409402184004E+00
   0.9941410835133583E+00
   0.1007038753603809E+01
   0.1022539494137114E+01
   0.1001088098525223E+01
   0.1008798496301346E+01
   0.1004773846126413E+01
   0.1009050237488259E+01
   0.9966470332397744E+00
   0.1004988557993262E+01
   0.1003325535215987E+01
   0.9949431085504646E+00
   0.9832680782005422E+00
   0.9943957454994264E+00
   0.9973420656290573E+00
   0.9932190085629435E+00
   0.1001306487169719E+01
   0.1003001636984001E+01
   0.1002183579663466E+01
   0.9947078544999139E+00
   0.9937965521463240E+00
   0.1004867865562280E+01
   0.1020077607445936E+01
   0.1005364552430869E+01
   0.9816998152693486E+00
   0.1004973031274848E+01
   0.1012382323448548E+01
   0.9871424296255196E+00
   0.9551513534743907E+00
   0.9865075700346475E+00
   0.9864532950075665E+00
   0.9918946944284668E+00
   0.9933508198372869E+00
   0.9954406189970424E+00
   0.1037336789728440E+01
   0.1033536797990596E+01
   0.1001443320814550E+01
   0.1001930499797304E+01
   0.9912478515978023E+00
   0.9910920509410776E+00
   0.9648489990836031E+00
   0.9933282604854832E+00
   0.1006058638637307E+01
   0.1001954027110565E+01
   0.9908735804765062E+00
   0.9740945214065769E+00
   0.9418802141957413E+00
   0.9819379692036656E+00
   0.9794803560690507E+00
   0.9704172061921306E+00
   0.9720478947062697E+00
   0.9557351702889222E+00
   0.9496731213610738E+00
   0.9528673572394075E+00
   0.1002659534063452E+01
   0.1002471631970974E+01
   0.1000509329298001E+01
   0.1001677321730963E+01
   0.9607931434938107E+00
   0.9491625507088015E+00
   0.9584503069195338E+00
   0.1001121207785023E+01
   0.1000496140593597E+01
   0.1001156644177885E+01
   0.9807376183689179E+00
   0.9806000808946881E+00
   0.9628476109176177E+00
SCALARS u double 1
LOOKUP_TABLE default
   0.0000000000000000E+00
   0.0000000000000000E+00
   0.0000000000000000E+00
   0.0000000000000000E+00
   0.0000000000000000E+00
   0.0000000000000000E+00
   0.0000000000000000E+00
   0.0000000000000000E+00
   0.0000000000000000E+00
   0.0000000000000000E+00
   0.0000000000000000E+00
   0.0000000000000000E+00
   0.0000000000000000E+00
   0.0000000000000000E+00
   0.0000000000000000E+00
   0.0000000000000000E+00
   0.0000000000000000E+00
   0.0000000000000000E+00
   0.0000000000000000E+00
   0.0000000000000000E+00
   0.0000000000000000E+00
   0.0000000000000000E+00
   0.0000000000000000E+00
   0.0000000000000000E+00
   0.0000000000000000E+00
   0.0000000000000000E+00
   0.0000000000000000E+00
   0.0000000000000000E+00
   0.0000000000000000E+00
   0.0000000000000000E+00
   0.0000000000000000E+00
   0.0000000000000000E+00
   0.0000000000000000E+00
   0.4950176835703035E+00
   0.5338221300605324E+00
   0.5183269247791519E+00
   0.4930649880192737E+00
   0.4847578719332891E+00
   0.4867666423653516E+00
   0.4890763583300910E+00
   0.4957848880329520E+00
   0.4898301883790097E+00
   0.4717388493441513E+00
   0.4454814153587350E+00
   0.4833907048923148E+00
   0.5098397462670704E+00
   0.4390712699546483E+00
   0.4949403964695974E+00
   0.5225330362485407E+00
   0.4962454545658528E+00
   0.5226154963597838E+00
   0.5038881743029433E+00
   0.5646883609040226E+00
   0.5247509156866952E+00
   0.4991466119501425E+00
   0.5730561900933000E+00
   0.5696051096253438E+00
   0.3737941449627638E+00
   0.3998658123888594E+00
   0.5599326587320069E+00
   0.5564587630637220E+00
   0.4942627332975097E+00
   0.4948659466161612E+00
   0.4925735874286700E+00
   0.4914269544072229E+00
   0.5162356851547862E+00
   0.5361798305996605E+00
   0.4947413356161653E+00
   0.4524112203086045E+00
   0.5128777326251576E+00
   0.5117942041098876E+00
   0.4783517503920851E+00
   0.4931696655283802E+00
   0.4603173591430870E+00
   0.5244892719891519E+00
   0.5297434248113102E+00
   0.5129579301457446E+00
   0.5328358320396512E+00
   0.5308941037924571E+00
   0.5309856171151768E+00
   0.5063656735877597E+00
   0.5282461954745442E+00
   0.5410312730949742E+00
   0.5361261481086614E+00
   0.5374105276950361E+00
   0.4965364818581565E+00
   0.4975340903873424E+00
   0.4963842644371562E+00
   0.4955220267405968E+00
   0.4904581830732183E+00
   0.4903044384775856E+00
   0.4862182763992247E+00
   0.4854049561028915E+00
   0.4932164387750160E+00
   0.4909833312071504E+00
   0.4832194696293113E+00
   0.4872622776955319E+00
   0.4880124909440706E+00
   0.4872445931144349E+00
   0.4882696668991779E+00
   0.4952597556330107E+00
   0.4900967167386304E+00
   0.4904000090231427E+00
   0.4944232925330938E+00
   0.4868002480564689E+00
   0.4892385983522643E+00
   0.4881393369234502E+00
   0.4878457828408813E+00
   0.4446866579307654E+00
   0.4700028779616811E+00
   0.4891999056212483E+00
   0.4885247843444313E+00
   0.4506533042673946E+00
   0.4687378565324209E+00
   0.4877010456514717E+00
   0.4868353683079779E+00
   0.4908994715834251E+00
   0.4793551576296776E+00
   0.4658071746401739E+00
   0.3792725225418814E+00
   0.4901596530027756E+00
   0.4486686689566476E+00
   0.4436137388969917E+00
   0.4845147240875895E+00
   0.4621822644880393E+00
   0.4665749534002629E+00
   0.4748140298854392E+00
   0.4894494216306595E+00
   0.5085556973424383E+00
   0.4315073868792242E+00
   0.4927349360791419E+00
   0.5318289234069751E+00
   0.4913399195702618E+00
   0.5207019993127410E+00
   0.5060964599218039E+00
   0.5688797395553087E+00
   0.5273992817885279E+00
   0.5015044841159928E+00
   0.5821790085903790E+00
   0.5689618251249909E+00
   0.3406394441885655E+00
   0.3789869409813019E+00
   0.5751958207059774E+00
   0.5666485493442005E+00
   0.5704108783109852E+00
   0.5291056376122071E+00
   0.5451902710932134E+00
   0.5718804315148602E+00
   0.5389079125598435E+00
   0.5475507504578901E+00
   0.5821713868960832E+00
   0.4925601784132148E+00
   0.5042157546030005E+00
   0.4961735435792977E+00
   0.5565207963003330E+00
   0.4758845213308657E+00
   0.4950268383155294E+00
   0.5498525443359791E+00
   0.5891202296000829E+00
   0.5841957609214529E+00
   0.5469097664634022E+00
   0.5805417617848169E+00
   0.5106251438259083E+00
   0.5030200512792096E+00
   0.5033624679818607E+00
   0.5676446096787120E+00
   0.5563943082830264E+00
   0.4947255973013108E+00
   0.5505243828696508E+00
   0.5510857281550439E+00
   0.5657350949628179E+00
   0.4920070017312585E+00
   0.4927299096255850E+00
   0.3865140567511539E+00
   0.3687754531716994E+00
   0.5574921716659745E+00
   0.5763755545404335E+00
   0.4194304389853688E+00
   0.5824843240157734E+00
   0.4265209611473386E+00
   0.5392799843660563E+00
   0.5012032759619717E+00
   0.5119513208605595E+00
   0.5049119463431198E+00
   0.5751974973945873E+00
   0.5876371360455669E+00
   0.5379907803856347E+00
   0.5677472540395994E+00
   0.5351248667034427E+00
   0.5338056380073766E+00
   0.5580313798500399E+00
   0.5512707859847247E+00
   0.4261852750497268E+00
   0.5273356176565916E+00
   0.5795712528876715E+00
   0.3318687130733227E+00
   0.4760283322107127E+00
   0.5446196252053104E+00
   0.4798331895824212E+00
   0.3005293504271107E+00
   0.5031051137915966E+00
   0.5017115977373862E+00
   0.5129033211056666E+00
   0.5414840108865073E+00
   0.3437603851478399E+00
   0.3397710711439533E+00
   0.3189928566174882E+00
   0.5065936051707530E+00
   0.5123483779806457E+00
   0.5330313519534612E+00
   0.5879310000441231E+00
   0.4644180532758952E+00
   0.3531270505772960E+00
SCALARS v double 1
LOOKUP_TABLE default
   0.0000000000000000E+00
   0.0000000000000000E+00
   0.0000000000000000E+00
   0.0000000000000000E+00
   0.0000000000000000E+00
   0.0000000000000000E+00
   0.0000000000000000E+00
   0.0000000000000000E+00
   0.0000000000000000E+00
   0.0000000000000000E+00
   0.0000000000000000E+00
   0.0000000000000000E+00
   0.0000000000000000E+00
   0.0000000000000000E+00
   0.0000000000000000E+00
   0.0000000000000000E+00
   0.0000000000000000E+00
   0.0000000000000000E+00
   0.0000000000000000E+00
   0.0000000000000000E+00
   0.0000000000000000E+00
   0.0000000000000000E+00
   0.0000000000000000E+00
   0.0000000000000000E+00
   0.0000000000000000E+00
   0.0000000000000000E+00
   0.0000000000000000E+00
   0.0000000000000000E+00
   0.0000000000000000E+00
   0.0000000000000000E+00
   0.0000000000000000E+00
   0.0000000000000000E+00
   0.0000000000000000E+00
   0.0000000000000000E+00
   0.0000000000000000E+00
   0.0000000000000000E+00
   0.0000000000000000E+00
   0.0000000000000000E+00
   0.0000000000000000E+00
   0.0000000000000000E+00
   0.0000000000000000E+00
   0.0000000000000000E+00
   0.0000000000000000E+00
   0.0000000000000000E+00
   0.0000000000000000E+00
   0.0000000000000000E+00
   0.0000000000000000E+00
   0.0000000000000000E+00
   0.0000000000000000E+00
   0.0000000000000000E+00
   0.0000000000000000E+00
   0.0000000000000000E+00
   0.0000000000000000E+00
   0.0000000000000000E+00
   0.0000000000000000E+00
   0.0000000000000000E+00
   0.0000000000000000E+00
   0.0000000000000000E+00
   0.0000000000000000E+00
   0.0000000000000000E+00
   0.0000000000000000E+00
   0.7970254534703515E-03
  -0.1329294688803673E-02
  -0.1332592752607758E-02
   0.0000000000000000E+00
   0.0000000000000000E+00
   0.0000000000000000E+00
   0.0000000000000000E+00
  -0.1922562561736927E-01
   0.4770618240549345E-03
   0.2183360176808096E-02
   0.1427333017820699E-01
  -0.6488282105625230E-02
  -0.7821623015287351E-02
  -0.1327725060025318E-01
   0.4914481805330436E-02
   0.6907122104706061E-03
   0.3434418452994482E-02
   0.1920847400568315E-02
   0.3147960237124911E-02
   0.1704778378874473E-02
  -0.7316187347414635E-02
  -0.7701903115952369E-04
   0.4468738043903184E-02
  -0.4387156509891899E-03
  -0.6383742714012524E-04
  -0.1963394585731770E-03
   0.8071268027652782E-03
   0.0000000000000000E+00
   0.0000000000000000E+00
   0.0000000000000000E+00
   0.0000000000000000E+00
   0.4257020247331927E-03
   0.1616304637538610E-02
  -0.1297550946753087E-02
  -0.1022774981099913E-02
  -0.2134342411652827E-02
  -0.1064012660415900E-02
  -0.8200064283233082E-03
  -0.7617033223577339E-03
   0.5202259103835894E-04
  -0.6244091940766852E-03
   0.7916469215363991E-03
  -0.1745238510101332E-02
   0.2747128670669949E-03
  -0.8939747271655427E-04
  -0.9424310123439726E-03
  -0.1100227545595046E-02
   0.0000000000000000E+00
   0.0000000000000000E+00
   0.0000000000000000E+00
  -0.1061759100044439E-02
  -0.7641128908866617E-02
   0.1860854760409226E-01
  -0.2834554383067364E-04
  -0.1383129152030835E-02
  -0.2035122970278116E-02
  -0.5666383186259598E-02
  -0.1585210200049986E-02
  -0.5947016500336307E-02
  -0.4160601916603504E-02
   0.1565614819285464E-02
   0.3329524834933659E-01
   0.3055141353111508E-04
  -0.2766884857198814E-02
   0.3566484722716934E-02
   0.3596189352674025E-03
   0.0000000000000000E+00
   0.0000000000000000E+00
   0.0000000000000000E+00
   0.0000000000000000E+00
   0.0000000000000000E+00
   0.0000000000000000E+00
   0.0000000000000000E+00
   0.0000000000000000E+00
   0.0000000000000000E+00
   0.0000000000000000E+00
   0.0000000000000000E+00
   0.0000000000000000E+00
   0.0000000000000000E+00
   0.0000000000000000E+00
   0.0000000000000000E+00
   0.0000000000000000E+00
   0.0000000000000000E+00
   0.5047032585305909E-02
   0.3230791963016928E-02
   0.8149134304010945E-02
   0.6168367002333906E-02
   0.1122928643378173E-01
   0.1429277503659642E-01
  -0.2038826785496342E-03
   0.5118221843724909E-02
   0.2914950553665252E-02
   0.3373611847714018E-02
   0.3728336443064616E-02
  -0.1465719873249781E-01
  -0.6159699888546257E-03
   0.6651630361734689E-02
   0.1542014236049647E-02
   0.1969646522521455E-02
   0.4266273550600341E-02
  -0.2790960968973139E-02
   0.1226887082472273E-02
   0.2819172498254924E-02
   0.1497449168800774E-02
   0.2575339052562457E-02
   0.2030646460768865E-02
   0.2118046076154349E-02
   0.8700410481715938E-02
  -0.3733396989404470E-02
   0.6241189121618198E-02
   0.2516489027207380E-04
  -0.3854044921603269E-03
  -0.1674679016542814E-01
  -0.4881976933111039E-02
  -0.4720000832035216E-02
   0.3445223056077244E-02
  -0.6135724127944288E-02
   0.9934520009066367E-04
  -0.3291372934896612E-01
  -0.3046196744877258E-02
   0.4722743212201190E-02
   0.9228368087563479E-03
   0.2112175239438953E-02
   0.4518755702395222E-02
   0.2720465296392479E-02
   0.3212576504853055E-02
   0.5200804230695071E-02
   0.1941838973025530E-02
   0.7315897614709989E-03
  -0.2555237395931791E-04
  -0.5374632808527513E-02
  -0.6959591045816289E-02
  -0.9443816526371472E-03
   0.1105268431735943E-02
  -0.2080554146415597E-02
  -0.3200035926340044E-02
  -0.2527833401355302E-02
  -0.4115193595214166E-02
  -0.7593954948354346E-02
  -0.1985686406074383E-02
   0.6240402913549545E-03
  -0.2239081624085832E-03
   0.1216949789693751E-02
  -0.3483958328742404E-02
   0.5229139892927794E-02
  -0.8487626027818111E-02
   0.2315170837878106E-04
  -0.3395192808038920E-03
   0.2542663556182662E-02
   0.1663457704846721E-02
   0.2021438734535451E-02
  -0.5620784012052027E-02
SCALARS w double 1
LOOKUP_TABLE default
   0.0000000000000000E+00
   0.0000000000000000E+00
   0.0000000000000000E+00
   0.0000000000000000E+00
   0.0000000000000000E+00
   0.0000000000000000E+00
   0.0000000000000000E+00
   0.0000000000000000E+00
   0.0000000000000000E+00
   0.0000000000000000E+00
   0.0000000000000000E+00
   0.0000000000000000E+00
   0.0000000000000000E+00
   0.0000000000000000E+00
   0.0000000000000000E+00
   0.0000000000000000E+00
   0.0000000000000000E+00
   0.0000000000000000E+00
   0.0000000000000000E+00
   0.0000000000000000E+00
   0.0000000000000000E+00
   0.0000000000000000E+00
   0.0000000000000000E+00
   0.0000000000000000E+00
   0.0000000000000000E+00
   0.0000000000000000E+00
   0.0000000000000000E+00
   0.0000000000000000E+00
   0.0000000000000000E+00
   0.0000000000000000E+00
   0.0000000000000000E+00
   0.0000000000000000E+00
   0.0000000000000000E+00
  -0.1007612287217753E+00
  -0.4249297118239081E-01
   0.7371987188522902E-03
   0.5725799952710235E-02
   0.5699058046321894E-03
   0.1609783190227036E-02
   0.3375073098018438E-02
   0.2371773678915422E-02
   0.4590624807925858E-03
   0.3518225895535841E-02
   0.4521817585508876E-01
   0.6522937826035630E-01
   0.8689297873012308E-03
  -0.2261151819117520E-01
   0.4316553583585489E-02
   0.1358734843394480E-01
   0.1039452556452675E-01
   0.4900548417335829E-01
   0.2437443596948838E-02
  -0.6509940972709610E-02
  -0.7012226453821142E-03
   0.3411017262662051E-03
   0.3904107452237410E-02
  -0.3893254292330064E-01
   0.1798168103082789E-01
   0.1119638180731647E-01
   0.3403773261892202E-01
   0.8438810312678013E-02
   0.4937312288151502E-02
   0.4970345593045988E-02
   0.4871517429044402E-02
   0.6027191724850879E-02
   0.2599191851240257E-02
  -0.4144429578359628E-01
  -0.9954261841211441E-01
  -0.1121678216628974E+00
   0.5070875103376704E-02
   0.4230770786269190E-02
  -0.1004732302032191E+00
  -0.9895252481741448E-01
  -0.9875450924114709E-01
  -0.9462509591893667E-01
  -0.6807133806005632E-01
   0.5154922257089491E-02
  -0.1935330735349657E-01
  -0.1575800279835677E-01
  -0.6002862281229674E-02
   0.6819057447090247E-02
  -0.8010050790681876E-01
  -0.2781092444149119E-01
  -0.8096457334783240E-01
  -0.5873277542151602E-01
   0.3083625720800115E-02
   0.2685146497831824E-02
   0.2640431210649592E-02
   0.3450191955295315E-02
   0.4007083857042127E-02
   0.1201214396907714E-02
  -0.1438845826744923E-03
   0.2039877315650922E-02
   0.4895693687553971E-02
   0.3857385668841705E-02
   0.1114201968082043E-02
   0.1182682063302313E-02
   0.1465296267639304E-02
  -0.1653632807786968E-04
   0.8996631983203695E-04
   0.4386667936656064E-02
   0.2715724319994085E-02
   0.2322755377414980E-02
   0.5010601117485134E-02
   0.1071689416031632E-02
   0.2712217806243573E-02
   0.2013964165925678E-02
   0.2879092432114482E-04
   0.8374614360607782E-01
   0.2793870737041804E-02
  -0.8346628026728286E-03
  -0.1492945310280961E-03
   0.1409540848814804E+00
   0.1239332959574313E+00
  -0.1219093283720367E-02
  -0.4381936071475290E-02
  -0.3043057680794795E-03
  -0.6512246788197106E-02
  -0.1949570292748430E-02
   0.1557630977404085E+00
   0.7489979215408801E-01
   0.2550174920016582E-01
   0.1656445124906812E+00