# vtk DataFile Version 2.0
FUN3D:global_image_vtk
ASCII
DATASET UNSTRUCTURED_GRID
POINTS 213 double
    0.0000000000000000E+00    0.2500000000000000E+01    0.0000000000000000E+00
    0.1250000000000000E+01    0.2500000000000000E+01    0.0000000000000000E+00
    0.2500000000000000E+01    0.2500000000000000E+01    0.0000000000000000E+00
    0.3750000000000000E+01    0.2500000000000000E+01    0.0000000000000000E+00
    0.5000000000000000E+01    0.2500000000000000E+01    0.0000000000000000E+00
    0.5000000000000000E+01    0.1250000000000000E+01    0.0000000000000000E+00
    0.5000000000000000E+01    0.0000000000000000E+00    0.0000000000000000E+00
    0.5000000000000000E+01   -0.1250000000000000E+01    0.0000000000000000E+00
    0.5000000000000000E+01   -0.2500000000000000E+01    0.0000000000000000E+00
    0.3750000000000000E+01   -0.2500000000000000E+01    0.0000000000000000E+00
    0.2500000000000000E+01   -0.2500000000000000E+01    0.0000000000000000E+00
    0.1250000000000000E+01   -0.2500000000000000E+01    0.0000000000000000E+00
    0.0000000000000000E+00   -0.2500000000000000E+01    0.0000000000000000E+00
    0.0000000000000000E+00   -0.1250000000000000E+01    0.0000000000000000E+00
    0.0000000000000000E+00    0.0000000000000000E+00    0.0000000000000000E+00
    0.0000000000000000E+00    0.1250000000000000E+01    0.0000000000000000E+00
    0.9058375365086910E+00    0.1578994732800803E+01    0.0000000000000000E+00
    0.3982050490726493E+01   -0.1583989954232354E+01    0.0000000000000000E+00
    0.4033849428301197E+01    0.1453322699199022E+01    0.0000000000000000E+00
    0.1040505887381675E+01   -0.1479596339503735E+01    0.0000000000000000E+00
    0.1099454400140349E+01   -0.3227322616384110E+00    0.0000000000000000E+00
    0.7354504170366591E+00    0.6593508822075582E+00    0.0000000000000000E+00
    0.1622302608453282E+01    0.8256214013940779E+00    0.0000000000000000E+00
    0.2145871574390382E+01   -0.1650070333782557E+01    0.0000000000000000E+00
    0.4086422318222992E+01   -0.4612828702537229E+00    0.0000000000000000E+00
    0.2979540174134984E+01   -0.8579242121530853E+00    0.0000000000000000E+00
    0.3045064261640043E+01   -0.1836846154397680E+01    0.0000000000000000E+00
    0.3428197553792836E+01    0.3508002863614053E+00    0.0000000000000000E+00
    0.4309693860063405E+01    0.5185680230613409E+00    0.0000000000000000E+00
    0.1827272193562204E+01    0.1738996113203182E+01    0.0000000000000000E+00
    0.2808563282768077E+01    0.1325493893339706E+01    0.0000000000000000E+00
    0.1895995683864404E+01   -0.8731419609589618E+00    0.0000000000000000E+00
    0.2273179336307740E+01    0.4906150219227333E-01    0.0000000000000000E+00
    0.5000000000000000E+01    0.2500000000000000E+01    0.1250000000000000E+01
    0.5000000000000000E+01    0.2500000000000000E+01    0.2500000000000000E+01
    0.5000000000000000E+01    0.2500000000000000E+01    0.3750000000000000E+01
    0.5000000000000000E+01    0.2500000000000000E+01    0.5000000000000000E+01
    0.3750000000000000E+01    0.2500000000000000E+01    0.5000000000000000E+01
    0.2500000000000000E+01    0.2500000000000000E+01    0.5000000000000000E+01
    0.1250000000000000E+01    0.2500000000000000E+01    0.5000000000000000E+01
    0.0000000000000000E+00    0.2500000000000000E+01    0.5000000000000000E+01
    0.0000000000000000E+00    0.2500000000000000E+01    0.3750000000000000E+01
    0.0000000000000000E+00    0.2500000000000000E+01    0.2500000000000000E+01
    0.0000000000000000E+00    0.2500000000000000E+01    0.1250000000000000E+01
    0.9631080833812172E+00    0.2500000000000000E+01    0.9613285771248219E+00
    0.3981732467264904E+01    0.2500000000000000E+01    0.4069753913607991E+01
    0.4035525118777670E+01    0.2500000000000000E+01    0.1012015867579395E+01
    0.9641717640894248E+00    0.2500000000000000E+01    0.3972455192261839E+01
    0.1547743040396780E+01    0.2500000000000000E+01    0.2928177746738678E+01
    0.6985170616192014E+00    0.2500000000000000E+01    0.3068281976055466E+01
    0.8931277594515110E+00    0.2500000000000000E+01    0.2052465503257726E+01
    0.2183293750162785E+01    0.2500000000000000E+01    0.3959073795658649E+01
    0.3855333506014705E+01    0.2500000000000000E+01    0.2931218481500625E+01
    0.3152495579421047E+01    0.2500000000000000E+01    0.3635850502723324E+01
    0.3103247580566054E+01    0.2500000000000000E+01    0.4331682712472464E+01
    0.3266837581688852E+01    0.2500000000000000E+01    0.1886092433583972E+01
    0.4231539241296245E+01    0.2500000000000000E+01    0.1915865356532799E+01
    0.1909741006522088E+01    0.2500000000000000E+01    0.7170024419130505E+00
    0.2880784107213163E+01    0.2500000000000000E+01    0.9046598906449592E+00
    0.2014316024535771E+01    0.2500000000000000E+01    0.1762464314805728E+01
    0.2670003247036656E+01    0.2500000000000000E+01    0.2850479545835163E+01
    0.5000000000000000E+01    0.1250000000000000E+01    0.5000000000000000E+01
    0.5000000000000000E+01    0.0000000000000000E+00    0.5000000000000000E+01
    0.5000000000000000E+01   -0.1250000000000000E+01    0.5000000000000000E+01
    0.5000000000000000E+01   -0.2500000000000000E+01    0.5000000000000000E+01
    0.5000000000000000E+01   -0.2500000000000000E+01    0.3750000000000000E+01
    0.5000000000000000E+01   -0.2500000000000000E+01    0.2500000000000000E+01
    0.5000000000000000E+01   -0.2500000000000000E+01    0.1250000000000000E+01
    0.5000000000000000E+01    0.1578994732800803E+01    0.9058375365086910E+00
    0.5000000000000000E+01   -0.1583989954232354E+01    0.3982050490726493E+01
    0.5000000000000000E+01    0.1453322699199022E+01    0.4033849428301197E+01
    0.5000000000000000E+01   -0.1479596339503735E+01    0.1040505887381675E+01
    0.5000000000000000E+01   -0.3227322616384110E+00    0.1099454400140349E+01
    0.5000000000000000E+01    0.6593508822075582E+00    0.7354504170366591E+00
    0.5000000000000000E+01    0.8256214013940779E+00    0.1622302608453282E+01
    0.5000000000000000E+01   -0.1650070333782557E+01    0.2145871574390382E+01
    0.5000000000000000E+01   -0.4612828702537229E+00    0.4086422318222992E+01
    0.5000000000000000E+01   -0.8579242121530853E+00    0.2979540174134984E+01
    0.5000000000000000E+01   -0.1836846154397680E+01    0.3045064261640043E+01
    0.5000000000000000E+01    0.3508002863614053E+00    0.3428197553792836E+01
    0.5000000000000000E+01    0.5185680230613409E+00    0.4309693860063405E+01
    0.5000000000000000E+01    0.1738996113203182E+01    0.1827272193562204E+01
    0.5000000000000000E+01    0.1325493893339706E+01    0.2808563282768077E+01
    0.5000000000000000E+01   -0.8731419609589618E+00    0.1895995683864404E+01
    0.5000000000000000E+01    0.4906150219227333E-01    0.2273179336307740E+01
    0.0000000000000000E+00    0.1250000000000000E+01    0.5000000000000000E+01
    0.0000000000000000E+00    0.0000000000000000E+00    0.5000000000000000E+01
    0.0000000000000000E+00   -0.1250000000000000E+01    0.5000000000000000E+01
    0.0000000000000000E+00   -0.2500000000000000E+01    0.5000000000000000E+01
    0.1250000000000000E+01   -0.2500000000000000E+01    0.5000000000000000E+01
    0.2500000000000000E+01   -0.2500000000000000E+01    0.5000000000000000E+01
    0.3750000000000000E+01   -0.2500000000000000E+01    0.5000000000000000E+01
    0.4042003247744892E+01    0.1558308132739014E+01    0.5000000000000000E+01
    0.9304122287900499E+00   -0.1548001304379777E+01    0.5000000000000000E+01
    0.1037243024609388E+01    0.1462892710085612E+01    0.5000000000000000E+01
    0.3946240828834967E+01   -0.1445243809615570E+01    0.5000000000000000E+01
    0.4092527262848217E+01   -0.3455338993778935E+00    0.5000000000000000E+01
    0.4293103109154542E+01    0.6277660831404320E+00    0.5000000000000000E+01
    0.3241512314643519E+01    0.7429886854239611E+00    0.5000000000000000E+01
    0.2844289952419609E+01   -0.1588117879734118E+01    0.5000000000000000E+01
    0.7159905765450471E+00   -0.6002320124191652E+00    0.5000000000000000E+01
    0.1754341919796891E+01   -0.7398147869923652E+00    0.5000000000000000E+01
    0.1870296826774691E+01   -0.1788622905643739E+01    0.5000000000000000E+01
    0.9220614901912976E+00    0.3083720183248586E+00    0.5000000000000000E+01
    0.3101523624086016E+01    0.1777901774806180E+01    0.5000000000000000E+01
    0.2192512063922564E+01    0.1576861561598471E+01    0.5000000000000000E+01
    0.2024793420196460E+01    0.4773861992750707E+00    0.5000000000000000E+01
    0.2990627757741975E+01   -0.4878110785814084E+00    0.5000000000000000E+01
    0.0000000000000000E+00   -0.2500000000000000E+01    0.1250000000000000E+01
    0.0000000000000000E+00   -0.2500000000000000E+01    0.2500000000000000E+01
    0.0000000000000000E+00   -0.2500000000000000E+01    0.3750000000000000E+01
    0.0000000000000000E+00    0.1558308132739014E+01    0.4042003247744892E+01
    0.0000000000000000E+00   -0.1548001304379777E+01    0.9304122287900499E+00
    0.0000000000000000E+00    0.1462892710085612E+01    0.1037243024609388E+01
    0.0000000000000000E+00   -0.1445243809615570E+01    0.3946240828834967E+01
    0.0000000000000000E+00   -0.3455338993778935E+00    0.4092527262848217E+01
    0.0000000000000000E+00    0.6277660831404320E+00    0.4293103109154542E+01
    0.0000000000000000E+00    0.7429886854239611E+00    0.3241512314643519E+01
    0.0000000000000000E+00   -0.1588117879734118E+01    0.2844289952419609E+01
    0.0000000000000000E+00   -0.6002320124191652E+00    0.7159905765450471E+00
    0.0000000000000000E+00   -0.7398147869923652E+00    0.1754341919796891E+01
    0.0000000000000000E+00   -0.1788622905643739E+01    0.1870296826774691E+01
    0.0000000000000000E+00    0.3083720183248586E+00    0.9220614901912976E+00
    0.0000000000000000E+00    0.1777901774806180E+01    0.3101523624086016E+01
    0.0000000000000000E+00    0.1576861561598471E+01    0.2192512063922564E+01
[...]
POINT_DATA 213
SCALARS rho double 1
LOOKUP_TABLE default
   0.1344271449750222E+01
   0.9569758915555239E+00
   0.9462964200966357E+00
   0.9418612718952767E+00
   0.8437304900444352E+00
   0.7738004326025325E+00
   0.7629818923547257E+00
   0.7664577919365005E+00
   0.8307874046190248E+00
   0.9352972565162323E+00
   0.9342219822015748E+00
   0.9617195286400311E+00
   0.1449457451808067E+01
   0.1494090644662922E+01
   0.1644667277204480E+01
   0.1425832049575599E+01
   0.1009014435352464E+01
   0.9508810865007949E+00
   0.9436508501918032E+00
   0.9581561034488789E+00
   0.9415852462546102E+00
   0.1036377240648930E+01
   0.9256161101060014E+00
   0.9322349872517353E+00
   0.9537479579705512E+00
   0.9518769567199641E+00
   0.9348583129231345E+00
   0.9564028419906663E+00
   0.9376098403685794E+00
   0.9300661525864314E+00
   0.9445157493366472E+00
   0.8863506519307662E+00
   0.9423579969836799E+00
   0.9635003080014169E+00
   0.1008299039511570E+01
   0.1006735291838350E+01
   0.1001964617624858E+01
   0.1003219581552962E+01
   0.1004132053992646E+01
   0.1005228602964952E+01
   0.1004260408276944E+01
   0.1008308190003188E+01
   0.1023893138001842E+01
   0.1063553956096435E+01
   0.1019182513304198E+01
   0.1001780766442962E+01
   0.9643309939338113E+00
   0.1005283709011647E+01
   0.1000721163303045E+01
   0.1008742083840104E+01
   0.1008078083670896E+01
   0.1002349807137326E+01
   0.9979986848191138E+00
   0.1000583560955161E+01
   0.1001620123678115E+01
   0.9826893073884169E+00
   0.9842439642587594E+00
   0.9833314037111929E+00
   0.9788207413059083E+00
   0.9902638161506340E+00
   0.9934561553254774E+00
   0.1002011751679807E+01
   0.1002134465688765E+01
   0.1002276326551120E+01
   0.1001794758391764E+01
   0.1009778638885640E+01
   0.1006429109017799E+01
   0.9558786961046521E+00
   0.9249398411718239E+00
   0.1007036755524131E+01
   0.1004504925174352E+01
   0.9143642077251913E+00
   0.9089667861106802E+00
   0.8751688903708884E+00
   0.9767271885707010E+00
   0.1000452621149011E+01
   0.1005831087460018E+01
   0.1012882803225016E+01
   0.1011618951276835E+01
   0.1010438648580873E+01
   0.1005468280912870E+01
   0.9907612680175244E+00
   0.1005140325682228E+01
   0.9860567246292394E+00
   0.1005609737623324E+01
   0.1004248005740153E+01
   0.1002888437724452E+01
   0.1003345420478678E+01
   0.1003992731903451E+01
   0.1005101716205971E+01
   0.1003211645199778E+01
   0.1002663160013733E+01
   0.1002586231473923E+01
   0.1004060870975248E+01
   0.1004320346069721E+01
   0.1001641920442384E+01
   0.1002273116039475E+01
   0.1002543475643918E+01
   0.1003469520872975E+01
   0.1003372640318317E+01
   0.1003232230074214E+01
   0.1004423863500955E+01
   0.1004313070891220E+01
   0.1003659849431968E+01
   0.1003723103982780E+01
   0.1004329726476933E+01
   0.1004465021926882E+01
   0.1003623375387379E+01
   0.1064422801051488E+01
   0.1028473621467268E+01
   0.1009586657364882E+01
   0.1006638837513713E+01
   0.1163935522449381E+01
   0.1086087969851669E+01
   0.1007893419313305E+01
   0.1007245533350705E+01
   0.1006798074183615E+01
   0.1013018287010002E+01
   0.1019384609577914E+01
   0.1235203670049848E+01
   0.1032529466771993E+01
   0.1046681191677751E+01
   0.1200953642609479E+01
   0.1014718916076897E+01
   0.1032291153306200E+01
   0.1028095236789959E+01
   0.1014628639881097E+01
   0.1029216893275308E+01
   0.1001994816403869E+01
   0.9606929197117686E+00
   0.1006852582841508E+01
   0.1001327193356576E+01
   0.1010821905420888E+01
   0.1012246098910750E+01
   0.1000946006966877E+01
   0.9979121234056907E+00
   0.9980632373042171E+00
   0.1001184143414544E+01
   0.9841362011966458E+00
   0.9814879615550901E+00
   0.9648483322375128E+00
   0.9680877129648854E+00
   0.9914124472214266E+00
   0.9910858388735578E+00
   0.9925545095933483E+00
   0.1001727533894619E+01
   0.9993409402186753E+00
   0.9941410835136537E+00
   0.1007038753604003E+01
   0.1022539494137328E+01
   0.1001088098525413E+01
   0.1008798496301575E+01
   0.1004773846126698E+01
   0.1009050237488510E+01
   0.9966470332400030E+00
   0.1004988557993405E+01
   0.1003325535216222E+01
   0.9949431085506895E+00
   0.9832680782013844E+00
   0.9943957455003712E+00
   0.9973420656292853E+00
   0.9932190085631567E+00
   0.1001306487170073E+01
   0.1003001636984292E+01
   0.1002183579663747E+01
   0.9947078545000191E+00
   0.9937965521465031E+00
   0.1004867865562473E+01
   0.1020077607446173E+01
   0.1005364552431100E+01
   0.9816998152695319E+00
   0.1004973031275054E+01
   0.1012382323448783E+01
   0.9871424296258354E+00
   0.9551513534746253E+00
   0.9865075700348723E+00
   0.9864532950079609E+00
   0.9918946944285170E+00
   0.9933508198375719E+00
   0.9954406189972254E+00
   0.1037336789728537E+01
   0.1033536797990716E+01
   0.1001443320814440E+01
   0.1001930499797553E+01
   0.9912478515978630E+00
   0.9910920509412733E+00
   0.9648489990836274E+00
   0.9933282604855790E+00
   0.1006058638637338E+01
   0.1001954027110651E+01
   0.9908735804767089E+00
   0.9740945214046143E+00
   0.9418802141961771E+00
   0.9819379692046625E+00
   0.9794803560691401E+00
   0.9704172061920966E+00
   0.9720478947064825E+00
   0.9557351702896230E+00
   0.9496731213609328E+00
   0.9528673572391564E+00
   0.1002659534063575E+01
   0.1002471631971100E+01
   0.1000509329298169E+01
   0.1001677321731145E+01
   0.9607931434940837E+00
   0.9491625507087506E+00
   0.9584503069191515E+00
   0.1001121207785231E+01
   0.1000496140593671E+01
   0.1001156644178172E+01
   0.9807376183691112E+00
   0.9806000808947711E+00
   0.9628476109176453E+00
SCALARS u double 1
LOOKUP_TABLE default
   0.0000000000000000E+00
   0.0000000000000000E+00
   0.0000000000000000E+00
   0.0000000000000000E+00
   0.0000000000000000E+00
   0.0000000000000000E+00
   0.0000000000000000E+00
   0.0000000000000000E+00
   0.0000000000000000E+00
   0.0000000000000000E+00
   0.0000000000000000E+00
   0.0000000000000000E+00
   0.0000000000000000E+00
   0.0000000000000000E+00
   0.0000000000000000E+00
   0.0000000000000000E+00
   0.0000000000000000E+00
   0.0000000000000000E+00
   0.0000000000000000E+00
   0.0000000000000000E+00
   0.0000000000000000E+00
   0.0000000000000000E+00
   0.0000000000000000E+00
   0.0000000000000000E+00
   0.0000000000000000E+00
   0.0000000000000000E+00
   0.0000000000000000E+00
   0.0000000000000000E+00
   0.0000000000000000E+00
   0.0000000000000000E+00
   0.0000000000000000E+00
   0.0000000000000000E+00
   0.0000000000000000E+00
   0.4950176835616955E+00
   0.5338221300613959E+00
   0.5183269247786563E+00
   0.4930649880187657E+00
   0.4847578719321000E+00
   0.4867666423641505E+00
   0.4890763583292941E+00
   0.4957848880329822E+00
   0.4898301883788604E+00
   0.4717388493439444E+00
   0.4454814153584809E+00
   0.4833907048921942E+00
   0.5098397462641394E+00
   0.4390712699585823E+00
   0.4949403964693739E+00
   0.5225330362482824E+00
   0.4962454545656145E+00
   0.5226154963595367E+00
   0.5038881743021340E+00
   0.5646883609031751E+00
   0.5247509156855855E+00
   0.4991466119481772E+00
   0.5730561900932486E+00
   0.5696051096251500E+00
   0.3737941449632239E+00
   0.3998658123924375E+00
   0.5599326587318431E+00
   0.5564587630630810E+00
   0.4942627332977635E+00
   0.4948659466172038E+00
   0.4925735874288419E+00
   0.4914269544068746E+00
   0.5162356851547296E+00
   0.5361798305997220E+00
   0.4947413356151668E+00
   0.4524112203075887E+00
   0.5128777326249578E+00
   0.5117942041092899E+00
   0.4783517503928765E+00
   0.4931696655285341E+00
   0.4603173591447193E+00
   0.5244892719899279E+00
   0.5297434248114700E+00
   0.5129579301453691E+00
   0.5328358320397349E+00
   0.5308941037925825E+00
   0.5309856171149183E+00
   0.5063656735877272E+00
   0.5282461954776084E+00
   0.5410312730948516E+00
   0.5361261481089350E+00
   0.5374105276944822E+00
   0.4965364818580725E+00
   0.4975340903871540E+00
   0.4963842644370345E+00
   0.4955220267405709E+00
   0.4904581830728085E+00
   0.4903044384773412E+00
   0.4862182763988115E+00
   0.4854049561034919E+00
   0.4932164387747512E+00
   0.4909833312068795E+00
   0.4832194696294616E+00
   0.4872622776973071E+00
   0.4880124909469946E+00
   0.4872445931153888E+00
   0.4882696668986860E+00
   0.4952597556327381E+00
   0.4900967167381315E+00
   0.4904000090227557E+00
   0.4944232925326771E+00
   0.4868002480554886E+00
   0.4892385983516746E+00
   0.4881393369235880E+00
   0.4878457828412880E+00
   0.4446866579293541E+00
   0.4700028779616332E+00
   0.4891999056210327E+00
   0.4885247843444145E+00
   0.4506533042680270E+00
   0.4687378565326743E+00
   0.4877010456512396E+00
   0.4868353683079652E+00
   0.4908994715833634E+00
   0.4793551576293908E+00
   0.4658071746401483E+00
   0.3792725225416653E+00
   0.4901596530023768E+00
   0.4486686689564737E+00
   0.4436137388965142E+00
   0.4845147240874096E+00
   0.4621822644877018E+00
   0.4665749533999802E+00
   0.4748140298852494E+00
   0.4894494216304073E+00
   0.5085556973424252E+00
   0.4315073868792476E+00
   0.4927349360788782E+00
   0.5318289234068434E+00
   0.4913399195701272E+00
   0.5207019993123848E+00
   0.5060964599214690E+00
   0.5688797395553474E+00
   0.5273992817883667E+00
   0.5015044841156782E+00
   0.5821790085901809E+00
   0.5689618251249382E+00
   0.3406394441885328E+00
   0.3789869409812305E+00
   0.5751958207055942E+00
   0.5666485493440719E+00
   0.5704108783107941E+00
   0.5291056376119064E+00
   0.5451902710929819E+00
   0.5718804315146463E+00
   0.5389079125596190E+00
   0.5475507504576019E+00
   0.5821713868957843E+00
   0.4925601784130130E+00
   0.5042157546025767E+00
   0.4961735435790506E+00
   0.5565207963001657E+00
   0.4758845213307550E+00
   0.4950268383151041E+00
   0.5498525443354989E+00
   0.5891202295994170E+00
   0.5841957609207862E+00
   0.5469097664627629E+00
   0.5805417617843098E+00
   0.5106251438250519E+00
   0.5030200512784251E+00
   0.5033624679802992E+00
   0.5676446096786932E+00
   0.5563943082825588E+00
   0.4947255973009445E+00
   0.5505243828694020E+00
   0.5510857281548205E+00
   0.5657350949626508E+00
   0.4920070017308918E+00
   0.4927299096254282E+00
   0.3865140567504923E+00
   0.3687754531714005E+00
   0.5574921716657235E+00
   0.5763755545400786E+00
   0.4194304389854815E+00
   0.5824843240154286E+00
   0.4265209611470325E+00
   0.5392799843659242E+00
   0.5012032759618471E+00
   0.5119513208589157E+00
   0.5049119463420016E+00
   0.5751974973943809E+00
   0.5876371360456180E+00
   0.5379907803856974E+00
   0.5677472540397190E+00
   0.5351248667033612E+00
   0.5338056380066489E+00
   0.5580313798499718E+00
   0.5512707859850293E+00
   0.4261852750491077E+00
   0.5273356176564405E+00
   0.5795712528876177E+00
   0.3318687130730599E+00
   0.4760283322105998E+00
   0.5446196252048304E+00
   0.4798331895825121E+00
   0.3005293504271663E+00
   0.5031051137913947E+00
   0.5017115977366955E+00
   0.5129033211046248E+00
   0.5414840108856082E+00
   0.3437603851468312E+00
   0.3397710711437727E+00
   0.3189928566175223E+00
   0.5065936051701629E+00
   0.5123483779804031E+00
   0.5330313519528749E+00
   0.5879310000439791E+00
   0.4644180532757688E+00
   0.3531270505768035E+00
SCALARS v double 1
LOOKUP_TABLE default
   0.0000000000000000E+00
   0.0000000000000000E+00
   0.0000000000000000E+00
   0.0000000000000000E+00
   0.0000000000000000E+00
   0.0000000000000000E+00
   0.0000000000000000E+00
   0.0000000000000000E+00
   0.0000000000000000E+00
   0.0000000000000000E+00
   0.0000000000000000E+00
   0.0000000000000000E+00
   0.0000000000000000E+00
   0.0000000000000000E+00
   0.0000000000000000E+00
   0.0000000000000000E+00
   0.0000000000000000E+00
   0.0000000000000000E+00
   0.0000000000000000E+00
   0.0000000000000000E+00
   0.0000000000000000E+00
   0.0000000000000000E+00
   0.0000000000000000E+00
   0.0000000000000000E+00
   0.0000000000000000E+00
   0.0000000000000000E+00
   0.0000000000000000E+00
   0.0000000000000000E+00
   0.0000000000000000E+00
   0.0000000000000000E+00
   0.0000000000000000E+00
   0.0000000000000000E+00
   0.0000000000000000E+00
   0.0000000000000000E+00
   0.0000000000000000E+00
   0.0000000000000000E+00
   0.0000000000000000E+00
   0.0000000000000000E+00
   0.0000000000000000E+00
   0.0000000000000000E+00
   0.0000000000000000E+00
   0.0000000000000000E+00
   0.0000000000000000E+00
   0.0000000000000000E+00
   0.0000000000000000E+00
   0.0000000000000000E+00
   0.0000000000000000E+00
   0.0000000000000000E+00
   0.0000000000000000E+00
   0.0000000000000000E+00
   0.0000000000000000E+00
   0.0000000000000000E+00
   0.0000000000000000E+00
   0.0000000000000000E+00
   0.0000000000000000E+00
   0.0000000000000000E+00
   0.0000000000000000E+00
   0.0000000000000000E+00
   0.0000000000000000E+00
   0.0000000000000000E+00
   0.0000000000000000E+00
   0.7970254548262276E-03
  -0.1329294688765988E-02
  -0.1332592752646130E-02
   0.0000000000000000E+00
   0.0000000000000000E+00
   0.0000000000000000E+00
   0.0000000000000000E+00
  -0.1922562562216951E-01
   0.4770618237758321E-03
   0.2183360176610307E-02
   0.1427333017847307E-01
  -0.6488282106031170E-02
  -0.7821623018243497E-02
  -0.1327725060140638E-01
   0.4914481805557319E-02
   0.6907122094363665E-03
   0.3434418452730858E-02
   0.1920847400448860E-02
   0.3147960236657336E-02
   0.1704778378192564E-02
  -0.7316187349309209E-02
  -0.7701903100680936E-04
   0.4468738043901317E-02
  -0.4387156507036365E-03
  -0.6383742718449370E-04
  -0.1963394585643179E-03
   0.8071268027532553E-03
   0.0000000000000000E+00
   0.0000000000000000E+00
   0.0000000000000000E+00
   0.0000000000000000E+00
   0.4257020258202915E-03
   0.1616304637424409E-02
  -0.1297550946674920E-02
  -0.1022774980424928E-02
  -0.2134342411227492E-02
  -0.1064012659615228E-02
  -0.8200064278701171E-03
  -0.7617033217447523E-03
   0.5202259103645810E-04
  -0.6244091938568800E-03
   0.7916469213433898E-03
  -0.1745238510002452E-02
   0.2747128670922795E-03
  -0.8939747252327982E-04
  -0.9424310120977507E-03
  -0.1100227544731237E-02
   0.0000000000000000E+00
   0.0000000000000000E+00
   0.0000000000000000E+00
  -0.1061759100108439E-02
  -0.7641128908690947E-02
   0.1860854760410566E-01
  -0.2834554380638988E-04
  -0.1383129152025570E-02
  -0.2035122970333533E-02
  -0.5666383186261822E-02
  -0.1585210200154966E-02
  -0.5947016500397241E-02
  -0.4160601916713109E-02
   0.1565614819283703E-02
   0.3329524834938676E-01
   0.3055141354912370E-04
  -0.2766884857228749E-02
   0.3566484722740896E-02
   0.3596189352900185E-03
   0.0000000000000000E+00
   0.0000000000000000E+00
   0.0000000000000000E+00
   0.0000000000000000E+00
   0.0000000000000000E+00
   0.0000000000000000E+00
   0.0000000000000000E+00
   0.0000000000000000E+00
   0.0000000000000000E+00
   0.0000000000000000E+00
   0.0000000000000000E+00
   0.0000000000000000E+00
   0.0000000000000000E+00
   0.0000000000000000E+00
   0.0000000000000000E+00
   0.0000000000000000E+00
   0.0000000000000000E+00
   0.5047032585245584E-02
   0.3230791962942950E-02
   0.8149134303964347E-02
   0.6168367002364049E-02
   0.1122928643378666E-01
   0.1429277503665374E-01
  -0.2038826785103847E-03
   0.5118221843710917E-02
   0.2914950553675473E-02
   0.3373611847723649E-02
   0.3728336443132361E-02
  -0.1465719873234430E-01
  -0.6159699890321057E-03
   0.6651630361636033E-02
   0.1542014236586955E-02
   0.1969646522742753E-02
   0.4266273550285992E-02
  -0.2790960968165160E-02
   0.1226887082123993E-02
   0.2819172498175561E-02
   0.1497449168622099E-02
   0.2575339052508498E-02
   0.2030646460486994E-02
   0.2118046076155990E-02
   0.8700410481721673E-02
  -0.3733396989436898E-02
   0.6241189121651395E-02
   0.2516489021290731E-04
  -0.3854044921789614E-03
  -0.1674679016495042E-01
  -0.4881976933012080E-02
  -0.4720000831998823E-02
   0.3445223056292643E-02
  -0.6135724127445297E-02
   0.9934520038131097E-04
  -0.3291372934887188E-01
  -0.3046196744918840E-02
   0.4722743212251858E-02
   0.9228368080620396E-03
   0.2112175239246744E-02
   0.4518755702429982E-02
   0.2720465296261387E-02
   0.3212576504910886E-02
   0.5200804230663611E-02
   0.1941838972744907E-02
   0.7315897608955289E-03
  -0.2555237404677597E-04
  -0.5374632808562209E-02
  -0.6959591047900514E-02
  -0.9443816515903088E-03
   0.1105268431765255E-02
  -0.2080554146327004E-02
  -0.3200035926351977E-02
  -0.2527833401134686E-02
  -0.4115193595305518E-02
  -0.7593954948547856E-02
  -0.1985686406126930E-02
   0.6240402910931676E-03
  -0.2239081631226017E-03
   0.1216949789316133E-02
  -0.3483958329042970E-02
   0.5229139892344825E-02
  -0.8487626027893021E-02
   0.2315170797015885E-04
  -0.3395192810438231E-03
   0.2542663556053109E-02
   0.1663457704792424E-02
   0.2021438734538706E-02
  -0.5620784012324653E-02
SCALARS w double 1
LOOKUP_TABLE default
   0.0000000000000000E+00
   0.0000000000000000E+00
   0.0000000000000000E+00
   0.0000000000000000E+00
   0.0000000000000000E+00
   0.0000000000000000E+00
   0.0000000000000000E+00
   0.0000000000000000E+00
   0.0000000000000000E+00
   0.0000000000000000E+00
   0.0000000000000000E+00
   0.0000000000000000E+00
   0.0000000000000000E+00
   0.0000000000000000E+00
   0.0000000000000000E+00
   0.0000000000000000E+00
   0.0000000000000000E+00
   0.0000000000000000E+00
   0.0000000000000000E+00
   0.0000000000000000E+00
   0.0000000000000000E+00
   0.0000000000000000E+00
   0.0000000000000000E+00
   0.0000000000000000E+00
   0.0000000000000000E+00
   0.0000000000000000E+00
   0.0000000000000000E+00
   0.0000000000000000E+00
   0.0000000000000000E+00
   0.0000000000000000E+00
   0.0000000000000000E+00
   0.0000000000000000E+00
   0.0000000000000000E+00
  -0.1007612287182342E+00
  -0.4249297118060467E-01
   0.7371987182143152E-03
   0.5725799950917987E-02
   0.5699058045440698E-03
   0.1609783190780052E-02
   0.3375073098868704E-02
   0.2371773679013675E-02
   0.4590624808692328E-03
   0.3518225895543635E-02
   0.4521817585499453E-01
   0.6522937826031727E-01
   0.8689297872834284E-03
  -0.2261151819248573E-01
   0.4316553583682443E-02
   0.1358734843382979E-01
   0.1039452556454278E-01
   0.4900548417335981E-01
   0.2437443597049006E-02
  -0.6509940972745888E-02
  -0.7012226456728053E-03
   0.3411017263368078E-03
   0.3904107451439114E-02
  -0.3893254292247438E-01
   0.1798168103075653E-01
   0.1119638180618966E-01
   0.3403773261815314E-01
   0.8438810312291435E-02
   0.4937312285315878E-02
   0.4970345590900634E-02
   0.4871517429005190E-02
   0.6027191725011754E-02
   0.2599191851397069E-02
  -0.4144429578354596E-01
  -0.9954261841212698E-01
  -0.1121678216622138E+00
   0.5070875103097301E-02
   0.4230770784539505E-02
  -0.1004732302033269E+00
  -0.9895252481732264E-01
  -0.9875450924099091E-01
  -0.9462509591830910E-01
  -0.6807133806014085E-01
   0.5154922255988992E-02
  -0.1935330735399900E-01
  -0.1575800279855604E-01
  -0.6002862282008225E-02
   0.6819057444796157E-02
  -0.8010050790456268E-01
  -0.2781092444154838E-01
  -0.8096457334794613E-01
  -0.5873277542161066E-01
   0.3083625721037892E-02
   0.2685146497925478E-02
   0.2640431210691573E-02
   0.3450191955603162E-02
   0.4007083857328452E-02
   0.1201214397030174E-02
  -0.1438845828873436E-03
   0.2039877314305352E-02
   0.4895693687768495E-02
   0.3857385669162195E-02
   0.1114201968413865E-02
   0.1182682062333816E-02
   0.1465296264940427E-02
  -0.1653632830175401E-04
   0.8996631986511306E-04
   0.4386667936818515E-02
   0.2715724320062451E-02
   0.2322755377800731E-02
   0.5010601117684864E-02
   0.1071689416817656E-02
   0.2712217806728472E-02
   0.2013964166005789E-02
   0.2879092459500583E-04
   0.8374614360547808E-01
   0.2793870737039986E-02
  -0.8346628026085113E-03
  -0.1492945309798835E-03
   0.1409540848815157E+00
   0.1239332959576087E+00
  -0.1219093283774068E-02
  -0.4381936071457599E-02
  -0.3043057680103038E-03
  -0.6512246788164032E-02
  -0.1949570292688260E-02
   0.1557630977404385E+00
   0.7489979215413119E-01
   0.2550174920018951E-01
   0.1656445124907039E+00