# vtk DataFile Version 2.0
FUN3D:global_image_vtk
ASCII
DATASET UNSTRUCTURED_GRID
POINTS 213 double
    0.0000000000000000E+00    0.2500000000000000E+01    0.0000000000000000E+00
    0.1250000000000000E+01    0.2500000000000000E+01    0.0000000000000000E+00
    0.2500000000000000E+01    0.2500000000000000E+01    0.0000000000000000E+00
    0.3750000000000000E+01    0.2500000000000000E+01    0.0000000000000000E+00
    0.5000000000000000E+01    0.2500000000000000E+01    0.0000000000000000E+00
    0.5000000000000000E+01    0.1250000000000000E+01    0.0000000000000000E+00
    0.5000000000000000E+01    0.0000000000000000E+00    0.0000000000000000E+00
    0.5000000000000000E+01   -0.1250000000000000E+01    0.0000000000000000E+00
    0.5000000000000000E+01   -0.2500000000000000E+01    0.0000000000000000E+00
    0.3750000000000000E+01   -0.2500000000000000E+01    0.0000000000000000E+00
    0.2500000000000000E+01   -0.2500000000000000E+01    0.0000000000000000E+00
    0.1250000000000000E+01   -0.2500000000000000E+01    0.0000000000000000E+00
    0.0000000000000000E+00   -0.2500000000000000E+01    0.0000000000000000E+00
    0.0000000000000000E+00   -0.1250000000000000E+01    0.0000000000000000E+00
    0.0000000000000000E+00    0.0000000000000000E+00    0.0000000000000000E+00
    0.0000000000000000E+00    0.1250000000000000E+01    0.0000000000000000E+00
    0.9058375365086910E+00    0.1578994732800803E+01    0.0000000000000000E+00
    0.3982050490726493E+01   -0.1583989954232354E+01    0.0000000000000000E+00
    0.4033849428301197E+01    0.1453322699199022E+01    0.0000000000000000E+00
    0.1040505887381675E+01   -0.1479596339503735E+01    0.0000000000000000E+00
    0.1099454400140349E+01   -0.3227322616384110E+00    0.0000000000000000E+00
    0.7354504170366591E+00    0.6593508822075582E+00    0.0000000000000000E+00
    0.1622302608453282E+01    0.8256214013940779E+00    0.0000000000000000E+00
    0.2145871574390382E+01   -0.1650070333782557E+01    0.0000000000000000E+00
    0.4086422318222992E+01   -0.4612828702537229E+00    0.0000000000000000E+00
    0.2979540174134984E+01   -0.8579242121530853E+00    0.0000000000000000E+00
    0.3045064261640043E+01   -0.1836846154397680E+01    0.0000000000000000E+00
    0.3428197553792836E+01    0.3508002863614053E+00    0.0000000000000000E+00
    0.4309693860063405E+01    0.5185680230613409E+00    0.0000000000000000E+00
    0.1827272193562204E+01    0.1738996113203182E+01    0.0000000000000000E+00
    0.2808563282768077E+01    0.1325493893339706E+01    0.0000000000000000E+00
    0.1895995683864404E+01   -0.8731419609589618E+00    0.0000000000000000E+00
    0.2273179336307740E+01    0.4906150219227333E-01    0.0000000000000000E+00
    0.5000000000000000E+01    0.2500000000000000E+01    0.1250000000000000E+01
    0.5000000000000000E+01    0.2500000000000000E+01    0.2500000000000000E+01
    0.5000000000000000E+01    0.2500000000000000E+01    0.3750000000000000E+01
    0.5000000000000000E+01    0.2500000000000000E+01    0.5000000000000000E+01
    0.3750000000000000E+01    0.2500000000000000E+01    0.5000000000000000E+01
    0.2500000000000000E+01    0.2500000000000000E+01    0.5000000000000000E+01
    0.1250000000000000E+01    0.2500000000000000E+01    0.5000000000000000E+01
    0.0000000000000000E+00    0.2500000000000000E+01    0.5000000000000000E+01
    0.0000000000000000E+00    0.2500000000000000E+01    0.3750000000000000E+01
    0.0000000000000000E+00    0.2500000000000000E+01    0.2500000000000000E+01
    0.0000000000000000E+00    0.2500000000000000E+01    0.1250000000000000E+01
    0.9631080833812172E+00    0.2500000000000000E+01    0.9613285771248219E+00
    0.3981732467264904E+01    0.2500000000000000E+01    0.4069753913607991E+01
    0.4035525118777670E+01    0.2500000000000000E+01    0.1012015867579395E+01
    0.9641717640894248E+00    0.2500000000000000E+01    0.3972455192261839E+01
    0.1547743040396780E+01    0.2500000000000000E+01    0.2928177746738678E+01
    0.6985170616192014E+00    0.2500000000000000E+01    0.3068281976055466E+01
    0.8931277594515110E+00    0.2500000000000000E+01    0.2052465503257726E+01
    0.2183293750162785E+01    0.2500000000000000E+01    0.3959073795658649E+01
    0.3855333506014705E+01    0.2500000000000000E+01    0.2931218481500625E+01
    0.3152495579421047E+01    0.2500000000000000E+01    0.3635850502723324E+01
    0.3103247580566054E+01    0.2500000000000000E+01    0.4331682712472464E+01
    0.3266837581688852E+01    0.2500000000000000E+01    0.1886092433583972E+01
    0.4231539241296245E+01    0.2500000000000000E+01    0.1915865356532799E+01
    0.1909741006522088E+01    0.2500000000000000E+01    0.7170024419130505E+00
    0.2880784107213163E+01    0.2500000000000000E+01    0.9046598906449592E+00
    0.2014316024535771E+01    0.2500000000000000E+01    0.1762464314805728E+01
    0.2670003247036656E+01    0.2500000000000000E+01    0.2850479545835163E+01
    0.5000000000000000E+01    0.1250000000000000E+01    0.5000000000000000E+01
    0.5000000000000000E+01    0.0000000000000000E+00    0.5000000000000000E+01
    0.5000000000000000E+01   -0.1250000000000000E+01    0.5000000000000000E+01
    0.5000000000000000E+01   -0.2500000000000000E+01    0.5000000000000000E+01
    0.5000000000000000E+01   -0.2500000000000000E+01    0.3750000000000000E+01
    0.5000000000000000E+01   -0.2500000000000000E+01    0.2500000000000000E+01
    0.5000000000000000E+01   -0.2500000000000000E+01    0.1250000000000000E+01
    0.5000000000000000E+01    0.1578994732800803E+01    0.9058375365086910E+00
    0.5000000000000000E+01   -0.1583989954232354E+01    0.3982050490726493E+01
    0.5000000000000000E+01    0.1453322699199022E+01    0.4033849428301197E+01
    0.5000000000000000E+01   -0.1479596339503735E+01    0.1040505887381675E+01
    0.5000000000000000E+01   -0.3227322616384110E+00    0.1099454400140349E+01
    0.5000000000000000E+01    0.6593508822075582E+00    0.7354504170366591E+00
    0.5000000000000000E+01    0.8256214013940779E+00    0.1622302608453282E+01
    0.5000000000000000E+01   -0.1650070333782557E+01    0.2145871574390382E+01
    0.5000000000000000E+01   -0.4612828702537229E+00    0.4086422318222992E+01
    0.5000000000000000E+01   -0.8579242121530853E+00    0.2979540174134984E+01
    0.5000000000000000E+01   -0.1836846154397680E+01    0.3045064261640043E+01
    0.5000000000000000E+01    0.3508002863614053E+00    0.3428197553792836E+01
    0.5000000000000000E+01    0.5185680230613409E+00    0.4309693860063405E+01
    0.5000000000000000E+01    0.1738996113203182E+01    0.1827272193562204E+01
    0.5000000000000000E+01    0.1325493893339706E+01    0.2808563282768077E+01
    0.5000000000000000E+01   -0.8731419609589618E+00    0.1895995683864404E+01
    0.5000000000000000E+01    0.4906150219227333E-01    0.2273179336307740E+01
    0.0000000000000000E+00    0.1250000000000000E+01    0.5000000000000000E+01
    0.0000000000000000E+00    0.0000000000000000E+00    0.5000000000000000E+01
    0.0000000000000000E+00   -0.1250000000000000E+01    0.5000000000000000E+01
    0.0000000000000000E+00   -0.2500000000000000E+01    0.5000000000000000E+01
    0.1250000000000000E+01   -0.2500000000000000E+01    0.5000000000000000E+01
    0.2500000000000000E+01   -0.2500000000000000E+01    0.5000000000000000E+01
    0.3750000000000000E+01   -0.2500000000000000E+01    0.5000000000000000E+01
    0.4042003247744892E+01    0.1558308132739014E+01    0.5000000000000000E+01
    0.9304122287900499E+00   -0.1548001304379777E+01    0.5000000000000000E+01
    0.1037243024609388E+01    0.1462892710085612E+01    0.5000000000000000E+01
    0.3946240828834967E+01   -0.1445243809615570E+01    0.5000000000000000E+01
    0.4092527262848217E+01   -0.3455338993778935E+00    0.5000000000000000E+01
    0.4293103109154542E+01    0.6277660831404320E+00    0.5000000000000000E+01
    0.3241512314643519E+01    0.7429886854239611E+00    0.5000000000000000E+01
    0.2844289952419609E+01   -0.1588117879734118E+01    0.5000000000000000E+01
    0.7159905765450471E+00   -0.6002320124191652E+00    0.5000000000000000E+01
    0.1754341919796891E+01   -0.7398147869923652E+00    0.5000000000000000E+01
    0.1870296826774691E+01   -0.1788622905643739E+01    0.5000000000000000E+01
    0.9220614901912976E+00    0.3083720183248586E+00    0.5000000000000000E+01
    0.3101523624086016E+01    0.1777901774806180E+01    0.5000000000000000E+01
    0.2192512063922564E+01    0.1576861561598471E+01    0.5000000000000000E+01
    0.2024793420196460E+01    0.4773861992750707E+00    0.5000000000000000E+01
    0.2990627757741975E+01   -0.4878110785814084E+00    0.5000000000000000E+01
    0.0000000000000000E+00   -0.2500000000000000E+01    0.1250000000000000E+01
    0.0000000000000000E+00   -0.2500000000000000E+01    0.2500000000000000E+01
    0.0000000000000000E+00   -0.2500000000000000E+01    0.3750000000000000E+01
    0.0000000000000000E+00    0.1558308132739014E+01    0.4042003247744892E+01
    0.0000000000000000E+00   -0.1548001304379777E+01    0.9304122287900499E+00
    0.0000000000000000E+00    0.1462892710085612E+01    0.1037243024609388E+01
    0.0000000000000000E+00   -0.1445243809615570E+01    0.3946240828834967E+01
    0.0000000000000000E+00   -0.3455338993778935E+00    0.4092527262848217E+01
    0.0000000000000000E+00    0.6277660831404320E+00    0.4293103109154542E+01
    0.0000000000000000E+00    0.7429886854239611E+00    0.3241512314643519E+01
    0.0000000000000000E+00   -0.1588117879734118E+01    0.2844289952419609E+01
    0.0000000000000000E+00   -0.6002320124191652E+00    0.7159905765450471E+00
    0.0000000000000000E+00   -0.7398147869923652E+00    0.1754341919796891E+01
    0.0000000000000000E+00   -0.1788622905643739E+01    0.1870296826774691E+01
    0.0000000000000000E+00    0.3083720183248586E+00    0.9220614901912976E+00
    0.0000000000000000E+00    0.1777901774806180E+01    0.3101523624086016E+01
    0.0000000000000000E+00    0.1576861561598471E+01    0.2192512063922564E+01
[...]
POINT_DATA 213
SCALARS rho double 1
LOOKUP_TABLE default
   0.1344271449750195E+01
   0.9569758915553409E+00
   0.9462964200959113E+00
   0.9418612718928607E+00
   0.8437304900409587E+00
   0.7738004326021172E+00
   0.7629818923545223E+00
   0.7664577919363410E+00
   0.8307874046189034E+00
   0.9352972565159605E+00
   0.9342219822012755E+00
   0.9617195286396110E+00
   0.1449457451807615E+01
   0.1494090644662723E+01
   0.1644667277204186E+01
   0.1425832049575565E+01
   0.1009014435352251E+01
   0.9508810865006257E+00
   0.9436508501899431E+00
   0.9581561034484436E+00
   0.9415852462543790E+00
   0.1036377240648764E+01
   0.9256161101056330E+00
   0.9322349872514422E+00
   0.9537479579704250E+00
   0.9518769567196904E+00
   0.9348583129228469E+00
   0.9564028419902145E+00
   0.9376098403686720E+00
   0.9300661525860474E+00
   0.9445157493356198E+00
   0.8863506519304658E+00
   0.9423579969834163E+00
   0.9635003079921048E+00
   0.1008299039511912E+01
   0.1006735291839016E+01
   0.1001964617623832E+01
   0.1003219581551883E+01
   0.1004132053992158E+01
   0.1005228602964919E+01
   0.1004260408276864E+01
   0.1008308190003037E+01
   0.1023893138001628E+01
   0.1063553956096205E+01
   0.1019182513304051E+01
   0.1001780766443437E+01
   0.9643309939204624E+00
   0.1005283709011389E+01
   0.1000721163302673E+01
   0.1008742083839902E+01
   0.1008078083670681E+01
   0.1002349807136925E+01
   0.9979986848188681E+00
   0.1000583560954853E+01
   0.1001620123677899E+01
   0.9826893073889398E+00
   0.9842439642575325E+00
   0.9833314037112114E+00
   0.9788207413061876E+00
   0.9902638161504500E+00
   0.9934561553250069E+00
   0.1002011751677771E+01
   0.1002134465686948E+01
   0.1002276326550652E+01
   0.1001794758391339E+01
   0.1009778638885413E+01
   0.1006429109017502E+01
   0.9558786961035046E+00
   0.9249398411695741E+00
   0.1007036755524024E+01
   0.1004504925174877E+01
   0.9143642077256235E+00
   0.9089667861105275E+00
   0.8751688903722715E+00
   0.9767271885714486E+00
   0.1000452621148909E+01
   0.1005831087460285E+01
   0.1012882803225224E+01
   0.1011618951276806E+01
   0.1010438648581255E+01
   0.1005468280913280E+01
   0.9907612680193849E+00
   0.1005140325681997E+01
   0.9860567246293236E+00
   0.1005609737622693E+01
   0.1004248005740175E+01
   0.1002888437724275E+01
   0.1003345420478464E+01
   0.1003992731903480E+01
   0.1005101716205728E+01
   0.1003211645199606E+01
   0.1002663160013483E+01
   0.1002586231472169E+01
   0.1004060870975029E+01
   0.1004320346069438E+01
   0.1001641920442109E+01
   0.1002273116038103E+01
   0.1002543475641195E+01
   0.1003469520871977E+01
   0.1003372640318012E+01
   0.1003232230073991E+01
   0.1004423863500628E+01
   0.1004313070891116E+01
   0.1003659849431757E+01
   0.1003723103982406E+01
   0.1004329726476607E+01
   0.1004465021926474E+01
   0.1003623375387112E+01
   0.1064422801050699E+01
   0.1028473621467184E+01
   0.1009586657364688E+01
   0.1006638837513464E+01
   0.1163935522449674E+01
   0.1086087969851715E+01
   0.1007893419313062E+01
   0.1007245533350528E+01
   0.1006798074183509E+01
   0.1013018287009748E+01
   0.1019384609577789E+01
   0.1235203670049668E+01
   0.1032529466771668E+01
   0.1046681191677587E+01
   0.1200953642609218E+01
   0.1014718916076710E+01
   0.1032291153305961E+01
   0.1028095236789671E+01
   0.1014628639880929E+01
   0.1029216893275058E+01
   0.1001994816403715E+01
   0.9606929197106815E+00
   0.1006852582841262E+01
   0.1001327193356230E+01
   0.1010821905420694E+01
   0.1012246098910490E+01
   0.1000946006966711E+01
   0.9979121234054472E+00
   0.9980632373041454E+00
   0.1001184143414436E+01
   0.9841362011963063E+00
   0.9814879615545141E+00
   0.9648483322370178E+00
   0.9680877129642970E+00
   0.9914124472212124E+00
   0.9910858388733200E+00
   0.9925545095931522E+00
   0.1001727533894392E+01
   0.9993409402184003E+00
   0.9941410835133585E+00
   0.1007038753603809E+01
   0.1022539494137114E+01
   0.1001088098525223E+01
   0.1008798496301346E+01
   0.1004773846126413E+01
   0.1009050237488260E+01
   0.9966470332397745E+00
   0.1004988557993262E+01
   0.1003325535215988E+01
   0.9949431085504645E+00
   0.9832680782005422E+00
   0.9943957454994263E+00
   0.9973420656290577E+00
   0.9932190085629433E+00
   0.1001306487169719E+01
   0.1003001636984001E+01
   0.1002183579663466E+01
   0.9947078544999142E+00
   0.9937965521463245E+00
   0.1004867865562280E+01
   0.1020077607445936E+01
   0.1005364552430869E+01
   0.9816998152693486E+00
   0.1004973031274848E+01
   0.1012382323448548E+01
   0.9871424296255195E+00
   0.9551513534743906E+00
   0.9865075700346475E+00
   0.9864532950075664E+00
   0.9918946944284668E+00
   0.9933508198372869E+00
   0.9954406189970426E+00
   0.1037336789728440E+01
   0.1033536797990596E+01
   0.1001443320814550E+01
   0.1001930499797304E+01
   0.9912478515978025E+00
   0.9910920509410773E+00
   0.9648489990836031E+00
   0.9933282604854831E+00
   0.1006058638637307E+01
   0.1001954027110565E+01
   0.9908735804765063E+00
   0.9740945214065766E+00
   0.9418802141957413E+00
   0.9819379692036658E+00
   0.9794803560690506E+00
   0.9704172061921307E+00
   0.9720478947062698E+00
   0.9557351702889223E+00
   0.9496731213610738E+00
   0.9528673572394076E+00
   0.1002659534063453E+01
   0.1002471631970974E+01
   0.1000509329298002E+01
   0.1001677321730963E+01
   0.9607931434938107E+00
   0.9491625507088014E+00
   0.9584503069195338E+00
   0.1001121207785024E+01
   0.1000496140593597E+01
   0.1001156644177885E+01
   0.9807376183689179E+00
   0.9806000808946880E+00
   0.9628476109176178E+00
SCALARS u double 1
LOOKUP_TABLE default
   0.0000000000000000E+00
   0.0000000000000000E+00
   0.0000000000000000E+00
   0.0000000000000000E+00
   0.0000000000000000E+00
   0.0000000000000000E+00
   0.0000000000000000E+00
   0.0000000000000000E+00
   0.0000000000000000E+00
   0.0000000000000000E+00
   0.0000000000000000E+00
   0.0000000000000000E+00
   0.0000000000000000E+00
   0.0000000000000000E+00
   0.0000000000000000E+00
   0.0000000000000000E+00
   0.0000000000000000E+00
   0.0000000000000000E+00
   0.0000000000000000E+00
   0.0000000000000000E+00
   0.0000000000000000E+00
   0.0000000000000000E+00
   0.0000000000000000E+00
   0.0000000000000000E+00
   0.0000000000000000E+00
   0.0000000000000000E+00
   0.0000000000000000E+00
   0.0000000000000000E+00
   0.0000000000000000E+00
   0.0000000000000000E+00
   0.0000000000000000E+00
   0.0000000000000000E+00
   0.0000000000000000E+00
   0.4950176835703037E+00
   0.5338221300605321E+00
   0.5183269247791523E+00
   0.4930649880192737E+00
   0.4847578719332889E+00
   0.4867666423653523E+00
   0.4890763583300920E+00
   0.4957848880329528E+00
   0.4898301883790099E+00
   0.4717388493441521E+00
   0.4454814153587347E+00
   0.4833907048923151E+00
   0.5098397462670705E+00
   0.4390712699546485E+00
   0.4949403964695980E+00
   0.5225330362485410E+00
   0.4962454545658530E+00
   0.5226154963597839E+00
   0.5038881743029436E+00
   0.5646883609040227E+00
   0.5247509156866952E+00
   0.4991466119501425E+00
   0.5730561900933003E+00
   0.5696051096253441E+00
   0.3737941449627640E+00
   0.3998658123888595E+00
   0.5599326587320074E+00
   0.5564587630637222E+00
   0.4942627332975095E+00
   0.4948659466161615E+00
   0.4925735874286692E+00
   0.4914269544072234E+00
   0.5162356851547861E+00
   0.5361798305996611E+00
   0.4947413356161650E+00
   0.4524112203086048E+00
   0.5128777326251575E+00
   0.5117942041098876E+00
   0.4783517503920861E+00
   0.4931696655283793E+00
   0.4603173591430863E+00
   0.5244892719891524E+00
   0.5297434248113105E+00
   0.5129579301457444E+00
   0.5328358320396522E+00
   0.5308941037924583E+00
   0.5309856171151768E+00
   0.5063656735877592E+00
   0.5282461954745445E+00
   0.5410312730949743E+00
   0.5361261481086618E+00
   0.5374105276950364E+00
   0.4965364818581572E+00
   0.4975340903873431E+00
   0.4963842644371573E+00
   0.4955220267405972E+00
   0.4904581830732186E+00
   0.4903044384775858E+00
   0.4862182763992249E+00
   0.4854049561028912E+00
   0.4932164387750163E+00
   0.4909833312071513E+00
   0.4832194696293114E+00
   0.4872622776955319E+00
   0.4880124909440707E+00
   0.4872445931144344E+00
   0.4882696668991781E+00
   0.4952597556330111E+00
   0.4900967167386310E+00
   0.4904000090231430E+00
   0.4944232925330945E+00
   0.4868002480564693E+00
   0.4892385983522650E+00
   0.4881393369234503E+00
   0.4878457828408814E+00
   0.4446866579307655E+00
   0.4700028779616818E+00
   0.4891999056212488E+00
   0.4885247843444319E+00
   0.4506533042673941E+00
   0.4687378565324210E+00
   0.4877010456514721E+00
   0.4868353683079781E+00
   0.4908994715834259E+00
   0.4793551576296781E+00
   0.4658071746401743E+00
   0.3792725225418817E+00
   0.4901596530027758E+00
   0.4486686689566483E+00
   0.4436137388969912E+00
   0.4845147240875904E+00
   0.4621822644880392E+00
   0.4665749534002632E+00
   0.4748140298854398E+00
   0.4894494216306594E+00
   0.5085556973424388E+00
   0.4315073868792242E+00
   0.4927349360791421E+00
   0.5318289234069750E+00
   0.4913399195702618E+00
   0.5207019993127413E+00
   0.5060964599218040E+00
   0.5688797395553090E+00
   0.5273992817885284E+00
   0.5015044841159930E+00
   0.5821790085903790E+00
   0.5689618251249909E+00
   0.3406394441885655E+00
   0.3789869409813019E+00
   0.5751958207059773E+00
   0.5666485493442002E+00
   0.5704108783109854E+00
   0.5291056376122073E+00
   0.5451902710932138E+00
   0.5718804315148603E+00
   0.5389079125598436E+00
   0.5475507504578900E+00
   0.5821713868960831E+00
   0.4925601784132152E+00
   0.5042157546030009E+00
   0.4961735435792980E+00
   0.5565207963003332E+00
   0.4758845213308660E+00
   0.4950268383155296E+00
   0.5498525443359792E+00
   0.5891202296000831E+00
   0.5841957609214532E+00
   0.5469097664634019E+00
   0.5805417617848171E+00
   0.5106251438259082E+00
   0.5030200512792099E+00
   0.5033624679818605E+00
   0.5676446096787123E+00
   0.5563943082830264E+00
   0.4947255973013114E+00
   0.5505243828696508E+00
   0.5510857281550436E+00
   0.5657350949628180E+00
   0.4920070017312591E+00
   0.4927299096255852E+00
   0.3865140567511540E+00
   0.3687754531716994E+00
   0.5574921716659748E+00
   0.5763755545404337E+00
   0.4194304389853689E+00
   0.5824843240157738E+00
   0.4265209611473385E+00
   0.5392799843660563E+00
   0.5012032759619716E+00
   0.5119513208605592E+00
   0.5049119463431200E+00
   0.5751974973945874E+00
   0.5876371360455671E+00
   0.5379907803856347E+00
   0.5677472540395994E+00
   0.5351248667034428E+00
   0.5338056380073766E+00
   0.5580313798500399E+00
   0.5512707859847247E+00
   0.4261852750497270E+00
   0.5273356176565918E+00
   0.5795712528876716E+00
   0.3318687130733228E+00
   0.4760283322107126E+00
   0.5446196252053105E+00
   0.4798331895824211E+00
   0.3005293504271105E+00
   0.5031051137915968E+00
   0.5017115977373865E+00
   0.5129033211056666E+00
   0.5414840108865073E+00
   0.3437603851478399E+00
   0.3397710711439532E+00
   0.3189928566174882E+00
   0.5065936051707531E+00
   0.5123483779806460E+00
   0.5330313519534613E+00
   0.5879310000441230E+00
   0.4644180532758953E+00
   0.3531270505772961E+00
SCALARS v double 1
LOOKUP_TABLE default
   0.0000000000000000E+00
   0.0000000000000000E+00
   0.0000000000000000E+00
   0.0000000000000000E+00
   0.0000000000000000E+00
   0.0000000000000000E+00
   0.0000000000000000E+00
   0.0000000000000000E+00
   0.0000000000000000E+00
   0.0000000000000000E+00
   0.0000000000000000E+00
   0.0000000000000000E+00
   0.0000000000000000E+00
   0.0000000000000000E+00
   0.0000000000000000E+00
   0.0000000000000000E+00
   0.0000000000000000E+00
   0.0000000000000000E+00
   0.0000000000000000E+00
   0.0000000000000000E+00
   0.0000000000000000E+00
   0.0000000000000000E+00
   0.0000000000000000E+00
   0.0000000000000000E+00
   0.0000000000000000E+00
   0.0000000000000000E+00
   0.0000000000000000E+00
   0.0000000000000000E+00
   0.0000000000000000E+00
   0.0000000000000000E+00
   0.0000000000000000E+00
   0.0000000000000000E+00
   0.0000000000000000E+00
   0.0000000000000000E+00
   0.0000000000000000E+00
   0.0000000000000000E+00
   0.0000000000000000E+00
   0.0000000000000000E+00
   0.0000000000000000E+00
   0.0000000000000000E+00
   0.0000000000000000E+00
   0.0000000000000000E+00
   0.0000000000000000E+00
   0.0000000000000000E+00
   0.0000000000000000E+00
   0.0000000000000000E+00
   0.0000000000000000E+00
   0.0000000000000000E+00
   0.0000000000000000E+00
   0.0000000000000000E+00
   0.0000000000000000E+00
   0.0000000000000000E+00
   0.0000000000000000E+00
   0.0000000000000000E+00
   0.0000000000000000E+00
   0.0000000000000000E+00
   0.0000000000000000E+00
   0.0000000000000000E+00
   0.0000000000000000E+00
   0.0000000000000000E+00
   0.0000000000000000E+00
   0.7970254534706753E-03
  -0.1329294688803576E-02
  -0.1332592752607577E-02
   0.0000000000000000E+00
   0.0000000000000000E+00
   0.0000000000000000E+00
   0.0000000000000000E+00
  -0.1922562561736925E-01
   0.4770618240547629E-03
   0.2183360176808501E-02
   0.1427333017820701E-01
  -0.6488282105625304E-02
  -0.7821623015287304E-02
  -0.1327725060025322E-01
   0.4914481805330460E-02
   0.6907122104706755E-03
   0.3434418452994456E-02
   0.1920847400568268E-02
   0.3147960237124979E-02
   0.1704778378874807E-02
  -0.7316187347414557E-02
  -0.7701903115940415E-04
   0.4468738043903293E-02
  -0.4387156509892453E-03
  -0.6383742714010834E-04
  -0.1963394585732949E-03
   0.8071268027650394E-03
   0.0000000000000000E+00
   0.0000000000000000E+00
   0.0000000000000000E+00
   0.0000000000000000E+00
   0.4257020247338447E-03
   0.1616304637538614E-02
  -0.1297550946752793E-02
  -0.1022774981099931E-02
  -0.2134342411652739E-02
  -0.1064012660415601E-02
  -0.8200064283228734E-03
  -0.7617033223577293E-03
   0.5202259103846452E-04
  -0.6244091940765808E-03
   0.7916469215363038E-03
  -0.1745238510101228E-02
   0.2747128670673364E-03
  -0.8939747271631760E-04
  -0.9424310123436515E-03
  -0.1100227545595114E-02
   0.0000000000000000E+00
   0.0000000000000000E+00
   0.0000000000000000E+00
  -0.1061759100044335E-02
  -0.7641128908866700E-02
   0.1860854760409230E-01
  -0.2834554383079036E-04
  -0.1383129152030885E-02
  -0.2035122970278193E-02
  -0.5666383186259541E-02
  -0.1585210200049973E-02
  -0.5947016500336414E-02
  -0.4160601916603563E-02
   0.1565614819285425E-02
   0.3329524834933657E-01
   0.3055141353128070E-04
  -0.2766884857198639E-02
   0.3566484722716955E-02
   0.3596189352674884E-03
   0.0000000000000000E+00
   0.0000000000000000E+00
   0.0000000000000000E+00
   0.0000000000000000E+00
   0.0000000000000000E+00
   0.0000000000000000E+00
   0.0000000000000000E+00
   0.0000000000000000E+00
   0.0000000000000000E+00
   0.0000000000000000E+00
   0.0000000000000000E+00
   0.0000000000000000E+00
   0.0000000000000000E+00
   0.0000000000000000E+00
   0.0000000000000000E+00
   0.0000000000000000E+00
   0.0000000000000000E+00
   0.5047032585306194E-02
   0.3230791963017040E-02
   0.8149134304011041E-02
   0.6168367002333986E-02
   0.1122928643378182E-01
   0.1429277503659641E-01
  -0.2038826785496257E-03
   0.5118221843724958E-02
   0.2914950553665403E-02
   0.3373611847714128E-02
   0.3728336443064583E-02
  -0.1465719873249779E-01
  -0.6159699888545248E-03
   0.6651630361734918E-02
   0.1542014236049739E-02
   0.1969646522521585E-02
   0.4266273550600737E-02
  -0.2790960968972978E-02
   0.1226887082472635E-02
   0.2819172498255366E-02
   0.1497449168801261E-02
   0.2575339052562456E-02
   0.2030646460769145E-02
   0.2118046076154568E-02
   0.8700410481716013E-02
  -0.3733396989404366E-02
   0.6241189121618362E-02
   0.2516489027212619E-04
  -0.3854044921603631E-03
  -0.1674679016542815E-01
  -0.4881976933110909E-02
  -0.4720000832035142E-02
   0.3445223056077269E-02
  -0.6135724127944471E-02
   0.9934520009070439E-04
  -0.3291372934896611E-01
  -0.3046196744877268E-02
   0.4722743212201226E-02
   0.9228368087566986E-03
   0.2112175239439084E-02
   0.4518755702395330E-02
   0.2720465296392491E-02
   0.3212576504853018E-02
   0.5200804230695138E-02
   0.1941838973025578E-02
   0.7315897614710138E-03
  -0.2555237395922398E-04
  -0.5374632808527536E-02
  -0.6959591045816263E-02
  -0.9443816526371860E-03
   0.1105268431736067E-02
  -0.2080554146415451E-02
  -0.3200035926340072E-02
  -0.2527833401355255E-02
  -0.4115193595214198E-02
  -0.7593954948354274E-02
  -0.1985686406074371E-02
   0.6240402913551519E-03
  -0.2239081624084874E-03
   0.1216949789694008E-02
  -0.3483958328742308E-02
   0.5229139892927793E-02
  -0.8487626027818111E-02
   0.2315170837886154E-04
  -0.3395192808038032E-03
   0.2542663556182875E-02
   0.1663457704846740E-02
   0.2021438734535582E-02
  -0.5620784012051925E-02
SCALARS w double 1
LOOKUP_TABLE default
   0.0000000000000000E+00
   0.0000000000000000E+00
   0.0000000000000000E+00
   0.0000000000000000E+00
   0.0000000000000000E+00
   0.0000000000000000E+00
   0.0000000000000000E+00
   0.0000000000000000E+00
   0.0000000000000000E+00
   0.0000000000000000E+00
   0.0000000000000000E+00
   0.0000000000000000E+00
   0.0000000000000000E+00
   0.0000000000000000E+00
   0.0000000000000000E+00
   0.0000000000000000E+00
   0.0000000000000000E+00
   0.0000000000000000E+00
   0.0000000000000000E+00
   0.0000000000000000E+00
   0.0000000000000000E+00
   0.0000000000000000E+00
   0.0000000000000000E+00
   0.0000000000000000E+00
   0.0000000000000000E+00
   0.0000000000000000E+00
   0.0000000000000000E+00
   0.0000000000000000E+00
   0.0000000000000000E+00
   0.0000000000000000E+00
   0.0000000000000000E+00
   0.0000000000000000E+00
   0.0000000000000000E+00
  -0.1007612287217753E+00
  -0.4249297118239066E-01
   0.7371987188525761E-03
   0.5725799952711122E-02
   0.5699058046324844E-03
   0.1609783190227869E-02
   0.3375073098018262E-02
   0.2371773678915438E-02
   0.4590624807924970E-03
   0.3518225895535943E-02
   0.4521817585508871E-01
   0.6522937826035619E-01
   0.8689297873017847E-03
  -0.2261151819117516E-01
   0.4316553583585521E-02
   0.1358734843394482E-01
   0.1039452556452701E-01
   0.4900548417335834E-01
   0.2437443596949443E-02
  -0.6509940972709467E-02
  -0.7012226453815875E-03
   0.3411017262672372E-03
   0.3904107452237575E-02
  -0.3893254292330064E-01
   0.1798168103082793E-01
   0.1119638180731662E-01
   0.3403773261892205E-01
   0.8438810312678359E-02
   0.4937312288151521E-02
   0.4970345593045183E-02
   0.4871517429043669E-02
   0.6027191724851001E-02
   0.2599191851240189E-02
  -0.4144429578359633E-01
  -0.9954261841211423E-01
  -0.1121678216628974E+00
   0.5070875103376553E-02
   0.4230770786269513E-02
  -0.1004732302032191E+00
  -0.9895252481741440E-01
  -0.9875450924114708E-01
  -0.9462509591893659E-01
  -0.6807133806005633E-01
   0.5154922257089040E-02
  -0.1935330735349670E-01
  -0.1575800279835684E-01
  -0.6002862281229897E-02
   0.6819057447089845E-02
  -0.8010050790681866E-01
  -0.2781092444149100E-01
  -0.8096457334783226E-01
  -0.5873277542151589E-01
   0.3083625720797576E-02
   0.2685146497832527E-02
   0.2640431210649387E-02
   0.3450191955295415E-02
   0.4007083857041883E-02
   0.1201214396907988E-02
  -0.1438845826739628E-03
   0.2039877315651963E-02
   0.4895693687553837E-02
   0.3857385668841864E-02
   0.1114201968082423E-02
   0.1182682063301480E-02
   0.1465296267638130E-02
  -0.1653632807752327E-04
   0.8996631983135418E-04
   0.4386667936654374E-02
   0.2715724319993599E-02
   0.2322755377414248E-02
   0.5010601117485064E-02
   0.1071689416032692E-02
   0.2712217806245200E-02
   0.2013964165926115E-02
   0.2879092432136380E-04
   0.8374614360607796E-01
   0.2793870737041863E-02
  -0.8346628026726805E-03
  -0.1492945310285935E-03
   0.1409540848814803E+00
   0.1239332959574312E+00
  -0.1219093283720282E-02
  -0.4381936071475680E-02
  -0.3043057680802945E-03
  -0.6512246788197137E-02
  -0.1949570292748174E-02
   0.1557630977404087E+00
   0.7489979215408811E-01
   0.2550174920016603E-01
   0.1656445124906812E+00