title="tecplot geometry and solution file"
variables = x y z mach temperature lambda1 lambda2 lambda3 lambda4 lambda5
zone t="boundary 1 bc-1", solutiontime= 0.2000000E+02, strandid=1001, i=32, j=46, f=feblock
 -0.547468544169E-02  0.000000000000E+00 -0.567606031243E-02  0.000000000000E+00  0.000000000000E+00  0.000000000000E+00 -0.525159244851E-02
 -0.425776897977E-02  0.000000000000E+00  0.000000000000E+00  0.000000000000E+00  0.000000000000E+00  0.000000000000E+00  0.000000000000E+00
  0.000000000000E+00  0.000000000000E+00 -0.338395986572E-02  0.000000000000E+00  0.000000000000E+00  0.000000000000E+00  0.000000000000E+00
  0.000000000000E+00  0.000000000000E+00  0.000000000000E+00  0.000000000000E+00  0.000000000000E+00  0.000000000000E+00  0.000000000000E+00
  0.000000000000E+00  0.000000000000E+00  0.000000000000E+00  0.000000000000E+00
  0.250494197117E+01  0.250494197117E+01  0.127822156907E+01  0.146289271009E+01  0.157686156160E+01  0.308372018325E+00  0.261948602442E-01
 -0.122573481164E+01 -0.600232012419E+00  0.250494197117E+01  0.477386199275E+00  0.742988685424E+00 -0.739814786992E+00  0.177790177481E+01
  0.155830813274E+01  0.250494197117E+01 -0.249658903664E+01 -0.154800130438E+01 -0.487811078581E+00  0.250494197117E+01  0.627766083140E+00
 -0.345533899378E+00 -0.178862290564E+01 -0.158811787973E+01  0.125000000000E+01 -0.249658903664E+01 -0.144524380962E+01  0.000000000000E+00
 -0.125000000000E+01 -0.249658903664E+01 -0.249658903664E+01 -0.249658903664E+01
  0.803813859867E-04  0.125000000000E+01  0.822460170215E-04  0.103724302461E+01  0.219251206392E+01  0.922061490191E+00  0.103872438719E-03
  0.341545874230E-04  0.715990576545E+00  0.250000000000E+01  0.202479342020E+01  0.324151231464E+01  0.175434191980E+01  0.310152362409E+01
  0.404200324774E+01  0.375000000000E+01  0.810725962649E-04  0.930412228790E+00  0.299062775774E+01  0.500000000000E+01  0.429310310915E+01
  0.409252726285E+01  0.187029682677E+01  0.284428995242E+01  0.500000000000E+01  0.125000000000E+01  0.394624082883E+01  0.500000000000E+01
  0.500000000000E+01  0.250000000000E+01  0.375000000000E+01  0.500000000000E+01
  0.000000000000E+00  0.440666214091E+00  0.000000000000E+00  0.474617251435E+00  0.460123126357E+00  0.468636774984E+00  0.000000000000E+00
  0.000000000000E+00  0.402549872254E+00  0.469884091894E+00  0.464193478194E+00  0.478749614938E+00  0.489549465334E+00  0.483128669053E+00
  0.488002259909E+00  0.489034104323E+00  0.000000000000E+00  0.465240564346E+00  0.473760502823E+00  0.495364297290E+00  0.490293371229E+00
  0.486277598054E+00  0.445854520604E+00  0.464358879564E+00  0.496127933522E+00  0.443900347073E+00  0.486930056481E+00  0.497248722542E+00
  0.496055921459E+00  0.467744048732E+00  0.488189258165E+00  0.495091099977E+00
  0.999990300362E+00  0.102983027301E+01  0.999990762612E+00  0.104241479569E+01  0.101187755093E+01  0.102516586953E+01  0.999991420552E+00
  0.999992171067E+00  0.103882587599E+01  0.100825880510E+01  0.101253541373E+01  0.100301664923E+01  0.102705528947E+01  0.100604152563E+01
  0.100244540576E+01  0.100354834274E+01  0.999992724186E+00  0.103209927148E+01  0.100459382920E+01  0.100178631734E+01  0.100260315206E+01
  0.100234717451E+01  0.101657069468E+01  0.100620508927E+01  0.100168367826E+01  0.104024762909E+01  0.100303428499E+01  0.100118707696E+01
  0.100134422954E+01  0.100976315298E+01  0.100405567247E+01  0.100176392267E+01
  0.110418768069E+01  0.575616814823E+01  0.155305503539E+01  0.714923857922E+01  0.426880655757E+01  0.367071875229E+01  0.497174430828E+01
  0.445852812011E+01 -0.919066457999E+00  0.186700913858E+01  0.654463896023E+01  0.314026741016E+01  0.886643210238E+01  0.121263991894E+01
  0.146749958988E+02  0.111792915134E+02  0.625213980434E+01  0.321737753953E+01  0.246732683109E+01  0.751548289215E+02  0.222347510947E+02
  0.125599151629E+02  0.734974432330E+01  0.210005932619E+01  0.772684621184E+02  0.946623308190E+01  0.108788910355E+02  0.850731924136E+02
  0.759356773003E+02  0.268793231610E+01  0.104403447316E+02  0.712603975809E+02
  0.533070452597E+00  0.229587688814E+01  0.849520631491E+00  0.257123292412E+01  0.178083635729E+01  0.327560843933E+01  0.695069229029E+00
  0.139077423803E+01  0.263872521843E+01  0.121872994550E+01  0.206752497986E+01  0.106818689976E+01  0.249959115033E+01  0.782418059857E+00
  0.297785267154E+01  0.245822273918E+01  0.949630581466E+00  0.293007126103E+01  0.939811869813E+00  0.154843520130E+02  0.452812068579E+01
  0.250645168859E+01  0.226601050581E+01  0.896022501779E+00  0.161545915265E+02  0.223723416907E+01  0.222499933890E+01  0.178130010658E+02
  0.158585031144E+02  0.115286795669E+01  0.239222646355E+01  0.148224517273E+02
  0.518332529129E-01  0.683286741475E-01 -0.217581859767E+00 -0.308163157458E+00 -0.432827081498E+00 -0.755915844841E+00  0.633197191352E-01
 -0.461999019627E+00  0.217223243909E+00  0.743645338229E-02 -0.633468214122E+00 -0.183380539947E+00 -0.433979231798E+00 -0.931530457600E-01
  0.154229050875E+00  0.207893000649E-01 -0.340766718506E+00 -0.968255252083E+00 -0.189454754922E+00 -0.414949768682E-02  0.394890972725E-01
 -0.866294820138E-01  0.719286178231E-01 -0.123560291544E+00 -0.141461357006E+00 -0.180986487009E+00 -0.746554952799E-01 -0.184190272595E-01
  0.139896953935E-01 -0.125940602477E-01 -0.340183788177E-01 -0.552485293903E-02
 -0.111136149284E+01 -0.366433638885E+01 -0.192923907258E+01 -0.411243581142E+01 -0.400878376530E+01 -0.917868915953E+01 -0.161649390928E+01
 -0.250318158737E+01 -0.120403550366E+02 -0.402020896301E+01 -0.415655657050E+01 -0.341457977353E+01 -0.393840849491E+01 -0.362794535647E+01
 -0.242296079952E+01 -0.273378554722E+01 -0.179801648646E+01 -0.104135218589E+02 -0.382804228093E+01 -0.104976907150E+01 -0.220926753143E+01
 -0.257045312164E+01 -0.491794458531E+01 -0.417581808325E+01 -0.994055275945E+00 -0.751761859336E+01 -0.263807562806E+01 -0.923992870756E+00
 -0.115397554874E+01 -0.499842333402E+01 -0.287188189501E+01 -0.116149834902E+01
 -0.469617004399E+00 -0.234163131043E+01 -0.676048942914E+00 -0.288071091600E+01 -0.151862091005E+01 -0.205778030304E+01 -0.722990293112E+00
 -0.904397952599E+00 -0.459242109767E+00 -0.511096138128E+00 -0.225725071400E+01 -0.105107327160E+01 -0.298086833384E+01 -0.239247914639E+00
 -0.575586398699E+01 -0.435407134473E+01 -0.117273162406E+01 -0.188539751794E+01 -0.777568437032E+00 -0.312096587362E+02 -0.891765693245E+01
 -0.485969702107E+01 -0.243595325177E+01 -0.596483911028E+00 -0.321318984647E+02 -0.359852491675E+01 -0.414584124338E+01 -0.354782490069E+02
 -0.315968074767E+02 -0.700320620130E+00 -0.403643340785E+01 -0.295739805687E+02
        12        19        11        11
        11         5        12        12
        10        14         5         5
        19        13        11        11
        19        24        13        13
        30        23        24        24
        19        12        22        22
        28        22        21        21
        11        13         6         6
         7         6         9         9
        15        12        14        14
        18        13        23        23
        15        25        21        21
        27        19        22        22
        18         8         9         9
        27        31        24        24
         4        11         6         6
         5        14        12        12
         4         2         5         5
        21        12        15        15
        14        16        15        15
        24        19        27        27
        22        29        27        27
        23        26        18        18
        17         8        18        18
         5        11         4         4
         6         3         4         4
        26        23        30        30
         5         2        10        10
        16        14        10        10
         3         6         7         7
        21        25        28        28
        29        22        28        28
         6        13         9         9
         2         4         1         1
        31        27        32        32
        25        15        20        20
        24        23        13        13
         8         7         9         9
        13        18         9         9
        31        30        24        24
        12        21        22        22
        29        32        27        27
         3         1         4         4
        26        17        18        18
        16        20        15        15
zone t="boundary 2 bc-2", solutiontime= 0.2000000E+02, strandid=1002, i=33, j=48, f=feblock
  0.500195253374E+01  0.375034811161E+01  0.249861146299E+01  0.288036674177E+01  0.124717526933E+01  0.190856698521E+01  0.326577190273E+01
  0.201394856120E+01 -0.338395986572E-02  0.962374249381E+00  0.500000000000E+01  0.403430190008E+01  0.423029563807E+01  0.500000000000E+01
  0.385439188940E+01  0.500000000000E+01  0.398133433176E+01  0.315200081417E+01  0.266958028869E+01  0.154798029824E+01  0.218327860466E+01
  0.893688440338E+00  0.000000000000E+00  0.699009761768E+00  0.964460899052E+00  0.310303671659E+01  0.000000000000E+00  0.000000000000E+00
  0.125000000000E+01  0.500000000000E+01  0.375000000000E+01  0.250000000000E+01  0.000000000000E+00
 -0.249658903664E+01 -0.249658903664E+01 -0.249658903664E+01 -0.249658903664E+01 -0.249658903664E+01 -0.249658903664E+01 -0.249658903664E+01
 -0.249658903664E+01 -0.249658903664E+01 -0.249658903664E+01 -0.249658903664E+01 -0.249658903664E+01 -0.249658903664E+01 -0.249658903664E+01
 -0.249658903664E+01 -0.249658903664E+01 -0.249658903664E+01 -0.249658903664E+01 -0.249658903664E+01 -0.249658903664E+01 -0.249658903664E+01
 -0.249658903664E+01 -0.249658903664E+01 -0.249658903664E+01 -0.249658903664E+01 -0.249658903664E+01 -0.249658903664E+01 -0.249658903664E+01
 -0.249658903664E+01 -0.249658903664E+01 -0.249658903664E+01 -0.249658903664E+01 -0.249658903664E+01
  0.108225889030E-03  0.145875369682E-03  0.100893326425E-03  0.901663374396E+00  0.110858761917E-03  0.714928318829E+00  0.188140648011E+01
  0.175892165504E+01  0.810725962649E-04  0.957504300331E+00  0.125000000000E+01  0.100596698996E+01  0.191313519089E+01  0.250000000000E+01
  0.292898096716E+01  0.375000000000E+01  0.406883369524E+01  0.363389289944E+01  0.284756860985E+01  0.292582308120E+01  0.395754054931E+01
  0.205027256979E+01  0.125000000000E+01  0.306703272692E+01  0.397155766662E+01  0.433068622168E+01  0.250000000000E+01  0.375000000000E+01
  0.500000000000E+01  0.500000000000E+01  0.500000000000E+01  0.500000000000E+01  0.500000000000E+01
  0.000000000000E+00  0.000000000000E+00  0.000000000000E+00  0.380610262149E+00  0.000000000000E+00  0.343302163911E+00  0.585285498568E+00
  0.579523873721E+00  0.000000000000E+00  0.500979747332E+00  0.508782814017E+00  0.434361560749E+00  0.572843977212E+00  0.537166654001E+00
  0.569106490033E+00  0.515013352172E+00  0.508252450097E+00  0.527349030424E+00  0.567655252726E+00  0.531857855076E+00  0.506012444339E+00
  0.521051129094E+00  0.443900347073E+00  0.490706184896E+00  0.492149786373E+00  0.501385664791E+00  0.467744048732E+00  0.488189258165E+00
  0.489961991134E+00  0.491321546659E+00  0.486017931588E+00  0.489981935261E+00  0.495091099977E+00
  0.999993488485E+00  0.999993690942E+00  0.999993544242E+00  0.989581137391E+00  0.999993139053E+00  0.985581489207E+00  0.989839349776E+00
  0.991729030504E+00  0.999992724186E+00  0.984216351929E+00  0.985140607796E+00  0.984808793931E+00  0.990067211347E+00  0.100292629404E+01
  0.999859927063E+00  0.100487346357E+01  0.100122739133E+01  0.100057008832E+01  0.997888967161E+00  0.100350843654E+01  0.100059307424E+01
  0.101090476404E+01  0.104024762909E+01  0.100327844767E+01  0.100254887617E+01  0.100046793890E+01  0.100976315298E+01  0.100405567247E+01
  0.100192580062E+01  0.100045822703E+01  0.100058944082E+01  0.100110055989E+01  0.100176392267E+01
  0.747987554974E+01  0.791900350835E+01  0.701165704213E+01  0.827268183406E+01  0.949690746371E+01  0.804154455288E+01  0.964120359219E+01
  0.863935085157E+01  0.625213980434E+01  0.889306823716E+01  0.115709086433E+02  0.959754797399E+01  0.105917921518E+02  0.873079811381E+01
  0.688793400342E+01  0.602358426333E+01  0.449979439377E+01  0.541627596978E+01  0.694003911385E+01  0.402264772200E+01  0.702436358054E+01
  0.662793457700E+01  0.946623308190E+01  0.335236526157E+01  0.114976750296E+02  0.843415282505E+01  0.268793231610E+01  0.104403447316E+02
  0.636879810799E+02  0.706257386567E+01  0.280483738699E+02  0.549651485937E+02  0.712603975809E+02
 -0.150454046276E+01  0.288920022937E+00  0.166031663110E+00  0.285598255428E+01 -0.119333578444E+00  0.160011832762E+01 -0.160600086043E+01
  0.727143278826E-01  0.949630581466E+00  0.253998099476E+01 -0.254947790693E+01  0.731307232549E-01 -0.246235395927E+01 -0.227042935858E+01
 -0.209186494383E+01 -0.141412382164E+01 -0.193169586588E+01 -0.181540882627E+01 -0.180375869791E+01 -0.117558221522E+01 -0.946125034647E+00
  0.548972568827E+00  0.223723416907E+01 -0.120340313834E+00  0.107194922265E+01 -0.108734644535E+01  0.115286795669E+01  0.239222646355E+01
  0.113406800815E+02 -0.385840338063E+00  0.274174609112E+01  0.840968270304E+01  0.148224517273E+02
 -0.174953198344E+00 -0.308014940861E+00  0.144312989202E+00  0.387796304527E+00  0.261625917946E+00  0.882506238196E+00 -0.122455725413E+00
 -0.246693890593E+00 -0.340766718506E+00  0.294003986978E+00 -0.714315401891E-01 -0.209077459415E+00  0.527605080214E-01 -0.151970968016E-01
 -0.785409829744E-02  0.225420525129E-01 -0.272014353561E-01  0.154090588729E-01  0.661105485454E-01  0.988289289255E-01 -0.931938498443E-02
 -0.163369448056E-01 -0.180986487009E+00 -0.365067794191E-01 -0.548331824858E-01  0.528001722596E-02 -0.125940602477E-01 -0.340183788177E-01
 -0.379316150320E-02  0.334019752336E-02  0.234984099692E-02 -0.975066763921E-02 -0.552485293903E-02
 -0.103492782008E+01 -0.172815542701E+01 -0.136271057676E+01 -0.700145979395E+01 -0.248929520197E+01 -0.107323697924E+02 -0.183271891821E+01
 -0.353384633737E+01 -0.179801648646E+01 -0.775148612499E+01 -0.584218804031E+00 -0.282077285095E+01 -0.796633889646E+00 -0.342094335172E+00
 -0.132882125751E+01 -0.423430779762E+00 -0.133820143913E+01 -0.203695937045E+01 -0.248709268045E+01 -0.346827483402E+01 -0.241057012666E+01
 -0.433177419384E+01 -0.751761859336E+01 -0.359473467678E+01 -0.259128731672E+01 -0.201502018427E+01 -0.499842333402E+01 -0.287188189501E+01
 -0.160903066568E+01 -0.752664239334E+00 -0.172660681855E+01 -0.192670992665E+01 -0.116149834902E+01
 -0.974951220248E+00 -0.398143515429E-02  0.438966278223E-02 -0.321481638922E+01  0.151316217836E-02 -0.338214798749E+01 -0.206324491054E+01
 -0.211045087435E+01 -0.117273162406E+01 -0.357259435657E+01 -0.258749773146E+01 -0.262559263606E+01 -0.225388477588E+01 -0.166242855974E+01
 -0.119115893102E+01 -0.121569577881E+01 -0.534145635114E+00 -0.872837476392E+00 -0.136827045862E+01 -0.598251744191E+00 -0.175932902054E+01
 -0.179539028592E+01 -0.359852491675E+01 -0.755380199827E+00 -0.403350427235E+01 -0.222910412489E+01 -0.700320620130E+00 -0.403643340785E+01
 -0.258415870251E+02 -0.212135238001E+01 -0.105005010625E+02 -0.218168586667E+02 -0.295739805687E+02
        15         7        19        19
         8        20        19        19
        18        19        21        21
         7         4         8         8
         3         6         4         4
        19         7         8         8
        19        18        15        15
        14        13        15        15
         8        22        20        20
        27        24        22        22
        19        20        21        21
        32        26        21        21
        17        18        26        26
        17        16        15        15
        25        29        21        21
        12         7        13        13
        10         8         6         6
        25        20        24        24
         4         6         8         8
        12         2         4         4
        10        23        22        22
        26        31        17        17
        30        16        17        17
         4         7        12        12
        13        11        12        12
        21        20        25        25
        24        28        25        25
        22         8        10        10
         6         5        10        10
        31        26        32        32
         4         2         3         3
         5         6         3         3
        11        13        14        14
        22        23        27        27
        28        24        27        27
        15        13         7         7
         2        12         1         1
        29        25        33        33
        23        10         9         9
        21        26        18        18
        16        14        15        15
        18        17        15        15
        29        32        21        21
        22        24        20        20
        28        33        25        25
        11         1        12        12
        31        30        17        17
         5         9        10        10
zone t="boundary 3 bc-3", solutiontime= 0.2000000E+02, strandid=1003, i=33, j=48, f=feblock
  0.375059096892E+01  0.249769609313E+01  0.500322133174E+01  0.403612218725E+01  0.287976772365E+01  0.124541910518E+01  0.190552237404E+01
  0.500000000000E+01  0.326671104552E+01  0.423253755448E+01  0.201271136506E+01 -0.547468544169E-02  0.958895643487E+00  0.500000000000E+01
  0.266968147299E+01  0.385584487271E+01  0.890374214836E+00  0.154654013699E+01  0.000000000000E+00  0.500000000000E+01  0.315261136744E+01
  0.218304199515E+01  0.398195307895E+01  0.000000000000E+00  0.697379952124E+00  0.963757277315E+00  0.125000000000E+01  0.000000000000E+00
  0.500000000000E+01  0.310330738524E+01  0.250000000000E+01  0.375000000000E+01  0.000000000000E+00
  0.250494197117E+01  0.250494197117E+01  0.250494197117E+01  0.250494197117E+01  0.250494197117E+01  0.250494197117E+01  0.250494197117E+01
  0.250494197117E+01  0.250494197117E+01  0.250494197117E+01  0.250494197117E+01  0.250494197117E+01  0.250494197117E+01  0.250494197117E+01
  0.250494197117E+01  0.250494197117E+01  0.250494197117E+01  0.250494197117E+01  0.250494197117E+01  0.250494197117E+01  0.250494197117E+01
  0.250494197117E+01  0.250494197117E+01  0.250494197117E+01  0.250494197117E+01  0.250494197117E+01  0.250494197117E+01  0.250494197117E+01
  0.250494197117E+01  0.250494197117E+01  0.250494197117E+01  0.250494197117E+01  0.250494197117E+01
  0.135649900494E-03  0.110129816467E-03  0.966887303890E-04  0.101756752009E+01  0.908094589218E+00  0.103942505801E-03  0.722629083213E+00
  0.125000000000E+01  0.188965661746E+01  0.191862696980E+01  0.176708239098E+01  0.803813859867E-04  0.969652551954E+00  0.250000000000E+01
  0.285339433501E+01  0.293325058812E+01  0.205656223819E+01  0.293157016932E+01  0.125000000000E+01  0.375000000000E+01  0.363766838842E+01
  0.396069444983E+01  0.407056385475E+01  0.250000000000E+01  0.307031995245E+01  0.397359820314E+01  0.500000000000E+01  0.375000000000E+01
  0.500000000000E+01  0.433260781310E+01  0.500000000000E+01  0.500000000000E+01  0.500000000000E+01
  0.000000000000E+00  0.000000000000E+00  0.000000000000E+00  0.444930326687E+00  0.402807304829E+00  0.000000000000E+00  0.379033816204E+00
  0.508818740007E+00  0.575701380330E+00  0.573472074602E+00  0.562547829758E+00  0.000000000000E+00  0.491637802825E+00  0.534336813543E+00
  0.556352181579E+00  0.564140551432E+00  0.522485305911E+00  0.521817734730E+00  0.440666214091E+00  0.517132977413E+00  0.524068294234E+00
  0.503616120436E+00  0.509419881731E+00  0.469884091894E+00  0.495645014420E+00  0.494503343531E+00  0.488630212220E+00  0.489034104323E+00
  0.492987209122E+00  0.498957573931E+00  0.486507800265E+00  0.484614058974E+00  0.495364297290E+00
  0.999989345567E+00  0.999989414891E+00  0.999989632591E+00  0.981380974378E+00  0.988680684584E+00  0.999989832933E+00  0.982276351823E+00
  0.984074897465E+00  0.990406099424E+00  0.990319064682E+00  0.994391010835E+00  0.999990300362E+00  0.988748587757E+00  0.100365238200E+01
  0.999773192633E+00  0.100117376381E+01  0.100830261588E+01  0.100251270964E+01  0.102983027301E+01  0.100441979611E+01  0.100199190108E+01
  0.100081961865E+01  0.100137906157E+01  0.100825880510E+01  0.100297440226E+01  0.100191721483E+01  0.100214792073E+01  0.100354834274E+01
  0.100047555022E+01  0.100056537700E+01  0.100126704333E+01  0.100066742194E+01  0.100178631734E+01
  0.893604028101E+01  0.479867591255E+01  0.744336133342E+01  0.910419693358E+01  0.863125452193E+01  0.369636474047E+01  0.772947125427E+01
  0.113025331916E+02  0.963503169657E+01  0.978001701703E+01  0.893015879676E+01  0.110418768069E+01  0.821160857648E+01  0.815619391455E+01
  0.693509019188E+01  0.738800178253E+01  0.670565932696E+01  0.434128881956E+01  0.575616814823E+01  0.601227071362E+01  0.511864214893E+01
  0.588145536137E+01  0.469779432052E+01  0.186700913858E+01  0.266104836286E+01  0.149138836387E+02  0.550621225435E+02  0.111792915134E+02
  0.584156284866E+01  0.755669677007E+01  0.504654945047E+02  0.267072162048E+02  0.751548289215E+02
  0.310703708503E+00  0.448457655968E+00 -0.160239242367E+01  0.119628665144E+01  0.342320633312E+01  0.407993032045E+00  0.338820907158E+01
 -0.245947536740E+01 -0.196852421503E+01 -0.259415915473E+01  0.237281976579E+00  0.533070452597E+00  0.320150203380E+01 -0.215363430313E+01
 -0.162068900058E+01 -0.191423954497E+01  0.146776314997E+01 -0.927698514876E+00  0.229587688814E+01 -0.149269516895E+01 -0.180000379834E+01
 -0.123632575251E+01 -0.181048171561E+01  0.121872994550E+01 -0.707213342947E-01  0.175134810689E+01  0.962377287738E+01  0.245822273918E+01
 -0.578656076758E+00 -0.122491391242E+01  0.757414491297E+01  0.251217593650E+01  0.154843520130E+02
 -0.100710388916E+00 -0.290473189611E-01  0.389772176428E-01 -0.635773026710E+00 -0.642026205177E+00 -0.111354693494E+00 -0.507991636501E-01
  0.485551150219E-01  0.146627404828E+00  0.280784806844E-01  0.138773705305E+00  0.518332529129E-01  0.600051063790E-01 -0.174548592208E-01
 -0.508016630148E-01  0.340778199787E-02 -0.415633016692E-01 -0.135954065933E+00  0.683286741475E-01 -0.215202210541E-01  0.386936141639E-02
  0.500647829362E-02  0.425351955447E-02  0.743645338229E-02  0.608601631992E-01  0.610759955766E-01 -0.154421688783E-01  0.207893000649E-01
 -0.125871903881E-01 -0.756740966284E-03 -0.477167784083E-02 -0.187739498246E-02 -0.414949768682E-02
 -0.179925900301E+01 -0.161245466018E+01 -0.789030152150E+00 -0.598346426792E+01 -0.667799931302E+01 -0.157931079598E+01 -0.652150658093E+01
 -0.288326499512E+00 -0.217159010881E+01 -0.796228070453E+00 -0.313256914662E+01 -0.111136149284E+01 -0.444525911909E+01 -0.376321038470E+00
 -0.244957540083E+01 -0.129948885279E+01 -0.383155616740E+01 -0.325490486465E+01 -0.366433638885E+01 -0.497777362168E+00 -0.189414163167E+01
 -0.238126688508E+01 -0.133219914468E+01 -0.402020896301E+01 -0.348488399739E+01 -0.249914292075E+01 -0.164607759962E+01 -0.273378554722E+01
 -0.675535685940E+00 -0.190000618778E+01 -0.191537140140E+01 -0.167677055891E+01 -0.104976907150E+01
 -0.390410793604E-02 -0.436418070127E-01 -0.870075442391E+00 -0.296287292058E+01 -0.343859781169E+01 -0.633701656358E-01 -0.342961980719E+01
 -0.254368986296E+01 -0.199911388882E+01 -0.192611189202E+01 -0.236266024956E+01 -0.469617004399E+00 -0.328297173046E+01 -0.154428354513E+01
 -0.144054519367E+01 -0.143955816968E+01 -0.216164876637E+01 -0.785957523228E+00 -0.234163131043E+01 -0.117622627923E+01 -0.773503853199E+00
 -0.127207385347E+01 -0.662510198233E+00 -0.511096138128E+00 -0.549897729966E+00 -0.547371452023E+01 -0.222086001606E+02 -0.435407134473E+01
 -0.163501567872E+01 -0.189329775838E+01 -0.199576251190E+02 -0.995589748522E+01 -0.312096587362E+02
        15         9        16        16
        15        18        11        11
        22        15        21        21
        11         5         9         9
         5         7         2         2
        11         9        15        15
        16        21        15        15
        16        10        14        14
        18        17        11        11
        17        25        24        24
        22        18        15        15
        22        30        31        31
        30        21        23        23
        16        20        23        23
        22        27        26        26
        10         9         4         4
         7        11        13        13
        25        18        26        26
        11         7         5         5
         5         1         4         4
        17        19        13        13
        23        32        30        30
        23        20        29        29
         4         9         5         5
         4         8        10        10
        26        18        22        22
        26        28        25        25
        13        11        17        17
        13         6         7         7
        31        30        32        32
         2         1         5         5
         2         7         6         6
        14        10         8         8
        24        19        17        17
        24        25        28        28
         9        10        16        16
         3         4         1         1
        33        26        27        27
        12        13        19        19
        21        30        22        22
        16        14        20        20
        16        23        21        21
        22        31        27        27
        18        25        17        17
        26        33        28        28
         4         3         8         8
        23        29        32        32
        13        12         6         6
zone t="boundary 4 bc-4", solutiontime= 0.2000000E+02, strandid=1004, i=32, j=46, f=feblock
  0.125000000000E+01  0.219251206392E+01  0.103724302461E+01  0.500000000000E+01  0.250000000000E+01  0.375000000000E+01  0.404200324774E+01
  0.500000000000E+01  0.000000000000E+00  0.310152362409E+01  0.202479342020E+01  0.324151231464E+01  0.922061490191E+00  0.000000000000E+00
  0.299062775774E+01  0.394624082883E+01  0.500000000000E+01  0.409252726285E+01  0.500000000000E+01  0.429310310915E+01  0.175434191980E+01
  0.284428995242E+01  0.000000000000E+00  0.000000000000E+00  0.715990576545E+00  0.930412228790E+00  0.125000000000E+01  0.187029682677E+01
  0.500000000000E+01  0.375000000000E+01  0.250000000000E+01  0.000000000000E+00
  0.250494197117E+01  0.157686156160E+01  0.146289271009E+01  0.250494197117E+01  0.250494197117E+01  0.250494197117E+01  0.155830813274E+01
  0.125000000000E+01  0.250494197117E+01  0.177790177481E+01  0.477386199275E+00  0.742988685424E+00  0.308372018325E+00  0.125000000000E+01
 -0.487811078581E+00 -0.144524380962E+01 -0.125000000000E+01 -0.345533899378E+00  0.000000000000E+00  0.627766083140E+00 -0.739814786992E+00
 -0.158811787973E+01  0.000000000000E+00 -0.125000000000E+01 -0.600232012419E+00 -0.154800130438E+01 -0.249658903664E+01 -0.178862290564E+01
 -0.249658903664E+01 -0.249658903664E+01 -0.249658903664E+01 -0.249658903664E+01
  0.500000000000E+01  0.500000000000E+01  0.500000000000E+01  0.500000000000E+01  0.500000000000E+01  0.500000000000E+01  0.500000000000E+01
  0.500000000000E+01  0.500000000000E+01  0.500000000000E+01  0.500000000000E+01  0.500000000000E+01  0.500000000000E+01  0.500000000000E+01
  0.500000000000E+01  0.500000000000E+01  0.500000000000E+01  0.500000000000E+01  0.500000000000E+01  0.500000000000E+01  0.500000000000E+01
  0.500000000000E+01  0.500000000000E+01  0.500000000000E+01  0.500000000000E+01  0.500000000000E+01  0.500000000000E+01  0.500000000000E+01
  0.500000000000E+01  0.500000000000E+01  0.500000000000E+01  0.500000000000E+01
  0.488630212220E+00  0.488908716439E+00  0.490613563023E+00  0.492987209122E+00  0.486507800265E+00  0.484614058974E+00  0.485349379989E+00
  0.494165072826E+00  0.495364297290E+00  0.486547191318E+00  0.487827844382E+00  0.487055837589E+00  0.494058544536E+00  0.496127933522E+00
  0.487591516691E+00  0.483167459327E+00  0.492383185910E+00  0.487198277340E+00  0.494738152002E+00  0.487948631654E+00  0.489652457880E+00
  0.487975472983E+00  0.497248722542E+00  0.496055921459E+00  0.494948818827E+00  0.492779385287E+00  0.489961991134E+00  0.489965023644E+00
  0.491321546659E+00  0.486017931588E+00  0.489981935261E+00  0.495091099977E+00
  0.100214792073E+01  0.100152366602E+01  0.100177921758E+01  0.100047555022E+01  0.100126704333E+01  0.100066742194E+01  0.100025486927E+01
  0.100050300652E+01  0.100178631734E+01  0.100112357820E+01  0.100132836583E+01  0.100072276399E+01  0.100164069721E+01  0.100168367826E+01
  0.100096358335E+01  0.100001091236E+01  0.100083203976E+01  0.100022366105E+01  0.100062122326E+01  0.100023363627E+01  0.100174700863E+01
  0.100098998959E+01  0.100118707696E+01  0.100134422954E+01  0.100132700903E+01  0.100179943015E+01  0.100192580062E+01  0.100163765934E+01
  0.100045822703E+01  0.100058944082E+01  0.100110055989E+01  0.100176392267E+01
  0.550621225435E+02  0.529297265194E+02  0.557967773829E+02  0.584156284866E+01  0.504654945047E+02  0.267072162048E+02  0.184557847364E+02
  0.578146826174E+01  0.751548289215E+02  0.413779726510E+02  0.569878971150E+02  0.391212036325E+02  0.684504249248E+02  0.772684621184E+02
  0.447244861564E+02  0.182051330031E+02  0.668577009657E+01  0.229609004595E+02  0.546721101729E+01  0.228008278370E+02  0.711118548193E+02
  0.426768417648E+02  0.850731924136E+02  0.759356773003E+02  0.800106716749E+02  0.635720858063E+02  0.636879810799E+02  0.666639244835E+02
  0.706257386567E+01  0.280483738699E+02  0.549651485937E+02  0.712603975809E+02