title="tecplot geometry and solution file"
variables = x y z mach temperature lambda1 lambda2 lambda3 lambda4 lambda5
zone t="boundary 1 bc-1", solutiontime= 0.5000000E+02, strandid=1001, i=32, j=46, f=feblock
 -0.547468544169E-02  0.000000000000E+00 -0.567606031243E-02  0.000000000000E+00  0.000000000000E+00  0.000000000000E+00 -0.525159244851E-02
 -0.425776897977E-02  0.000000000000E+00  0.000000000000E+00  0.000000000000E+00  0.000000000000E+00  0.000000000000E+00  0.000000000000E+00
  0.000000000000E+00  0.000000000000E+00 -0.338395986572E-02  0.000000000000E+00  0.000000000000E+00  0.000000000000E+00  0.000000000000E+00
  0.000000000000E+00  0.000000000000E+00  0.000000000000E+00  0.000000000000E+00  0.000000000000E+00  0.000000000000E+00  0.000000000000E+00
  0.000000000000E+00  0.000000000000E+00  0.000000000000E+00  0.000000000000E+00
  0.250494197117E+01  0.250494197117E+01  0.127822156907E+01  0.146289271009E+01  0.157686156160E+01  0.308372018325E+00  0.261948602442E-01
 -0.122573481164E+01 -0.600232012419E+00  0.250494197117E+01  0.477386199275E+00  0.742988685424E+00 -0.739814786992E+00  0.177790177481E+01
  0.155830813274E+01  0.250494197117E+01 -0.249658903664E+01 -0.154800130438E+01 -0.487811078581E+00  0.250494197117E+01  0.627766083140E+00
 -0.345533899378E+00 -0.178862290564E+01 -0.158811787973E+01  0.125000000000E+01 -0.249658903664E+01 -0.144524380962E+01  0.000000000000E+00
 -0.125000000000E+01 -0.249658903664E+01 -0.249658903664E+01 -0.249658903664E+01
  0.803813859867E-04  0.125000000000E+01  0.822460170215E-04  0.103724302461E+01  0.219251206392E+01  0.922061490191E+00  0.103872438719E-03
  0.341545874230E-04  0.715990576545E+00  0.250000000000E+01  0.202479342020E+01  0.324151231464E+01  0.175434191980E+01  0.310152362409E+01
  0.404200324774E+01  0.375000000000E+01  0.810725962649E-04  0.930412228790E+00  0.299062775774E+01  0.500000000000E+01  0.429310310915E+01
  0.409252726285E+01  0.187029682677E+01  0.284428995242E+01  0.500000000000E+01  0.125000000000E+01  0.394624082883E+01  0.500000000000E+01
  0.500000000000E+01  0.250000000000E+01  0.375000000000E+01  0.500000000000E+01
  0.000000000000E+00  0.440666214091E+00  0.000000000000E+00  0.474617251435E+00  0.460123126357E+00  0.468636774984E+00  0.000000000000E+00
  0.000000000000E+00  0.402549872254E+00  0.469884091894E+00  0.464193478194E+00  0.478749614938E+00  0.489549465334E+00  0.483128669053E+00
  0.488002259909E+00  0.489034104323E+00  0.000000000000E+00  0.465240564346E+00  0.473760502823E+00  0.495364297290E+00  0.490293371229E+00
  0.486277598054E+00  0.445854520604E+00  0.464358879564E+00  0.496127933522E+00  0.443900347073E+00  0.486930056481E+00  0.497248722542E+00
  0.496055921459E+00  0.467744048732E+00  0.488189258165E+00  0.495091099977E+00
  0.999990300362E+00  0.102983027301E+01  0.999990762612E+00  0.104241479569E+01  0.101187755093E+01  0.102516586953E+01  0.999991420552E+00
  0.999992171067E+00  0.103882587599E+01  0.100825880510E+01  0.101253541373E+01  0.100301664923E+01  0.102705528947E+01  0.100604152563E+01
  0.100244540576E+01  0.100354834274E+01  0.999992724186E+00  0.103209927148E+01  0.100459382920E+01  0.100178631734E+01  0.100260315206E+01
  0.100234717451E+01  0.101657069468E+01  0.100620508927E+01  0.100168367826E+01  0.104024762909E+01  0.100303428499E+01  0.100118707696E+01
  0.100134422954E+01  0.100976315298E+01  0.100405567247E+01  0.100176392267E+01
  0.110917635431E+01  0.572992131563E+01  0.155545572782E+01  0.711975950977E+01  0.427523239573E+01  0.364296254212E+01  0.496698261179E+01
  0.445829679787E+01 -0.951478704729E+00  0.189426449883E+01  0.654596785808E+01  0.319538275942E+01  0.883127123671E+01  0.125954980374E+01
  0.145684763833E+02  0.112457128105E+02  0.625412499007E+01  0.319695007620E+01  0.252583149753E+01  0.752172171000E+02  0.221060599205E+02
  0.125587326214E+02  0.734281011133E+01  0.211993692939E+01  0.773457199987E+02  0.945604202476E+01  0.108606463025E+02  0.852079390021E+02
  0.759278738779E+02  0.272003897573E+01  0.104518688086E+02  0.712328892007E+02
  0.533733183803E+00  0.229177651705E+01  0.850201135225E+00  0.256668201473E+01  0.178279820276E+01  0.327274319607E+01  0.695405913780E+00
  0.139159266280E+01  0.263588061953E+01  0.122365926727E+01  0.206845607835E+01  0.107684255914E+01  0.249259972995E+01  0.788893924302E+00
  0.294520159051E+01  0.246603925671E+01  0.950025142896E+00  0.292821547169E+01  0.951786635160E+00  0.155139933770E+02  0.449247353735E+01
  0.249759099662E+01  0.226510229229E+01  0.899428835230E+00  0.161823513643E+02  0.223684722520E+01  0.221439267792E+01  0.178548834024E+02
  0.158654503189E+02  0.115993599206E+01  0.239163207079E+01  0.148241777160E+02
  0.520910990969E-01  0.684209119102E-01 -0.216565061565E+00 -0.307761197244E+00 -0.432662234389E+00 -0.756181177601E+00  0.634794009778E-01
 -0.462627821627E+00  0.215680809701E+00  0.741957269617E-02 -0.633340217181E+00 -0.182290625242E+00 -0.433978760101E+00 -0.934300346239E-01
  0.152931078397E+00  0.202299729900E-01 -0.340807011788E+00 -0.968766597756E+00 -0.188928998045E+00 -0.467305927543E-02  0.416551962056E-01
 -0.841533601761E-01  0.724111714491E-01 -0.122539723642E+00 -0.145398341909E+00 -0.180875736508E+00 -0.724926436867E-01 -0.227190830046E-01
  0.113572174048E-01 -0.126081928430E-01 -0.339793218003E-01 -0.561515524899E-02
 -0.111191017954E+01 -0.366884639840E+01 -0.192992473285E+01 -0.411685449672E+01 -0.401262066040E+01 -0.918327344361E+01 -0.161589902291E+01
 -0.250346688122E+01 -0.120433525613E+02 -0.402332415758E+01 -0.415883825880E+01 -0.341301622651E+01 -0.394034355266E+01 -0.362702480057E+01
 -0.242181867401E+01 -0.272832011519E+01 -0.179820897669E+01 -0.104172025576E+02 -0.382730968498E+01 -0.105280321035E+01 -0.221051846210E+01
 -0.256832497802E+01 -0.492049730670E+01 -0.417651121719E+01 -0.999269678089E+00 -0.751956183297E+01 -0.263798945708E+01 -0.929031275587E+00
 -0.115702803564E+01 -0.500093207856E+01 -0.286998614609E+01 -0.116352097310E+01
 -0.472957716304E+00 -0.233080968576E+01 -0.678226842144E+00 -0.286844206049E+01 -0.152120816844E+01 -0.204674653178E+01 -0.720773771698E+00
 -0.905071116797E+00 -0.446602673991E+00 -0.522227152869E+00 -0.225756923707E+01 -0.107390444395E+01 -0.296600681366E+01 -0.258187495981E+00
 -0.570789447655E+01 -0.438114550044E+01 -0.117410284741E+01 -0.187700021542E+01 -0.802211785981E+00 -0.312386751545E+02 -0.886042743019E+01
 -0.485679017578E+01 -0.243291551654E+01 -0.605038152574E+00 -0.321655174511E+02 -0.359436076734E+01 -0.413670231862E+01 -0.355366417844E+02
 -0.315946050802E+02 -0.713860302293E+00 -0.404087278809E+01 -0.295629997769E+02
        12        19        11        11
        11         5        12        12
        10        14         5         5
        19        13        11        11
        19        24        13        13
        30        23        24        24
        19        12        22        22
        28        22        21        21
        11        13         6         6
         7         6         9         9
        15        12        14        14
        18        13        23        23
        15        25        21        21
        27        19        22        22
        18         8         9         9
        27        31        24        24
         4        11         6         6
         5        14        12        12
         4         2         5         5
        21        12        15        15
        14        16        15        15
        24        19        27        27
        22        29        27        27
        23        26        18        18
        17         8        18        18
         5        11         4         4
         6         3         4         4
        26        23        30        30
         5         2        10        10
        16        14        10        10
         3         6         7         7
        21        25        28        28
        29        22        28        28
         6        13         9         9
         2         4         1         1
        31        27        32        32
        25        15        20        20
        24        23        13        13
         8         7         9         9
        13        18         9         9
        31        30        24        24
        12        21        22        22
        29        32        27        27
         3         1         4         4
        26        17        18        18
        16        20        15        15
zone t="boundary 2 bc-2", solutiontime= 0.5000000E+02, strandid=1002, i=33, j=48, f=feblock
  0.500195253374E+01  0.375034811161E+01  0.249861146299E+01  0.288036674177E+01  0.124717526933E+01  0.190856698521E+01  0.326577190273E+01
  0.201394856120E+01 -0.338395986572E-02  0.962374249381E+00  0.500000000000E+01  0.403430190008E+01  0.423029563807E+01  0.500000000000E+01
  0.385439188940E+01  0.500000000000E+01  0.398133433176E+01  0.315200081417E+01  0.266958028869E+01  0.154798029824E+01  0.218327860466E+01
  0.893688440338E+00  0.000000000000E+00  0.699009761768E+00  0.964460899052E+00  0.310303671659E+01  0.000000000000E+00  0.000000000000E+00
  0.125000000000E+01  0.500000000000E+01  0.375000000000E+01  0.250000000000E+01  0.000000000000E+00
 -0.249658903664E+01 -0.249658903664E+01 -0.249658903664E+01 -0.249658903664E+01 -0.249658903664E+01 -0.249658903664E+01 -0.249658903664E+01
 -0.249658903664E+01 -0.249658903664E+01 -0.249658903664E+01 -0.249658903664E+01 -0.249658903664E+01 -0.249658903664E+01 -0.249658903664E+01
 -0.249658903664E+01 -0.249658903664E+01 -0.249658903664E+01 -0.249658903664E+01 -0.249658903664E+01 -0.249658903664E+01 -0.249658903664E+01
 -0.249658903664E+01 -0.249658903664E+01 -0.249658903664E+01 -0.249658903664E+01 -0.249658903664E+01 -0.249658903664E+01 -0.249658903664E+01
 -0.249658903664E+01 -0.249658903664E+01 -0.249658903664E+01 -0.249658903664E+01 -0.249658903664E+01
  0.108225889030E-03  0.145875369682E-03  0.100893326425E-03  0.901663374396E+00  0.110858761917E-03  0.714928318829E+00  0.188140648011E+01
  0.175892165504E+01  0.810725962649E-04  0.957504300331E+00  0.125000000000E+01  0.100596698996E+01  0.191313519089E+01  0.250000000000E+01
  0.292898096716E+01  0.375000000000E+01  0.406883369524E+01  0.363389289944E+01  0.284756860985E+01  0.292582308120E+01  0.395754054931E+01
  0.205027256979E+01  0.125000000000E+01  0.306703272692E+01  0.397155766662E+01  0.433068622168E+01  0.250000000000E+01  0.375000000000E+01
  0.500000000000E+01  0.500000000000E+01  0.500000000000E+01  0.500000000000E+01  0.500000000000E+01
  0.000000000000E+00  0.000000000000E+00  0.000000000000E+00  0.380610262149E+00  0.000000000000E+00  0.343302163911E+00  0.585285498568E+00
  0.579523873721E+00  0.000000000000E+00  0.500979747332E+00  0.508782814017E+00  0.434361560749E+00  0.572843977212E+00  0.537166654001E+00
  0.569106490033E+00  0.515013352172E+00  0.508252450097E+00  0.527349030424E+00  0.567655252726E+00  0.531857855076E+00  0.506012444339E+00
  0.521051129094E+00  0.443900347073E+00  0.490706184896E+00  0.492149786373E+00  0.501385664791E+00  0.467744048732E+00  0.488189258165E+00
  0.489961991134E+00  0.491321546659E+00  0.486017931588E+00  0.489981935261E+00  0.495091099977E+00
  0.999993488485E+00  0.999993690942E+00  0.999993544242E+00  0.989581137391E+00  0.999993139053E+00  0.985581489207E+00  0.989839349776E+00
  0.991729030504E+00  0.999992724186E+00  0.984216351929E+00  0.985140607796E+00  0.984808793931E+00  0.990067211347E+00  0.100292629404E+01
  0.999859927063E+00  0.100487346357E+01  0.100122739133E+01  0.100057008832E+01  0.997888967161E+00  0.100350843654E+01  0.100059307424E+01
  0.101090476404E+01  0.104024762909E+01  0.100327844767E+01  0.100254887617E+01  0.100046793890E+01  0.100976315298E+01  0.100405567247E+01
  0.100192580062E+01  0.100045822703E+01  0.100058944082E+01  0.100110055989E+01  0.100176392267E+01
  0.747985599529E+01  0.791926088272E+01  0.701124895916E+01  0.827198003701E+01  0.949808617611E+01  0.805693155300E+01  0.964091208743E+01
  0.864076447888E+01  0.625412499007E+01  0.891898391781E+01  0.115716156864E+02  0.959376621737E+01  0.105932487092E+02  0.873092790408E+01
  0.688778840069E+01  0.602428645237E+01  0.450034052795E+01  0.541792973530E+01  0.694667325705E+01  0.403030066157E+01  0.702054568912E+01
  0.660073454769E+01  0.945604202476E+01  0.335905736606E+01  0.115265587093E+02  0.843645927181E+01  0.272003897573E+01  0.104518688086E+02
  0.636598541458E+02  0.706113516173E+01  0.280454735836E+02  0.549494244118E+02  0.712328892007E+02
 -0.150458130268E+01  0.288862019417E+00  0.165960658447E+00  0.285637078454E+01 -0.119733822750E+00  0.160237061210E+01 -0.160648027103E+01
  0.728580569344E-01  0.950025142896E+00  0.254481988083E+01 -0.254948207566E+01  0.720686332633E-01 -0.246217567083E+01 -0.227057981767E+01
 -0.209202644338E+01 -0.141423915876E+01 -0.193213114910E+01 -0.181560989351E+01 -0.180145163650E+01 -0.117454027001E+01 -0.949535712329E+00
  0.542486361837E+00  0.223684722520E+01 -0.119221194886E+00  0.107446344448E+01 -0.108929760537E+01  0.115993599206E+01  0.239163207079E+01
  0.113392877583E+02 -0.386050572109E+00  0.274198064081E+01  0.841075277636E+01  0.148241777160E+02
 -0.174971563337E+00 -0.308010611294E+00  0.144351073020E+00  0.387836534087E+00  0.261861843509E+00  0.882747606159E+00 -0.122499906681E+00
 -0.246682355623E+00 -0.340807011788E+00  0.294322215746E+00 -0.714374714889E-01 -0.209128538430E+00  0.527429083253E-01 -0.151944651740E-01
 -0.786025553792E-02  0.225566531762E-01 -0.271938039593E-01  0.154701050956E-01  0.662259575348E-01  0.989667652099E-01 -0.942658168434E-02
 -0.166125703915E-01 -0.180875736508E+00 -0.366154082374E-01 -0.549906669538E-01  0.526081192502E-02 -0.126081928430E-01 -0.339793218003E-01
 -0.405449195072E-02  0.336316944203E-02  0.235210666839E-02 -0.981938958113E-02 -0.561515524899E-02
 -0.103492792797E+01 -0.172812153317E+01 -0.136261022190E+01 -0.700114940768E+01 -0.248935806000E+01 -0.107334594878E+02 -0.183257620029E+01
 -0.353373674306E+01 -0.179820897669E+01 -0.775180690674E+01 -0.584196639260E+00 -0.282038963115E+01 -0.796624442620E+00 -0.342113073972E+00
 -0.132859238869E+01 -0.423485578448E+00 -0.133843681225E+01 -0.203657242200E+01 -0.248694915568E+01 -0.346879701065E+01 -0.241247465473E+01
 -0.433210399795E+01 -0.751956183297E+01 -0.359584729450E+01 -0.259314764751E+01 -0.201671019003E+01 -0.500093207856E+01 -0.286998614609E+01
 -0.160904753631E+01 -0.752552639144E+00 -0.172654395453E+01 -0.192616331908E+01 -0.116352097310E+01
 -0.974861241265E+00 -0.390818991815E-02  0.466986885815E-02 -0.321448757482E+01  0.148664246763E-02 -0.338857051695E+01 -0.206294158535E+01
 -0.211082934928E+01 -0.117410284741E+01 -0.358346130084E+01 -0.258772749777E+01 -0.262380122893E+01 -0.225442852595E+01 -0.166239562208E+01
 -0.119104600267E+01 -0.121586340565E+01 -0.534197976776E+00 -0.873468676924E+00 -0.137131107275E+01 -0.601507871459E+00 -0.175700947276E+01
 -0.178346005843E+01 -0.359436076734E+01 -0.758243334669E+00 -0.404508266106E+01 -0.222937508949E+01 -0.713860302293E+00 -0.404087278809E+01
 -0.258305435194E+02 -0.212079676425E+01 -0.104995445537E+02 -0.218114484284E+02 -0.295629997769E+02
        15         7        19        19
         8        20        19        19
        18        19        21        21
         7         4         8         8
         3         6         4         4
        19         7         8         8
        19        18        15        15
        14        13        15        15
         8        22        20        20
        27        24        22        22
        19        20        21        21
        32        26        21        21
        17        18        26        26
        17        16        15        15
        25        29        21        21
        12         7        13        13
        10         8         6         6
        25        20        24        24
         4         6         8         8
        12         2         4         4
        10        23        22        22
        26        31        17        17
        30        16        17        17
         4         7        12        12
        13        11        12        12
        21        20        25        25
        24        28        25        25
        22         8        10        10
         6         5        10        10
        31        26        32        32
         4         2         3         3
         5         6         3         3
        11        13        14        14
        22        23        27        27
        28        24        27        27
        15        13         7         7
         2        12         1         1
        29        25        33        33
        23        10         9         9
        21        26        18        18
        16        14        15        15
        18        17        15        15
        29        32        21        21
        22        24        20        20
        28        33        25        25
        11         1        12        12
        31        30        17        17
         5         9        10        10
zone t="boundary 3 bc-3", solutiontime= 0.5000000E+02, strandid=1003, i=33, j=48, f=feblock
  0.375059096892E+01  0.249769609313E+01  0.500322133174E+01  0.403612218725E+01  0.287976772365E+01  0.124541910518E+01  0.190552237404E+01
  0.500000000000E+01  0.326671104552E+01  0.423253755448E+01  0.201271136506E+01 -0.547468544169E-02  0.958895643487E+00  0.500000000000E+01
  0.266968147299E+01  0.385584487271E+01  0.890374214836E+00  0.154654013699E+01  0.000000000000E+00  0.500000000000E+01  0.315261136744E+01
  0.218304199515E+01  0.398195307895E+01  0.000000000000E+00  0.697379952124E+00  0.963757277315E+00  0.125000000000E+01  0.000000000000E+00
  0.500000000000E+01  0.310330738524E+01  0.250000000000E+01  0.375000000000E+01  0.000000000000E+00
  0.250494197117E+01  0.250494197117E+01  0.250494197117E+01  0.250494197117E+01  0.250494197117E+01  0.250494197117E+01  0.250494197117E+01
  0.250494197117E+01  0.250494197117E+01  0.250494197117E+01  0.250494197117E+01  0.250494197117E+01  0.250494197117E+01  0.250494197117E+01
  0.250494197117E+01  0.250494197117E+01  0.250494197117E+01  0.250494197117E+01  0.250494197117E+01  0.250494197117E+01  0.250494197117E+01
  0.250494197117E+01  0.250494197117E+01  0.250494197117E+01  0.250494197117E+01  0.250494197117E+01  0.250494197117E+01  0.250494197117E+01
  0.250494197117E+01  0.250494197117E+01  0.250494197117E+01  0.250494197117E+01  0.250494197117E+01
  0.135649900494E-03  0.110129816467E-03  0.966887303890E-04  0.101756752009E+01  0.908094589218E+00  0.103942505801E-03  0.722629083213E+00
  0.125000000000E+01  0.188965661746E+01  0.191862696980E+01  0.176708239098E+01  0.803813859867E-04  0.969652551954E+00  0.250000000000E+01
  0.285339433501E+01  0.293325058812E+01  0.205656223819E+01  0.293157016932E+01  0.125000000000E+01  0.375000000000E+01  0.363766838842E+01
  0.396069444983E+01  0.407056385475E+01  0.250000000000E+01  0.307031995245E+01  0.397359820314E+01  0.500000000000E+01  0.375000000000E+01
  0.500000000000E+01  0.433260781310E+01  0.500000000000E+01  0.500000000000E+01  0.500000000000E+01
  0.000000000000E+00  0.000000000000E+00  0.000000000000E+00  0.444930326687E+00  0.402807304829E+00  0.000000000000E+00  0.379033816204E+00
  0.508818740007E+00  0.575701380330E+00  0.573472074602E+00  0.562547829758E+00  0.000000000000E+00  0.491637802825E+00  0.534336813543E+00
  0.556352181579E+00  0.564140551432E+00  0.522485305911E+00  0.521817734730E+00  0.440666214091E+00  0.517132977413E+00  0.524068294234E+00
  0.503616120436E+00  0.509419881731E+00  0.469884091894E+00  0.495645014420E+00  0.494503343531E+00  0.488630212220E+00  0.489034104323E+00
  0.492987209122E+00  0.498957573931E+00  0.486507800265E+00  0.484614058974E+00  0.495364297290E+00
  0.999989345567E+00  0.999989414891E+00  0.999989632591E+00  0.981380974378E+00  0.988680684584E+00  0.999989832933E+00  0.982276351823E+00
  0.984074897465E+00  0.990406099424E+00  0.990319064682E+00  0.994391010835E+00  0.999990300362E+00  0.988748587757E+00  0.100365238200E+01
  0.999773192633E+00  0.100117376381E+01  0.100830261588E+01  0.100251270964E+01  0.102983027301E+01  0.100441979611E+01  0.100199190108E+01
  0.100081961865E+01  0.100137906157E+01  0.100825880510E+01  0.100297440226E+01  0.100191721483E+01  0.100214792073E+01  0.100354834274E+01
  0.100047555022E+01  0.100056537700E+01  0.100126704333E+01  0.100066742194E+01  0.100178631734E+01
  0.893514299826E+01  0.479897230223E+01  0.744333148204E+01  0.910244456945E+01  0.864707024957E+01  0.369816765814E+01  0.774739196829E+01
  0.113027491583E+02  0.963495152076E+01  0.978104484744E+01  0.893621397375E+01  0.110917635431E+01  0.825210464036E+01  0.815624657122E+01
  0.693502246854E+01  0.738901808730E+01  0.669277553894E+01  0.432441182050E+01  0.572992131563E+01  0.601192387583E+01  0.512041866497E+01
  0.588247025896E+01  0.470005875796E+01  0.189426449883E+01  0.267345931365E+01  0.149432101027E+02  0.549871918621E+02  0.112457128105E+02
  0.584213521571E+01  0.755388641582E+01  0.504812002460E+02  0.266971132250E+02  0.752172171000E+02
  0.310560657801E+00  0.448177855175E+00 -0.160237148467E+01  0.119754233399E+01  0.342786003752E+01  0.407096740832E+00  0.339259128646E+01
 -0.245952692005E+01 -0.196882279078E+01 -0.259402480973E+01  0.238719203453E+00  0.533733183803E+00  0.320911272948E+01 -0.215378482156E+01
 -0.162103408520E+01 -0.191418795673E+01  0.146311446006E+01 -0.933313091729E+00  0.229177651705E+01 -0.149286444692E+01 -0.179973315651E+01
 -0.123792296509E+01 -0.181031948942E+01  0.122365926727E+01 -0.725991163774E-01  0.175346583163E+01  0.960909456086E+01  0.246603925671E+01
 -0.578399189835E+00 -0.122738581443E+01  0.758316303837E+01  0.251033773150E+01  0.155139933770E+02
 -0.100720538419E+00 -0.290586305800E-01  0.390126861406E-01 -0.635905858167E+00 -0.642264940388E+00 -0.111334607895E+00 -0.508158707814E-01
  0.485414591990E-01  0.146618931062E+00  0.280588898573E-01  0.138718994119E+00  0.520910990969E-01  0.600344253375E-01 -0.174513201982E-01
 -0.507816799442E-01  0.340618354890E-02 -0.417489019132E-01 -0.135703977602E+00  0.684209119102E-01 -0.215285985637E-01  0.386325560390E-02
  0.517789906124E-02  0.426628328551E-02  0.741957269617E-02  0.610227237416E-01  0.610951901026E-01 -0.148946765601E-01  0.202299729900E-01
 -0.125929938249E-01 -0.664341026805E-03 -0.473979862849E-02 -0.180814427855E-02 -0.467305927543E-02
 -0.179911954769E+01 -0.161253323699E+01 -0.788972626337E+00 -0.598316970892E+01 -0.667867920826E+01 -0.157947801077E+01 -0.652194456556E+01
 -0.288423246257E+00 -0.217159797402E+01 -0.796188470761E+00 -0.313247735188E+01 -0.111191017954E+01 -0.444497809994E+01 -0.376374997190E+00
 -0.244980172054E+01 -0.129941195102E+01 -0.383089751924E+01 -0.325581485725E+01 -0.366884639840E+01 -0.497820353380E+00 -0.189396155952E+01
 -0.238290241480E+01 -0.133209488314E+01 -0.402332415758E+01 -0.348583440355E+01 -0.250007034651E+01 -0.164630207665E+01 -0.272832011519E+01
 -0.675456089517E+00 -0.190148710195E+01 -0.191523012747E+01 -0.167675708021E+01 -0.105280321035E+01
 -0.360421120598E-02 -0.437060472649E-01 -0.870122565107E+00 -0.296242290688E+01 -0.344547367750E+01 -0.636018817160E-01 -0.343727831704E+01
 -0.254374946935E+01 -0.199892963732E+01 -0.192649487565E+01 -0.236506409477E+01 -0.472957716304E+00 -0.329986789677E+01 -0.154422342022E+01
 -0.144040119828E+01 -0.143990893982E+01 -0.215568025772E+01 -0.778324468382E+00 -0.233080968576E+01 -0.117603224527E+01 -0.774256795158E+00
 -0.127209386060E+01 -0.663375375614E+00 -0.522227152869E+00 -0.554051229367E+00 -0.548517818842E+01 -0.221768105880E+02 -0.438114550044E+01
 -0.163530183194E+01 -0.189157102115E+01 -0.199656699001E+02 -0.995175927017E+01 -0.312386751545E+02
        15         9        16        16
        15        18        11        11
        22        15        21        21
        11         5         9         9
         5         7         2         2
        11         9        15        15
        16        21        15        15
        16        10        14        14
        18        17        11        11
        17        25        24        24
        22        18        15        15
        22        30        31        31
        30        21        23        23
        16        20        23        23
        22        27        26        26
        10         9         4         4
         7        11        13        13
        25        18        26        26
        11         7         5         5
         5         1         4         4
        17        19        13        13
        23        32        30        30
        23        20        29        29
         4         9         5         5
         4         8        10        10
        26        18        22        22
        26        28        25        25
        13        11        17        17
        13         6         7         7
        31        30        32        32
         2         1         5         5
         2         7         6         6
        14        10         8         8
        24        19        17        17
        24        25        28        28
         9        10        16        16
         3         4         1         1
        33        26        27        27
        12        13        19        19
        21        30        22        22
        16        14        20        20
        16        23        21        21
        22        31        27        27
        18        25        17        17
        26        33        28        28
         4         3         8         8
        23        29        32        32
        13        12         6         6
zone t="boundary 4 bc-4", solutiontime= 0.5000000E+02, strandid=1004, i=32, j=46, f=feblock
  0.125000000000E+01  0.219251206392E+01  0.103724302461E+01  0.500000000000E+01  0.250000000000E+01  0.375000000000E+01  0.404200324774E+01
  0.500000000000E+01  0.000000000000E+00  0.310152362409E+01  0.202479342020E+01  0.324151231464E+01  0.922061490191E+00  0.000000000000E+00
  0.299062775774E+01  0.394624082883E+01  0.500000000000E+01  0.409252726285E+01  0.500000000000E+01  0.429310310915E+01  0.175434191980E+01
  0.284428995242E+01  0.000000000000E+00  0.000000000000E+00  0.715990576545E+00  0.930412228790E+00  0.125000000000E+01  0.187029682677E+01
  0.500000000000E+01  0.375000000000E+01  0.250000000000E+01  0.000000000000E+00
  0.250494197117E+01  0.157686156160E+01  0.146289271009E+01  0.250494197117E+01  0.250494197117E+01  0.250494197117E+01  0.155830813274E+01
  0.125000000000E+01  0.250494197117E+01  0.177790177481E+01  0.477386199275E+00  0.742988685424E+00  0.308372018325E+00  0.125000000000E+01
 -0.487811078581E+00 -0.144524380962E+01 -0.125000000000E+01 -0.345533899378E+00  0.000000000000E+00  0.627766083140E+00 -0.739814786992E+00
 -0.158811787973E+01  0.000000000000E+00 -0.125000000000E+01 -0.600232012419E+00 -0.154800130438E+01 -0.249658903664E+01 -0.178862290564E+01
 -0.249658903664E+01 -0.249658903664E+01 -0.249658903664E+01 -0.249658903664E+01
  0.500000000000E+01  0.500000000000E+01  0.500000000000E+01  0.500000000000E+01  0.500000000000E+01  0.500000000000E+01  0.500000000000E+01
  0.500000000000E+01  0.500000000000E+01  0.500000000000E+01  0.500000000000E+01  0.500000000000E+01  0.500000000000E+01  0.500000000000E+01
  0.500000000000E+01  0.500000000000E+01  0.500000000000E+01  0.500000000000E+01  0.500000000000E+01  0.500000000000E+01  0.500000000000E+01
  0.500000000000E+01  0.500000000000E+01  0.500000000000E+01  0.500000000000E+01  0.500000000000E+01  0.500000000000E+01  0.500000000000E+01
  0.500000000000E+01  0.500000000000E+01  0.500000000000E+01  0.500000000000E+01
  0.488630212220E+00  0.488908716439E+00  0.490613563023E+00  0.492987209122E+00  0.486507800265E+00  0.484614058974E+00  0.485349379989E+00
  0.494165072826E+00  0.495364297290E+00  0.486547191318E+00  0.487827844382E+00  0.487055837589E+00  0.494058544536E+00  0.496127933522E+00
  0.487591516691E+00  0.483167459327E+00  0.492383185910E+00  0.487198277340E+00  0.494738152002E+00  0.487948631654E+00  0.489652457880E+00
  0.487975472983E+00  0.497248722542E+00  0.496055921459E+00  0.494948818827E+00  0.492779385287E+00  0.489961991134E+00  0.489965023644E+00
  0.491321546659E+00  0.486017931588E+00  0.489981935261E+00  0.495091099977E+00
  0.100214792073E+01  0.100152366602E+01  0.100177921758E+01  0.100047555022E+01  0.100126704333E+01  0.100066742194E+01  0.100025486927E+01
  0.100050300652E+01  0.100178631734E+01  0.100112357820E+01  0.100132836583E+01  0.100072276399E+01  0.100164069721E+01  0.100168367826E+01
  0.100096358335E+01  0.100001091236E+01  0.100083203976E+01  0.100022366105E+01  0.100062122326E+01  0.100023363627E+01  0.100174700863E+01
  0.100098998959E+01  0.100118707696E+01  0.100134422954E+01  0.100132700903E+01  0.100179943015E+01  0.100192580062E+01  0.100163765934E+01
  0.100045822703E+01  0.100058944082E+01  0.100110055989E+01  0.100176392267E+01
  0.549871918621E+02  0.529472420699E+02  0.557592097357E+02  0.584213521571E+01  0.504812002460E+02  0.266971132250E+02  0.184563375452E+02
  0.578144138344E+01  0.752172171000E+02  0.413623494942E+02  0.569350370458E+02  0.391128959858E+02  0.684297431302E+02  0.773457199987E+02
  0.447163927984E+02  0.182049711007E+02  0.668441311905E+01  0.229577847965E+02  0.546854550024E+01  0.228044210453E+02  0.710878979240E+02
  0.426679197691E+02  0.852079390021E+02  0.759278738779E+02  0.799194062324E+02  0.635617243371E+02  0.636598541458E+02  0.666584782323E+02
  0.706113516173E+01  0.280454735836E+02  0.549494244118E+02  0.712328892007E+02