# vtk DataFile Version 2.0
FUN3D:global_image_vtk
ASCII
DATASET UNSTRUCTURED_GRID
POINTS 213 double
   -0.5474685441687843E-02    0.2504941971167291E+01    0.8038138598670545E-04
    0.1245419105183472E+01    0.2504941971167291E+01    0.1039425058013134E-03
    0.2497696093128780E+01    0.2504941971167291E+01    0.1101298164665756E-03
    0.3750590968915824E+01    0.2504941971167291E+01    0.1356499004944170E-03
    0.5003221331742151E+01    0.2504941971167291E+01    0.9668873038898313E-04
    0.5004676687979097E+01    0.1281291202167040E+01    0.1638053019384359E-03
    0.5004772673778115E+01    0.2775079906482900E-01    0.1903478008447593E-03
    0.5003581183341212E+01   -0.1225853508883529E+01    0.1607765204486580E-03
    0.5001952533742191E+01   -0.2496589036641631E+01    0.1082258890302559E-03
    0.3750348111606544E+01   -0.2496589036641631E+01    0.1458753696815809E-03
    0.2498611462994928E+01   -0.2496589036641631E+01    0.1008933264248226E-03
    0.1247175269333276E+01   -0.2496589036641631E+01    0.1108587619169656E-03
   -0.3383959865719272E-02   -0.2496589036641631E+01    0.8107259626494183E-04
   -0.4257768979765605E-02   -0.1225734811642590E+01    0.3415458742295214E-04
   -0.5251592448509267E-02    0.2619486024420457E-01    0.1038724387187886E-03
   -0.5676060312426854E-02    0.1278221569065707E+01    0.8224601702150351E-04
    0.9003209617952581E+00    0.1608979112280158E+01    0.8704140727677796E-04
    0.3983172210692289E+01   -0.1561211904840279E+01    0.1757116720370604E-03
    0.4035602039224469E+01    0.1486760030415520E+01    0.1713312862106634E-03
    0.1036613723302902E+01   -0.1455626429916848E+01    0.1047189301532916E-03
    0.1094353480630802E+01   -0.2964622010671852E+00    0.1260590236917272E-03
    0.7298400267480001E+00    0.6874684746719117E+00    0.1044598640544960E-03
    0.1617018659308944E+01    0.8553208024939370E+00    0.1529810904974397E-03
    0.2143199662875790E+01   -0.1627128509216730E+01    0.1606170425226819E-03
    0.4088840445400889E+01   -0.4351047825936263E+00    0.2719933294109139E-03
    0.2977916511248925E+01   -0.8334991483094500E+00    0.2245596931861331E-03
    0.3044093241383418E+01   -0.1814361225108581E+01    0.1617000112420500E-03
    0.3427866614805211E+01    0.3813904839972497E+00    0.2936955483430765E-03
    0.4313225355351749E+01    0.5489133376342497E+00    0.2313009573592377E-03
    0.1823032737597358E+01    0.1771265193544254E+01    0.1836202887151587E-03
    0.2806311152168375E+01    0.1358629373600680E+01    0.1943492163983821E-03
    0.1891860875936711E+01   -0.8481310365607546E+00    0.1670645501816174E-03
    0.2268769200166909E+01    0.7723691819196571E-01    0.2072307783085319E-03
    0.5000000000000000E+01    0.2504941971167291E+01    0.1250000000000000E+01
    0.5000000000000000E+01    0.2504941971167291E+01    0.2500000000000000E+01
    0.5000000000000000E+01    0.2504941971167291E+01    0.3750000000000000E+01
    0.5000000000000000E+01    0.2504941971167291E+01    0.5000000000000000E+01
    0.3750000000000000E+01    0.2504941971167291E+01    0.5000000000000000E+01
    0.2500000000000000E+01    0.2504941971167291E+01    0.5000000000000000E+01
    0.1250000000000000E+01    0.2504941971167291E+01    0.5000000000000000E+01
    0.0000000000000000E+00    0.2504941971167291E+01    0.5000000000000000E+01
    0.0000000000000000E+00    0.2504941971167291E+01    0.3750000000000000E+01
    0.0000000000000000E+00    0.2504941971167291E+01    0.2500000000000000E+01
    0.0000000000000000E+00    0.2504941971167291E+01    0.1250000000000000E+01
    0.9588956434871090E+00    0.2504941971167291E+01    0.9696525519543870E+00
    0.3981953078951401E+01    0.2504941971167291E+01    0.4070563854751270E+01
    0.4036122187252336E+01    0.2504941971167291E+01    0.1017567520094671E+01
    0.9637572773153887E+00    0.2504941971167291E+01    0.3973598203142228E+01
    0.1546540136992395E+01    0.2504941971167291E+01    0.2931570169315600E+01
    0.6973799521244306E+00    0.2504941971167291E+01    0.3070319952453755E+01
    0.8903742148356872E+00    0.2504941971167291E+01    0.2056562238187737E+01
    0.2183041995146012E+01    0.2504941971167291E+01    0.3960694449828018E+01
    0.3855844872709869E+01    0.2504941971167291E+01    0.2933250588118629E+01
    0.3152611367438029E+01    0.2504941971167291E+01    0.3637668388416192E+01
    0.3103307385241870E+01    0.2504941971167291E+01    0.4332607813099730E+01
    0.3266711045517938E+01    0.2504941971167291E+01    0.1889656617463737E+01
    0.4232537554484795E+01    0.2504941971167291E+01    0.1918626969802350E+01
    0.1905522374036519E+01    0.2504941971167291E+01    0.7226290832134606E+00
    0.2879767723645805E+01    0.2504941971167291E+01    0.9080945892181977E+00
    0.2012711365064514E+01    0.2504941971167291E+01    0.1767082390977753E+01
    0.2669681472994636E+01    0.2504941971167291E+01    0.2853394335010790E+01
    0.5000000000000000E+01    0.1250000000000000E+01    0.5000000000000000E+01
    0.5000000000000000E+01    0.0000000000000000E+00    0.5000000000000000E+01
    0.5000000000000000E+01   -0.1250000000000000E+01    0.5000000000000000E+01
    0.5000000000000000E+01   -0.2496589036641631E+01    0.5000000000000000E+01
    0.5000000000000000E+01   -0.2496589036641631E+01    0.3750000000000000E+01
    0.5000000000000000E+01   -0.2496589036641631E+01    0.2500000000000000E+01
    0.5000000000000000E+01   -0.2496589036641631E+01    0.1250000000000000E+01
    0.5000000000000000E+01    0.1578994732800803E+01    0.9058375365086910E+00
    0.5000000000000000E+01   -0.1583989954232354E+01    0.3982050490726493E+01
    0.5000000000000000E+01    0.1453322699199022E+01    0.4033849428301197E+01
    0.5000000000000000E+01   -0.1479596339503735E+01    0.1040505887381675E+01
    0.5000000000000000E+01   -0.3227322616384110E+00    0.1099454400140349E+01
    0.5000000000000000E+01    0.6593508822075582E+00    0.7354504170366591E+00
    0.5000000000000000E+01    0.8256214013940779E+00    0.1622302608453282E+01
    0.5000000000000000E+01   -0.1650070333782557E+01    0.2145871574390382E+01
    0.5000000000000000E+01   -0.4612828702537229E+00    0.4086422318222992E+01
    0.5000000000000000E+01   -0.8579242121530853E+00    0.2979540174134984E+01
    0.5000000000000000E+01   -0.1836846154397680E+01    0.3045064261640043E+01
    0.5000000000000000E+01    0.3508002863614053E+00    0.3428197553792836E+01
    0.5000000000000000E+01    0.5185680230613409E+00    0.4309693860063405E+01
    0.5000000000000000E+01    0.1738996113203182E+01    0.1827272193562204E+01
    0.5000000000000000E+01    0.1325493893339706E+01    0.2808563282768077E+01
    0.5000000000000000E+01   -0.8731419609589618E+00    0.1895995683864404E+01
    0.5000000000000000E+01    0.4906150219227333E-01    0.2273179336307740E+01
    0.0000000000000000E+00    0.1250000000000000E+01    0.5000000000000000E+01
    0.0000000000000000E+00    0.0000000000000000E+00    0.5000000000000000E+01
    0.0000000000000000E+00   -0.1250000000000000E+01    0.5000000000000000E+01
    0.0000000000000000E+00   -0.2496589036641631E+01    0.5000000000000000E+01
    0.1250000000000000E+01   -0.2496589036641631E+01    0.5000000000000000E+01
    0.2500000000000000E+01   -0.2496589036641631E+01    0.5000000000000000E+01
    0.3750000000000000E+01   -0.2496589036641631E+01    0.5000000000000000E+01
    0.4042003247744892E+01    0.1558308132739014E+01    0.5000000000000000E+01
    0.9304122287900499E+00   -0.1548001304379777E+01    0.5000000000000000E+01
    0.1037243024609388E+01    0.1462892710085612E+01    0.5000000000000000E+01
    0.3946240828834967E+01   -0.1445243809615570E+01    0.5000000000000000E+01
    0.4092527262848217E+01   -0.3455338993778935E+00    0.5000000000000000E+01
    0.4293103109154542E+01    0.6277660831404320E+00    0.5000000000000000E+01
    0.3241512314643519E+01    0.7429886854239611E+00    0.5000000000000000E+01
    0.2844289952419609E+01   -0.1588117879734118E+01    0.5000000000000000E+01
    0.7159905765450471E+00   -0.6002320124191652E+00    0.5000000000000000E+01
    0.1754341919796891E+01   -0.7398147869923652E+00    0.5000000000000000E+01
    0.1870296826774691E+01   -0.1788622905643739E+01    0.5000000000000000E+01
    0.9220614901912976E+00    0.3083720183248586E+00    0.5000000000000000E+01
    0.3101523624086016E+01    0.1777901774806180E+01    0.5000000000000000E+01
    0.2192512063922564E+01    0.1576861561598471E+01    0.5000000000000000E+01
    0.2024793420196460E+01    0.4773861992750707E+00    0.5000000000000000E+01
    0.2990627757741975E+01   -0.4878110785814084E+00    0.5000000000000000E+01
    0.0000000000000000E+00   -0.2496589036641631E+01    0.1250000000000000E+01
    0.0000000000000000E+00   -0.2496589036641631E+01    0.2500000000000000E+01
    0.0000000000000000E+00   -0.2496589036641631E+01    0.3750000000000000E+01
    0.0000000000000000E+00    0.1558308132739014E+01    0.4042003247744892E+01
    0.0000000000000000E+00   -0.1548001304379777E+01    0.9304122287900499E+00
    0.0000000000000000E+00    0.1462892710085612E+01    0.1037243024609388E+01
    0.0000000000000000E+00   -0.1445243809615570E+01    0.3946240828834967E+01
    0.0000000000000000E+00   -0.3455338993778935E+00    0.4092527262848217E+01
    0.0000000000000000E+00    0.6277660831404320E+00    0.4293103109154542E+01
    0.0000000000000000E+00    0.7429886854239611E+00    0.3241512314643519E+01
    0.0000000000000000E+00   -0.1588117879734118E+01    0.2844289952419609E+01
    0.0000000000000000E+00   -0.6002320124191652E+00    0.7159905765450471E+00
    0.0000000000000000E+00   -0.7398147869923652E+00    0.1754341919796891E+01
    0.0000000000000000E+00   -0.1788622905643739E+01    0.1870296826774691E+01
    0.0000000000000000E+00    0.3083720183248586E+00    0.9220614901912976E+00
    0.0000000000000000E+00    0.1777901774806180E+01    0.3101523624086016E+01
    0.0000000000000000E+00    0.1576861561598471E+01    0.2192512063922564E+01
[...]
POINT_DATA 213
SCALARS p double 1
LOOKUP_TABLE default
   0.9614966139288000E+00
   0.6837101913591563E+00
   0.6757908592287073E+00
   0.6729731456500109E+00
   0.6025706636952313E+00
   0.5529963196262740E+00
   0.5448227612055461E+00
   0.5472505016208253E+00
   0.5936025258138521E+00
   0.6681063736357683E+00
   0.6674169261662873E+00
   0.6868644249383763E+00
   0.1034617796315770E+01
   0.1068149275649107E+01
   0.1176225404944738E+01
   0.1018998980323090E+01
   0.7212839823501571E+00
   0.6793849135933846E+00
   0.6741503348165387E+00
   0.6838984354453086E+00
   0.6724923334971259E+00
   0.7407925964970098E+00
   0.6612913510240396E+00
   0.6658813342203790E+00
   0.6812845220575354E+00
   0.6800273662306545E+00
   0.6679267474360164E+00
   0.6832432506449305E+00
   0.6698965267482728E+00
   0.6645261174910988E+00
   0.6747406934892645E+00
   0.6330203295827544E+00
   0.6731402663956733E+00
   0.6773959506972774E+00
   0.7228851245312286E+00
   0.7222584952762227E+00
   0.7160252942825026E+00
   0.7170622082147976E+00
   0.7181374140474220E+00
   0.7195479801021264E+00
   0.7186027648027083E+00
   0.7227471512275144E+00
   0.7373752708344753E+00
   0.7824911264818845E+00
   0.7199460465005304E+00
   0.7165424466213695E+00
   0.6761556652810524E+00
   0.7194218814535949E+00
   0.7166145140979177E+00
   0.7226405847028557E+00
   0.7260052145201187E+00
   0.7165538642593440E+00
   0.7137078516274143E+00
   0.7161327508388652E+00
   0.7158478108128479E+00
   0.6952678638813760E+00
   0.6963286835868655E+00
   0.6899885200675812E+00
   0.6913933878738713E+00
   0.7035144070901190E+00
   0.7094957209904938E+00
   0.7160806509666376E+00
   0.7162534204312531E+00
   0.7165050132683904E+00
   0.7158947337070999E+00
   0.7248124213908023E+00
   0.7210380670131687E+00
   0.6727895072637586E+00
   0.6453611856656289E+00
   0.7221263110080088E+00
   0.7196812356637844E+00
   0.6359473188329376E+00
   0.6309740621245895E+00
   0.5996011020084469E+00
   0.6915898402555836E+00
   0.7156163025619594E+00
   0.7212072700815434E+00
   0.7290400796908474E+00
   0.7269601240935365E+00
   0.7265129359310517E+00
   0.7204389173969447E+00
   0.7038371911919621E+00
   0.7205057324729832E+00
   0.7023998304346016E+00
   0.7220874339360143E+00
   0.7185219565380586E+00
   0.7171974800261006E+00
   0.7176419970545299E+00
   0.7184063706154377E+00
   0.7193221403581503E+00
   0.7173766549424404E+00
   0.7166143841938725E+00
   0.7163178837915359E+00
   0.7184827089111162E+00
   0.7186370487729842E+00
   0.7154672052684254E+00
   0.7160737908875782E+00
   0.7162721523639440E+00
   0.7172837671613962E+00
   0.7174096974030592E+00
   0.7175460262363725E+00
   0.7187033192298621E+00
   0.7185491286153257E+00
   0.7180712206011196E+00
   0.7177473692717259E+00
   0.7184639215339245E+00
   0.7184263262817842E+00
   0.7175689119905923E+00
   0.7909487605157668E+00
   0.7417734992683459E+00
   0.7240717887049711E+00
   0.7207775705086980E+00
   0.8580928976003390E+00
   0.8086359191902991E+00
   0.7221181175275995E+00
   0.7211543012439073E+00
   0.7210123575597550E+00
   0.7257927939296882E+00
   0.7326184947795403E+00
   0.9164842231797132E+00
   0.7574793669930917E+00
   0.7599341414059535E+00
   0.8799597809501956E+00
   0.7291445041924981E+00
   0.7461133317297125E+00
   0.7436509812942628E+00
   0.7280725754711380E+00
   0.7233898281959176E+00
   0.7165953699869799E+00
   0.6758706055574317E+00
   0.7210174491294848E+00
   0.7177414168148964E+00
   0.7243657935963305E+00
   0.7309067715916354E+00
   0.7153808579011435E+00
   0.7127114289686161E+00
   0.7133128845968233E+00
   0.7154718125170881E+00
   0.6958641890656770E+00
   0.6941239890329464E+00
   0.6792585743070171E+00
   0.6842914291270262E+00
   0.7022917998384864E+00
   0.7064279157185357E+00
   0.7092627669926469E+00
   0.7176240446339647E+00
   0.7173819840595271E+00
   0.7117390477670552E+00
   0.7287976937724606E+00
   0.7352771569037956E+00
   0.7097308150884966E+00
   0.7230295686827598E+00
   0.7189766926617133E+00
   0.7231318957964329E+00
   0.7128933493137158E+00
   0.6922601498045241E+00
   0.7175434909299089E+00
   0.7113529572701046E+00
   0.6973948343979933E+00
   0.7095803680889129E+00
   0.7134667182583020E+00
   0.7079209163986150E+00
   0.7159279650999756E+00
   0.7175546262408192E+00
   0.7167021216016661E+00
   0.7110826433657685E+00
   0.7103503467991333E+00
   0.7187130937408105E+00
   0.7362427316895969E+00
   0.7209816590915221E+00
   0.6967141113515544E+00
   0.7191751553711322E+00
   0.7279848580248821E+00
   0.6958368778440366E+00
   0.6741062799583669E+00
   0.7021079577684860E+00
   0.7007144108851368E+00
   0.6996490264239749E+00
   0.7043881876359571E+00
   0.6878281991335198E+00
   0.7541030126822656E+00
   0.7254151559472859E+00
   0.7163755041138397E+00
   0.7164914400126369E+00
   0.7072976068834691E+00
   0.7062563231024324E+00
   0.6799192365222434E+00
   0.7081503351865334E+00
   0.7212299169762623E+00
   0.7177586756204304E+00
   0.7069396808176430E+00
   0.6847854849561598E+00
   0.6587269035603451E+00
   0.6908580171527364E+00
   0.6956186660006185E+00
   0.6931685425980852E+00
   0.6874288313147484E+00
   0.6732353298653614E+00
   0.6670743216761242E+00
   0.6794819077617781E+00
   0.7172116263954557E+00
   0.7168136858190902E+00
   0.7154592827118657E+00
   0.7175324675339135E+00
   0.6790171565638240E+00
   0.6691899376670667E+00
   0.6792101194192631E+00
   0.7156329541674723E+00
   0.7153058460747869E+00
   0.7168572646989919E+00
   0.6951013206372590E+00
   0.6910696167210907E+00
   0.6839121679126944E+00
SCALARS mach double 1
LOOKUP_TABLE default
   0.0000000000000000E+00
   0.0000000000000000E+00
   0.0000000000000000E+00
   0.0000000000000000E+00
   0.0000000000000000E+00
   0.0000000000000000E+00
   0.0000000000000000E+00
   0.0000000000000000E+00
   0.0000000000000000E+00
   0.0000000000000000E+00
   0.0000000000000000E+00
   0.0000000000000000E+00
   0.0000000000000000E+00
   0.0000000000000000E+00
   0.0000000000000000E+00
   0.0000000000000000E+00
   0.0000000000000000E+00
   0.0000000000000000E+00
   0.0000000000000000E+00
   0.0000000000000000E+00
   0.0000000000000000E+00
   0.0000000000000000E+00
   0.0000000000000000E+00
   0.0000000000000000E+00
   0.0000000000000000E+00
   0.0000000000000000E+00
   0.0000000000000000E+00
   0.0000000000000000E+00
   0.0000000000000000E+00
   0.0000000000000000E+00
   0.0000000000000000E+00
   0.0000000000000000E+00
   0.0000000000000000E+00
   0.5088187400067040E+00
   0.5343368135432183E+00
   0.5171329774127943E+00
   0.4929872091218921E+00
   0.4846140589740885E+00
   0.4865078002653622E+00
   0.4886302122199045E+00
   0.4953642972900123E+00
   0.4890341043225325E+00
   0.4698840918935780E+00
   0.4406662140906054E+00
   0.4916378028252891E+00
   0.5094198817308717E+00
   0.4449303266865337E+00
   0.4945033435305898E+00
   0.5218177347299421E+00
   0.4956450144201433E+00
   0.5224853059112010E+00
   0.5036161204358136E+00
   0.5641405514316680E+00
   0.5240682942341245E+00
   0.4989575739308050E+00
   0.5757013803297040E+00
   0.5734720746024915E+00
   0.3790338162039649E+00
   0.4028073048288714E+00
   0.5625478297576797E+00
   0.5563521815794843E+00
   0.4941650728264366E+00
   0.4947381520019419E+00
   0.4923831859104452E+00
   0.4913215466594675E+00
   0.5150133521717483E+00
   0.5371666540012721E+00
   0.5087828140165408E+00
   0.4717124253218397E+00
   0.5119307135615245E+00
   0.5110136491126462E+00
   0.4958261286380984E+00
   0.5102734285273958E+00
   0.4804247049467620E+00
   0.5352172627232504E+00
   0.5339971126168180E+00
   0.5120144765938626E+00
   0.5312216726245753E+00
   0.5296268939946590E+00
   0.5292672975949253E+00
   0.5056207320739438E+00
   0.5355316192498365E+00
   0.5406800199036258E+00
   0.5432040920266152E+00
   0.5391824998781305E+00
   0.4961279335217360E+00
   0.4972487225415202E+00
   0.4960559214586516E+00
   0.4950910999767387E+00
   0.4899619911340233E+00
   0.4899819352605389E+00
   0.4860179315876753E+00
   0.4853493799889377E+00
   0.4927793852865369E+00
   0.4906135630225968E+00
   0.4831674593270494E+00
   0.4871982773396799E+00
   0.4879486316536570E+00
   0.4870558375891889E+00
   0.4879754729832108E+00
   0.4949488188269723E+00
   0.4896524578797616E+00
   0.4899650236443398E+00
   0.4940585445362926E+00
   0.4865471913184630E+00
   0.4889087164388330E+00
   0.4878278443816060E+00
   0.4875915166909227E+00
   0.4439003470725445E+00
   0.4677440487318609E+00
   0.4881892581649565E+00
   0.4880022599090394E+00
   0.4652405643459711E+00
   0.4746172514346142E+00
   0.4869300564811831E+00
   0.4862775980541883E+00
   0.4902933712288369E+00
   0.4787496149377945E+00
   0.4643588795635238E+00
   0.4025498722539285E+00
   0.4895494653336080E+00
   0.4458545206037968E+00
   0.4686367749842684E+00
   0.4831286690534849E+00
   0.4601231263568549E+00
   0.4641934781938836E+00
   0.4737605028227707E+00
   0.5009797473317144E+00
   0.5082524500969896E+00
   0.4343615607487911E+00
   0.4921497863728655E+00
   0.5318578550763535E+00
   0.4907061848959560E+00
   0.5210511290942911E+00
   0.5060124443391707E+00
   0.5691064900327690E+00
   0.5273490304238299E+00
   0.5013856647906728E+00
   0.5852854985681488E+00
   0.5728439772115845E+00
   0.3433021639105869E+00
   0.3806102621492438E+00
   0.5795238737208536E+00
   0.5676552527255190E+00
   0.5706568201080382E+00
   0.5289494557649563E+00
   0.5445341593491781E+00
   0.5732978119138001E+00
   0.5380229134187106E+00
   0.5543147940369884E+00
   0.5870664856647231E+00
   0.4918698661179982E+00
   0.5037868030900877E+00
   0.4954660690703537E+00
   0.5579048410826505E+00
   0.4897941532879627E+00
   0.4947298706458923E+00
   0.5495428173326055E+00
   0.5911006454257856E+00
   0.5842737474580105E+00
   0.5464478637348938E+00
   0.5813648555221431E+00
   0.5103744047644890E+00
   0.5025870741885163E+00
   0.5030193689840334E+00
   0.5674938966762755E+00
   0.5563838296313078E+00
   0.4944263656933227E+00
   0.5525163833323192E+00
   0.5531801235696505E+00
   0.5691405790890109E+00
   0.4915536063741202E+00
   0.4914352437656162E+00
   0.3895291958841399E+00
   0.3712064791045023E+00
   0.5592314790626375E+00
   0.5782742433794141E+00
   0.4228030680870811E+00
   0.5853059903288294E+00
   0.4396702528258970E+00
   0.5448875828681030E+00
   0.5173391212406762E+00
   0.5115532214269413E+00
   0.5045629396096218E+00
   0.5758720657220715E+00
   0.5886492126139961E+00
   0.5429829360403895E+00
   0.5689535906377498E+00
   0.5342402463202842E+00
   0.5330730797188866E+00
   0.5587841129174762E+00
   0.5561578844342951E+00
   0.4325419035830344E+00
   0.5315260716559348E+00
   0.5813995428421384E+00
   0.3318443090212404E+00
   0.4787297687606334E+00
   0.5494865521286282E+00
   0.4853359300087863E+00
   0.3009867772206675E+00
   0.5030317584412912E+00
   0.5014779346865150E+00
   0.5126255808089051E+00
   0.5406404533707899E+00
   0.3454331852770134E+00
   0.3423197027923547E+00
   0.3205209568312193E+00
   0.5064293384077591E+00
   0.5121454083496897E+00
   0.5322669425793126E+00
   0.5911355116983299E+00
   0.4690867293422935E+00
   0.3540086274698278E+00
SCALARS temperature double 1
LOOKUP_TABLE default
   0.9999903003623244E+00
   0.9999898329329611E+00
   0.9999894148910744E+00
   0.9999893455669318E+00
   0.9999896325913092E+00
   0.9999902849804331E+00
   0.9999914932303516E+00
   0.9999928226452273E+00
   0.9999934884845499E+00
   0.9999936909423945E+00
   0.9999935442419010E+00
   0.9999931390534119E+00
   0.9999927241863859E+00
   0.9999921710674029E+00
   0.9999914205523119E+00
   0.9999907626120439E+00
   0.9999903748724314E+00
   0.9999933964915854E+00
   0.9999896034316980E+00
   0.9999925208048330E+00
   0.9999916472132105E+00
   0.9999909215273293E+00
   0.9999905846190386E+00
   0.9999931543716687E+00
   0.9999921426075929E+00
   0.9999926904968587E+00
   0.9999934799338210E+00
   0.9999904928902461E+00
   0.9999906871046429E+00
   0.9999898021824374E+00
   0.9999896231600164E+00
   0.9999923196042687E+00
   0.9999912328824417E+00
   0.9840748974648532E+00
   0.1003652382001161E+01
   0.1004419796106139E+01
   0.1000475550220497E+01
   0.1000667421940326E+01
   0.1001267043327170E+01
   0.1002147920729755E+01
   0.1001786317339689E+01
   0.1003548342743130E+01
   0.1008258805101228E+01
   0.1029830273009444E+01
   0.9887485877574497E+00
   0.1001379061574747E+01
   0.9813809743780023E+00
   0.1001917214831927E+01
   0.1002512709643267E+01
   0.1002974402258206E+01
   0.1008302615875210E+01
   0.1000819618646039E+01
   0.1001173763805771E+01
   0.1001991901078785E+01
   0.1000565377003660E+01
   0.9904060994240551E+00
   0.9903190646821436E+00
   0.9822763518231682E+00
   0.9886806845837323E+00
   0.9943910108345951E+00
   0.9997731926327560E+00
   0.1000503006519475E+01
   0.1000621223261708E+01
   0.1000832039755427E+01
   0.1000458227026685E+01
   0.1004873463571891E+01
   0.1002926294044636E+01
   0.9851406077958242E+00
   0.9764665146709752E+00
   0.1003895390725303E+01
   0.1003049055443743E+01
   0.9735524884294482E+00
   0.9716293854003754E+00
   0.9590917838480992E+00
   0.9912242001557469E+00
   0.1001320748344952E+01
   0.1003841247598362E+01
   0.1007660613255127E+01
   0.1005993871395853E+01
   0.1006633047020826E+01
   0.1003140759133534E+01
   0.9944044907465522E+00
   0.1003540183971863E+01
   0.9972317462940020E+00
   0.1005299559532131E+01
   0.1001683678255810E+01
   0.1001187076955633E+01
   0.1001344229544117E+01
   0.1001763922669523E+01
   0.1001925800620395E+01
   0.1001100559891035E+01
   0.1000589440819040E+01
   0.1000254869267156E+01
   0.1001799430147214E+01
   0.1001779217578974E+01
   0.1000010912359231E+01
   0.1000223661048229E+01
   0.1000233636268373E+01
   0.1000722763993352E+01
   0.1000989989586766E+01
   0.1001327009033007E+01
   0.1001747008629371E+01
   0.1001637659344354E+01
   0.1001640697209111E+01
   0.1001123578198750E+01
   0.1001523666021654E+01
   0.1001328365830833E+01
   0.1000963583348741E+01
   0.1040247629094212E+01
   0.1009763152984163E+01
   0.1004055672471403E+01
   0.1002445405761050E+01
   0.1032099271479831E+01
   0.1042414795689433E+01
   0.1003034284989217E+01
   0.1002347174508832E+01
   0.1002603152061912E+01
   0.1003016649231885E+01
   0.1006205089265784E+01
   0.1038825875986795E+01
   0.1027055289468295E+01
   0.1016570694678556E+01
   0.1025165869527195E+01
   0.1006041525626402E+01
   0.1011877550931924E+01
   0.1012535413728755E+01
   0.1004593829199214E+01
   0.9842163519293510E+00
   0.1001227391331849E+01
   0.9848087939305479E+00
   0.1002548876167318E+01
   0.1003508436537457E+01
   0.1003278447665662E+01
   0.1010904764039334E+01
   0.1000593074239567E+01
   0.9998599270627881E+00
   0.1000570088317653E+01
   0.1000467938895106E+01
   0.9898393497757009E+00
   0.9900672113473964E+00
   0.9855814892067419E+00
   0.9895811373907970E+00
   0.9917290305036536E+00
   0.9978889671613728E+00
   0.1000412228837397E+01
   0.1002941032194581E+01
   0.1005013589247981E+01
   0.1002304727515904E+01
   0.1013241835353939E+01
   0.1006625184616993E+01
   0.9925108945689253E+00
   0.1003427354907743E+01
   0.1001784078236605E+01
   0.1003324224074713E+01
   0.1001333913360307E+01
   0.9637951810282332E+00
   0.1001232030980237E+01
   0.1000914126398236E+01
   0.9928841236917854E+00
   0.9989572586418937E+00
   0.1001509991630953E+01
   0.9978242212153307E+00
   0.1000985972750361E+01
   0.1001571054085786E+01
   0.1001192070052348E+01
   0.1000807970618408E+01
   0.1000711690134211E+01
   0.1001330159724499E+01
   0.1010428907875842E+01
   0.1004015660226594E+01
   0.9935776588101483E+00
   0.1001861361934026E+01
   0.1006720968856121E+01
   0.9866307699126010E+00
   0.9880857391133321E+00
   0.9963769458927194E+00
   0.9943325303621836E+00
   0.9874012145463340E+00
   0.9926517220815433E+00
   0.9667605343109611E+00
   0.1017682774198892E+01
   0.9829843730467130E+00
   0.1001480626710187E+01
   0.1001157149121592E+01
   0.9989763629128156E+00
   0.9976232010835736E+00
   0.9864691871329053E+00
   0.9980183169084378E+00
   0.1003609105067950E+01
   0.1002893447339787E+01
   0.9988420754233481E+00
   0.9840720120366744E+00
   0.9789314545758110E+00
   0.9847751315379052E+00
   0.9942702174724251E+00
   0.9999990705559081E+00
   0.9900334661250666E+00
   0.9861262600704769E+00
   0.9832549219483123E+00
   0.9981995718933863E+00
   0.1001456649039637E+01
   0.1001060902282942E+01
   0.1001129343044225E+01
   0.1002865816190005E+01
   0.9891993069972027E+00
   0.9869597197602211E+00
   0.9918958732868817E+00
   0.1000763918527697E+01
   0.1000926520288972E+01
   0.1002437541973143E+01
   0.9922505722308962E+00
   0.9866816392931677E+00
   0.9943456255238242E+00
SCALARS lambda1 double 1
LOOKUP_TABLE default
   0.1109176362768169E+01
   0.3698167667061252E+01
   0.4798972280635240E+01
   0.8935142904275564E+01
   0.7443331470949104E+01
   0.7956216321427206E+01
   0.8370237971198385E+01
   0.9221695355677799E+01
   0.7479855979527894E+01
   0.7919260871380535E+01
   0.7011248933006257E+01
   0.9498086206826619E+01
   0.6254125061399394E+01
   0.4458296846364468E+01
   0.4966982652840541E+01
   0.1555455581436860E+01
   0.5344038853405068E+01
   0.8835615334416778E+01
   0.7812532988265495E+01
   0.6527507954763449E+01
   0.6072152147076045E+01
   0.6714833057239422E+01
   0.5075584515758477E+01
   0.5283480110287028E+01
   0.9063674200042088E+01
   0.6421249093693579E+01
   0.5723080698437356E+01
   0.6934100730841467E+01
   0.8579134330363035E+01
   0.5550613218987848E+01
   0.5134369259539471E+01
   0.6251930357978198E+01
   0.5809693454741016E+01
   0.1130274924944413E+02
   0.8156246524124056E+01
   0.6011923886851768E+01
   0.5842135167855622E+01
   0.2669711335779320E+02
   0.5048120002831656E+02
   0.5498719193963900E+02
   0.7521721413810211E+02
   0.1124571310016793E+02
   0.1894264106811445E+01
   0.5729921879344276E+01
   0.8252105353247696E+01
   0.4700058669114825E+01
   0.9102443787040796E+01
   0.1494321004331193E+02
   0.4324411932371288E+01
   0.2673459060989394E+01
   0.6692775447280271E+01
   0.5882470571829532E+01
   0.7389018126466586E+01
   0.5120418541581873E+01
   0.7553886543342403E+01
   0.9634951222771260E+01
   0.9781044942937285E+01
   0.7747393435011720E+01
   0.8647071286580136E+01
   0.8936213837774037E+01
   0.6935022507533746E+01
   0.5781441342108696E+01
   0.5468545483381753E+01
   0.6684413062694692E+01
   0.7061135122099855E+01
   0.6024286474953863E+01
   0.8730927883270601E+01
   0.1157161569140395E+02
   0.1143401325853539E+02
   0.4909011703236271E+01
   0.4873602163118750E+01
   0.1022814219162060E+02
   0.1005914061453156E+02
   0.1034170604928780E+02
   0.1158008702963940E+02
   0.1002748090070161E+02
   0.4348958326685967E+01
   0.7489222644866588E+01
   0.7409731844908920E+01
   0.6276741045358373E+01
   0.3869355481441905E+01
   0.1011456989332655E+02
   0.7501629374012489E+01
   0.1090574495663836E+02
   0.9432613464988302E+01
   0.7734571522900585E+02
   0.8520793143101633E+02
   0.7592787205095249E+02
   0.7123288655896684E+02
   0.6365985360835351E+02
   0.5494942463153775E+02
   0.2804547356881339E+02
   0.1845633765981601E+02
   0.6356172359264050E+02
   0.5575920954438776E+02
   0.1820497114006341E+02
   0.2295778487080877E+02
   0.2280442101273276E+02
   0.3911289548827303E+02
   0.4266791891396226E+02
   0.7991940657504348E+02
   0.7108789603471719E+02
   0.6665847718145507E+02
   0.6842974152563487E+02
   0.4136234911758695E+02
   0.5294724117494363E+02
   0.5693503749524165E+02
   0.4471639197485365E+02
   0.9456038624459682E+01
   0.2720038793296038E+01
   0.1045186979899919E+02
   0.1456847815941569E+02
   0.3196951225501628E+01
   0.7119759900051623E+01
   0.1086064771014212E+02
   0.1255873533101030E+02
   0.2210606447218563E+02
   0.3195381256305372E+01
   0.2119937153688465E+01
  -0.9514781273015431E+00
   0.8831272806721039E+01
   0.7342809714176460E+01