title="tecplot geometry and solution file"
variables = x y z rho u v w p mach temperature
zone t="boundary 1 bc-1", solutiontime= 0.4000000E+02, strandid=1001, i=42, j=30, f=feblock
  0.000000000000E+00  0.000000000000E+00  0.000000000000E+00  0.000000000000E+00  0.000000000000E+00  0.000000000000E+00  0.000000000000E+00
  0.000000000000E+00  0.000000000000E+00  0.000000000000E+00  0.000000000000E+00  0.000000000000E+00  0.000000000000E+00  0.000000000000E+00
  0.000000000000E+00  0.000000000000E+00  0.000000000000E+00  0.000000000000E+00  0.000000000000E+00  0.000000000000E+00  0.000000000000E+00
  0.000000000000E+00  0.000000000000E+00  0.000000000000E+00  0.000000000000E+00  0.000000000000E+00  0.000000000000E+00  0.000000000000E+00
  0.000000000000E+00  0.000000000000E+00  0.000000000000E+00  0.000000000000E+00  0.000000000000E+00  0.000000000000E+00  0.000000000000E+00
  0.000000000000E+00  0.000000000000E+00  0.000000000000E+00  0.000000000000E+00  0.000000000000E+00  0.000000000000E+00  0.000000000000E+00
  0.000000000000E+00  0.000000000000E+00 -0.833333333333E+00  0.000000000000E+00  0.000000000000E+00 -0.833333333333E+00 -0.166666666667E+01
  0.000000000000E+00 -0.833333333333E+00 -0.833333333333E+00  0.000000000000E+00 -0.166666666667E+01 -0.250000000000E+01 -0.833333333333E+00
 -0.166666666667E+01 -0.166666666667E+01 -0.833333333333E+00 -0.250000000000E+01 -0.333333333333E+01 -0.166666666667E+01 -0.250000000000E+01
 -0.250000000000E+01 -0.166666666667E+01 -0.333333333333E+01 -0.416666666667E+01 -0.250000000000E+01 -0.333333333333E+01 -0.333333333333E+01
 -0.250000000000E+01 -0.416666666667E+01 -0.500000000000E+01 -0.333333333333E+01 -0.416666666667E+01 -0.416666666667E+01 -0.333333333333E+01
 -0.500000000000E+01 -0.416666666667E+01 -0.500000000000E+01 -0.500000000000E+01 -0.416666666667E+01 -0.500000000000E+01 -0.500000000000E+01
  0.250000000000E+01  0.150000000000E+01  0.250000000000E+01  0.500000000000E+00 -0.150000000000E+01  0.150000000000E+01  0.250000000000E+01
 -0.500000000000E+00  0.500000000000E+00 -0.150000000000E+01 -0.250000000000E+01  0.150000000000E+01  0.250000000000E+01 -0.500000000000E+00
  0.500000000000E+00 -0.150000000000E+01 -0.250000000000E+01  0.150000000000E+01  0.250000000000E+01 -0.500000000000E+00  0.500000000000E+00
 -0.150000000000E+01 -0.250000000000E+01  0.150000000000E+01  0.250000000000E+01 -0.500000000000E+00  0.500000000000E+00 -0.150000000000E+01
 -0.250000000000E+01  0.150000000000E+01  0.250000000000E+01 -0.500000000000E+00  0.500000000000E+00 -0.150000000000E+01 -0.250000000000E+01
  0.150000000000E+01 -0.500000000000E+00  0.500000000000E+00 -0.150000000000E+01 -0.250000000000E+01 -0.500000000000E+00 -0.250000000000E+01
  0.100126744695E+01  0.100547600299E+01  0.100148429257E+01  0.999911928280E+00  0.981347954549E+00  0.100471835019E+01  0.100245456350E+01
  0.104770936619E+01  0.100016729209E+01  0.998705688522E+00  0.153630067139E+01  0.100685378926E+01  0.100202976912E+01  0.103039562580E+01
  0.100364310747E+01  0.100614066655E+01  0.150031741011E+01  0.100585155329E+01  0.100245453469E+01  0.104087795586E+01  0.100254149490E+01
  0.100702872175E+01  0.151180734462E+01  0.100685362629E+01  0.100148431728E+01  0.103663704915E+01  0.100364303388E+01  0.100614145511E+01
  0.150888159552E+01  0.100471833334E+01  0.100126744055E+01  0.104087711117E+01  0.100016750846E+01  0.998707510231E+00  0.151180191352E+01
  0.100547572910E+01  0.103039503260E+01  0.999911693331E+00  0.981350039237E+00  0.150030719584E+01  0.104770531844E+01  0.153627550430E+01
  0.498176743737E+00  0.496294873274E+00  0.498055979427E+00  0.497061217147E+00  0.467865341236E+00  0.496565415644E+00  0.497007375345E+00
  0.470101990667E+00  0.499028969495E+00  0.497756052468E+00  0.000000000000E+00  0.494570683988E+00  0.497449966606E+00  0.478135290493E+00
  0.495234959807E+00  0.480611568114E+00  0.000000000000E+00  0.495421428708E+00  0.497007416666E+00  0.467892118809E+00  0.496892441667E+00
  0.484505159725E+00  0.000000000000E+00  0.494570782015E+00  0.498056007815E+00  0.470588036786E+00  0.495235115789E+00  0.480612026564E+00
  0.000000000000E+00  0.496565441447E+00  0.498176900331E+00  0.467892502564E+00  0.499028600611E+00  0.497753352350E+00  0.000000000000E+00
  0.496295119957E+00  0.478135806562E+00  0.497061063546E+00  0.467867605041E+00  0.000000000000E+00  0.470105256468E+00  0.000000000000E+00
  0.799381393893E-03  0.766000131247E-03  0.451494325441E-03  0.357536286444E-02  0.362480160670E-01 -0.225047229346E-03  0.868383100081E-04
 -0.103032213297E-01  0.344915600080E-02  0.159902983729E-01  0.000000000000E+00 -0.247981965219E-03  0.261895156357E-07 -0.894422476454E-02
  0.152440263704E-02  0.314661460150E-02  0.000000000000E+00 -0.682315368559E-07 -0.867624974730E-04 -0.832806338400E-03  0.252316478358E-07
  0.438881451878E-06  0.000000000000E+00  0.247951927936E-03 -0.451441628013E-03 -0.316899306868E-06 -0.152422999480E-02 -0.314553964854E-02
  0.000000000000E+00  0.224925442334E-03 -0.799320715708E-03  0.832300637937E-03 -0.344899936358E-02 -0.159892287838E-01  0.000000000000E+00
 -0.765979018771E-03  0.894298962719E-02 -0.357525029144E-02 -0.362468983227E-01  0.000000000000E+00  0.103019878688E-01  0.000000000000E+00
  0.189202248480E-02 -0.128704220531E-02  0.173600318618E-02  0.891619835466E-02  0.757114977592E-01  0.124755803565E-03  0.245547284246E-02
 -0.138476231959E-01  0.568606591217E-02  0.355391309827E-01  0.000000000000E+00 -0.250638290205E-03  0.210848944845E-02 -0.695485962613E-02
  0.598239192862E-02  0.442360932340E-01  0.000000000000E+00  0.876926305409E-04  0.245542260689E-02 -0.591122394212E-02  0.538313137533E-02
  0.414110063081E-01  0.000000000000E+00 -0.250571247779E-03  0.173601070798E-02 -0.503625170085E-02  0.598221865536E-02  0.442357920398E-01
  0.000000000000E+00  0.124826394460E-03  0.189200656944E-02 -0.591127626034E-02  0.568562976664E-02  0.355389938863E-01  0.000000000000E+00
 -0.128676431117E-02 -0.695405091076E-02  0.891500378193E-02  0.757091213008E-01  0.000000000000E+00 -0.138460756090E-01  0.000000000000E+00
  0.715723463656E+00  0.719447731263E+00  0.715884296096E+00  0.716734697584E+00  0.727243475582E+00  0.718690182099E+00  0.716872465504E+00
  0.751283805012E+00  0.716401491612E+00  0.735404396323E+00  0.109733250541E+01  0.720829822592E+00  0.716440948940E+00  0.736659819202E+00
  0.720049033218E+00  0.745808309793E+00  0.107163191968E+01  0.719819068636E+00  0.716872431909E+00  0.746288627077E+00  0.718903378167E+00
  0.746128485662E+00  0.107983984850E+01  0.720829665613E+00  0.715884313490E+00  0.742237196694E+00  0.720048908071E+00  0.745808500472E+00
  0.107775105594E+01  0.718690172819E+00  0.715723432057E+00  0.746287978196E+00  0.716401653843E+00  0.735405690399E+00  0.107983750127E+01
  0.719447463946E+00  0.736659435519E+00  0.716734294256E+00  0.727243432625E+00  0.107162753560E+01  0.751280480895E+00  0.109731880277E+01
  0.497995643835E+00  0.495865599236E+00  0.497871894358E+00  0.496282100189E+00  0.466668089154E+00  0.496208067043E+00  0.496724431304E+00
  0.469503679077E+00  0.498377452157E+00  0.491739599454E+00  0.000000000000E+00  0.494004941910E+00  0.497209480819E+00  0.478054257675E+00
  0.494185087929E+00  0.473791220354E+00  0.000000000000E+00  0.494955378776E+00  0.496724476841E+00  0.467050186850E+00  0.495952145636E+00
  0.477451271689E+00  0.000000000000E+00  0.494005053587E+00  0.497871922809E+00  0.470049656378E+00  0.494185265765E+00  0.473791759606E+00
  0.000000000000E+00  0.496208091834E+00  0.497995809613E+00  0.467050583148E+00  0.498377075255E+00  0.491736920708E+00  0.000000000000E+00
  0.495865869538E+00  0.478054725413E+00  0.496282006023E+00  0.466670330915E+00  0.000000000000E+00  0.469506995638E+00  0.000000000000E+00
  0.100074445860E+01  0.100174128550E+01  0.100075260488E+01  0.100351695808E+01  0.103749221782E+01  0.100144110511E+01  0.100116403102E+01
  0.100390180804E+01  0.100279432870E+01  0.103090046115E+01  0.999977111372E+00  0.100229225176E+01  0.100098555894E+01  0.100090074245E+01
  0.100440947484E+01  0.103775910111E+01  0.999978189575E+00  0.100188411779E+01  0.100116401287E+01  0.100377193313E+01  0.100391328893E+01
  0.103728906372E+01  0.999979126495E+00  0.100229219572E+01  0.100075260450E+01  0.100240684647E+01  0.100440937392E+01  0.103775855309E+01
  0.999980040045E+00  0.100144110897E+01  0.100074442082E+01  0.100377187496E+01  0.100279433885E+01  0.103090039477E+01  0.999980545247E+00
  0.100174118616E+01  0.100090079736E+01  0.100351662917E+01  0.103748995258E+01  0.999980906579E+00  0.100390124469E+01  0.999981005733E+00
         3         6         2         1
         6         9         4         2
         9        14         8         4
        14        10         5         8
        10        17        11         5
         7        12         6         3
        12        15         9         6
        15        20        14         9
        20        16        10        14
        16        23        17        10
        13        18        12         7
        18        21        15        12
        21        26        20        15
        26        22        16        20
        22        29        23        16
        19        24        18        13
        24        27        21        18
        27        32        26        21
        32        28        22        26
        28        35        29        22
        25        30        24        19
        30        33        27        24
        33        37        32        27
        37        34        28        32
        34        40        35        28
        31        36        30        25
        36        38        33        30
        38        41        37        33
        41        39        34        37
        39        42        40        34
zone t="boundary 2 bc-2", solutiontime= 0.4000000E+02, strandid=1002, i=51, j=80, f=feblock
  0.500000000000E+01  0.500000000000E+01  0.400000000000E+01  0.425172245441E+01  0.500000000000E+01  0.427741389634E+01  0.300000000000E+01
  0.341887665662E+01  0.368116975164E+01  0.500000000000E+01  0.430894944607E+01  0.352044655687E+01  0.200000000000E+01  0.259168638257E+01
  0.301798341022E+01  0.500000000000E+01  0.435643616790E+01  0.375117520592E+01  0.271663237208E+01  0.288980181581E+01  0.100000000000E+01
  0.191939879870E+01  0.130679496696E+01  0.219385942988E+01  0.500000000000E+01  0.441735041915E+01  0.373031592783E+01  0.208456665067E+01
  0.230848460393E+01  0.190054259015E+01  0.298584217914E+01  0.000000000000E+00  0.613733212775E+00  0.151350918120E+01  0.794128609067E+00
  0.144135983281E+01  0.400000000000E+01  0.132476136006E+01  0.200000000000E+01  0.164582171489E+01  0.102008138039E+01  0.300000000000E+01
  0.000000000000E+00  0.000000000000E+00  0.701034609231E+00  0.609175469936E+00  0.100000000000E+01  0.505577837730E+00  0.000000000000E+00
  0.000000000000E+00  0.000000000000E+00
 -0.500000000000E+01 -0.500000000000E+01 -0.500000000000E+01 -0.500000000000E+01 -0.500000000000E+01 -0.500000000000E+01 -0.500000000000E+01
 -0.500000000000E+01 -0.500000000000E+01 -0.500000000000E+01 -0.500000000000E+01 -0.500000000000E+01 -0.500000000000E+01 -0.500000000000E+01
 -0.500000000000E+01 -0.500000000000E+01 -0.500000000000E+01 -0.500000000000E+01 -0.500000000000E+01 -0.500000000000E+01 -0.500000000000E+01
 -0.500000000000E+01 -0.500000000000E+01 -0.500000000000E+01 -0.500000000000E+01 -0.500000000000E+01 -0.500000000000E+01 -0.500000000000E+01
 -0.500000000000E+01 -0.500000000000E+01 -0.500000000000E+01 -0.500000000000E+01 -0.500000000000E+01 -0.500000000000E+01 -0.500000000000E+01
 -0.500000000000E+01 -0.500000000000E+01 -0.500000000000E+01 -0.500000000000E+01 -0.500000000000E+01 -0.500000000000E+01 -0.500000000000E+01
 -0.500000000000E+01 -0.500000000000E+01 -0.500000000000E+01 -0.500000000000E+01 -0.500000000000E+01 -0.500000000000E+01 -0.500000000000E+01
 -0.500000000000E+01 -0.500000000000E+01
  0.250000000000E+01  0.150000000000E+01  0.250000000000E+01  0.168388151981E+01  0.500000000000E+00  0.784980628699E+00  0.250000000000E+01
  0.172616846193E+01  0.104016062853E+01 -0.500000000000E+00 -0.103062804534E+00  0.179404976675E+00  0.250000000000E+01  0.166729536217E+01
  0.923171218453E+00 -0.150000000000E+01 -0.102255113015E+01 -0.669125930414E+00  0.135977239814E+00 -0.856266143819E+00  0.250000000000E+01
  0.158034275708E+01  0.175813852804E+01  0.774089735567E+00 -0.250000000000E+01 -0.179804978092E+01 -0.146769777443E+01 -0.223755606368E+00
 -0.164420331359E+01 -0.108875578595E+01 -0.190240885061E+01  0.250000000000E+01  0.185787993997E+01  0.110883669208E+01  0.100177177909E+01
  0.349093656766E+00 -0.250000000000E+01 -0.526785284186E+00 -0.250000000000E+01 -0.183798308008E+01 -0.145695630084E+01 -0.250000000000E+01
  0.150000000000E+01  0.500000000000E+00  0.396172271494E-01 -0.788824871575E+00 -0.250000000000E+01 -0.198405114581E+01 -0.150000000000E+01
 -0.500000000000E+00 -0.250000000000E+01
  0.100395818320E+01  0.100203244775E+01  0.100525700450E+01  0.100547541116E+01  0.101226403485E+01  0.100373727940E+01  0.100645458403E+01
  0.100582222189E+01  0.100717934376E+01  0.102900222597E+01  0.101466209003E+01  0.100271726682E+01  0.100587459794E+01  0.100643756207E+01
  0.100541744246E+01  0.993806904628E+00  0.100952989904E+01  0.102005822462E+01  0.998544390012E+00  0.102751772533E+01  0.100421387836E+01
  0.100540439475E+01  0.100606979956E+01  0.101146611165E+01  0.811262384344E+00  0.101093384875E+01  0.994431120614E+00  0.100337183776E+01
  0.102791341023E+01  0.103165708105E+01  0.101169136657E+01  0.100126744055E+01  0.100448471407E+01  0.100591534058E+01  0.100543666431E+01
  0.101807106346E+01  0.979689819578E+00  0.100304589113E+01  0.985172057383E+00  0.986404074922E+00  0.110440650164E+01  0.997567575980E+00
  0.100547572910E+01  0.999911693331E+00  0.102106743869E+01  0.987751118612E+00  0.906982880237E+00  0.120885944846E+01  0.981350039237E+00
  0.104770531844E+01  0.153627550430E+01
  0.494651439634E+00  0.498824145019E+00  0.490940572491E+00  0.487417027009E+00  0.514934479578E+00  0.503355571078E+00  0.491028540896E+00
  0.486621339620E+00  0.491398235288E+00  0.514531615497E+00  0.548110037566E+00  0.530382079688E+00  0.492250854152E+00  0.487160687104E+00
  0.490878219903E+00  0.466925309909E+00  0.536772411483E+00  0.562097963909E+00  0.516628744157E+00  0.555732715431E+00  0.493743568485E+00
  0.486905426881E+00  0.491261634492E+00  0.486600878689E+00  0.000000000000E+00  0.394371657480E+00  0.456755272981E+00  0.524009047247E+00
  0.413285688030E+00  0.563957797878E+00  0.312974602729E+00  0.498176900331E+00  0.494895497979E+00  0.484179987316E+00  0.488387761173E+00
  0.480287248623E+00  0.000000000000E+00  0.504592724130E+00  0.000000000000E+00  0.379736255978E+00  0.508893008796E+00  0.000000000000E+00
  0.496295119957E+00  0.497061063546E+00  0.480308576459E+00  0.467780866022E+00  0.000000000000E+00  0.416483791261E+00  0.467867605041E+00
  0.470105256468E+00  0.000000000000E+00
  0.124047562099E-02 -0.194248963764E-02  0.499750844278E-03  0.128593528198E-02 -0.444423327597E-02 -0.340923197138E-02 -0.158614690728E-03
  0.474817033117E-03  0.582604887142E-03 -0.142595494561E-01 -0.624666733282E-02 -0.976634041236E-03 -0.123974624013E-02 -0.583259061808E-03
  0.173133594783E-02 -0.513541181913E-02 -0.149330091978E-01 -0.223448936869E-01 -0.455140225849E-02 -0.280789955845E-01 -0.134732112483E-02
 -0.382250074868E-02 -0.175247352666E-02  0.391761495156E-02  0.000000000000E+00 -0.907707437388E-02 -0.696113166953E-03 -0.826041460683E-02
 -0.267268254389E-01 -0.266046787202E-01 -0.129734243124E-01 -0.799320715708E-03 -0.105352352291E-02 -0.320250441994E-02 -0.448458945737E-02
  0.207026950136E-02  0.000000000000E+00 -0.227034538329E-01  0.000000000000E+00  0.613953028863E-02 -0.230996011343E-01  0.000000000000E+00
 -0.765979018771E-03 -0.357525029144E-02  0.366872094389E-02 -0.449648483867E-01  0.000000000000E+00 -0.148207802714E+00 -0.362468983227E-01
  0.103019878688E-01  0.000000000000E+00
  0.392563312573E-02  0.252798346996E-01  0.526954670322E-02  0.138102924320E-01  0.498630060228E-01  0.353433158268E-01  0.541920768654E-02
  0.122383172418E-01  0.218355484236E-01  0.133855744461E-01  0.483535642055E-01  0.491128042821E-01  0.514734489740E-02  0.115204864105E-01
  0.208368349279E-01 -0.690423932863E-01  0.122525560589E-01  0.417037504830E-01  0.484525277051E-01  0.584774225781E-01  0.395601143091E-02
  0.970407727202E-02  0.620081160513E-02  0.204658778810E-01  0.000000000000E+00 -0.481426360571E-01  0.209436431639E-01  0.648226182307E-01
  0.796624970715E-02  0.836131320535E-01  0.355385219190E-02  0.189200656944E-02  0.321587179257E-02  0.110892607376E-01  0.660381924287E-02
  0.152945991522E-01  0.000000000000E+00  0.751676756460E-01  0.000000000000E+00 -0.698948776879E-02  0.124497521851E+00  0.000000000000E+00
 -0.128676431117E-02  0.891500378193E-02  0.543056096298E-03  0.315303331282E-01  0.000000000000E+00  0.180750395731E+00  0.757091213008E-01
 -0.138460756090E-01  0.000000000000E+00
  0.717867074764E+00  0.717644447369E+00  0.719563832376E+00  0.719708417787E+00  0.726296687848E+00  0.720799760974E+00  0.720536626084E+00
  0.720324416757E+00  0.722316848913E+00  0.733241824853E+00  0.723331268203E+00  0.717915048563E+00  0.719971686710E+00  0.720763760259E+00
  0.720801256280E+00  0.694710765535E+00  0.708718604251E+00  0.719742333371E+00  0.717679847544E+00  0.724242516082E+00  0.718353569182E+00
  0.720812340124E+00  0.720340702477E+00  0.724450046379E+00  0.579462829145E+00  0.707208333310E+00  0.696790326484E+00  0.722057847256E+00
  0.721348571472E+00  0.721556396483E+00  0.714836079014E+00  0.715723432057E+00  0.718522548069E+00  0.721099636721E+00  0.720926508931E+00
  0.729957788594E+00  0.699766030315E+00  0.726859894928E+00  0.703681569051E+00  0.689483104072E+00  0.776997359307E+00  0.712535531469E+00
  0.719447463946E+00  0.716734294256E+00  0.729421597387E+00  0.727561528417E+00  0.647832909000E+00  0.806976191442E+00  0.727243432625E+00
  0.751280480895E+00  0.109731880277E+01
  0.494408690281E+00  0.498804032458E+00  0.490449209322E+00  0.487101962709E+00  0.516202973783E+00  0.503258865117E+00  0.490499138366E+00
  0.486139809183E+00  0.490894029511E+00  0.515520694913E+00  0.550816872846E+00  0.532025289695E+00  0.491769728357E+00  0.486661374216E+00
  0.490420701355E+00  0.477149769828E+00  0.541788605864E+00  0.567551125638E+00  0.517310389257E+00  0.563239795433E+00  0.493397531987E+00
  0.486115527542E+00  0.490717183287E+00  0.486382734001E+00  0.000000000000E+00  0.401563990829E+00  0.461649560598E+00  0.526102897098E+00
  0.417905985517E+00  0.576778386025E+00  0.314968131979E+00  0.497995809613E+00  0.494551021837E+00  0.483447439985E+00  0.487517959984E+00
  0.479624474834E+00  0.000000000000E+00  0.506999705901E+00  0.000000000000E+00  0.383984727293E+00  0.528398084913E+00  0.000000000000E+00
  0.495865869538E+00  0.496282006023E+00  0.480294014395E+00  0.463809732294E+00  0.000000000000E+00  0.494027830398E+00  0.466670330915E+00
  0.469506995638E+00  0.000000000000E+00
  0.100105155920E+01  0.100266436338E+01  0.100212120962E+01  0.100210484883E+01  0.100449618675E+01  0.100536234538E+01  0.100228196336E+01
  0.100261672641E+01  0.100403527410E+01  0.997605766916E+00  0.998030561541E+00  0.100235739550E+01  0.100207358200E+01  0.100261486891E+01
  0.100368435655E+01  0.978655981579E+00  0.982839683002E+00  0.987825246054E+00  0.100621644527E+01  0.986785432032E+00  0.100147490343E+01
  0.100371281590E+01  0.100239266094E+01  0.100273262074E+01  0.999982220868E+00  0.979383238437E+00  0.980969357109E+00  0.100748391386E+01
  0.982464077240E+00  0.979180944549E+00  0.989205348284E+00  0.100074442082E+01  0.100144039347E+01  0.100360283881E+01  0.100383957372E+01
  0.100380114975E+01  0.999982262613E+00  0.101451375445E+01  0.999981870465E+00  0.978581060482E+00  0.984960068066E+00  0.999982124596E+00
  0.100174118616E+01  0.100351662917E+01  0.100012026400E+01  0.103121739939E+01  0.999981468627E+00  0.934572393394E+00  0.103748995258E+01
  0.100390124469E+01  0.999981005733E+00
        28        24        19        19
        19        24        15        15
        19        15        12        12
        22        13        14        14
        13        22        23        23
        31        27        37        37
        31        29        20        20
        35        34        36        36
        34        23        22        22
         8         9        15        15
         9         6        12        12
        20        18        27        27
        27        18        17        17
        38        45        36        36
        38        30        41        41
        28        19        20        20
        30        40        41        41
        40        39        47        47
        11        10        17        17
        10        11         5         5
         8        14         7         7
        14        24        22        22
        45        46        50        50
        46        41        49        49
        41        46        38        38
        29        39        40        40
        36        24        28        28
        36        45        35        35
        20        29        30        30
        11        18        12        12
        15        24        14        14
        12        20        19        19
        12        18        20        20
        31        20        27        27
         9        12        15        15
         9         4         6         6
        24        36        34        34
        35        23        34        34
        38        36        28        28
        41        47        48        48
        29        40        30        30
        49        50        46        46
        46        45        38        38
        25        26        16        16
        26        37        27        27
        32        33        43        43
        33        21        23        23
        51        48        47        47
         1         4         3         3
         4         2         6         6
         6         5        11        11
        35        43        33        33
        43        35        44        44
         8         3         4         4
         3         8         7         7
        31        37        42        42
        17        16        26        26
        16        17        10        10
        34        22        24        24
        47        41        40        40
        15        14         8         8
        20        30        28        28
        11        17        18        18
        39        31        42        42
         4         9         8         8
        33        23        35        35
        28        30        38        38
        17        26        27        27
        41        48        49        49
        35        45        44        44
        39        29        31        31
        45        50        44        44
        21        13        23        23
        13         7        14        14
         2         5         6         6
         6        11        12        12
        25        37        26        26
        51        49        48        48
        32        21        33        33
         1         2         4         4
zone t="boundary 3 bc-3", solutiontime= 0.4000000E+02, strandid=1003, i=51, j=80, f=feblock
  0.500000000000E+01  0.500000000000E+01  0.400000000000E+01  0.425172245441E+01  0.500000000000E+01  0.427741389634E+01  0.300000000000E+01
  0.341887665662E+01  0.368116975164E+01  0.500000000000E+01  0.430894944607E+01  0.352044655687E+01  0.200000000000E+01  0.259168638257E+01
  0.301798341022E+01  0.500000000000E+01  0.435643616790E+01  0.375117520592E+01  0.271663237208E+01  0.288980181581E+01  0.100000000000E+01
  0.191939879870E+01  0.130679496696E+01  0.219385942988E+01  0.500000000000E+01  0.441735041915E+01  0.373031592783E+01  0.208456665067E+01
  0.230848460393E+01  0.190054259015E+01  0.298584217914E+01  0.000000000000E+00  0.613733212775E+00  0.151350918120E+01  0.794128609067E+00
  0.144135983281E+01  0.400000000000E+01  0.132476136006E+01  0.200000000000E+01  0.164582171489E+01  0.102008138039E+01  0.300000000000E+01
  0.000000000000E+00  0.000000000000E+00  0.701034609231E+00  0.609175469936E+00  0.100000000000E+01  0.505577837730E+00  0.000000000000E+00
  0.000000000000E+00  0.000000000000E+00
  0.000000000000E+00  0.000000000000E+00  0.000000000000E+00  0.000000000000E+00  0.000000000000E+00  0.000000000000E+00  0.000000000000E+00
  0.000000000000E+00  0.000000000000E+00  0.000000000000E+00  0.000000000000E+00  0.000000000000E+00  0.000000000000E+00  0.000000000000E+00
  0.000000000000E+00  0.000000000000E+00  0.000000000000E+00  0.000000000000E+00  0.000000000000E+00  0.000000000000E+00  0.000000000000E+00
  0.000000000000E+00  0.000000000000E+00  0.000000000000E+00  0.000000000000E+00  0.000000000000E+00  0.000000000000E+00  0.000000000000E+00
  0.000000000000E+00  0.000000000000E+00  0.000000000000E+00  0.000000000000E+00  0.000000000000E+00  0.000000000000E+00  0.000000000000E+00
  0.000000000000E+00  0.000000000000E+00  0.000000000000E+00  0.000000000000E+00  0.000000000000E+00  0.000000000000E+00  0.000000000000E+00
  0.000000000000E+00  0.000000000000E+00  0.000000000000E+00  0.000000000000E+00  0.000000000000E+00  0.000000000000E+00  0.000000000000E+00
  0.000000000000E+00  0.000000000000E+00
  0.250000000000E+01  0.150000000000E+01  0.250000000000E+01  0.168388151981E+01  0.500000000000E+00  0.784980628699E+00  0.250000000000E+01
  0.172616846193E+01  0.104016062853E+01 -0.500000000000E+00 -0.103062804534E+00  0.179404976675E+00  0.250000000000E+01  0.166729536217E+01
  0.923171218453E+00 -0.150000000000E+01 -0.102255113015E+01 -0.669125930414E+00  0.135977239814E+00 -0.856266143819E+00  0.250000000000E+01
  0.158034275708E+01  0.175813852804E+01  0.774089735567E+00 -0.250000000000E+01 -0.179804978092E+01 -0.146769777443E+01 -0.223755606368E+00
 -0.164420331359E+01 -0.108875578595E+01 -0.190240885061E+01  0.250000000000E+01  0.185787993997E+01  0.110883669208E+01  0.100177177909E+01
  0.349093656766E+00 -0.250000000000E+01 -0.526785284186E+00 -0.250000000000E+01 -0.183798308008E+01 -0.145695630084E+01 -0.250000000000E+01
  0.150000000000E+01  0.500000000000E+00  0.396172271494E-01 -0.788824871575E+00 -0.250000000000E+01 -0.198405114581E+01 -0.150000000000E+01
 -0.500000000000E+00 -0.250000000000E+01
  0.100395821979E+01  0.100203195699E+01  0.100525772872E+01  0.100547593997E+01  0.101226509743E+01  0.100373767660E+01  0.100645525821E+01
  0.100582286704E+01  0.100717994494E+01  0.102900610439E+01  0.101466500604E+01  0.100271861980E+01  0.100587510833E+01  0.100643828352E+01
  0.100541806722E+01  0.993810421893E+00  0.100953492752E+01  0.102006265821E+01  0.998545469192E+00  0.102752279983E+01  0.100421419498E+01
  0.100540511343E+01  0.100607029584E+01  0.101146738360E+01  0.811270247966E+00  0.101093851374E+01  0.994435907802E+00  0.100337334046E+01
  0.102791962722E+01  0.103166341292E+01  0.101169740905E+01  0.100126744695E+01  0.100448496512E+01  0.100591606779E+01  0.100543701971E+01
  0.101807221945E+01  0.979701036284E+00  0.100304675622E+01  0.985186257575E+00  0.986410104976E+00  0.110441533670E+01  0.997577708352E+00
  0.100547600299E+01  0.999911928280E+00  0.102106900784E+01  0.987750037548E+00  0.906994854334E+00  0.120887466278E+01  0.981347954549E+00
  0.104770936619E+01  0.153630067139E+01
  0.494650145026E+00  0.498823652390E+00  0.490938174347E+00  0.487414567718E+00  0.514934246879E+00  0.503352936784E+00  0.491027174686E+00
  0.486619415492E+00  0.491394858978E+00  0.514528895503E+00  0.548109143459E+00  0.530379661056E+00  0.492249699502E+00  0.487158999711E+00
  0.490873828517E+00  0.466919984440E+00  0.536767752841E+00  0.562096782950E+00  0.516625384175E+00  0.555731155755E+00  0.493743124288E+00
  0.486904371020E+00  0.491260739597E+00  0.486596579924E+00  0.000000000000E+00  0.394364801339E+00  0.456748865360E+00  0.524006355741E+00
  0.413280518424E+00  0.563957485433E+00  0.312968352848E+00  0.498176743737E+00  0.494895181586E+00  0.484178817489E+00  0.488387453032E+00
  0.480283117527E+00  0.000000000000E+00  0.504589623742E+00  0.000000000000E+00  0.379733394145E+00  0.508891695544E+00  0.000000000000E+00
  0.496294873274E+00  0.497061217147E+00  0.480304684952E+00  0.467776621422E+00  0.000000000000E+00  0.416482531239E+00  0.467865341236E+00
  0.470101990667E+00  0.000000000000E+00
 -0.124080356114E-02  0.194280921762E-02 -0.500327725327E-03 -0.128630189196E-02  0.444394047139E-02  0.340932202394E-02  0.158202262252E-03
 -0.475192281953E-03 -0.582855106222E-03  0.142613316443E-01  0.624723179796E-02  0.975771264633E-03  0.123954443948E-02  0.582868177873E-03
 -0.173161154493E-02  0.514043656343E-02  0.149375832762E-01  0.223479477910E-01  0.455098720825E-02  0.280819983997E-01  0.134724486581E-02
  0.382233736441E-02  0.175234361741E-02 -0.391817682920E-02  0.000000000000E+00  0.908247436620E-02  0.700775432009E-03  0.825985380282E-02
  0.267317097737E-01  0.266072598681E-01  0.129791304157E-01  0.799381393893E-03  0.105350593243E-02  0.320227011161E-02  0.448451295074E-02
 -0.207074234314E-02  0.000000000000E+00  0.227039221322E-01  0.000000000000E+00 -0.613561653826E-02  0.230987154941E-01  0.000000000000E+00
  0.766000131247E-03  0.357536286444E-02 -0.366937770331E-02  0.449671838734E-01  0.000000000000E+00  0.148215324653E+00  0.362480160670E-01
 -0.103032213297E-01  0.000000000000E+00
  0.392609419041E-02  0.252835334973E-01  0.527005533011E-02  0.138123381226E-01  0.498723420472E-01  0.353496440635E-01  0.541983762077E-02