# vtk DataFile Version 2.0
FUN3D:global_image_vtk
ASCII
DATASET UNSTRUCTURED_GRID
POINTS 357 double
    0.5000000000000000E+01    0.0000000000000000E+00    0.2500000000000000E+01
    0.5000000000000000E+01    0.0000000000000000E+00    0.1500000000000000E+01
    0.5000000000000000E+01    0.0000000000000000E+00    0.5000000000000000E+00
    0.5000000000000000E+01    0.0000000000000000E+00   -0.5000000000000000E+00
    0.5000000000000000E+01    0.0000000000000000E+00   -0.1500000000000000E+01
    0.5000000000000000E+01    0.0000000000000000E+00   -0.2500000000000000E+01
    0.4000000000000000E+01    0.0000000000000000E+00   -0.2500000000000000E+01
    0.3000000000000000E+01    0.0000000000000000E+00   -0.2500000000000000E+01
    0.2000000000000000E+01    0.0000000000000000E+00   -0.2500000000000000E+01
    0.9999999999999998E+00    0.0000000000000000E+00   -0.2500000000000000E+01
    0.0000000000000000E+00    0.0000000000000000E+00   -0.2500000000000000E+01
    0.0000000000000000E+00    0.0000000000000000E+00   -0.1500000000000000E+01
    0.0000000000000000E+00    0.0000000000000000E+00   -0.5000000000000000E+00
    0.0000000000000000E+00    0.0000000000000000E+00    0.5000000000000000E+00
    0.0000000000000000E+00    0.0000000000000000E+00    0.1500000000000000E+01
    0.0000000000000000E+00    0.0000000000000000E+00    0.2500000000000000E+01
    0.1000000000000000E+01    0.0000000000000000E+00    0.2500000000000000E+01
    0.2000000000000000E+01    0.0000000000000000E+00    0.2500000000000000E+01
    0.3000000000000000E+01    0.0000000000000000E+00    0.2500000000000000E+01
    0.4000000000000000E+01    0.0000000000000000E+00    0.2500000000000000E+01
    0.4251722454414101E+01    0.0000000000000000E+00    0.1683881519811194E+01
    0.6137332127746504E+00    0.0000000000000000E+00    0.1857879939968904E+01
    0.5055778377301318E+00    0.0000000000000000E+00   -0.1984051145810370E+01
    0.4417350419147004E+01    0.0000000000000000E+00   -0.1798049780917599E+01
    0.4277413896341787E+01    0.0000000000000000E+00    0.7849806286986014E+00
    0.4308949446070184E+01    0.0000000000000000E+00   -0.1030628045339280E+00
    0.3520446556869569E+01    0.0000000000000000E+00    0.1794049766750259E+00
    0.2591686382569276E+01    0.0000000000000000E+00    0.1667295362171870E+01
    0.1306794966956192E+01    0.0000000000000000E+00    0.1758138528035871E+01
    0.7010346092308208E+00    0.0000000000000000E+00    0.3961722714940701E-01
    0.2308484603929350E+01    0.0000000000000000E+00   -0.1644203313594280E+01
    0.2985842179142563E+01    0.0000000000000000E+00   -0.1902408850608312E+01
    0.7941286090671454E+00    0.0000000000000000E+00    0.1001771779085911E+01
    0.1020081380390785E+01    0.0000000000000000E+00   -0.1456956300840256E+01
    0.4356436167904402E+01    0.0000000000000000E+00   -0.1022551130153989E+01
    0.3730315927830617E+01    0.0000000000000000E+00   -0.1467697774434008E+01
    0.2084566650673803E+01    0.0000000000000000E+00   -0.2237556063676878E+00
    0.1900542590153839E+01    0.0000000000000000E+00   -0.1088755785946356E+01
    0.1324761360056765E+01    0.0000000000000000E+00   -0.5267852841860601E+00
    0.3681169751640886E+01    0.0000000000000000E+00    0.1040160628527462E+01
    0.3418876656618056E+01    0.0000000000000000E+00    0.1726168461930342E+01
    0.3751175205920376E+01    0.0000000000000000E+00   -0.6691259304140329E+00
    0.2889801815813465E+01    0.0000000000000000E+00   -0.8562661438192326E+00
    0.3017983410224082E+01    0.0000000000000000E+00    0.9231712184526961E+00
    0.1645821714894795E+01    0.0000000000000000E+00   -0.1837983080076178E+01
    0.1513509181197389E+01    0.0000000000000000E+00    0.1108836692078749E+01
    0.1919398798697967E+01    0.0000000000000000E+00    0.1580342757081665E+01
    0.2193859429875553E+01    0.0000000000000000E+00    0.7740897355665203E+00
    0.6091754699356742E+00    0.0000000000000000E+00   -0.7888248715753817E+00
    0.1441359832811715E+01    0.0000000000000000E+00    0.3490936567660688E+00
    0.2716632372076206E+01    0.0000000000000000E+00    0.1359772398136161E+00
    0.5000000000000000E+01   -0.8333333333333334E+00    0.2500000000000000E+01
    0.5000000000000000E+01   -0.8333333333333334E+00    0.1500000000000000E+01
    0.5000000000000000E+01   -0.8333333333333334E+00    0.5000000000000000E+00
    0.5000000000000000E+01   -0.8333333333333334E+00   -0.5000000000000000E+00
    0.5000000000000000E+01   -0.8333333333333334E+00   -0.1500000000000000E+01
    0.5000000000000000E+01   -0.8333333333333334E+00   -0.2500000000000000E+01
    0.4000000000000000E+01   -0.8333333333333334E+00   -0.2500000000000000E+01
    0.3000000000000000E+01   -0.8333333333333334E+00   -0.2500000000000000E+01
    0.2000000000000000E+01   -0.8333333333333334E+00   -0.2500000000000000E+01
    0.9999999999999998E+00   -0.8333333333333334E+00   -0.2500000000000000E+01
    0.0000000000000000E+00   -0.8333333333333334E+00   -0.2500000000000000E+01
    0.0000000000000000E+00   -0.8333333333333334E+00   -0.1500000000000000E+01
    0.0000000000000000E+00   -0.8333333333333334E+00   -0.5000000000000000E+00
    0.0000000000000000E+00   -0.8333333333333334E+00    0.5000000000000000E+00
    0.0000000000000000E+00   -0.8333333333333334E+00    0.1500000000000000E+01
    0.0000000000000000E+00   -0.8333333333333334E+00    0.2500000000000000E+01
    0.1000000000000000E+01   -0.8333333333333334E+00    0.2500000000000000E+01
    0.2000000000000000E+01   -0.8333333333333334E+00    0.2500000000000000E+01
    0.3000000000000000E+01   -0.8333333333333334E+00    0.2500000000000000E+01
    0.4000000000000000E+01   -0.8333333333333334E+00    0.2500000000000000E+01
    0.4251722454414101E+01   -0.8333333333333334E+00    0.1683881519811194E+01
    0.6137332127746504E+00   -0.8333333333333334E+00    0.1857879939968904E+01
    0.5055778377301318E+00   -0.8333333333333334E+00   -0.1984051145810370E+01
    0.4417350419147004E+01   -0.8333333333333334E+00   -0.1798049780917599E+01
    0.4277413896341787E+01   -0.8333333333333334E+00    0.7849806286986014E+00
    0.4308949446070184E+01   -0.8333333333333334E+00   -0.1030628045339280E+00
    0.3520446556869569E+01   -0.8333333333333334E+00    0.1794049766750259E+00
    0.2591686382569276E+01   -0.8333333333333334E+00    0.1667295362171870E+01
    0.1306794966956192E+01   -0.8333333333333334E+00    0.1758138528035871E+01
    0.7010346092308208E+00   -0.8333333333333334E+00    0.3961722714940701E-01
    0.2308484603929350E+01   -0.8333333333333334E+00   -0.1644203313594280E+01
    0.2985842179142563E+01   -0.8333333333333334E+00   -0.1902408850608312E+01
    0.7941286090671454E+00   -0.8333333333333334E+00    0.1001771779085911E+01
    0.1020081380390785E+01   -0.8333333333333334E+00   -0.1456956300840256E+01
    0.4356436167904402E+01   -0.8333333333333334E+00   -0.1022551130153989E+01
    0.3730315927830617E+01   -0.8333333333333334E+00   -0.1467697774434008E+01
    0.2084566650673803E+01   -0.8333333333333334E+00   -0.2237556063676878E+00
    0.1900542590153839E+01   -0.8333333333333334E+00   -0.1088755785946356E+01
    0.1324761360056765E+01   -0.8333333333333334E+00   -0.5267852841860601E+00
    0.3681169751640886E+01   -0.8333333333333334E+00    0.1040160628527462E+01
    0.3418876656618056E+01   -0.8333333333333334E+00    0.1726168461930342E+01
    0.3751175205920376E+01   -0.8333333333333334E+00   -0.6691259304140329E+00
    0.2889801815813465E+01   -0.8333333333333334E+00   -0.8562661438192326E+00
    0.3017983410224082E+01   -0.8333333333333334E+00    0.9231712184526961E+00
    0.1645821714894795E+01   -0.8333333333333334E+00   -0.1837983080076178E+01
    0.1513509181197389E+01   -0.8333333333333334E+00    0.1108836692078749E+01
    0.1919398798697967E+01   -0.8333333333333334E+00    0.1580342757081665E+01
    0.2193859429875553E+01   -0.8333333333333334E+00    0.7740897355665203E+00
    0.6091754699356742E+00   -0.8333333333333334E+00   -0.7888248715753817E+00
    0.1441359832811715E+01   -0.8333333333333334E+00    0.3490936567660688E+00
    0.2716632372076206E+01   -0.8333333333333334E+00    0.1359772398136161E+00
    0.5000000000000000E+01   -0.1666666666666667E+01    0.2500000000000000E+01
    0.5000000000000000E+01   -0.1666666666666667E+01    0.1500000000000000E+01
    0.5000000000000000E+01   -0.1666666666666667E+01    0.5000000000000000E+00
    0.5000000000000000E+01   -0.1666666666666667E+01   -0.5000000000000000E+00
    0.5000000000000000E+01   -0.1666666666666667E+01   -0.1500000000000000E+01
    0.5000000000000000E+01   -0.1666666666666667E+01   -0.2500000000000000E+01
    0.4000000000000000E+01   -0.1666666666666667E+01   -0.2500000000000000E+01
    0.3000000000000000E+01   -0.1666666666666667E+01   -0.2500000000000000E+01
    0.2000000000000000E+01   -0.1666666666666667E+01   -0.2500000000000000E+01
    0.9999999999999998E+00   -0.1666666666666667E+01   -0.2500000000000000E+01
    0.0000000000000000E+00   -0.1666666666666667E+01   -0.2500000000000000E+01
    0.0000000000000000E+00   -0.1666666666666667E+01   -0.1500000000000000E+01
    0.0000000000000000E+00   -0.1666666666666667E+01   -0.5000000000000000E+00
    0.0000000000000000E+00   -0.1666666666666667E+01    0.5000000000000000E+00
    0.0000000000000000E+00   -0.1666666666666667E+01    0.1500000000000000E+01
    0.0000000000000000E+00   -0.1666666666666667E+01    0.2500000000000000E+01
    0.1000000000000000E+01   -0.1666666666666667E+01    0.2500000000000000E+01
    0.2000000000000000E+01   -0.1666666666666667E+01    0.2500000000000000E+01
    0.3000000000000000E+01   -0.1666666666666667E+01    0.2500000000000000E+01
    0.4000000000000000E+01   -0.1666666666666667E+01    0.2500000000000000E+01
    0.4251722454414101E+01   -0.1666666666666667E+01    0.1683881519811194E+01
    0.6137332127746504E+00   -0.1666666666666667E+01    0.1857879939968904E+01
    0.5055778377301318E+00   -0.1666666666666667E+01   -0.1984051145810370E+01
[...]
POINT_DATA 357
SCALARS rho double 1
LOOKUP_TABLE default
   0.1002615918538719E+01
   0.1002318873004278E+01
   0.1009859946178170E+01
   0.1020739716082957E+01
   0.9775233672134283E+00
   0.8139111124940712E+00
   0.9782815714649203E+00
   0.9823003638402121E+00
   0.9726780649454192E+00
   0.9251975803616531E+00
   0.1509538811790078E+01
   0.1010832165382541E+01
   0.1039702951198476E+01
   0.1005507999347036E+01
   0.1007053840683291E+01
   0.1003252508184006E+01
   0.1004967452623627E+01
   0.1004830508643938E+01
   0.1003619263412168E+01
   0.1002398497814528E+01
   0.1002866642833039E+01
   0.1005067300229933E+01
   0.1102010257174961E+01
   0.9921305411168274E+00
   0.1003054060530712E+01
   0.1005852947433012E+01
   0.9966188054846001E+00
   0.1003466824187345E+01
   0.1004966758179575E+01
   0.1012765777292402E+01
   0.1011265144550385E+01
   0.9936978478203464E+00
   0.1006724932925474E+01
   0.1060484857155058E+01
   0.9929007707374687E+00
   0.9730269537176927E+00
   0.9968093824362161E+00
   0.9985045403045640E+00
   0.9966234648306641E+00
   0.1004187644558630E+01
   0.1002775825892558E+01
   0.1001754968537478E+01
   0.1005817172197522E+01
   0.1001484374471538E+01
   0.9688101532561287E+00
   0.1003901762381205E+01
   0.1003681609995084E+01
   0.1004717985002709E+01
   0.9993113856306457E+00
   0.1011791867400026E+01
   0.9945174978045690E+00
   0.1002559277443237E+01
   0.1002222577012055E+01
   0.1009777841634611E+01
   0.1022528199677367E+01
   0.9835316434749860E+00
   0.8149720160412988E+00
   0.9786655276415486E+00
   0.9831672229087290E+00
   0.9723281636603077E+00
   0.9227888572416760E+00
   0.1511100195451445E+01
   0.1007738450149461E+01
   0.1039414231796766E+01
   0.1005191232979364E+01
   0.1007002318490873E+01
   0.1003214691864372E+01
   0.1004899448993828E+01
   0.1004743267733275E+01
   0.1003494027434776E+01
   0.1002279446533013E+01
   0.1002802106931300E+01
   0.1004998157609499E+01
   0.1102685095047109E+01
   0.9960843802251750E+00
   0.1003037649923128E+01
   0.1006091057282595E+01
   0.9966548093388709E+00
   0.1003319806788681E+01
   0.1004854125070780E+01
   0.1012537005713753E+01
   0.1012846942965363E+01
   0.9960261847741193E+00
   0.1006521094712864E+01
   0.1060681095341949E+01
   0.9949622980372583E+00
   0.9749491902404711E+00
   0.9963102798683231E+00
   0.9984586501862599E+00
   0.9959775000770605E+00
   0.1004159857058419E+01
   0.1002644829768029E+01
   0.1002382257180830E+01
   0.1005992161793628E+01
   0.1001375101704807E+01
   0.9695779934807577E+00
   0.1003675459345546E+01
   0.1003504347632078E+01
   0.1004642955382933E+01
   0.9980958647592738E+00
   0.1011695412826914E+01
   0.9941747351109477E+00
   0.1002594183889876E+01
   0.1002244810551687E+01
   0.1009792073406327E+01
   0.1022543782264501E+01
   0.9834934867545381E+00
   0.8151947492105325E+00
   0.9788114313922061E+00
   0.9834854673236656E+00
   0.9725407771107216E+00
   0.9225057974800864E+00
   0.1511612754563980E+01
   0.1007726286457837E+01
   0.1039555261584370E+01
   0.1005261967147084E+01
   0.1007042196078553E+01
   0.1003238234297004E+01
   0.1004952273786690E+01
   0.1004817455377155E+01
   0.1003577051335850E+01
   0.1002349028398589E+01
   0.1002850182573997E+01
   0.1005050211329314E+01
   0.1103226276933149E+01
   0.9959986290339050E+00
   0.1003063642960629E+01
   0.1006099711295089E+01
   0.9967043158771172E+00
   0.1003409340755296E+01
   0.1004929357908017E+01
   0.1012681410130595E+01
   0.1013077689479609E+01
   0.9961215787454939E+00
   0.1006620085451478E+01
   0.1061099670081192E+01
   0.9950751290027384E+00
   0.9750428198580366E+00
   0.9964519014352102E+00
   0.9986746544018678E+00
   0.9961360118881654E+00
   0.1004215976342500E+01
   0.1002725799193215E+01
   0.1002425913993563E+01
   0.1006158788383707E+01
   0.1001458728047131E+01
   0.9698863433288671E+00
   0.1003785956062782E+01
   0.1003601098040222E+01
   0.1004747617528072E+01
   0.9983040873100588E+00
   0.1011836759056331E+01
   0.9942668192650844E+00
   0.1002582249038469E+01
   0.1002227086852884E+01
   0.1009784340695568E+01
   0.1022588611539158E+01
   0.9837258878144292E+00
   0.8151880418806514E+00
   0.9789583631250833E+00
   0.9835414529658112E+00
   0.9725970699798103E+00
   0.9224737665016982E+00
   0.1511503906602260E+01
   0.1007539219511244E+01
   0.1039440781468337E+01
   0.1005188976985962E+01
   0.1007005976590680E+01
   0.1003216720638229E+01
   0.1004909648226477E+01
   0.1004763775554482E+01
   0.1003526312086802E+01
   0.1002316422410974E+01
   0.1002834780221253E+01
   0.1005005381342805E+01
   0.1102948832654118E+01
   0.9962058889358184E+00
   0.1003068675833520E+01
   0.1006168362155813E+01
   0.9967490366495320E+00
   0.1003358568122161E+01
   0.1004871883046967E+01
   0.1012571629399192E+01
   0.1013116636884707E+01
   0.9961377462500448E+00
   0.1006549686182608E+01
   0.1061002406161524E+01
   0.9951741341953821E+00
   0.9751084851632952E+00
   0.9964184171405898E+00
   0.9986500274272557E+00
   0.9960697468763138E+00
   0.1004209905456596E+01
   0.1002689042518280E+01
   0.1002539988541520E+01
   0.1006201434634814E+01
   0.1001432509980696E+01
   0.9697902623850261E+00
   0.1003717187153468E+01
   0.1003544061254368E+01
   0.1004699882982325E+01
   0.9981686504960252E+00
   0.1011763008520827E+01
   0.9942546739501794E+00
   0.1002594183084948E+01
   0.1002244811946909E+01
   0.1009792072487534E+01
   0.1022543770626288E+01
   0.9834934756839423E+00
   0.8151947619844193E+00
   0.9788114307240817E+00
   0.9834854555198570E+00
   0.9725407732487883E+00
   0.9225058006486032E+00
   0.1511612759014976E+01
   0.1007726302025453E+01
   0.1039555260101650E+01
   0.1005261965146324E+01
   0.1007042195068997E+01
   0.1003238233435456E+01
   0.1004952273155913E+01
   0.1004817454592554E+01
   0.1003577052723523E+01
   0.1002349028834141E+01
   0.1002850182866826E+01
   0.1005050210490062E+01
   0.1103226271309542E+01
   0.9959986182336107E+00
   0.1003063640409570E+01
   0.1006099707098884E+01
   0.9967043217732873E+00
   0.1003409341761953E+01
   0.1004929356712265E+01
   0.1012681409701841E+01
   0.1013077678899630E+01
   0.9961215741282268E+00
   0.1006620083701431E+01
   0.1061099658833272E+01
   0.9950751229785274E+00
   0.9750428069802974E+00
   0.9964519011767116E+00
   0.9986746509373025E+00
   0.9961360078313575E+00
   0.1004215974674806E+01
   0.1002725800508499E+01
   0.1002425905317091E+01
   0.1006158785359030E+01
   0.1001458731724297E+01
   0.9698863424771682E+00
   0.1003785955354573E+01
   0.1003601096769524E+01
   0.1004747615867813E+01
   0.9983040884712409E+00
   0.1011836758786523E+01
   0.9942668232705089E+00
   0.1002559279512970E+01
   0.1002222578170392E+01
   0.1009777835429603E+01
   0.1022528163697558E+01
   0.9835315793930954E+00
   0.8149721303305840E+00
   0.9786656022550414E+00
   0.9831672386798852E+00
   0.9723282235524127E+00
   0.9227889001692950E+00
   0.1511100252542614E+01
   0.1007738529943462E+01
   0.1039414246531904E+01
   0.1005191233240643E+01
   0.1007002318277203E+01
   0.1003214689375018E+01
   0.1004899447650147E+01
   0.1004743262330147E+01
   0.1003494028489620E+01
   0.1002279445000817E+01
   0.1002802109830899E+01
   0.1004998156114531E+01
   0.1102684997555166E+01
   0.9960843472761188E+00
   0.1003037639986095E+01
   0.1006091045410760E+01
   0.9966548094353829E+00
   0.1003319806979392E+01
   0.1004854122752723E+01
   0.1012537000811995E+01
   0.1012846933107890E+01
   0.9960261834021710E+00
   0.1006521093980408E+01
   0.1060681060312228E+01
   0.9949622528049168E+00
   0.9749491261295855E+00
   0.9963102667893277E+00
   0.9984586291764725E+00
   0.9959774903457216E+00
   0.1004159857588979E+01
   0.1002644832112806E+01
   0.1002382209386857E+01
   0.1005992125015374E+01
   0.1001375111143221E+01
   0.9695779845743164E+00
   0.1003675458534608E+01
   0.1003504344942272E+01
   0.1004642946005429E+01
   0.9980958786440038E+00
   0.1011695407031483E+01
   0.9941747290773104E+00
   0.1002615929108440E+01
   0.1002318880806101E+01
   0.1009859935619305E+01
   0.1020739613360968E+01
   0.9775232206504139E+00
   0.8139113936365099E+00
   0.9782817275602061E+00
   0.9823004110599483E+00
   0.9726781953859091E+00
   0.9251976539596671E+00
   0.1509538989399826E+01
   0.1010832318767637E+01
   0.1039702953596219E+01
   0.1005507998147365E+01
   0.1007053840909943E+01
   0.1003252506610160E+01
   0.1004967450594150E+01
   0.1004830499147821E+01
   0.1003619268073900E+01
   0.1002398500099470E+01
   0.1002866652550182E+01
   0.1005067298686239E+01
   0.1102010103437255E+01
   0.9921305175306996E+00
   0.1003054040664225E+01
   0.1005852901774250E+01
   0.9966187969009862E+00
   0.1003466827600416E+01
   0.1004966751971614E+01
   0.1012765768081635E+01
   0.1011265129777279E+01
   0.9936978341553622E+00
   0.1006724931816700E+01
   0.1060484787316654E+01
   0.9929006412535701E+00
   0.9730268403540390E+00
   0.9968093534308732E+00
   0.9985044809331225E+00
   0.9966234466996369E+00
   0.1004187649940366E+01
   0.1002775835701983E+01
   0.1001754876329751E+01
   0.1005817100206686E+01
   0.1001484397567486E+01
   0.9688101298093621E+00
   0.1003901758304628E+01
   0.1003681604771453E+01
   0.1004717966029464E+01
   0.9993114114476385E+00
   0.1011791852938591E+01
   0.9945174847702508E+00
SCALARS u double 1
LOOKUP_TABLE default
   0.4977064553296672E+00
   0.4991916036528798E+00
   0.5148100570251012E+00
   0.5220026261851901E+00
   0.4738852654845905E+00
   0.0000000000000000E+00
   0.0000000000000000E+00
   0.0000000000000000E+00
   0.0000000000000000E+00
   0.0000000000000000E+00
   0.0000000000000000E+00
   0.4793505345736790E+00
   0.4667672919619242E+00
   0.4942478352263855E+00
   0.4935718564733582E+00
   0.4961740196605942E+00
   0.4941045982071938E+00
   0.4954064654999882E+00
   0.4976871296625876E+00
   0.4986205138903000E+00
   0.4952809855233887E+00
   0.4948286538381226E+00
   0.4518265786478063E+00
   0.3969575759707649E+00
   0.5074363192578921E+00
   0.5527311809693095E+00
   0.5406448651476312E+00
   0.4966243181178348E+00
   0.4948241803931999E+00
   0.4884965806267535E+00
   0.4237260326897495E+00
   0.3186731746984924E+00
   0.4921857472012552E+00
   0.5409691347047425E+00
   0.5516562348377809E+00
   0.4724934419925872E+00
   0.5415327699868577E+00
   0.5917031104527636E+00
   0.5333954174795483E+00
   0.4992018863227893E+00
   0.4964232852100524E+00
   0.5788415586301545E+00
   0.5773695182709921E+00
   0.5014310748281553E+00
   0.3900565881990053E+00
   0.4947103489634440E+00
   0.4951997035175315E+00
   0.5000038975188311E+00
   0.4930693951219524E+00
   0.4929407935279611E+00
   0.5301083310397715E+00
   0.4978789354423893E+00
   0.4988764639499837E+00
   0.5143944727352270E+00
   0.5235838304490725E+00
   0.4771914158234417E+00
   0.0000000000000000E+00
   0.0000000000000000E+00
   0.0000000000000000E+00
   0.0000000000000000E+00
   0.0000000000000000E+00
   0.0000000000000000E+00
   0.4807090911025351E+00
   0.4673208610998908E+00
   0.4946062593223073E+00
   0.4936277500841545E+00
   0.4962110512540320E+00
   0.4941934821783057E+00
   0.4955606931333018E+00
   0.4980458203323428E+00
   0.4990570403584074E+00
   0.4952165758387980E+00
   0.4949301028693756E+00
   0.4554241817773814E+00
   0.4048651613724348E+00
   0.5064339486446371E+00
   0.5528318204996974E+00
   0.5400959637888366E+00
   0.4969037032022513E+00
   0.4950184627836081E+00
   0.4887501900517918E+00
   0.4334616968809466E+00
   0.3253281707777992E+00
   0.4924541289558746E+00
   0.5463256811082573E+00
   0.5582390538105219E+00
   0.4829643733589483E+00
   0.5412672149242198E+00
   0.5970126577281856E+00
   0.5336666633814690E+00
   0.4985842995838711E+00
   0.4965291394318410E+00
   0.5826640402923848E+00
   0.5826614191200319E+00
   0.5008675324170746E+00
   0.3974805111919381E+00
   0.4949857667992900E+00
   0.4954653133139476E+00
   0.4999411436695789E+00
   0.4931326942715122E+00
   0.4928664129540328E+00
   0.5292138537582763E+00
   0.4978499339956561E+00
   0.4988898227862601E+00
   0.5144728344288743E+00
   0.5237706304228674E+00
   0.4773611236631682E+00
   0.0000000000000000E+00
   0.0000000000000000E+00
   0.0000000000000000E+00
   0.0000000000000000E+00
   0.0000000000000000E+00
   0.0000000000000000E+00
   0.4805186736771415E+00
   0.4671731088726671E+00
   0.4945339386720642E+00
   0.4935862131810413E+00
   0.4961884812132649E+00
   0.4941127743505661E+00
   0.4954292771062794E+00
   0.4978911059973026E+00
   0.4989291454220101E+00
   0.4951473581930664E+00
   0.4948533812018376E+00
   0.4553971471649891E+00
   0.4051654927887904E+00
   0.5064658412919344E+00
   0.5530081630022551E+00
   0.5401374249608272E+00
   0.4967555177475136E+00
   0.4948915483061356E+00
   0.4885438075851457E+00
   0.4336754383218454E+00
   0.3256644246850371E+00
   0.4923148121536900E+00
   0.5461348753596044E+00
   0.5586023113395149E+00
   0.4833116634707479E+00
   0.5411043882410359E+00
   0.5969553581691419E+00
   0.5334302210089196E+00
   0.4985319866673722E+00
   0.4964032341871664E+00
   0.5828607944554274E+00
   0.5827402353268787E+00
   0.5007547569471813E+00
   0.3974044031289765E+00
   0.4948224945807671E+00
   0.4953140379907092E+00
   0.4997854842958449E+00
   0.4927295870798281E+00
   0.4926616602244973E+00
   0.5291180608962007E+00
   0.4978556822656694E+00
   0.4988782397897047E+00
   0.5144186995481376E+00
   0.5235650697546775E+00
   0.4770657170576237E+00
   0.0000000000000000E+00
   0.0000000000000000E+00
   0.0000000000000000E+00
   0.0000000000000000E+00
   0.0000000000000000E+00
   0.0000000000000000E+00
   0.4806945223322698E+00
   0.4673233091296569E+00
   0.4946145934485054E+00
   0.4936262636333965E+00
   0.4962108558107099E+00
   0.4941809532200106E+00
   0.4955255398606006E+00
   0.4979865077517320E+00
   0.4989887483390735E+00
   0.4951447858378902E+00
   0.4949163949278201E+00
   0.4554019991573679E+00
   0.4047312489550715E+00
   0.5063812506588788E+00
   0.5527591968539135E+00
   0.5399526655065920E+00
   0.4968250634933875E+00
   0.4949767699561134E+00
   0.4886654325031702E+00
   0.4332781963485001E+00
   0.3253212579900273E+00
   0.4924049960548573E+00
   0.5460618757010229E+00
   0.5580209560843128E+00
   0.4828142366166583E+00
   0.5410470816635973E+00
   0.5967599584125792E+00
   0.5334275810531180E+00
   0.4984839751080907E+00
   0.4964373954713471E+00
   0.5824839642023386E+00
   0.5824299546917375E+00
   0.5007402122950179E+00
   0.3971708902886127E+00
   0.4949050925307281E+00
   0.4953944553397596E+00
   0.4998212157561745E+00
   0.4928385410664247E+00
   0.4927256403770482E+00
   0.5290313625916624E+00
   0.4978499297764986E+00
   0.4988898219240086E+00
   0.5144728440548304E+00
   0.5237706498539968E+00
   0.4773611237936528E+00
   0.0000000000000000E+00
   0.0000000000000000E+00
   0.0000000000000000E+00
   0.0000000000000000E+00
   0.0000000000000000E+00
   0.0000000000000000E+00
   0.4805186707639577E+00
   0.4671731050944776E+00
   0.4945339401073698E+00
   0.4935862140024767E+00
   0.4961884815706633E+00
   0.4941127754002996E+00
   0.4954292761890475E+00
   0.4978911009560992E+00
   0.4989291379860931E+00
   0.4951473569649000E+00
   0.4948533818446694E+00
   0.4553971471529092E+00
   0.4051654802517315E+00
   0.5064658499096873E+00
   0.5530081854291941E+00
   0.5401374330546991E+00
   0.4967555158626408E+00
   0.4948915496607713E+00
   0.4885438083502822E+00
   0.4336754322577818E+00
   0.3256644175439190E+00
   0.4923148141386269E+00
   0.5461348869720575E+00
   0.5586023208081151E+00
   0.4833116717245285E+00
   0.5411044030546285E+00
   0.5969553736667351E+00
   0.5334302407302264E+00
   0.4985319893553096E+00
   0.4964032331657199E+00
   0.5828608127138605E+00
   0.5827402497587875E+00
   0.5007547498110465E+00
   0.3974044000994738E+00
   0.4948224991152851E+00
   0.4953140423628692E+00
   0.4997854855780693E+00
   0.4927296089196317E+00
   0.4926616627592058E+00
   0.5291180665787110E+00
   0.4978789357033224E+00
   0.4988764629595197E+00
   0.5143944776413972E+00
   0.5235838003173328E+00
   0.4771914913361550E+00
   0.0000000000000000E+00
   0.0000000000000000E+00
   0.0000000000000000E+00
   0.0000000000000000E+00
   0.0000000000000000E+00
   0.0000000000000000E+00
   0.4807090150892740E+00
   0.4673208558734326E+00
   0.4946062534229665E+00
   0.4936277532739961E+00
   0.4962110530865310E+00
   0.4941934858573689E+00
   0.4955606990904509E+00
   0.4980458188725638E+00
   0.4990570396677954E+00
   0.4952165770007941E+00
   0.4949301048442040E+00
   0.4554241902940934E+00
   0.4048652338067826E+00
   0.5064339535476251E+00
   0.5528318023783664E+00
   0.5400959474594420E+00
   0.4969037027572056E+00
   0.4950184665003817E+00
   0.4887502115538029E+00
   0.4334616631531039E+00
   0.3253281391413014E+00
   0.4924541255770039E+00
   0.5463256676602635E+00
   0.5582389996396429E+00
   0.4829643552083588E+00
   0.5412672125383655E+00
   0.5970126566420740E+00
   0.5336666849195890E+00
   0.4985843069322567E+00
   0.4965291307294662E+00
   0.5826640998536462E+00
   0.5826613955362935E+00
   0.5008675391913696E+00
   0.3974803945364038E+00
   0.4949857686957129E+00
   0.4954653184683903E+00
   0.4999411537551645E+00
   0.4931326616753494E+00
   0.4928664327274330E+00
   0.5292138754353355E+00
   0.4977064555305488E+00
   0.4991916224653772E+00
   0.5148101444367841E+00
   0.5220026385758608E+00
   0.4738853615505314E+00
   0.0000000000000000E+00
   0.0000000000000000E+00
   0.0000000000000000E+00
   0.0000000000000000E+00
   0.0000000000000000E+00
   0.0000000000000000E+00
   0.4793503958697966E+00
   0.4667673187114877E+00
   0.4942478115169424E+00
   0.4935718617876635E+00
   0.4961740221859471E+00
   0.4941046054082363E+00
   0.4954064841748292E+00
   0.4976871225214334E+00
   0.4986205041911057E+00
   0.4952810056314758E+00
   0.4948286578482277E+00
   0.4518264848428713E+00
   0.3969575528062755E+00
   0.5074364176660680E+00
   0.5527312777962905E+00
   0.5406449675116557E+00
   0.4966243218729265E+00
   0.4948241939348795E+00
   0.4884966579574891E+00
   0.4237258139587487E+00
   0.3186729746769848E+00
   0.4921857377212254E+00
   0.5409690130768643E+00
   0.5516560883455260E+00
   0.4724932621432406E+00
   0.5415329110709943E+00
   0.5917030915130079E+00
   0.5333955398495636E+00
   0.4992019612743789E+00
   0.4964232717340654E+00
   0.5788416891123673E+00
   0.5773694773796484E+00
   0.5014311578219774E+00
   0.3900562479906096E+00
   0.4947103579725095E+00
   0.4951997187503995E+00
   0.5000039689888763E+00
   0.4930694010052669E+00
   0.4929408855962168E+00
   0.5301085359446086E+00
SCALARS v double 1
LOOKUP_TABLE default
   0.0000000000000000E+00
   0.0000000000000000E+00
   0.0000000000000000E+00
   0.0000000000000000E+00
   0.0000000000000000E+00
   0.0000000000000000E+00
   0.0000000000000000E+00
   0.0000000000000000E+00
   0.0000000000000000E+00
   0.0000000000000000E+00
   0.0000000000000000E+00
   0.0000000000000000E+00
   0.0000000000000000E+00
   0.0000000000000000E+00
   0.0000000000000000E+00
   0.0000000000000000E+00
   0.0000000000000000E+00
   0.0000000000000000E+00
   0.0000000000000000E+00
   0.0000000000000000E+00
   0.0000000000000000E+00
   0.0000000000000000E+00
   0.0000000000000000E+00
   0.0000000000000000E+00
   0.0000000000000000E+00
   0.0000000000000000E+00
   0.0000000000000000E+00
   0.0000000000000000E+00
   0.0000000000000000E+00
   0.0000000000000000E+00
   0.0000000000000000E+00
   0.0000000000000000E+00
   0.0000000000000000E+00
   0.0000000000000000E+00
   0.0000000000000000E+00
   0.0000000000000000E+00
   0.0000000000000000E+00
   0.0000000000000000E+00
   0.0000000000000000E+00
   0.0000000000000000E+00
   0.0000000000000000E+00
   0.0000000000000000E+00
   0.0000000000000000E+00
   0.0000000000000000E+00
   0.0000000000000000E+00
   0.0000000000000000E+00
   0.0000000000000000E+00
   0.0000000000000000E+00
   0.0000000000000000E+00