title="tecplot geometry and solution file"
variables = x y z rho u v w p mach temperature
zone t="boundary 1 bc-1", solutiontime= 0.9000000E+02, strandid=1001, i=42, j=30, f=feblock
  0.000000000000E+00  0.000000000000E+00  0.000000000000E+00  0.000000000000E+00  0.000000000000E+00  0.000000000000E+00  0.000000000000E+00
  0.000000000000E+00  0.000000000000E+00  0.000000000000E+00  0.000000000000E+00  0.000000000000E+00  0.000000000000E+00  0.000000000000E+00
  0.000000000000E+00  0.000000000000E+00  0.000000000000E+00  0.000000000000E+00  0.000000000000E+00  0.000000000000E+00  0.000000000000E+00
  0.000000000000E+00  0.000000000000E+00  0.000000000000E+00  0.000000000000E+00  0.000000000000E+00  0.000000000000E+00  0.000000000000E+00
  0.000000000000E+00  0.000000000000E+00  0.000000000000E+00  0.000000000000E+00  0.000000000000E+00  0.000000000000E+00  0.000000000000E+00
  0.000000000000E+00  0.000000000000E+00  0.000000000000E+00  0.000000000000E+00  0.000000000000E+00  0.000000000000E+00  0.000000000000E+00
  0.000000000000E+00 -0.833333333333E+00  0.000000000000E+00  0.000000000000E+00  0.000000000000E+00 -0.166666666667E+01 -0.833333333333E+00
 -0.833333333333E+00 -0.833333333333E+00  0.000000000000E+00 -0.250000000000E+01 -0.166666666667E+01 -0.166666666667E+01 -0.166666666667E+01
 -0.833333333333E+00  0.000000000000E+00 -0.333333333333E+01 -0.250000000000E+01 -0.250000000000E+01 -0.250000000000E+01 -0.166666666667E+01
 -0.833333333333E+00 -0.416666666667E+01 -0.333333333333E+01 -0.333333333333E+01 -0.333333333333E+01 -0.250000000000E+01 -0.166666666667E+01
 -0.500000000000E+01 -0.416666666667E+01 -0.416666666667E+01 -0.416666666667E+01 -0.333333333333E+01 -0.250000000000E+01 -0.500000000000E+01
 -0.500000000000E+01 -0.500000000000E+01 -0.416666666667E+01 -0.333333333333E+01 -0.500000000000E+01 -0.416666666667E+01 -0.500000000000E+01
  0.500000000000E+01  0.500000000000E+01  0.400000000000E+01  0.200000000000E+01  0.300000000000E+01  0.500000000000E+01  0.400000000000E+01
  0.200000000000E+01  0.300000000000E+01  0.100000000000E+01  0.500000000000E+01  0.400000000000E+01  0.200000000000E+01  0.300000000000E+01
  0.100000000000E+01  0.000000000000E+00  0.500000000000E+01  0.400000000000E+01  0.200000000000E+01  0.300000000000E+01  0.100000000000E+01
  0.000000000000E+00  0.500000000000E+01  0.400000000000E+01  0.200000000000E+01  0.300000000000E+01  0.100000000000E+01  0.000000000000E+00
  0.500000000000E+01  0.400000000000E+01  0.200000000000E+01  0.300000000000E+01  0.100000000000E+01  0.000000000000E+00  0.400000000000E+01
  0.200000000000E+01  0.300000000000E+01  0.100000000000E+01  0.000000000000E+00  0.100000000000E+01  0.000000000000E+00  0.000000000000E+00
  0.100379920261E+01  0.100377182760E+01  0.100552847620E+01  0.103485219652E+01  0.100776915433E+01  0.100379376219E+01  0.100543339438E+01
  0.103452921659E+01  0.100752841677E+01  0.100724028125E+01  0.100377369539E+01  0.100547518850E+01  0.103466725687E+01  0.100759132729E+01
  0.100406037673E+01  0.150297344839E+01  0.100379376214E+01  0.100543732943E+01  0.103455198635E+01  0.100752295987E+01  0.100402276608E+01
  0.150469346362E+01  0.100377182826E+01  0.100547518847E+01  0.103466725591E+01  0.100759132697E+01  0.100383873088E+01  0.150523407460E+01
  0.100379920378E+01  0.100543339521E+01  0.103452922990E+01  0.100752841714E+01  0.100402276370E+01  0.150512210304E+01  0.100552847660E+01
  0.103485220439E+01  0.100776915266E+01  0.100406037200E+01  0.150523406997E+01  0.100724022284E+01  0.150469337843E+01  0.150297322560E+01
  0.495822804802E+00  0.495859970050E+00  0.494916044830E+00  0.468456871053E+00  0.491963535728E+00  0.495835583402E+00  0.494982434035E+00
  0.468941674767E+00  0.492167204018E+00  0.483647189943E+00  0.495857610312E+00  0.494947712989E+00  0.468789035986E+00  0.492104221302E+00
  0.485198766820E+00  0.000000000000E+00  0.495835583489E+00  0.494985773344E+00  0.468931435346E+00  0.492171061334E+00  0.485008818605E+00
  0.000000000000E+00  0.495859969375E+00  0.494947713097E+00  0.468789034328E+00  0.492104221850E+00  0.485187708641E+00  0.000000000000E+00
  0.495822802709E+00  0.494982433195E+00  0.468941686589E+00  0.492167201478E+00  0.485008823547E+00  0.000000000000E+00  0.494916040594E+00
  0.468456930705E+00  0.491963529394E+00  0.485198752497E+00  0.000000000000E+00  0.483647223683E+00  0.000000000000E+00  0.000000000000E+00
  0.000000000000E+00  0.740188941195E-05  0.000000000000E+00  0.000000000000E+00  0.000000000000E+00  0.260535970635E-05 -0.185344771514E-04
  0.127500979221E-04 -0.343141103861E-04  0.000000000000E+00 -0.269647952269E-09 -0.435640639577E-05  0.647436530105E-04 -0.829762992214E-05
 -0.108407405961E-02  0.000000000000E+00 -0.260531218671E-05  0.913266046521E-09 -0.393754633609E-08  0.127801687755E-08 -0.138944895979E-03
  0.000000000000E+00 -0.740137559567E-05  0.435806425683E-05 -0.647458047051E-04  0.829871890197E-05  0.276532195702E-09  0.000000000000E+00
  0.000000000000E+00  0.185351221547E-04 -0.127620758593E-04  0.343145929247E-04  0.138945763680E-03  0.000000000000E+00  0.000000000000E+00
  0.000000000000E+00  0.000000000000E+00  0.108407032791E-02  0.000000000000E+00  0.000000000000E+00  0.000000000000E+00  0.000000000000E+00
  0.177014135111E-02  0.174896816397E-02 -0.839502771126E-03 -0.500684094709E-02  0.363924952629E-02  0.176202227646E-02 -0.827665024763E-03
 -0.522809570238E-02  0.368541650920E-02  0.352737936380E-01  0.174976372679E-02 -0.835748551347E-03 -0.525042465340E-02  0.368251120834E-02
  0.339324937103E-01  0.000000000000E+00  0.176202230342E-02 -0.831686249772E-03 -0.527605065557E-02  0.368982068905E-02  0.340561906898E-01
  0.000000000000E+00  0.174896914795E-02 -0.835749037533E-03 -0.525042951481E-02  0.368251085288E-02  0.340205406785E-01  0.000000000000E+00
  0.177014110305E-02 -0.827663265310E-03 -0.522811504066E-02  0.368541972893E-02  0.340561955998E-01  0.000000000000E+00 -0.839503290624E-03
 -0.500684237448E-02  0.363924972348E-02  0.339325047781E-01  0.000000000000E+00  0.352738531036E-01  0.000000000000E+00  0.000000000000E+00
  0.717938282064E+00  0.717911376770E+00  0.720348514819E+00  0.741922989718E+00  0.723054799726E+00  0.717932571944E+00  0.720254699655E+00
  0.741394975280E+00  0.722829200291E+00  0.744874828093E+00  0.717912697167E+00  0.720299312308E+00  0.741518028050E+00  0.722895814434E+00
  0.742490118953E+00  0.107355246314E+01  0.717932571894E+00  0.720260426941E+00  0.741407853457E+00  0.722825911871E+00  0.742508446256E+00
  0.107478104544E+01  0.717911377788E+00  0.720299312248E+00  0.741518027003E+00  0.722895813898E+00  0.742297292656E+00  0.107516719614E+01
  0.717938283920E+00  0.720254699998E+00  0.741394989926E+00  0.722829198884E+00  0.742508443447E+00  0.107508721646E+01  0.720348514453E+00
  0.741923001111E+00  0.723054794493E+00  0.742490118255E+00  0.107516719284E+01  0.744874773764E+00  0.107478098459E+01  0.107355230400E+01
  0.495501661434E+00  0.495541255528E+00  0.494190047676E+00  0.467616845482E+00  0.490880412159E+00  0.495515030441E+00  0.494265137542E+00
  0.468196714529E+00  0.491101925938E+00  0.476586279205E+00  0.495538905427E+00  0.494225446239E+00  0.468036976306E+00  0.491031764742E+00
  0.478025197329E+00  0.000000000000E+00  0.495515030535E+00  0.494267480473E+00  0.468188114728E+00  0.491105593587E+00  0.477831454114E+00
  0.000000000000E+00  0.495541254671E+00  0.494225446361E+00  0.468036974819E+00  0.491031765389E+00  0.478028525669E+00  0.000000000000E+00
  0.495501658991E+00  0.494265136788E+00  0.468196724935E+00  0.491101923995E+00  0.477831459634E+00  0.000000000000E+00  0.494190043671E+00
  0.467616903225E+00  0.490880407210E+00  0.478025183136E+00  0.000000000000E+00  0.476586320087E+00  0.000000000000E+00  0.000000000000E+00
  0.100130941754E+01  0.100129919953E+01  0.100294317328E+01  0.100371066429E+01  0.100447281529E+01  0.100130688054E+01  0.100290738815E+01
  0.100330947522E+01  0.100439934355E+01  0.103532868844E+01  0.100129917794E+01  0.100292781837E+01  0.100334212026E+01  0.100442918949E+01
  0.103528252945E+01  0.100000000000E+01  0.100130688051E+01  0.100291143784E+01  0.100330482038E+01  0.100440021411E+01  0.103534686650E+01
  0.100000000000E+01  0.100129920028E+01  0.100292781832E+01  0.100334211977E+01  0.100442918907E+01  0.103524219354E+01  0.100000000000E+01
  0.100130941896E+01  0.100290738780E+01  0.100330948212E+01  0.100439934123E+01  0.103534686504E+01  0.100000000000E+01  0.100294317237E+01
  0.100371067206E+01  0.100447280969E+01  0.103528253335E+01  0.100000000000E+01  0.103532867297E+01  0.100000000000E+01  0.100000000000E+01
         2         7         3         1
         7         9         5         3
         9         8         4         5
         8        15        10         4
        15        22        16        10
         6        12         7         2
        12        14         9         7
        14        13         8         9
        13        21        15         8
        21        28        22        15
        11        18        12         6
        18        20        14        12
        20        19        13        14
        19        27        21        13
        27        34        28        21
        17        24        18        11
        24        26        20        18
        26        25        19        20
        25        33        27        19
        33        39        34        27
        23        30        24        17
        30        32        26        24
        32        31        25        26
        31        38        33        25
        38        41        39        33
        29        35        30        23
        35        37        32        30
        37        36        31        32
        36        40        38        31
        40        42        41        38
zone t="boundary 2 bc-2", solutiontime= 0.9000000E+02, strandid=1002, i=50, j=78, f=feblock
  0.500000000000E+01  0.400000000000E+01  0.500000000000E+01  0.432205072469E+01  0.300000000000E+01  0.339985167428E+01  0.500000000000E+01
  0.414352482062E+01  0.200000000000E+01  0.238772260472E+01  0.328766614337E+01  0.253053942594E+01  0.500000000000E+01  0.437470683547E+01
  0.355186041251E+01  0.100000000000E+01  0.148474164412E+01  0.182006405350E+01  0.265208498144E+01  0.158439218620E+01  0.500000000000E+01
  0.421824364393E+01  0.356601661300E+01  0.279151482472E+01  0.000000000000E+00  0.691584087487E+00  0.102677755985E+01  0.203910647352E+01
  0.786163368796E+00  0.130062434092E+01  0.579883387792E+00  0.500000000000E+01  0.439593351493E+01  0.365358382485E+01  0.222719085292E+01
  0.294979435250E+01  0.181898636514E+01  0.000000000000E+00  0.000000000000E+00  0.608717331133E+00  0.956798945949E+00  0.000000000000E+00
  0.400000000000E+01  0.200000000000E+01  0.160059523280E+01  0.300000000000E+01  0.000000000000E+00  0.482256655205E+00  0.100000000000E+01
  0.000000000000E+00
 -0.500000000000E+01 -0.500000000000E+01 -0.500000000000E+01 -0.500000000000E+01 -0.500000000000E+01 -0.500000000000E+01 -0.500000000000E+01
 -0.500000000000E+01 -0.500000000000E+01 -0.500000000000E+01 -0.500000000000E+01 -0.500000000000E+01 -0.500000000000E+01 -0.500000000000E+01
 -0.500000000000E+01 -0.500000000000E+01 -0.500000000000E+01 -0.500000000000E+01 -0.500000000000E+01 -0.500000000000E+01 -0.500000000000E+01
 -0.500000000000E+01 -0.500000000000E+01 -0.500000000000E+01 -0.500000000000E+01 -0.500000000000E+01 -0.500000000000E+01 -0.500000000000E+01
 -0.500000000000E+01 -0.500000000000E+01 -0.500000000000E+01 -0.500000000000E+01 -0.500000000000E+01 -0.500000000000E+01 -0.500000000000E+01
 -0.500000000000E+01 -0.500000000000E+01 -0.500000000000E+01 -0.500000000000E+01 -0.500000000000E+01 -0.500000000000E+01 -0.500000000000E+01
 -0.500000000000E+01 -0.500000000000E+01 -0.500000000000E+01 -0.500000000000E+01 -0.500000000000E+01 -0.500000000000E+01 -0.500000000000E+01
 -0.500000000000E+01
  0.500000000000E+01  0.500000000000E+01  0.400000000000E+01  0.427284776458E+01  0.500000000000E+01  0.409791606955E+01  0.300000000000E+01
  0.334954216394E+01  0.500000000000E+01  0.428961258157E+01  0.317389756208E+01  0.342579600005E+01  0.200000000000E+01  0.245604909385E+01
  0.233993022181E+01  0.500000000000E+01  0.436396516571E+01  0.369973104758E+01  0.256908373316E+01  0.279597472668E+01  0.100000000000E+01
  0.157729503259E+01  0.159701071514E+01  0.152167522831E+01  0.500000000000E+01  0.441213888848E+01  0.370665089386E+01  0.199896920986E+01
  0.224835513052E+01  0.181406525358E+01  0.296809553468E+01  0.000000000000E+00  0.696815730569E+00  0.990157383601E+00  0.787866207738E+00
  0.548147595005E+00  0.128672970530E+01  0.400000000000E+01  0.200000000000E+01  0.160443740745E+01  0.959766653149E+00  0.300000000000E+01
  0.000000000000E+00  0.000000000000E+00  0.606872513237E+00  0.000000000000E+00  0.100000000000E+01  0.486991412371E+00  0.000000000000E+00
  0.000000000000E+00
  0.100230065952E+01  0.100190741467E+01  0.100208912001E+01  0.100305126611E+01  0.100199677494E+01  0.100313002166E+01  0.100511305050E+01
  0.100369601933E+01  0.100548278897E+01  0.100303578912E+01  0.100096255886E+01  0.100461344843E+01  0.101903422064E+01  0.100460538973E+01
  0.996426949522E+00  0.100461508178E+01  0.100463193042E+01  0.100385809938E+01  0.996053733952E+00  0.101002521460E+01  0.983181403936E+00
  0.999202989047E+00  0.100338733228E+01  0.100830641577E+01  0.100379920378E+01  0.100495175633E+01  0.100724225718E+01  0.997527954691E+00
  0.101249071958E+01  0.993492904979E+00  0.100751097154E+01  0.820299551450E+00  0.996131112342E+00  0.984669174516E+00  0.101949702188E+01
  0.100280033452E+01  0.100187164968E+01  0.100552847660E+01  0.103485220439E+01  0.100265211522E+01  0.106810503176E+01  0.100776915266E+01
  0.980062248557E+00  0.984130644921E+00  0.975525026556E+00  0.986240181373E+00  0.100724022284E+01  0.109839842693E+01  0.922325002436E+00
  0.150297322560E+01
  0.500084028089E+00  0.499208506621E+00  0.499425884301E+00  0.497832322670E+00  0.499701523754E+00  0.497949380903E+00  0.512031844457E+00
  0.500203834915E+00  0.494202291676E+00  0.498607208504E+00  0.501680764588E+00  0.498591315350E+00  0.523955806711E+00  0.537339457210E+00
  0.549693418154E+00  0.493153504556E+00  0.495428375653E+00  0.497562362597E+00  0.522248512223E+00  0.493538219010E+00  0.477420967053E+00
  0.570417536242E+00  0.584152523819E+00  0.571389185339E+00  0.495822802709E+00  0.494727600177E+00  0.493738582617E+00  0.547550108811E+00
  0.488844650102E+00  0.537948133348E+00  0.492249514503E+00  0.000000000000E+00  0.397687839846E+00  0.465939012955E+00  0.413354028612E+00
  0.307146459586E+00  0.585767769755E+00  0.494916040594E+00  0.468456930705E+00  0.493117189085E+00  0.532068300611E+00  0.491963529394E+00
  0.000000000000E+00  0.000000000000E+00  0.377545984318E+00  0.000000000000E+00  0.483647223683E+00  0.446821642802E+00  0.000000000000E+00
  0.000000000000E+00
  0.000000000000E+00  0.000000000000E+00  0.000000000000E+00  0.000000000000E+00  0.000000000000E+00  0.000000000000E+00  0.000000000000E+00
  0.000000000000E+00  0.000000000000E+00  0.000000000000E+00  0.000000000000E+00  0.000000000000E+00  0.000000000000E+00  0.000000000000E+00
  0.000000000000E+00  0.000000000000E+00  0.000000000000E+00  0.000000000000E+00  0.000000000000E+00  0.000000000000E+00  0.000000000000E+00
  0.000000000000E+00  0.000000000000E+00  0.000000000000E+00  0.000000000000E+00  0.000000000000E+00  0.000000000000E+00  0.000000000000E+00
  0.000000000000E+00  0.000000000000E+00  0.000000000000E+00  0.000000000000E+00  0.000000000000E+00  0.000000000000E+00  0.000000000000E+00
  0.000000000000E+00  0.000000000000E+00  0.000000000000E+00  0.000000000000E+00  0.000000000000E+00  0.000000000000E+00  0.000000000000E+00
  0.000000000000E+00  0.000000000000E+00  0.000000000000E+00  0.000000000000E+00  0.000000000000E+00  0.000000000000E+00  0.000000000000E+00
  0.000000000000E+00
  0.327110944594E-02  0.433422309486E-02  0.733641823486E-02  0.466761323259E-02  0.461193414358E-02  0.429164329627E-02  0.121352563162E-01
  0.421180686925E-02  0.342421345430E-02  0.532018354432E-02  0.321400753868E-02  0.656356066959E-02 -0.228657630124E-01  0.630599993563E-02
  0.934028264421E-02  0.482013101310E-02  0.603804479637E-02  0.734580715581E-02  0.127817453824E-01  0.106209632494E-01 -0.872644092582E-01
 -0.932890925298E-02  0.727763464439E-02  0.219484678969E-01  0.177014110305E-02  0.391465947212E-02  0.536429887000E-02  0.250614878261E-01
  0.861764127042E-02  0.445508519165E-01  0.601789849642E-02  0.000000000000E+00 -0.437729219055E-01  0.126989890115E-01  0.560219068057E-02
  0.453816380876E-02  0.380557963276E-01 -0.839503290624E-03 -0.500684237448E-02  0.258314797399E-01  0.733035891556E-01  0.363924972348E-02
  0.000000000000E+00  0.000000000000E+00 -0.110058130729E-01  0.000000000000E+00  0.352738531036E-01  0.179012082576E+00  0.000000000000E+00
  0.000000000000E+00
  0.716679787321E+00  0.716861605657E+00  0.716428018776E+00  0.717007215488E+00  0.716858491337E+00  0.716846881069E+00  0.720759710381E+00
  0.718673912949E+00  0.719247473118E+00  0.718218456014E+00  0.715862900331E+00  0.716773396525E+00  0.730503419553E+00  0.720079866180E+00
  0.711995699019E+00  0.719026913057E+00  0.719199684789E+00  0.718602933469E+00  0.714411523681E+00  0.721663533523E+00  0.687380801034E+00
  0.705377878968E+00  0.708075625215E+00  0.712749846185E+00  0.717938283920E+00  0.719437716815E+00  0.721992536785E+00  0.718921279740E+00
  0.723520337888E+00  0.717705380000E+00  0.720781704804E+00  0.585928251036E+00  0.694218793535E+00  0.690304621043E+00  0.715889193127E+00
  0.707670695123E+00  0.698077263589E+00  0.720348514453E+00  0.741923001111E+00  0.738946143074E+00  0.749085144460E+00  0.723054794493E+00
  0.700044463255E+00  0.702950460658E+00  0.681417428293E+00  0.704457272409E+00  0.744874773764E+00  0.724803768353E+00  0.658803573168E+00
  0.107355230400E+01
  0.499832725158E+00  0.498804614338E+00  0.499253104691E+00  0.497665990326E+00  0.499323029636E+00  0.497854827050E+00  0.511172045990E+00
  0.499612798097E+00  0.493854834741E+00  0.498022759355E+00  0.501379222637E+00  0.498915359400E+00  0.523512507642E+00  0.536441090576E+00
  0.549671541429E+00  0.492681350692E+00  0.494911853408E+00  0.497075661721E+00  0.521327199122E+00  0.493578279317E+00  0.490559675500E+00
  0.573855921934E+00  0.587747006206E+00  0.574798817471E+00  0.495501658991E+00  0.494187462435E+00  0.492900539466E+00  0.545677628020E+00
  0.488814943729E+00  0.536747337192E+00  0.491899912570E+00  0.000000000000E+00  0.405045033879E+00  0.470490738114E+00  0.416934772713E+00
  0.309044148378E+00  0.594333689945E+00  0.494190043671E+00  0.467616903225E+00  0.486127201412E+00  0.542035545440E+00  0.490880407210E+00
  0.000000000000E+00  0.000000000000E+00  0.381946799188E+00  0.000000000000E+00  0.476586320087E+00  0.500799578798E+00  0.000000000000E+00
  0.000000000000E+00
  0.100104863019E+01  0.100169559904E+01  0.100090820892E+01  0.100075652721E+01  0.100160191427E+01  0.100045419021E+01  0.100393044746E+01
  0.100243844626E+01  0.100145569215E+01  0.100246257345E+01  0.100124430389E+01  0.998874499147E+00  0.100360200537E+01  0.100349034850E+01
  0.100036834522E+01  0.100201330493E+01  0.100223726543E+01  0.100217760606E+01  0.100413873174E+01  0.100030071757E+01  0.978795080536E+00
  0.988316729814E+00  0.987959328776E+00  0.989629510484E+00  0.100130941896E+01  0.100224990623E+01  0.100352178862E+01  0.100898404591E+01
  0.100043235306E+01  0.101136860361E+01  0.100157161086E+01  0.100000000000E+01  0.975681111561E+00  0.981473264800E+00  0.983077781361E+00
  0.987972320180E+00  0.975482407684E+00  0.100294317237E+01  0.100371067206E+01  0.103178817917E+01  0.981850259164E+00  0.100447280969E+01
  0.100000000000E+01  0.100000000000E+01  0.977918939689E+00  0.100000000000E+01  0.103532867297E+01  0.923822586427E+00  0.100000000000E+01
  0.100000000000E+01
        44        35        36        36
        24        34        36        36
        38        27        31        31
        20        29        31        31
        24        23        34        34
        15        22        23        23
        24        35        37        37
        41        30        37        37
        27        18        20        20
        17        18        27        27
        15        19        11        11
        12         6        11        11
         8         7        14        14
        13        14         7         7
        41        40        30        30
        47        39        40        40
        17         9        10        10
         5        10         9         9
        44        45        35        35
        49        41        45        45
        19        15        24        24
        36        35        24        24
        37        45        41        41
        40        39        29        29
        30        29        20        20
        12        18        10        10
        20        12        19        19
        11         8        15        15
        20        18        12        12
        27        20        31        31
        28        20        19        19
        23        24        15        15
        23        22        34        34
        28        24        37        37
        11        19        12        12
        11         6         8         8
        28        19        24        24
        40        41        47        47
        30        40        29        29
        45        44        49        49
        37        35        45        45
        16        26        25        25
        27        38        26        26
        47        48        50        50
        43        33        32        32
        22        21        33        33
         3         4         1         1
         6         2         4         4
        10         5         6         6
        14        13        22        22
         4         3         8         8
         7         8         3         3
        42        38        31        31
         9        17        16        16
        33        43        34        34
        36        34        43        43
        41        48        47        47
        15         8        14        14
        28        30        20        20
        18        17        10        10
        42        31        39        39
        26        16        17        17
         8         6         4         4
        34        22        33        33
        37        30        28        28
        27        26        17        17
        49        48        41        41
        46        36        43        43
        31        29        39        39
        36        46        44        44
        22        13        21        21
        15        14        22        22
         6         5         2         2
        12        10         6         6
        26        38        25        25
        48        49        50        50
        33        21        32        32
         4         2         1         1
zone t="boundary 3 bc-3", solutiontime= 0.9000000E+02, strandid=1003, i=50, j=78, f=feblock
  0.500000000000E+01  0.400000000000E+01  0.500000000000E+01  0.432205072469E+01  0.300000000000E+01  0.339985167428E+01  0.500000000000E+01
  0.414352482062E+01  0.200000000000E+01  0.238772260472E+01  0.328766614337E+01  0.253053942594E+01  0.500000000000E+01  0.437470683547E+01
  0.355186041251E+01  0.100000000000E+01  0.148474164412E+01  0.182006405350E+01  0.265208498144E+01  0.158439218620E+01  0.500000000000E+01
  0.421824364393E+01  0.356601661300E+01  0.279151482472E+01  0.000000000000E+00  0.691584087487E+00  0.102677755985E+01  0.203910647352E+01
  0.786163368796E+00  0.130062434092E+01  0.579883387792E+00  0.500000000000E+01  0.439593351493E+01  0.365358382485E+01  0.222719085292E+01
  0.294979435250E+01  0.181898636514E+01  0.000000000000E+00  0.000000000000E+00  0.608717331133E+00  0.956798945949E+00  0.000000000000E+00
  0.400000000000E+01  0.200000000000E+01  0.160059523280E+01  0.300000000000E+01  0.000000000000E+00  0.482256655205E+00  0.100000000000E+01
  0.000000000000E+00
  0.000000000000E+00  0.000000000000E+00  0.000000000000E+00  0.000000000000E+00  0.000000000000E+00  0.000000000000E+00  0.000000000000E+00
  0.000000000000E+00  0.000000000000E+00  0.000000000000E+00  0.000000000000E+00  0.000000000000E+00  0.000000000000E+00  0.000000000000E+00
  0.000000000000E+00  0.000000000000E+00  0.000000000000E+00  0.000000000000E+00  0.000000000000E+00  0.000000000000E+00  0.000000000000E+00
  0.000000000000E+00  0.000000000000E+00  0.000000000000E+00  0.000000000000E+00  0.000000000000E+00  0.000000000000E+00  0.000000000000E+00
  0.000000000000E+00  0.000000000000E+00  0.000000000000E+00  0.000000000000E+00  0.000000000000E+00  0.000000000000E+00  0.000000000000E+00
  0.000000000000E+00  0.000000000000E+00  0.000000000000E+00  0.000000000000E+00  0.000000000000E+00  0.000000000000E+00  0.000000000000E+00
  0.000000000000E+00  0.000000000000E+00  0.000000000000E+00  0.000000000000E+00  0.000000000000E+00  0.000000000000E+00  0.000000000000E+00
  0.000000000000E+00
  0.500000000000E+01  0.500000000000E+01  0.400000000000E+01  0.427284776458E+01  0.500000000000E+01  0.409791606955E+01  0.300000000000E+01
  0.334954216394E+01  0.500000000000E+01  0.428961258157E+01  0.317389756208E+01  0.342579600005E+01  0.200000000000E+01  0.245604909385E+01
  0.233993022181E+01  0.500000000000E+01  0.436396516571E+01  0.369973104758E+01  0.256908373316E+01  0.279597472668E+01  0.100000000000E+01
  0.157729503259E+01  0.159701071514E+01  0.152167522831E+01  0.500000000000E+01  0.441213888848E+01  0.370665089386E+01  0.199896920986E+01
  0.224835513052E+01  0.181406525358E+01  0.296809553468E+01  0.000000000000E+00  0.696815730569E+00  0.990157383601E+00  0.787866207738E+00
  0.548147595005E+00  0.128672970530E+01  0.400000000000E+01  0.200000000000E+01  0.160443740745E+01  0.959766653149E+00  0.300000000000E+01
  0.000000000000E+00  0.000000000000E+00  0.606872513237E+00  0.000000000000E+00  0.100000000000E+01  0.486991412371E+00  0.000000000000E+00
  0.000000000000E+00
  0.100230065584E+01  0.100190741482E+01  0.100208912997E+01  0.100305126049E+01  0.100199678775E+01  0.100313002437E+01  0.100511307543E+01
  0.100369602677E+01  0.100548278845E+01  0.100303579552E+01  0.100096255316E+01  0.100461345139E+01  0.101903427097E+01  0.100460541614E+01
  0.996426961914E+00  0.100461508216E+01  0.100463193211E+01  0.100385809874E+01  0.996053748143E+00  0.101002521784E+01  0.983181209209E+00
  0.999203005003E+00  0.100338736657E+01  0.100830648176E+01  0.100379920261E+01  0.100495175501E+01  0.100724225629E+01  0.997527943244E+00
  0.101249069300E+01  0.993492958746E+00  0.100751096710E+01  0.820298972721E+00  0.996130840650E+00  0.984669054617E+00  0.101949700670E+01
  0.100280009800E+01  0.100187165282E+01  0.100552847620E+01  0.103485219652E+01  0.100265214106E+01  0.106810504984E+01  0.100776915433E+01
  0.980061948120E+00  0.984130615657E+00  0.975524976210E+00  0.986240404737E+00  0.100724028125E+01  0.109839839405E+01  0.922324896792E+00
  0.150297344839E+01
  0.500084019188E+00  0.499208478298E+00  0.499425844201E+00  0.497832297803E+00  0.499701481725E+00  0.497949353794E+00  0.512031800060E+00
  0.500203793273E+00  0.494202267670E+00  0.498607204658E+00  0.501680739899E+00  0.498591284832E+00  0.523955774900E+00  0.537339482004E+00
  0.549693380770E+00  0.493153502899E+00  0.495428373451E+00  0.497562353750E+00  0.522248491214E+00  0.493538180918E+00  0.477420965348E+00
  0.570417555587E+00  0.584152372127E+00  0.571389105736E+00  0.495822804802E+00  0.494727605253E+00  0.493738584491E+00  0.547550012135E+00
  0.488844638609E+00  0.537948063057E+00  0.492249507403E+00  0.000000000000E+00  0.397687714164E+00  0.465939023688E+00  0.413354139059E+00
  0.307146568287E+00  0.585767749663E+00  0.494916044830E+00  0.468456871053E+00  0.493117190281E+00  0.532068312309E+00  0.491963535728E+00
  0.000000000000E+00  0.000000000000E+00  0.377545963624E+00  0.000000000000E+00  0.483647189943E+00  0.446821538196E+00  0.000000000000E+00
  0.000000000000E+00
  0.000000000000E+00  0.000000000000E+00  0.000000000000E+00  0.000000000000E+00  0.000000000000E+00  0.000000000000E+00  0.000000000000E+00
  0.000000000000E+00  0.000000000000E+00  0.000000000000E+00  0.000000000000E+00  0.000000000000E+00  0.000000000000E+00  0.000000000000E+00
  0.000000000000E+00  0.000000000000E+00  0.000000000000E+00  0.000000000000E+00  0.000000000000E+00  0.000000000000E+00  0.000000000000E+00
  0.000000000000E+00  0.000000000000E+00  0.000000000000E+00  0.000000000000E+00  0.000000000000E+00  0.000000000000E+00  0.000000000000E+00
  0.000000000000E+00  0.000000000000E+00  0.000000000000E+00  0.000000000000E+00  0.000000000000E+00  0.000000000000E+00  0.000000000000E+00
  0.000000000000E+00  0.000000000000E+00  0.000000000000E+00  0.000000000000E+00  0.000000000000E+00  0.000000000000E+00  0.000000000000E+00
  0.000000000000E+00  0.000000000000E+00  0.000000000000E+00  0.000000000000E+00  0.000000000000E+00  0.000000000000E+00  0.000000000000E+00
  0.000000000000E+00
  0.327110341363E-02  0.433423176581E-02  0.733645113068E-02  0.466762148301E-02  0.461193060659E-02  0.429168164935E-02  0.121353294574E-01
  0.421180345577E-02  0.342421565350E-02  0.532016322502E-02  0.321405110924E-02  0.656354085093E-02 -0.228658186589E-01  0.630605486406E-02
  0.934032580026E-02  0.482012938531E-02  0.603803809205E-02  0.734580349513E-02  0.127817455734E-01  0.106209387161E-01 -0.872644801171E-01
 -0.932880274325E-02  0.727756924471E-02  0.219485587041E-01  0.177014135111E-02  0.391465330302E-02  0.536428932058E-02  0.250615302410E-01