# vtk DataFile Version 2.0
FUN3D:global_image_vtk
ASCII
DATASET UNSTRUCTURED_GRID
POINTS 350 double
    0.5000000000000000E+01    0.0000000000000000E+00    0.5000000000000000E+01
    0.4000000000000000E+01    0.0000000000000000E+00    0.5000000000000000E+01
    0.3000000000000000E+01    0.0000000000000000E+00    0.5000000000000000E+01
    0.2000000000000000E+01    0.0000000000000000E+00    0.5000000000000000E+01
    0.9999999999999998E+00    0.0000000000000000E+00    0.5000000000000000E+01
    0.0000000000000000E+00    0.0000000000000000E+00    0.5000000000000000E+01
    0.0000000000000000E+00    0.0000000000000000E+00    0.4000000000000000E+01
    0.0000000000000000E+00    0.0000000000000000E+00    0.3000000000000000E+01
    0.0000000000000000E+00    0.0000000000000000E+00    0.2000000000000000E+01
    0.0000000000000000E+00    0.0000000000000000E+00    0.9999999999999998E+00
    0.0000000000000000E+00    0.0000000000000000E+00    0.0000000000000000E+00
    0.1000000000000000E+01    0.0000000000000000E+00    0.0000000000000000E+00
    0.2000000000000000E+01    0.0000000000000000E+00    0.0000000000000000E+00
    0.3000000000000000E+01    0.0000000000000000E+00    0.0000000000000000E+00
    0.4000000000000000E+01    0.0000000000000000E+00    0.0000000000000000E+00
    0.5000000000000000E+01    0.0000000000000000E+00    0.0000000000000000E+00
    0.5000000000000000E+01    0.0000000000000000E+00    0.1000000000000000E+01
    0.5000000000000000E+01    0.0000000000000000E+00    0.2000000000000000E+01
    0.5000000000000000E+01    0.0000000000000000E+00    0.3000000000000000E+01
    0.5000000000000000E+01    0.0000000000000000E+00    0.4000000000000000E+01
    0.4322050724693945E+01    0.0000000000000000E+00    0.4272847764579289E+01
    0.4395933514933383E+01    0.0000000000000000E+00    0.6968157305690375E+00
    0.4822566552045414E+00    0.0000000000000000E+00    0.4869914123714657E+00
    0.6915840874870021E+00    0.0000000000000000E+00    0.4412138888481547E+01
    0.3399851674277183E+01    0.0000000000000000E+00    0.4097916069546335E+01
    0.2387722604716090E+01    0.0000000000000000E+00    0.4289612581570788E+01
    0.2530539425941974E+01    0.0000000000000000E+00    0.3425796000045182E+01
    0.4218243643927281E+01    0.0000000000000000E+00    0.1577295032585114E+01
    0.4374706835472756E+01    0.0000000000000000E+00    0.2456049093849535E+01
    0.3551860412513510E+01    0.0000000000000000E+00    0.2339930221808592E+01
    0.2949794352503393E+01    0.0000000000000000E+00    0.5481475950050476E+00
    0.7861633687955188E+00    0.0000000000000000E+00    0.2248355130517770E+01
    0.5798833877919640E+00    0.0000000000000000E+00    0.2968095534677868E+01
    0.9567989459488916E+00    0.0000000000000000E+00    0.9597666531489262E+00
    0.1484741644122566E+01    0.0000000000000000E+00    0.4363965165706898E+01
    0.1026777559850325E+01    0.0000000000000000E+00    0.3706650893855072E+01
    0.2039106473515760E+01    0.0000000000000000E+00    0.1998969209862488E+01
    0.1300624340922514E+01    0.0000000000000000E+00    0.1814065253577793E+01
    0.1818986365136347E+01    0.0000000000000000E+00    0.1286729705298721E+01
    0.3653583824847581E+01    0.0000000000000000E+00    0.9901573836014240E+00
    0.4143524820619449E+01    0.0000000000000000E+00    0.3349542163936307E+01
    0.1820064053502506E+01    0.0000000000000000E+00    0.3699731047579209E+01
    0.1584392186197914E+01    0.0000000000000000E+00    0.2795974726684905E+01
    0.1600595232801024E+01    0.0000000000000000E+00    0.6068725132371939E+00
    0.2227190852919879E+01    0.0000000000000000E+00    0.7878662077383224E+00
    0.6087173311333847E+00    0.0000000000000000E+00    0.1604437407448898E+01
    0.2791514824717063E+01    0.0000000000000000E+00    0.1521675228311488E+01
    0.2652084981436515E+01    0.0000000000000000E+00    0.2569083733163254E+01
    0.3287666143370331E+01    0.0000000000000000E+00    0.3173897562080839E+01
    0.3566016613004364E+01    0.0000000000000000E+00    0.1597010715137857E+01
    0.5000000000000000E+01   -0.8333333333333334E+00    0.5000000000000000E+01
    0.4000000000000000E+01   -0.8333333333333334E+00    0.5000000000000000E+01
    0.3000000000000000E+01   -0.8333333333333334E+00    0.5000000000000000E+01
    0.2000000000000000E+01   -0.8333333333333334E+00    0.5000000000000000E+01
    0.9999999999999998E+00   -0.8333333333333334E+00    0.5000000000000000E+01
    0.0000000000000000E+00   -0.8333333333333334E+00    0.5000000000000000E+01
    0.0000000000000000E+00   -0.8333333333333334E+00    0.4000000000000000E+01
    0.0000000000000000E+00   -0.8333333333333334E+00    0.3000000000000000E+01
    0.0000000000000000E+00   -0.8333333333333334E+00    0.2000000000000000E+01
    0.0000000000000000E+00   -0.8333333333333334E+00    0.9999999999999998E+00
    0.0000000000000000E+00   -0.8333333333333334E+00    0.0000000000000000E+00
    0.1000000000000000E+01   -0.8333333333333334E+00    0.0000000000000000E+00
    0.2000000000000000E+01   -0.8333333333333334E+00    0.0000000000000000E+00
    0.3000000000000000E+01   -0.8333333333333334E+00    0.0000000000000000E+00
    0.4000000000000000E+01   -0.8333333333333334E+00    0.0000000000000000E+00
    0.5000000000000000E+01   -0.8333333333333334E+00    0.0000000000000000E+00
    0.5000000000000000E+01   -0.8333333333333334E+00    0.1000000000000000E+01
    0.5000000000000000E+01   -0.8333333333333334E+00    0.2000000000000000E+01
    0.5000000000000000E+01   -0.8333333333333334E+00    0.3000000000000000E+01
    0.5000000000000000E+01   -0.8333333333333334E+00    0.4000000000000000E+01
    0.4322050724693945E+01   -0.8333333333333334E+00    0.4272847764579289E+01
    0.4395933514933383E+01   -0.8333333333333334E+00    0.6968157305690375E+00
    0.4822566552045414E+00   -0.8333333333333334E+00    0.4869914123714657E+00
    0.6915840874870021E+00   -0.8333333333333334E+00    0.4412138888481547E+01
    0.3399851674277183E+01   -0.8333333333333334E+00    0.4097916069546335E+01
    0.2387722604716090E+01   -0.8333333333333334E+00    0.4289612581570788E+01
    0.2530539425941974E+01   -0.8333333333333334E+00    0.3425796000045182E+01
    0.4218243643927281E+01   -0.8333333333333334E+00    0.1577295032585114E+01
    0.4374706835472756E+01   -0.8333333333333334E+00    0.2456049093849535E+01
    0.3551860412513510E+01   -0.8333333333333334E+00    0.2339930221808592E+01
    0.2949794352503393E+01   -0.8333333333333334E+00    0.5481475950050476E+00
    0.7861633687955188E+00   -0.8333333333333334E+00    0.2248355130517770E+01
    0.5798833877919640E+00   -0.8333333333333334E+00    0.2968095534677868E+01
    0.9567989459488916E+00   -0.8333333333333334E+00    0.9597666531489262E+00
    0.1484741644122566E+01   -0.8333333333333334E+00    0.4363965165706898E+01
    0.1026777559850325E+01   -0.8333333333333334E+00    0.3706650893855072E+01
    0.2039106473515760E+01   -0.8333333333333334E+00    0.1998969209862488E+01
    0.1300624340922514E+01   -0.8333333333333334E+00    0.1814065253577793E+01
    0.1818986365136347E+01   -0.8333333333333334E+00    0.1286729705298721E+01
    0.3653583824847581E+01   -0.8333333333333334E+00    0.9901573836014240E+00
    0.4143524820619449E+01   -0.8333333333333334E+00    0.3349542163936307E+01
    0.1820064053502506E+01   -0.8333333333333334E+00    0.3699731047579209E+01
    0.1584392186197914E+01   -0.8333333333333334E+00    0.2795974726684905E+01
    0.1600595232801024E+01   -0.8333333333333334E+00    0.6068725132371939E+00
    0.2227190852919879E+01   -0.8333333333333334E+00    0.7878662077383224E+00
    0.6087173311333847E+00   -0.8333333333333334E+00    0.1604437407448898E+01
    0.2791514824717063E+01   -0.8333333333333334E+00    0.1521675228311488E+01
    0.2652084981436515E+01   -0.8333333333333334E+00    0.2569083733163254E+01
    0.3287666143370331E+01   -0.8333333333333334E+00    0.3173897562080839E+01
    0.3566016613004364E+01   -0.8333333333333334E+00    0.1597010715137857E+01
    0.5000000000000000E+01   -0.1666666666666667E+01    0.5000000000000000E+01
    0.4000000000000000E+01   -0.1666666666666667E+01    0.5000000000000000E+01
    0.3000000000000000E+01   -0.1666666666666667E+01    0.5000000000000000E+01
    0.2000000000000000E+01   -0.1666666666666667E+01    0.5000000000000000E+01
    0.9999999999999998E+00   -0.1666666666666667E+01    0.5000000000000000E+01
    0.0000000000000000E+00   -0.1666666666666667E+01    0.5000000000000000E+01
    0.0000000000000000E+00   -0.1666666666666667E+01    0.4000000000000000E+01
    0.0000000000000000E+00   -0.1666666666666667E+01    0.3000000000000000E+01
    0.0000000000000000E+00   -0.1666666666666667E+01    0.2000000000000000E+01
    0.0000000000000000E+00   -0.1666666666666667E+01    0.9999999999999998E+00
    0.0000000000000000E+00   -0.1666666666666667E+01    0.0000000000000000E+00
    0.1000000000000000E+01   -0.1666666666666667E+01    0.0000000000000000E+00
    0.2000000000000000E+01   -0.1666666666666667E+01    0.0000000000000000E+00
    0.3000000000000000E+01   -0.1666666666666667E+01    0.0000000000000000E+00
    0.4000000000000000E+01   -0.1666666666666667E+01    0.0000000000000000E+00
    0.5000000000000000E+01   -0.1666666666666667E+01    0.0000000000000000E+00
    0.5000000000000000E+01   -0.1666666666666667E+01    0.1000000000000000E+01
    0.5000000000000000E+01   -0.1666666666666667E+01    0.2000000000000000E+01
    0.5000000000000000E+01   -0.1666666666666667E+01    0.3000000000000000E+01
    0.5000000000000000E+01   -0.1666666666666667E+01    0.4000000000000000E+01
    0.4322050724693945E+01   -0.1666666666666667E+01    0.4272847764579289E+01
    0.4395933514933383E+01   -0.1666666666666667E+01    0.6968157305690375E+00
    0.4822566552045414E+00   -0.1666666666666667E+01    0.4869914123714657E+00
    0.6915840874870021E+00   -0.1666666666666667E+01    0.4412138888481547E+01
    0.3399851674277183E+01   -0.1666666666666667E+01    0.4097916069546335E+01
[...]
POINT_DATA 350
SCALARS rho double 1
LOOKUP_TABLE default
   0.1002300434485057E+01
   0.1001907393911883E+01
   0.1001996542120956E+01
   0.1005482609172448E+01
   0.1004615079136725E+01
   0.1003799171307777E+01
   0.1005528472097463E+01
   0.1007769200655465E+01
   0.1034852063473614E+01
   0.1007240214041416E+01
   0.1502973382962290E+01
   0.9223248509581774E+00
   0.9841305492676959E+00
   0.9862403655808885E+00
   0.9800622051547883E+00
   0.8202997644386028E+00
   0.9831823383683322E+00
   0.1019033559125447E+01
   0.1005113449960749E+01
   0.1002089003877459E+01
   0.1003051188720895E+01
   0.9961325902226453E+00
   0.1098398529759329E+01
   0.1004951708023039E+01
   0.1003130208392433E+01
   0.1003035904279617E+01
   0.1004613304641123E+01
   0.9992025284695180E+00
   0.1004605522634618E+01
   0.9964269326343888E+00
   0.1002801023573575E+01
   0.1012490777389894E+01
   0.1007510901938647E+01
   0.1068104955729053E+01
   0.1004631834222219E+01
   0.1007242284897832E+01
   0.9975280404793024E+00
   0.9934927855343291E+00
   0.1001871788362235E+01
   0.9846693126875817E+00
   0.1003696065595855E+01
   0.1003857936625111E+01
   0.1010025179226734E+01
   0.9755251202792130E+00
   0.1019496730223524E+01
   0.1002652155251260E+01
   0.1008306171271813E+01
   0.9960538200557528E+00
   0.1000962480712317E+01
   0.1003387550598206E+01
   0.1002238130465378E+01
   0.1001783116479771E+01
   0.1001850412782781E+01
   0.1005414918436955E+01
   0.1004541120625205E+01
   0.1003771848835694E+01
   0.1005433366640240E+01
   0.1007528430918760E+01
   0.1034529344593741E+01
   0.1004060417719616E+01
   0.1504693507681988E+01
   0.9195059099203300E+00
   0.9838218532804851E+00
   0.9870885085713470E+00
   0.9803380928477826E+00
   0.8214716228897534E+00
   0.9886229036990871E+00
   0.1020553578656112E+01
   0.1005030357764283E+01
   0.1002004568531799E+01
   0.1002961676314415E+01
   0.1000171142587800E+01
   0.1098954222331952E+01
   0.1004886365327479E+01
   0.1003034686214455E+01
   0.1002882195225374E+01
   0.1004548221557040E+01
   0.1000588942759659E+01
   0.1004835484780848E+01
   0.9964118365578996E+00
   0.1005299135574233E+01
   0.1012152395476337E+01
   0.1007310783159690E+01
   0.1068526969557148E+01
   0.1004523011834746E+01
   0.1007068532276194E+01
   0.9969091140789049E+00
   0.9928095727015517E+00
   0.1001872906520884E+01
   0.9868753026676805E+00
   0.1003700359673049E+01
   0.1003653326728985E+01
   0.1009942827790484E+01
   0.9763341067705135E+00
   0.1021404898167043E+01
   0.1001422560999424E+01
   0.1008559065816137E+01
   0.9957885124205212E+00
   0.1000895989693790E+01
   0.1003877872159821E+01
   0.1002272598998810E+01
   0.1001847929682002E+01
   0.1001926937715339E+01
   0.1005483720738273E+01
   0.1004591178196488E+01
   0.1003793733557020E+01
   0.1005475173273505E+01
   0.1007591327426103E+01
   0.1034667203933930E+01
   0.1004022748535345E+01
   0.1505234076108148E+01
   0.9191587445886265E+00
   0.9840491994917427E+00
   0.9873586999646096E+00
   0.9804484599312505E+00
   0.8217652898590952E+00
   0.9885433791130873E+00
   0.1020564028282566E+01
   0.1005034263269589E+01
   0.1002024140307156E+01
   0.1003008971382311E+01
   0.1000057851570233E+01
   0.1099532984805258E+01
   0.1004935432814274E+01
   0.1003106976030834E+01
   0.1002966047078302E+01
   0.1004644282730650E+01
   0.1000698078373677E+01
   0.1004838207487451E+01
   0.9964438583009946E+00
   0.1005387011852255E+01
   0.1012323610955159E+01
   0.1007414145912064E+01
   0.1068961671383928E+01
   0.1004593809598918E+01
   0.1007157910794444E+01
   0.9970611723055792E+00
   0.9929544798233254E+00
   0.1002093826406943E+01
   0.9869665475354552E+00
   0.1003732894048207E+01
   0.1003757998781424E+01
   0.1010073015378461E+01
   0.9766554835341387E+00
   0.1021641329107083E+01
   0.1001632788701455E+01
   0.1008727022167200E+01
   0.9958670719781973E+00
   0.1000961244746229E+01
   0.1003936257886965E+01
   0.1002262062516668E+01
   0.1001816597989789E+01
   0.1001879226514417E+01
   0.1005432340674888E+01
   0.1004550379242400E+01
   0.1003773719296730E+01
   0.1005437309223512E+01
   0.1007523016724442E+01
   0.1034552044590574E+01
   0.1003838727687830E+01
   0.1505122083649316E+01
   0.9191459779014862E+00
   0.9841187037478073E+00
   0.9874245445687506E+00
   0.9805895233200934E+00
   0.8217343722965124E+00
   0.9887796469518658E+00
   0.1020613466290359E+01
   0.1005027263943577E+01
   0.1002009292000861E+01
   0.1002993931067910E+01
   0.1000260163157918E+01
   0.1099224968614662E+01
   0.1004894751023195E+01
   0.1003077808947871E+01
   0.1002917695755159E+01
   0.1004606501894413E+01
   0.1000785811732282E+01
   0.1004902809876233E+01
   0.9965086270351522E+00
   0.1005412012251579E+01
   0.1012208472699795E+01
   0.1007335009665170E+01
   0.1068866565193490E+01
   0.1004542321136761E+01
   0.1007094675858049E+01
   0.9970403518194075E+00
   0.9928947616512805E+00
   0.1002067537819162E+01
   0.9870331179331708E+00
   0.1003737490005849E+01
   0.1003695873779037E+01
   0.1010008356430917E+01
   0.9765611886689535E+00
   0.1021692904304901E+01
   0.1001511382314775E+01
   0.1008773137264253E+01
   0.9958603523467372E+00
   0.1000953497690876E+01
   0.1004047172049984E+01
   0.1002272598580257E+01
   0.1001847928825688E+01
   0.1001926936363271E+01
   0.1005483721061536E+01
   0.1004591178392078E+01
   0.1003793733511234E+01
   0.1005475173248331E+01
   0.1007591327100990E+01
   0.1034667202960758E+01
   0.1004022746147243E+01
   0.1505234071484723E+01
   0.9191587583129502E+00
   0.9840491992724577E+00
   0.9873586866973336E+00
   0.9804484851072529E+00
   0.8217653166517808E+00
   0.9885434027519985E+00
   0.1020564027617443E+01
   0.1005034264065244E+01
   0.1002024140553614E+01
   0.1003008971809328E+01
   0.1000057855984626E+01
   0.1099532980409985E+01
   0.1004935432645943E+01
   0.1003106974042653E+01
   0.1002966046019810E+01
   0.1004644281631539E+01
   0.1000698083001273E+01
   0.1004838205185408E+01
   0.9964438597191486E+00
   0.1005387005340736E+01
   0.1012323612092197E+01
   0.1007414144903585E+01
   0.1068961674337032E+01
   0.1004593809190621E+01
   0.1007157910177733E+01
   0.9970611755000841E+00
   0.9929544774355151E+00
   0.1002093827932114E+01
   0.9869665412229233E+00
   0.1003732892851072E+01
   0.1003757998117232E+01
   0.1010073013262657E+01
   0.9766554915869284E+00
   0.1021641336277667E+01
   0.1001632788891262E+01
   0.1008727017943878E+01
   0.9958670668492520E+00
   0.1000961242770233E+01
   0.1003936252995828E+01
   0.1002238132341196E+01
   0.1001783117274142E+01
   0.1001850407272699E+01
   0.1005414919586191E+01
   0.1004541121107930E+01
   0.1003771849499463E+01
   0.1005433367469959E+01
   0.1007528431284017E+01
   0.1034529357908432E+01
   0.1004060412992872E+01
   0.1504693422487041E+01
   0.9195059519289701E+00
   0.9838218349665765E+00
   0.9870883854061385E+00
   0.9803382683815616E+00
   0.8214718185529489E+00
   0.9886229817656326E+00
   0.1020553551019548E+01
   0.1005030341849854E+01
   0.1002004561492922E+01
   0.1002961680960878E+01
   0.1000171268784357E+01
   0.1098954259554933E+01
   0.1004886365902020E+01
   0.1003034687102297E+01
   0.1002882193866894E+01
   0.1004548226409298E+01
   0.1000588947374984E+01
   0.1004835477641097E+01
   0.9964118410855327E+00
   0.1005299251031837E+01
   0.1012152411043875E+01
   0.1007310784411019E+01
   0.1068526975507529E+01
   0.1004523011636663E+01
   0.1007068532398987E+01
   0.9969091303068929E+00
   0.9928095513572862E+00
   0.1001872919384853E+01
   0.9868753618036309E+00
   0.1003700359777277E+01
   0.1003653329462105E+01
   0.1009942830156076E+01
   0.9763341316667911E+00
   0.1021404913565165E+01
   0.1001422556465920E+01
   0.1008559042266039E+01
   0.9957885103455424E+00
   0.1000895997126400E+01
   0.1003877854965757E+01
   0.1002300438117478E+01
   0.1001907393752246E+01
   0.1001996529314828E+01
   0.1005482609715519E+01
   0.1004615078731457E+01
   0.1003799172483167E+01
   0.1005528472486817E+01
   0.1007769198980199E+01
   0.1034852071389894E+01
   0.1007240155640044E+01
   0.1502973160188866E+01
   0.9223249566114479E+00
   0.9841305785178663E+00
   0.9862401422272840E+00
   0.9800625054646211E+00
   0.8203003430332321E+00
   0.9831825327220728E+00
   0.1019033508958085E+01
   0.1005113424985512E+01
   0.1002088993926923E+01
   0.1003051194330336E+01
   0.9961328613626860E+00
   0.1098398562593791E+01
   0.1004951709346120E+01
   0.1003130205689355E+01
   0.1003035897846575E+01
   0.1004613301700179E+01
   0.9992025126470158E+00
   0.1004605496204061E+01
   0.9964269202190037E+00
   0.1002801259698735E+01
   0.1012490803930245E+01
   0.1007510906383587E+01
   0.1068104937668348E+01
   0.1004631832527434E+01
   0.1007242285794106E+01
   0.9975280518900607E+00
   0.9934927318134265E+00
   0.1001871785174203E+01
   0.9846694324456158E+00
   0.1003696058146238E+01
   0.1003857937258118E+01
   0.1010025176007820E+01
   0.9755251705469099E+00
   0.1019496745523377E+01
   0.1002652129401758E+01
   0.1008306105373689E+01
   0.9960538058362229E+00
   0.1000962486411846E+01
   0.1003387516352216E+01
SCALARS u double 1
LOOKUP_TABLE default
   0.5000834980265514E+00
   0.4992071464829333E+00
   0.4997016962539501E+00
   0.4942030762761007E+00
   0.4931536913857253E+00
   0.4958227672776728E+00
   0.4949160615273366E+00
   0.4919635087990865E+00
   0.4684569755447667E+00
   0.4836472408226348E+00
   0.0000000000000000E+00
   0.0000000000000000E+00
   0.0000000000000000E+00
   0.0000000000000000E+00
   0.0000000000000000E+00
   0.0000000000000000E+00
   0.4774199807300127E+00
   0.5239564828323832E+00
   0.5120315235446353E+00
   0.4994261847728672E+00
   0.4978323034479054E+00
   0.3976878919988281E+00
   0.4468215375297483E+00
   0.4947275856639384E+00
   0.4979496519241399E+00
   0.4986075894384079E+00
   0.4985913290202536E+00
   0.5704173263691218E+00
   0.5373395436881268E+00
   0.5496933939156289E+00
   0.3071467777396025E+00
   0.4888447286510212E+00
   0.4922495553026831E+00
   0.5320683464229797E+00
   0.4954284874745277E+00
   0.4937385960588586E+00
   0.5475501037937386E+00
   0.5379481643987253E+00
   0.5857678744814099E+00
   0.4659393794310169E+00
   0.5002041171671876E+00
   0.4975622506186703E+00
   0.4935382280707523E+00
   0.3775460782937998E+00
   0.4133543573643224E+00
   0.4931172179816356E+00
   0.5713891880516058E+00
   0.5222484673946696E+00
   0.5016807752938939E+00
   0.5841521997428746E+00
   0.5003049484481182E+00
   0.4995409459608438E+00
   0.4999098454136566E+00
   0.4943420991059540E+00
   0.4932276091084826E+00
   0.4958600332297129E+00
   0.4949824451653031E+00
   0.4921671978299831E+00
   0.4689415621771141E+00
   0.4851987400234654E+00
   0.0000000000000000E+00
   0.0000000000000000E+00
   0.0000000000000000E+00
   0.0000000000000000E+00
   0.0000000000000000E+00
   0.0000000000000000E+00
   0.4809388936880994E+00
   0.5253629697362241E+00
   0.5115197430181532E+00
   0.4991523341557085E+00
   0.4980228800419431E+00
   0.4057833476354508E+00
   0.4503652678799115E+00
   0.4948112446122128E+00
   0.4981936538212365E+00
   0.4988461956109764E+00
   0.4987299808775439E+00
   0.5760294407940986E+00
   0.5368901981959341E+00
   0.5495672365789803E+00
   0.3136983807703916E+00
   0.4888917472922364E+00
   0.4925611070846900E+00
   0.5378223152718999E+00
   0.4956125109165972E+00
   0.4939940793423568E+00
   0.5476021850098891E+00
   0.5383312249289199E+00
   0.5916790025824585E+00
   0.4770170040692769E+00
   0.4991325071355531E+00
   0.4978106467195246E+00
   0.4934617522331893E+00
   0.3850040707788910E+00
   0.4237068870487478E+00
   0.4932952389637345E+00
   0.5770080087660193E+00
   0.5212096586761055E+00
   0.5007168174534541E+00
   0.5886535497355112E+00
   0.5002820330337320E+00
   0.4994291569506576E+00
   0.4997742673787582E+00
   0.4942229036069106E+00
   0.4931518610492210E+00
   0.4958355593172470E+00
   0.4949477275125407E+00
   0.4921042340506798E+00
   0.4687890854342577E+00
   0.4850088413957924E+00
   0.0000000000000000E+00
   0.0000000000000000E+00
   0.0000000000000000E+00
   0.0000000000000000E+00
   0.0000000000000000E+00
   0.0000000000000000E+00
   0.4811508497562694E+00
   0.5255640712245052E+00
   0.5115980788902736E+00
   0.4991578536669236E+00
   0.4979533512758317E+00
   0.4061601620523801E+00
   0.4503544307356579E+00
   0.4947425123562849E+00
   0.4980842189609483E+00
   0.4987119225558670E+00
   0.4985910423683082E+00
   0.5764081410474973E+00
   0.5370741679167357E+00
   0.5496403692097045E+00
   0.3141186035068352E+00
   0.4886537635144088E+00
   0.4924152549094856E+00
   0.5376639251342524E+00
   0.4954950386271109E+00
   0.4938617107692048E+00
   0.5474477523339576E+00
   0.5381069925755922E+00
   0.5916612444860353E+00
   0.4774746050449009E+00
   0.4991202657965159E+00
   0.4976550329196696E+00
   0.4932704766276313E+00
   0.3849604823653445E+00
   0.4239980230871636E+00
   0.4928805046077267E+00
   0.5771317958733444E+00
   0.5211246231742501E+00
   0.5006431666615804E+00
   0.5888635381300577E+00
   0.5002830019749155E+00
   0.4994831298135404E+00
   0.4998605610143459E+00
   0.4943105911767297E+00
   0.4932159099519283E+00
   0.4958576625064200E+00
   0.4949857958614536E+00
   0.4921710223743883E+00
   0.4689313733484833E+00
   0.4851877053174892E+00
   0.0000000000000000E+00
   0.0000000000000000E+00
   0.0000000000000000E+00
   0.0000000000000000E+00
   0.0000000000000000E+00
   0.0000000000000000E+00
   0.4808447669831893E+00
   0.5253613692266779E+00
   0.5115491664899980E+00
   0.4991474716565859E+00
   0.4979529216763438E+00
   0.4057111301857779E+00
   0.4503566631624956E+00
   0.4947992528819433E+00
   0.4981024629867354E+00
   0.4987797630743923E+00
   0.4986113261479487E+00
   0.5758753291867768E+00
   0.5368361669740622E+00
   0.5494187453998252E+00
   0.3137632906613383E+00
   0.4887634855053448E+00
   0.4925153471577747E+00
   0.5375744835124281E+00
   0.4955745967074083E+00
   0.4939461916323141E+00
   0.5473493496962825E+00
   0.5380863306939545E+00
   0.5914361983369761E+00
   0.4769557925496870E+00
   0.4990525495588372E+00
   0.4977279984347218E+00
   0.4933198347036192E+00
   0.3847039681009259E+00
   0.4235573296205964E+00
   0.4929657207151002E+00
   0.5767941661893541E+00
   0.5210409686641744E+00
   0.5005841967351317E+00
   0.5884814970160898E+00
   0.5002820325975337E+00
   0.4994291534340469E+00
   0.4997742709160319E+00
   0.4942229045920685E+00
   0.4931518613249186E+00
   0.4958355593999327E+00
   0.4949477276170701E+00
   0.4921042345971289E+00
   0.4687890837853461E+00
   0.4850088463423080E+00
   0.0000000000000000E+00
   0.0000000000000000E+00
   0.0000000000000000E+00
   0.0000000000000000E+00
   0.0000000000000000E+00
   0.0000000000000000E+00
   0.4811508409842276E+00
   0.5255640799810759E+00
   0.5115980868519636E+00
   0.4991578560516965E+00
   0.4979533514671755E+00
   0.4061601589378508E+00
   0.4503544283701959E+00
   0.4947425129067534E+00
   0.4980842218637929E+00
   0.4987119265620656E+00
   0.4985910478836577E+00
   0.5764081352191254E+00
   0.5370741842836556E+00
   0.5496403816042441E+00
   0.3141186083159586E+00
   0.4886537696515965E+00
   0.4924152544976289E+00
   0.5376639223525563E+00
   0.4954950395787098E+00
   0.4938617110627703E+00
   0.5474477585559142E+00
   0.5381069997118134E+00
   0.5916612421853548E+00
   0.4774746070227729E+00
   0.4991202747887351E+00
   0.4976550336790663E+00
   0.4932704840209148E+00
   0.3849604720043867E+00
   0.4239980148941843E+00
   0.4928805101015899E+00
   0.5771318046589283E+00
   0.5211246395009644E+00
   0.5006431785561236E+00
   0.5888635509605453E+00
   0.5003049512395026E+00
   0.4995409494092083E+00
   0.4999098557898268E+00
   0.4943421016439453E+00
   0.4932276090498640E+00
   0.4958600325579182E+00
   0.4949824443298393E+00
   0.4921671952909357E+00
   0.4689415739988848E+00
   0.4851987256989022E+00
   0.0000000000000000E+00
   0.0000000000000000E+00
   0.0000000000000000E+00
   0.0000000000000000E+00
   0.0000000000000000E+00
   0.0000000000000000E+00
   0.4809388268109029E+00
   0.5253629591292804E+00
   0.5115197381046155E+00
   0.4991523441995076E+00
   0.4980228799512276E+00
   0.4057833150357383E+00
   0.4503652894718838E+00
   0.4948112434306823E+00
   0.4981936531792375E+00
   0.4988461916432035E+00
   0.4987299729129031E+00
   0.5760293905248579E+00
   0.5368901399184195E+00
   0.5495672086139477E+00
   0.3136983012892612E+00
   0.4888917369284067E+00
   0.4925611034369011E+00
   0.5378222759683245E+00
   0.4956125087729170E+00
   0.4939940756324221E+00
   0.5476021927832824E+00
   0.5383312256965945E+00
   0.5916789859301687E+00
   0.4770169421927958E+00
   0.4991324890326402E+00
   0.4978106421442542E+00
   0.4934617471418496E+00
   0.3850040651393853E+00
   0.4237068272312079E+00
   0.4932952067357542E+00
   0.5770080279474941E+00
   0.5212096219700370E+00
   0.5007167846623855E+00
   0.5886536044057924E+00
   0.5000835067975595E+00
   0.4992071743758569E+00
   0.4997017380514551E+00
   0.4942031001806563E+00
   0.4931536930363237E+00
   0.4958227652082351E+00
   0.4949160573029129E+00
   0.4919635024636440E+00
   0.4684570351695556E+00
   0.4836472745514102E+00
   0.0000000000000000E+00
   0.0000000000000000E+00
   0.0000000000000000E+00
   0.0000000000000000E+00
   0.0000000000000000E+00
   0.0000000000000000E+00
   0.4774199828279114E+00
   0.5239565144551108E+00
   0.5120315680058767E+00
   0.4994262249112532E+00
   0.4978323283615859E+00
   0.3976880177888415E+00
   0.4468216421426310E+00
   0.4947275805978050E+00
   0.4979496791401612E+00
   0.4986075933566271E+00
   0.4985913595688567E+00
   0.5704173070433290E+00
   0.5373395188947918E+00
   0.5496934312979048E+00
   0.3071466690718068E+00
   0.4888447401320504E+00
   0.4922495624070733E+00
   0.5320683347260386E+00
   0.4954284896786301E+00
   0.4937385941943688E+00
   0.5475502004439218E+00
   0.5379482346621728E+00
   0.5857678945442961E+00
   0.4659393687666409E+00
   0.5002041588705303E+00
   0.4975622594696128E+00
   0.4935382661640815E+00
   0.3775460989792871E+00
   0.4133542468891721E+00
   0.4931172167744027E+00
   0.5713892676227542E+00
   0.5222484883982242E+00
   0.5016807999984720E+00
   0.5841523513633037E+00
SCALARS v double 1
LOOKUP_TABLE default
   0.0000000000000000E+00
   0.0000000000000000E+00
   0.0000000000000000E+00
   0.0000000000000000E+00
   0.0000000000000000E+00
   0.0000000000000000E+00
   0.0000000000000000E+00
   0.0000000000000000E+00
   0.0000000000000000E+00
   0.0000000000000000E+00
   0.0000000000000000E+00
   0.0000000000000000E+00
   0.0000000000000000E+00
   0.0000000000000000E+00
   0.0000000000000000E+00
   0.0000000000000000E+00
   0.0000000000000000E+00
   0.0000000000000000E+00
   0.0000000000000000E+00
   0.0000000000000000E+00
   0.0000000000000000E+00
   0.0000000000000000E+00
   0.0000000000000000E+00
   0.0000000000000000E+00
   0.0000000000000000E+00
   0.0000000000000000E+00
   0.0000000000000000E+00
   0.0000000000000000E+00
   0.0000000000000000E+00
   0.0000000000000000E+00
   0.0000000000000000E+00
   0.0000000000000000E+00
   0.0000000000000000E+00
   0.0000000000000000E+00
   0.0000000000000000E+00
   0.0000000000000000E+00
   0.0000000000000000E+00
   0.0000000000000000E+00
   0.0000000000000000E+00
   0.0000000000000000E+00
   0.0000000000000000E+00
   0.0000000000000000E+00
   0.0000000000000000E+00
   0.0000000000000000E+00
   0.0000000000000000E+00
   0.0000000000000000E+00
   0.0000000000000000E+00
   0.0000000000000000E+00
   0.0000000000000000E+00
   0.0000000000000000E+00
  -0.4836583172773096E-04
  -0.7453021070105433E-04
  -0.6506962802970175E-04
  -0.1098300428003835E-04
  -0.1904146944551357E-04
   0.7417047675418791E-05
  -0.1853717749482633E-04
  -0.3432266139523279E-04
   0.1277845042841509E-04
  -0.1084062854942871E-02
   0.0000000000000000E+00
   0.0000000000000000E+00
   0.0000000000000000E+00