title="tecplot geometry and solution file"
variables = x y z rho u v w p mach temperature
zone t="boundary 1 bc-1", solutiontime= 0.8000000E+02, strandid=1001, i=42, j=30, f=feblock
  0.000000000000E+00  0.000000000000E+00  0.000000000000E+00  0.000000000000E+00  0.000000000000E+00  0.000000000000E+00  0.000000000000E+00
  0.000000000000E+00  0.000000000000E+00  0.000000000000E+00  0.000000000000E+00  0.000000000000E+00  0.000000000000E+00  0.000000000000E+00
  0.000000000000E+00  0.000000000000E+00  0.000000000000E+00  0.000000000000E+00  0.000000000000E+00  0.000000000000E+00  0.000000000000E+00
  0.000000000000E+00  0.000000000000E+00  0.000000000000E+00  0.000000000000E+00  0.000000000000E+00  0.000000000000E+00  0.000000000000E+00
  0.000000000000E+00  0.000000000000E+00  0.000000000000E+00  0.000000000000E+00  0.000000000000E+00  0.000000000000E+00  0.000000000000E+00
  0.000000000000E+00  0.000000000000E+00  0.000000000000E+00  0.000000000000E+00  0.000000000000E+00  0.000000000000E+00  0.000000000000E+00
  0.000000000000E+00 -0.833333333333E+00  0.000000000000E+00  0.000000000000E+00  0.000000000000E+00 -0.166666666667E+01 -0.833333333333E+00
 -0.833333333333E+00 -0.833333333333E+00  0.000000000000E+00 -0.250000000000E+01 -0.166666666667E+01 -0.166666666667E+01 -0.166666666667E+01
 -0.833333333333E+00  0.000000000000E+00 -0.333333333333E+01 -0.250000000000E+01 -0.250000000000E+01 -0.250000000000E+01 -0.166666666667E+01
 -0.833333333333E+00 -0.416666666667E+01 -0.333333333333E+01 -0.333333333333E+01 -0.333333333333E+01 -0.250000000000E+01 -0.166666666667E+01
 -0.500000000000E+01 -0.416666666667E+01 -0.416666666667E+01 -0.416666666667E+01 -0.333333333333E+01 -0.250000000000E+01 -0.500000000000E+01
 -0.500000000000E+01 -0.500000000000E+01 -0.416666666667E+01 -0.333333333333E+01 -0.500000000000E+01 -0.416666666667E+01 -0.500000000000E+01
  0.500000000000E+01  0.500000000000E+01  0.400000000000E+01  0.200000000000E+01  0.300000000000E+01  0.500000000000E+01  0.400000000000E+01
  0.200000000000E+01  0.300000000000E+01  0.100000000000E+01  0.500000000000E+01  0.400000000000E+01  0.200000000000E+01  0.300000000000E+01
  0.100000000000E+01  0.000000000000E+00  0.500000000000E+01  0.400000000000E+01  0.200000000000E+01  0.300000000000E+01  0.100000000000E+01
  0.000000000000E+00  0.500000000000E+01  0.400000000000E+01  0.200000000000E+01  0.300000000000E+01  0.100000000000E+01  0.000000000000E+00
  0.500000000000E+01  0.400000000000E+01  0.200000000000E+01  0.300000000000E+01  0.100000000000E+01  0.000000000000E+00  0.400000000000E+01
  0.200000000000E+01  0.300000000000E+01  0.100000000000E+01  0.000000000000E+00  0.100000000000E+01  0.000000000000E+00  0.000000000000E+00
  0.100379920093E+01  0.100377182842E+01  0.100552847927E+01  0.103485218921E+01  0.100776915796E+01  0.100379376196E+01  0.100543339188E+01
  0.103452922165E+01  0.100752841341E+01  0.100724027724E+01  0.100377369488E+01  0.100547518948E+01  0.103466725458E+01  0.100759132880E+01
  0.100406038025E+01  0.150297344614E+01  0.100379376191E+01  0.100543732891E+01  0.103455198686E+01  0.100752295860E+01  0.100402276357E+01
  0.150469346384E+01  0.100377182909E+01  0.100547518945E+01  0.103466725361E+01  0.100759132847E+01  0.100383873307E+01  0.150523407587E+01
  0.100379920211E+01  0.100543339272E+01  0.103452923497E+01  0.100752841378E+01  0.100402276119E+01  0.150512209993E+01  0.100552847967E+01
  0.103485219708E+01  0.100776915629E+01  0.100406037553E+01  0.150523407124E+01  0.100724021883E+01  0.150469337865E+01  0.150297322335E+01
  0.495822802660E+00  0.495859972478E+00  0.494916041341E+00  0.468456877635E+00  0.491963533444E+00  0.495835579603E+00  0.494982437320E+00
  0.468941670377E+00  0.492167206181E+00  0.483647194612E+00  0.495857614467E+00  0.494947710682E+00  0.468789038109E+00  0.492104220383E+00
  0.485198762436E+00  0.000000000000E+00  0.495835579691E+00  0.494985775526E+00  0.468931435022E+00  0.492171062150E+00  0.485008822558E+00
  0.000000000000E+00  0.495859971804E+00  0.494947710789E+00  0.468789036452E+00  0.492104220932E+00  0.485187704946E+00  0.000000000000E+00
  0.495822800568E+00  0.494982436480E+00  0.468941682199E+00  0.492167203640E+00  0.485008827501E+00  0.000000000000E+00  0.494916037105E+00
  0.468456937287E+00  0.491963527111E+00  0.485198748112E+00  0.000000000000E+00  0.483647228351E+00  0.000000000000E+00  0.000000000000E+00
  0.000000000000E+00  0.740322101547E-05  0.000000000000E+00  0.000000000000E+00  0.000000000000E+00  0.260412490734E-05 -0.185349378238E-04
  0.127513976257E-04 -0.343147092108E-04  0.000000000000E+00 -0.269794817541E-09 -0.435608359457E-05  0.647426279934E-04 -0.829694007394E-05
 -0.108407330977E-02  0.000000000000E+00 -0.260407693314E-05  0.913338517708E-09 -0.393793175533E-08  0.127797895021E-08 -0.138945604112E-03
  0.000000000000E+00 -0.740270621727E-05  0.435774135222E-05 -0.647447793660E-04  0.829802926248E-05  0.276425602428E-09  0.000000000000E+00
  0.000000000000E+00  0.185355829297E-04 -0.127633747099E-04  0.343151913180E-04  0.138946471825E-03  0.000000000000E+00  0.000000000000E+00
  0.000000000000E+00  0.000000000000E+00  0.108406957841E-02  0.000000000000E+00  0.000000000000E+00  0.000000000000E+00  0.000000000000E+00
  0.177014712508E-02  0.174896487920E-02 -0.839498837846E-03 -0.500684551943E-02  0.363924518223E-02  0.176202288477E-02 -0.827667982128E-03
 -0.522809116322E-02  0.368542077904E-02  0.352737924154E-01  0.174976546144E-02 -0.835746754676E-03 -0.525043108220E-02  0.368250599715E-02
  0.339324960284E-01  0.000000000000E+00  0.176202291210E-02 -0.831686959293E-03 -0.527604411954E-02  0.368982584027E-02  0.340561868226E-01
  0.000000000000E+00  0.174896586320E-02 -0.835747240697E-03 -0.525043594403E-02  0.368250564148E-02  0.340205455443E-01  0.000000000000E+00
  0.177014687477E-02 -0.827666222867E-03 -0.522811050118E-02  0.368542399897E-02  0.340561917325E-01  0.000000000000E+00 -0.839499357581E-03
 -0.500684694595E-02  0.363924538002E-02  0.339325070965E-01  0.000000000000E+00  0.352738518801E-01  0.000000000000E+00  0.000000000000E+00
  0.717938282491E+00  0.717911376233E+00  0.720348515441E+00  0.741922986458E+00  0.723054800978E+00  0.717932572133E+00  0.720254698974E+00
  0.741394977523E+00  0.722829198870E+00  0.744874826044E+00  0.717912696917E+00  0.720299312568E+00  0.741518026534E+00  0.722895814698E+00
  0.742490120759E+00  0.107355246153E+01  0.717932572083E+00  0.720260426608E+00  0.741407854106E+00  0.722825911431E+00  0.742508444750E+00
  0.107478104560E+01  0.717911377252E+00  0.720299312508E+00  0.741518025487E+00  0.722895814162E+00  0.742297293987E+00  0.107516719705E+01
  0.717938284347E+00  0.720254699317E+00  0.741394992169E+00  0.722829197463E+00  0.742508441942E+00  0.107508721424E+01  0.720348515075E+00
  0.741922997851E+00  0.723054795745E+00  0.742490120061E+00  0.107516719375E+01  0.744874771715E+00  0.107478098475E+01  0.107355230239E+01
  0.495501658754E+00  0.495541258333E+00  0.494190044728E+00  0.467616851477E+00  0.490880410307E+00  0.495515026525E+00  0.494265140448E+00
  0.468196710534E+00  0.491101927793E+00  0.476586283401E+00  0.495538909547E+00  0.494225444083E+00  0.468036978456E+00  0.491031764065E+00
  0.478025193445E+00  0.000000000000E+00  0.495515026619E+00  0.494267482641E+00  0.468188114241E+00  0.491105594281E+00  0.477831457611E+00
  0.000000000000E+00  0.495541257475E+00  0.494225444204E+00  0.468036976969E+00  0.491031764712E+00  0.478028522475E+00  0.000000000000E+00
  0.495501656312E+00  0.494265139693E+00  0.468196720940E+00  0.491101925849E+00  0.477831463131E+00  0.000000000000E+00  0.494190040723E+00
  0.467616909218E+00  0.490880405358E+00  0.478025179253E+00  0.000000000000E+00  0.476586324283E+00  0.000000000000E+00  0.000000000000E+00
  0.100130941981E+01  0.100129919795E+01  0.100294317108E+01  0.100371066697E+01  0.100447281341E+01  0.100130688103E+01  0.100290738969E+01
  0.100330947334E+01  0.100439934492E+01  0.103532868971E+01  0.100129917810E+01  0.100292781776E+01  0.100334212043E+01  0.100442918835E+01
  0.103528252833E+01  0.100000000000E+01  0.100130688101E+01  0.100291143789E+01  0.100330482076E+01  0.100440021476E+01  0.103534686699E+01
  0.100000000000E+01  0.100129919871E+01  0.100292781770E+01  0.100334211995E+01  0.100442918793E+01  0.103524219314E+01  0.100000000000E+01
  0.100130942122E+01  0.100290738934E+01  0.100330948025E+01  0.100439934260E+01  0.103534686553E+01  0.100000000000E+01  0.100294317018E+01
  0.100371067474E+01  0.100447280781E+01  0.103528253223E+01  0.100000000000E+01  0.103532867424E+01  0.100000000000E+01  0.100000000000E+01
         2         7         3         1
         7         9         5         3
         9         8         4         5
         8        15        10         4
        15        22        16        10
         6        12         7         2
        12        14         9         7
        14        13         8         9
        13        21        15         8
        21        28        22        15
        11        18        12         6
        18        20        14        12
        20        19        13        14
        19        27        21        13
        27        34        28        21
        17        24        18        11
        24        26        20        18
        26        25        19        20
        25        33        27        19
        33        39        34        27
        23        30        24        17
        30        32        26        24
        32        31        25        26
        31        38        33        25
        38        41        39        33
        29        35        30        23
        35        37        32        30
        37        36        31        32
        36        40        38        31
        40        42        41        38
zone t="boundary 2 bc-2", solutiontime= 0.8000000E+02, strandid=1002, i=50, j=78, f=feblock
  0.500000000000E+01  0.400000000000E+01  0.500000000000E+01  0.432205072469E+01  0.300000000000E+01  0.339985167428E+01  0.500000000000E+01
  0.414352482062E+01  0.200000000000E+01  0.238772260472E+01  0.328766614337E+01  0.253053942594E+01  0.500000000000E+01  0.437470683547E+01
  0.355186041251E+01  0.100000000000E+01  0.148474164412E+01  0.182006405350E+01  0.265208498144E+01  0.158439218620E+01  0.500000000000E+01
  0.421824364393E+01  0.356601661300E+01  0.279151482472E+01  0.000000000000E+00  0.691584087487E+00  0.102677755985E+01  0.203910647352E+01
  0.786163368796E+00  0.130062434092E+01  0.579883387792E+00  0.500000000000E+01  0.439593351493E+01  0.365358382485E+01  0.222719085292E+01
  0.294979435250E+01  0.181898636514E+01  0.000000000000E+00  0.000000000000E+00  0.608717331133E+00  0.956798945949E+00  0.000000000000E+00
  0.400000000000E+01  0.200000000000E+01  0.160059523280E+01  0.300000000000E+01  0.000000000000E+00  0.482256655205E+00  0.100000000000E+01
  0.000000000000E+00
 -0.500000000000E+01 -0.500000000000E+01 -0.500000000000E+01 -0.500000000000E+01 -0.500000000000E+01 -0.500000000000E+01 -0.500000000000E+01
 -0.500000000000E+01 -0.500000000000E+01 -0.500000000000E+01 -0.500000000000E+01 -0.500000000000E+01 -0.500000000000E+01 -0.500000000000E+01
 -0.500000000000E+01 -0.500000000000E+01 -0.500000000000E+01 -0.500000000000E+01 -0.500000000000E+01 -0.500000000000E+01 -0.500000000000E+01
 -0.500000000000E+01 -0.500000000000E+01 -0.500000000000E+01 -0.500000000000E+01 -0.500000000000E+01 -0.500000000000E+01 -0.500000000000E+01
 -0.500000000000E+01 -0.500000000000E+01 -0.500000000000E+01 -0.500000000000E+01 -0.500000000000E+01 -0.500000000000E+01 -0.500000000000E+01
 -0.500000000000E+01 -0.500000000000E+01 -0.500000000000E+01 -0.500000000000E+01 -0.500000000000E+01 -0.500000000000E+01 -0.500000000000E+01
 -0.500000000000E+01 -0.500000000000E+01 -0.500000000000E+01 -0.500000000000E+01 -0.500000000000E+01 -0.500000000000E+01 -0.500000000000E+01
 -0.500000000000E+01
  0.500000000000E+01  0.500000000000E+01  0.400000000000E+01  0.427284776458E+01  0.500000000000E+01  0.409791606955E+01  0.300000000000E+01
  0.334954216394E+01  0.500000000000E+01  0.428961258157E+01  0.317389756208E+01  0.342579600005E+01  0.200000000000E+01  0.245604909385E+01
  0.233993022181E+01  0.500000000000E+01  0.436396516571E+01  0.369973104758E+01  0.256908373316E+01  0.279597472668E+01  0.100000000000E+01
  0.157729503259E+01  0.159701071514E+01  0.152167522831E+01  0.500000000000E+01  0.441213888848E+01  0.370665089386E+01  0.199896920986E+01
  0.224835513052E+01  0.181406525358E+01  0.296809553468E+01  0.000000000000E+00  0.696815730569E+00  0.990157383601E+00  0.787866207738E+00
  0.548147595005E+00  0.128672970530E+01  0.400000000000E+01  0.200000000000E+01  0.160443740745E+01  0.959766653149E+00  0.300000000000E+01
  0.000000000000E+00  0.000000000000E+00  0.606872513237E+00  0.000000000000E+00  0.100000000000E+01  0.486991412371E+00  0.000000000000E+00
  0.000000000000E+00
  0.100230066074E+01  0.100190738245E+01  0.100208914026E+01  0.100305127961E+01  0.100199677415E+01  0.100313002398E+01  0.100511305538E+01
  0.100369601671E+01  0.100548277787E+01  0.100303578287E+01  0.100096255107E+01  0.100461343542E+01  0.101903418594E+01  0.100460538789E+01
  0.996426948289E+00  0.100461508907E+01  0.100463192493E+01  0.100385810235E+01  0.996053741135E+00  0.101002521149E+01  0.983181470966E+00
  0.999202967502E+00  0.100338732076E+01  0.100830639732E+01  0.100379920211E+01  0.100495175693E+01  0.100724225553E+01  0.997527954598E+00
  0.101249072443E+01  0.993492898627E+00  0.100751096751E+01  0.820299571255E+00  0.996131205823E+00  0.984669200013E+00  0.101949700703E+01
  0.100280039073E+01  0.100187166066E+01  0.100552847967E+01  0.103485219708E+01  0.100265211894E+01  0.106810502364E+01  0.100776915629E+01
  0.980062261000E+00  0.984130641361E+00  0.975525039236E+00  0.986240183466E+00  0.100724021883E+01  0.109839843539E+01  0.922325000732E+00
  0.150297322335E+01
  0.500084064599E+00  0.499208593867E+00  0.499425874178E+00  0.497832346780E+00  0.499701604378E+00  0.497949392874E+00  0.512031837733E+00
  0.500203830791E+00  0.494202329811E+00  0.498607201463E+00  0.501680760951E+00  0.498591313018E+00  0.523955848133E+00  0.537339467300E+00
  0.549693428303E+00  0.493153503837E+00  0.495428377295E+00  0.497562366083E+00  0.522248528097E+00  0.493538227090E+00  0.477420900939E+00
  0.570417542004E+00  0.584152541918E+00  0.571389193988E+00  0.495822800568E+00  0.494727598772E+00  0.493738585439E+00  0.547550114771E+00
  0.488844649142E+00  0.537948132394E+00  0.492249514037E+00  0.000000000000E+00  0.397687832520E+00  0.465939024396E+00  0.413354029314E+00
  0.307146465418E+00  0.585767769036E+00  0.494916037105E+00  0.468456937287E+00  0.493117190985E+00  0.532068301836E+00  0.491963527111E+00
  0.000000000000E+00  0.000000000000E+00  0.377545986117E+00  0.000000000000E+00  0.483647228351E+00  0.446821643742E+00  0.000000000000E+00
  0.000000000000E+00
  0.000000000000E+00  0.000000000000E+00  0.000000000000E+00  0.000000000000E+00  0.000000000000E+00  0.000000000000E+00  0.000000000000E+00
  0.000000000000E+00  0.000000000000E+00  0.000000000000E+00  0.000000000000E+00  0.000000000000E+00  0.000000000000E+00  0.000000000000E+00
  0.000000000000E+00  0.000000000000E+00  0.000000000000E+00  0.000000000000E+00  0.000000000000E+00  0.000000000000E+00  0.000000000000E+00
  0.000000000000E+00  0.000000000000E+00  0.000000000000E+00  0.000000000000E+00  0.000000000000E+00  0.000000000000E+00  0.000000000000E+00
  0.000000000000E+00  0.000000000000E+00  0.000000000000E+00  0.000000000000E+00  0.000000000000E+00  0.000000000000E+00  0.000000000000E+00
  0.000000000000E+00  0.000000000000E+00  0.000000000000E+00  0.000000000000E+00  0.000000000000E+00  0.000000000000E+00  0.000000000000E+00
  0.000000000000E+00  0.000000000000E+00  0.000000000000E+00  0.000000000000E+00  0.000000000000E+00  0.000000000000E+00  0.000000000000E+00
  0.000000000000E+00
  0.327115493623E-02  0.433426745331E-02  0.733644667153E-02  0.466764197622E-02  0.461190995104E-02  0.429164092331E-02  0.121352615933E-01
  0.421182179033E-02  0.342421066612E-02  0.532018302838E-02  0.321400814950E-02  0.656355785931E-02 -0.228657297368E-01  0.630601144475E-02
  0.934028141396E-02  0.482012007287E-02  0.603804444577E-02  0.734580032958E-02  0.127817338868E-01  0.106209579400E-01 -0.872643775060E-01
 -0.932889501160E-02  0.727762763687E-02  0.219484593932E-01  0.177014687477E-02  0.391466076044E-02  0.536429882972E-02  0.250614847635E-01
  0.861764934972E-02  0.445508582871E-01  0.601790354700E-02  0.000000000000E+00 -0.437729283362E-01  0.126989859488E-01  0.560219048910E-02
  0.453816066805E-02  0.380557991713E-01 -0.839499357581E-03 -0.500684694595E-02  0.258314807605E-01  0.733035902038E-01  0.363924538002E-02
  0.000000000000E+00  0.000000000000E+00 -0.110058117255E-01  0.000000000000E+00  0.352738518801E-01  0.179012081945E+00  0.000000000000E+00
  0.000000000000E+00
  0.716679799378E+00  0.716861596131E+00  0.716428029412E+00  0.717007215523E+00  0.716858485857E+00  0.716846871920E+00  0.720759713425E+00
  0.718673910792E+00  0.719247462505E+00  0.718218449768E+00  0.715862898077E+00  0.716773392960E+00  0.730503405238E+00  0.720079863680E+00
  0.711995696858E+00  0.719026915164E+00  0.719199682848E+00  0.718602932929E+00  0.714411520465E+00  0.721663532169E+00  0.687380829538E+00
  0.705377883324E+00  0.708075624278E+00  0.712749845195E+00  0.717938284347E+00  0.719437717993E+00  0.721992534165E+00  0.718921278160E+00
  0.723520337942E+00  0.717705379916E+00  0.720781703090E+00  0.585928265182E+00  0.694218801731E+00  0.690304624468E+00  0.715889191802E+00
  0.707670694410E+00  0.698077260839E+00  0.720348515075E+00  0.741922997851E+00  0.738946142833E+00  0.749085143608E+00  0.723054795745E+00
  0.700044472143E+00  0.702950458115E+00  0.681417425744E+00  0.704457273904E+00  0.744874771715E+00  0.724803767888E+00  0.658803571951E+00
  0.107355230239E+01
  0.499832758046E+00  0.498804697185E+00  0.499253096328E+00  0.497666018030E+00  0.499323111680E+00  0.497854842749E+00  0.511172039568E+00
  0.499612794202E+00  0.493854873747E+00  0.498022752932E+00  0.501379217844E+00  0.498915355040E+00  0.523512543719E+00  0.536441101222E+00
  0.549671552048E+00  0.492681350934E+00  0.494911854359E+00  0.497075666025E+00  0.521327217731E+00  0.493578286983E+00  0.490559610544E+00
  0.573855919536E+00  0.587747021339E+00  0.574798820971E+00  0.495501656312E+00  0.494187460786E+00  0.492900542771E+00  0.545677634382E+00
  0.488814944063E+00  0.536747335086E+00  0.491899911766E+00  0.000000000000E+00  0.405045043834E+00  0.470490754498E+00  0.416934770767E+00
  0.309044163016E+00  0.594333693830E+00  0.494190040723E+00  0.467616909218E+00  0.486127204313E+00  0.542035545057E+00  0.490880405358E+00
  0.000000000000E+00  0.000000000000E+00  0.381946804162E+00  0.000000000000E+00  0.476586324283E+00  0.500799581550E+00  0.000000000000E+00
  0.000000000000E+00
  0.100104864581E+01  0.100169561794E+01  0.100090820356E+01  0.100075651379E+01  0.100160190741E+01  0.100045417513E+01  0.100393044682E+01
  0.100243844586E+01  0.100145568842E+01  0.100246257098E+01  0.100124430853E+01  0.998874507112E+00  0.100360201988E+01  0.100349034686E+01
  0.100036834342E+01  0.100201330060E+01  0.100223726820E+01  0.100217760234E+01  0.100413871998E+01  0.100030071878E+01  0.978795054394E+00
  0.988316757228E+00  0.987959338814E+00  0.989629527219E+00  0.100130942122E+01  0.100224990727E+01  0.100352178663E+01  0.100898404379E+01
  0.100043234835E+01  0.101136860995E+01  0.100157161249E+01  0.100000000000E+01  0.975681031517E+00  0.981473244256E+00  0.983077793865E+00
  0.987972263805E+00  0.975482393160E+00  0.100294317018E+01  0.100371067474E+01  0.103178817500E+01  0.981850265511E+00  0.100447280781E+01
  0.100000000000E+01  0.100000000000E+01  0.977918923321E+00  0.100000000000E+01  0.103532867424E+01  0.923822578723E+00  0.100000000000E+01
  0.100000000000E+01
        44        35        36        36
        24        34        36        36
        38        27        31        31
        20        29        31        31
        24        23        34        34
        15        22        23        23
        24        35        37        37
        41        30        37        37
        27        18        20        20
        17        18        27        27
        15        19        11        11
        12         6        11        11
         8         7        14        14
        13        14         7         7
        41        40        30        30
        47        39        40        40
        17         9        10        10
         5        10         9         9
        44        45        35        35
        49        41        45        45
        19        15        24        24
        36        35        24        24
        37        45        41        41
        40        39        29        29
        30        29        20        20
        12        18        10        10
        20        12        19        19
        11         8        15        15
        20        18        12        12
        27        20        31        31
        28        20        19        19
        23        24        15        15
        23        22        34        34
        28        24        37        37
        11        19        12        12
        11         6         8         8
        28        19        24        24
        40        41        47        47
        30        40        29        29
        45        44        49        49
        37        35        45        45
        16        26        25        25
        27        38        26        26
        47        48        50        50
        43        33        32        32
        22        21        33        33
         3         4         1         1
         6         2         4         4
        10         5         6         6
        14        13        22        22
         4         3         8         8
         7         8         3         3
        42        38        31        31
         9        17        16        16
        33        43        34        34
        36        34        43        43
        41        48        47        47
        15         8        14        14
        28        30        20        20
        18        17        10        10
        42        31        39        39
        26        16        17        17
         8         6         4         4
        34        22        33        33
        37        30        28        28
        27        26        17        17
        49        48        41        41
        46        36        43        43
        31        29        39        39
        36        46        44        44
        22        13        21        21
        15        14        22        22
         6         5         2         2
        12        10         6         6
        26        38        25        25
        48        49        50        50
        33        21        32        32
         4         2         1         1
zone t="boundary 3 bc-3", solutiontime= 0.8000000E+02, strandid=1003, i=50, j=78, f=feblock
  0.500000000000E+01  0.400000000000E+01  0.500000000000E+01  0.432205072469E+01  0.300000000000E+01  0.339985167428E+01  0.500000000000E+01
  0.414352482062E+01  0.200000000000E+01  0.238772260472E+01  0.328766614337E+01  0.253053942594E+01  0.500000000000E+01  0.437470683547E+01
  0.355186041251E+01  0.100000000000E+01  0.148474164412E+01  0.182006405350E+01  0.265208498144E+01  0.158439218620E+01  0.500000000000E+01
  0.421824364393E+01  0.356601661300E+01  0.279151482472E+01  0.000000000000E+00  0.691584087487E+00  0.102677755985E+01  0.203910647352E+01
  0.786163368796E+00  0.130062434092E+01  0.579883387792E+00  0.500000000000E+01  0.439593351493E+01  0.365358382485E+01  0.222719085292E+01
  0.294979435250E+01  0.181898636514E+01  0.000000000000E+00  0.000000000000E+00  0.608717331133E+00  0.956798945949E+00  0.000000000000E+00
  0.400000000000E+01  0.200000000000E+01  0.160059523280E+01  0.300000000000E+01  0.000000000000E+00  0.482256655205E+00  0.100000000000E+01
  0.000000000000E+00
  0.000000000000E+00  0.000000000000E+00  0.000000000000E+00  0.000000000000E+00  0.000000000000E+00  0.000000000000E+00  0.000000000000E+00
  0.000000000000E+00  0.000000000000E+00  0.000000000000E+00  0.000000000000E+00  0.000000000000E+00  0.000000000000E+00  0.000000000000E+00
  0.000000000000E+00  0.000000000000E+00  0.000000000000E+00  0.000000000000E+00  0.000000000000E+00  0.000000000000E+00  0.000000000000E+00
  0.000000000000E+00  0.000000000000E+00  0.000000000000E+00  0.000000000000E+00  0.000000000000E+00  0.000000000000E+00  0.000000000000E+00
  0.000000000000E+00  0.000000000000E+00  0.000000000000E+00  0.000000000000E+00  0.000000000000E+00  0.000000000000E+00  0.000000000000E+00
  0.000000000000E+00  0.000000000000E+00  0.000000000000E+00  0.000000000000E+00  0.000000000000E+00  0.000000000000E+00  0.000000000000E+00
  0.000000000000E+00  0.000000000000E+00  0.000000000000E+00  0.000000000000E+00  0.000000000000E+00  0.000000000000E+00  0.000000000000E+00
  0.000000000000E+00
  0.500000000000E+01  0.500000000000E+01  0.400000000000E+01  0.427284776458E+01  0.500000000000E+01  0.409791606955E+01  0.300000000000E+01
  0.334954216394E+01  0.500000000000E+01  0.428961258157E+01  0.317389756208E+01  0.342579600005E+01  0.200000000000E+01  0.245604909385E+01
  0.233993022181E+01  0.500000000000E+01  0.436396516571E+01  0.369973104758E+01  0.256908373316E+01  0.279597472668E+01  0.100000000000E+01
  0.157729503259E+01  0.159701071514E+01  0.152167522831E+01  0.500000000000E+01  0.441213888848E+01  0.370665089386E+01  0.199896920986E+01
  0.224835513052E+01  0.181406525358E+01  0.296809553468E+01  0.000000000000E+00  0.696815730569E+00  0.990157383601E+00  0.787866207738E+00
  0.548147595005E+00  0.128672970530E+01  0.400000000000E+01  0.200000000000E+01  0.160443740745E+01  0.959766653149E+00  0.300000000000E+01
  0.000000000000E+00  0.000000000000E+00  0.606872513237E+00  0.000000000000E+00  0.100000000000E+01  0.486991412371E+00  0.000000000000E+00
  0.000000000000E+00
  0.100230065707E+01  0.100190738260E+01  0.100208915022E+01  0.100305127399E+01  0.100199678696E+01  0.100313002668E+01  0.100511308032E+01
  0.100369602416E+01  0.100548277736E+01  0.100303578928E+01  0.100096254537E+01  0.100461343838E+01  0.101903423627E+01  0.100460541430E+01
  0.996426960682E+00  0.100461508945E+01  0.100463192662E+01  0.100385810172E+01  0.996053755328E+00  0.101002521472E+01  0.983181276266E+00
  0.999202983449E+00  0.100338735505E+01  0.100830646331E+01  0.100379920093E+01  0.100495175561E+01  0.100724225463E+01  0.997527943153E+00
  0.101249069785E+01  0.993492952391E+00  0.100751096307E+01  0.820298992534E+00  0.996130934169E+00  0.984669080125E+00  0.101949699184E+01
  0.100280015423E+01  0.100187166379E+01  0.100552847927E+01  0.103485218921E+01  0.100265214478E+01  0.106810504172E+01  0.100776915796E+01
  0.980061960571E+00  0.984130612097E+00  0.975524988896E+00  0.986240406830E+00  0.100724027724E+01  0.109839840251E+01  0.922324895088E+00
  0.150297344614E+01
  0.500084055703E+00  0.499208565559E+00  0.499425834076E+00  0.497832321907E+00  0.499701562339E+00  0.497949365757E+00  0.512031793333E+00
  0.500203789147E+00  0.494202305797E+00  0.498607197617E+00  0.501680736266E+00  0.498591282503E+00  0.523955816336E+00  0.537339492097E+00
  0.549693390922E+00  0.493153502178E+00  0.495428375091E+00  0.497562357235E+00  0.522248507089E+00  0.493538188997E+00  0.477420899207E+00
  0.570417561348E+00  0.584152390227E+00  0.571389114385E+00  0.495822802660E+00  0.494727603847E+00  0.493738587312E+00  0.547550018097E+00
  0.488844637652E+00  0.537948062106E+00  0.492249506936E+00  0.000000000000E+00  0.397687706831E+00  0.465939035124E+00  0.413354139762E+00
  0.307146574118E+00  0.585767748944E+00  0.494916041341E+00  0.468456877635E+00  0.493117192182E+00  0.532068313534E+00  0.491963533444E+00
  0.000000000000E+00  0.000000000000E+00  0.377545965423E+00  0.000000000000E+00  0.483647194612E+00  0.446821539135E+00  0.000000000000E+00
  0.000000000000E+00
  0.000000000000E+00  0.000000000000E+00  0.000000000000E+00  0.000000000000E+00  0.000000000000E+00  0.000000000000E+00  0.000000000000E+00
  0.000000000000E+00  0.000000000000E+00  0.000000000000E+00  0.000000000000E+00  0.000000000000E+00  0.000000000000E+00  0.000000000000E+00
  0.000000000000E+00  0.000000000000E+00  0.000000000000E+00  0.000000000000E+00  0.000000000000E+00  0.000000000000E+00  0.000000000000E+00
  0.000000000000E+00  0.000000000000E+00  0.000000000000E+00  0.000000000000E+00  0.000000000000E+00  0.000000000000E+00  0.000000000000E+00
  0.000000000000E+00  0.000000000000E+00  0.000000000000E+00  0.000000000000E+00  0.000000000000E+00  0.000000000000E+00  0.000000000000E+00
  0.000000000000E+00  0.000000000000E+00  0.000000000000E+00  0.000000000000E+00  0.000000000000E+00  0.000000000000E+00  0.000000000000E+00
  0.000000000000E+00  0.000000000000E+00  0.000000000000E+00  0.000000000000E+00  0.000000000000E+00  0.000000000000E+00  0.000000000000E+00
  0.000000000000E+00
  0.327114890210E-02  0.433427611941E-02  0.733647956364E-02  0.466765022176E-02  0.461190641244E-02  0.429167927663E-02  0.121353347290E-01
  0.421181837385E-02  0.342421286317E-02  0.532016270902E-02  0.321405171824E-02  0.656353803855E-02 -0.228657853817E-01  0.630606636914E-02
  0.934032456760E-02  0.482011844202E-02  0.603803773887E-02  0.734579666663E-02  0.127817340778E-01  0.106209334069E-01 -0.872644483528E-01
 -0.932878850069E-02  0.727756223554E-02  0.219485502010E-01  0.177014712508E-02  0.391465459249E-02  0.536428927992E-02  0.250615271798E-01