# vtk DataFile Version 2.0
FUN3D:global_image_vtk
ASCII
DATASET UNSTRUCTURED_GRID
POINTS 357 double
    0.5000000000000000E+01    0.0000000000000000E+00    0.2500000000000000E+01
    0.5000000000000000E+01    0.0000000000000000E+00    0.1500000000000000E+01
    0.5000000000000000E+01    0.0000000000000000E+00    0.5000000000000000E+00
    0.5000000000000000E+01    0.0000000000000000E+00   -0.5000000000000000E+00
    0.5000000000000000E+01    0.0000000000000000E+00   -0.1500000000000000E+01
    0.5000000000000000E+01    0.0000000000000000E+00   -0.2500000000000000E+01
    0.4000000000000000E+01    0.0000000000000000E+00   -0.2500000000000000E+01
    0.3000000000000000E+01    0.0000000000000000E+00   -0.2500000000000000E+01
    0.2000000000000000E+01    0.0000000000000000E+00   -0.2500000000000000E+01
    0.9999999999999998E+00    0.0000000000000000E+00   -0.2500000000000000E+01
    0.0000000000000000E+00    0.0000000000000000E+00   -0.2500000000000000E+01
    0.0000000000000000E+00    0.0000000000000000E+00   -0.1500000000000000E+01
    0.0000000000000000E+00    0.0000000000000000E+00   -0.5000000000000000E+00
    0.0000000000000000E+00    0.0000000000000000E+00    0.5000000000000000E+00
    0.0000000000000000E+00    0.0000000000000000E+00    0.1500000000000000E+01
    0.0000000000000000E+00    0.0000000000000000E+00    0.2500000000000000E+01
    0.1000000000000000E+01    0.0000000000000000E+00    0.2500000000000000E+01
    0.2000000000000000E+01    0.0000000000000000E+00    0.2500000000000000E+01
    0.3000000000000000E+01    0.0000000000000000E+00    0.2500000000000000E+01
    0.4000000000000000E+01    0.0000000000000000E+00    0.2500000000000000E+01
    0.4251722454414101E+01    0.0000000000000000E+00    0.1683881519811194E+01
    0.6137332127746504E+00    0.0000000000000000E+00    0.1857879939968904E+01
    0.5055778377301318E+00    0.0000000000000000E+00   -0.1984051145810370E+01
    0.4417350419147004E+01    0.0000000000000000E+00   -0.1798049780917599E+01
    0.4277413896341787E+01    0.0000000000000000E+00    0.7849806286986014E+00
    0.4308949446070184E+01    0.0000000000000000E+00   -0.1030628045339280E+00
    0.3520446556869569E+01    0.0000000000000000E+00    0.1794049766750259E+00
    0.2591686382569276E+01    0.0000000000000000E+00    0.1667295362171870E+01
    0.1306794966956192E+01    0.0000000000000000E+00    0.1758138528035871E+01
    0.7010346092308208E+00    0.0000000000000000E+00    0.3961722714940701E-01
    0.2308484603929350E+01    0.0000000000000000E+00   -0.1644203313594280E+01
    0.2985842179142563E+01    0.0000000000000000E+00   -0.1902408850608312E+01
    0.7941286090671454E+00    0.0000000000000000E+00    0.1001771779085911E+01
    0.1020081380390785E+01    0.0000000000000000E+00   -0.1456956300840256E+01
    0.4356436167904402E+01    0.0000000000000000E+00   -0.1022551130153989E+01
    0.3730315927830617E+01    0.0000000000000000E+00   -0.1467697774434008E+01
    0.2084566650673803E+01    0.0000000000000000E+00   -0.2237556063676878E+00
    0.1900542590153839E+01    0.0000000000000000E+00   -0.1088755785946356E+01
    0.1324761360056765E+01    0.0000000000000000E+00   -0.5267852841860601E+00
    0.3681169751640886E+01    0.0000000000000000E+00    0.1040160628527462E+01
    0.3418876656618056E+01    0.0000000000000000E+00    0.1726168461930342E+01
    0.3751175205920376E+01    0.0000000000000000E+00   -0.6691259304140329E+00
    0.2889801815813465E+01    0.0000000000000000E+00   -0.8562661438192326E+00
    0.3017983410224082E+01    0.0000000000000000E+00    0.9231712184526961E+00
    0.1645821714894795E+01    0.0000000000000000E+00   -0.1837983080076178E+01
    0.1513509181197389E+01    0.0000000000000000E+00    0.1108836692078749E+01
    0.1919398798697967E+01    0.0000000000000000E+00    0.1580342757081665E+01
    0.2193859429875553E+01    0.0000000000000000E+00    0.7740897355665203E+00
    0.6091754699356742E+00    0.0000000000000000E+00   -0.7888248715753817E+00
    0.1441359832811715E+01    0.0000000000000000E+00    0.3490936567660688E+00
    0.2716632372076206E+01    0.0000000000000000E+00    0.1359772398136161E+00
    0.5000000000000000E+01   -0.8333333333333334E+00    0.2500000000000000E+01
    0.5000000000000000E+01   -0.8333333333333334E+00    0.1500000000000000E+01
    0.5000000000000000E+01   -0.8333333333333334E+00    0.5000000000000000E+00
    0.5000000000000000E+01   -0.8333333333333334E+00   -0.5000000000000000E+00
    0.5000000000000000E+01   -0.8333333333333334E+00   -0.1500000000000000E+01
    0.5000000000000000E+01   -0.8333333333333334E+00   -0.2500000000000000E+01
    0.4000000000000000E+01   -0.8333333333333334E+00   -0.2500000000000000E+01
    0.3000000000000000E+01   -0.8333333333333334E+00   -0.2500000000000000E+01
    0.2000000000000000E+01   -0.8333333333333334E+00   -0.2500000000000000E+01
    0.9999999999999998E+00   -0.8333333333333334E+00   -0.2500000000000000E+01
    0.0000000000000000E+00   -0.8333333333333334E+00   -0.2500000000000000E+01
    0.0000000000000000E+00   -0.8333333333333334E+00   -0.1500000000000000E+01
    0.0000000000000000E+00   -0.8333333333333334E+00   -0.5000000000000000E+00
    0.0000000000000000E+00   -0.8333333333333334E+00    0.5000000000000000E+00
    0.0000000000000000E+00   -0.8333333333333334E+00    0.1500000000000000E+01
    0.0000000000000000E+00   -0.8333333333333334E+00    0.2500000000000000E+01
    0.1000000000000000E+01   -0.8333333333333334E+00    0.2500000000000000E+01
    0.2000000000000000E+01   -0.8333333333333334E+00    0.2500000000000000E+01
    0.3000000000000000E+01   -0.8333333333333334E+00    0.2500000000000000E+01
    0.4000000000000000E+01   -0.8333333333333334E+00    0.2500000000000000E+01
    0.4251722454414101E+01   -0.8333333333333334E+00    0.1683881519811194E+01
    0.6137332127746504E+00   -0.8333333333333334E+00    0.1857879939968904E+01
    0.5055778377301318E+00   -0.8333333333333334E+00   -0.1984051145810370E+01
    0.4417350419147004E+01   -0.8333333333333334E+00   -0.1798049780917599E+01
    0.4277413896341787E+01   -0.8333333333333334E+00    0.7849806286986014E+00
    0.4308949446070184E+01   -0.8333333333333334E+00   -0.1030628045339280E+00
    0.3520446556869569E+01   -0.8333333333333334E+00    0.1794049766750259E+00
    0.2591686382569276E+01   -0.8333333333333334E+00    0.1667295362171870E+01
    0.1306794966956192E+01   -0.8333333333333334E+00    0.1758138528035871E+01
    0.7010346092308208E+00   -0.8333333333333334E+00    0.3961722714940701E-01
    0.2308484603929350E+01   -0.8333333333333334E+00   -0.1644203313594280E+01
    0.2985842179142563E+01   -0.8333333333333334E+00   -0.1902408850608312E+01
    0.7941286090671454E+00   -0.8333333333333334E+00    0.1001771779085911E+01
    0.1020081380390785E+01   -0.8333333333333334E+00   -0.1456956300840256E+01
    0.4356436167904402E+01   -0.8333333333333334E+00   -0.1022551130153989E+01
    0.3730315927830617E+01   -0.8333333333333334E+00   -0.1467697774434008E+01
    0.2084566650673803E+01   -0.8333333333333334E+00   -0.2237556063676878E+00
    0.1900542590153839E+01   -0.8333333333333334E+00   -0.1088755785946356E+01
    0.1324761360056765E+01   -0.8333333333333334E+00   -0.5267852841860601E+00
    0.3681169751640886E+01   -0.8333333333333334E+00    0.1040160628527462E+01
    0.3418876656618056E+01   -0.8333333333333334E+00    0.1726168461930342E+01
    0.3751175205920376E+01   -0.8333333333333334E+00   -0.6691259304140329E+00
    0.2889801815813465E+01   -0.8333333333333334E+00   -0.8562661438192326E+00
    0.3017983410224082E+01   -0.8333333333333334E+00    0.9231712184526961E+00
    0.1645821714894795E+01   -0.8333333333333334E+00   -0.1837983080076178E+01
    0.1513509181197389E+01   -0.8333333333333334E+00    0.1108836692078749E+01
    0.1919398798697967E+01   -0.8333333333333334E+00    0.1580342757081665E+01
    0.2193859429875553E+01   -0.8333333333333334E+00    0.7740897355665203E+00
    0.6091754699356742E+00   -0.8333333333333334E+00   -0.7888248715753817E+00
    0.1441359832811715E+01   -0.8333333333333334E+00    0.3490936567660688E+00
    0.2716632372076206E+01   -0.8333333333333334E+00    0.1359772398136161E+00
    0.5000000000000000E+01   -0.1666666666666667E+01    0.2500000000000000E+01
    0.5000000000000000E+01   -0.1666666666666667E+01    0.1500000000000000E+01
    0.5000000000000000E+01   -0.1666666666666667E+01    0.5000000000000000E+00
    0.5000000000000000E+01   -0.1666666666666667E+01   -0.5000000000000000E+00
    0.5000000000000000E+01   -0.1666666666666667E+01   -0.1500000000000000E+01
    0.5000000000000000E+01   -0.1666666666666667E+01   -0.2500000000000000E+01
    0.4000000000000000E+01   -0.1666666666666667E+01   -0.2500000000000000E+01
    0.3000000000000000E+01   -0.1666666666666667E+01   -0.2500000000000000E+01
    0.2000000000000000E+01   -0.1666666666666667E+01   -0.2500000000000000E+01
    0.9999999999999998E+00   -0.1666666666666667E+01   -0.2500000000000000E+01
    0.0000000000000000E+00   -0.1666666666666667E+01   -0.2500000000000000E+01
    0.0000000000000000E+00   -0.1666666666666667E+01   -0.1500000000000000E+01
    0.0000000000000000E+00   -0.1666666666666667E+01   -0.5000000000000000E+00
    0.0000000000000000E+00   -0.1666666666666667E+01    0.5000000000000000E+00
    0.0000000000000000E+00   -0.1666666666666667E+01    0.1500000000000000E+01
    0.0000000000000000E+00   -0.1666666666666667E+01    0.2500000000000000E+01
    0.1000000000000000E+01   -0.1666666666666667E+01    0.2500000000000000E+01
    0.2000000000000000E+01   -0.1666666666666667E+01    0.2500000000000000E+01
    0.3000000000000000E+01   -0.1666666666666667E+01    0.2500000000000000E+01
    0.4000000000000000E+01   -0.1666666666666667E+01    0.2500000000000000E+01
    0.4251722454414101E+01   -0.1666666666666667E+01    0.1683881519811194E+01
    0.6137332127746504E+00   -0.1666666666666667E+01    0.1857879939968904E+01
    0.5055778377301318E+00   -0.1666666666666667E+01   -0.1984051145810370E+01
[...]
POINT_DATA 357
SCALARS rho double 1
LOOKUP_TABLE default
   0.1003883918882817E+01
   0.1002017993617884E+01
   0.1012262815859859E+01
   0.1028922841446640E+01
   0.9938594394001021E+00
   0.8111975909383330E+00
   0.9796655599219811E+00
   0.9975673638449605E+00
   0.9852053286412306E+00
   0.9069940843854867E+00
   0.1536261964167571E+01
   0.9814806801584345E+00
   0.1048361967653233E+01
   0.1000014339603393E+01
   0.1005480797825090E+01
   0.1001266550522473E+01
   0.1004154460423150E+01
   0.1005912716810214E+01
   0.1006558162308717E+01
   0.1005299319559775E+01
   0.1005443542818244E+01
   0.1004498426572009E+01
   0.1208919270050972E+01
   0.1011053632124123E+01
   0.1003762353529761E+01
   0.1014639779473292E+01
   0.1002742978938651E+01
   0.1006433290870888E+01
   0.1006102120584839E+01
   0.1021352912782526E+01
   0.1027937158505166E+01
   0.1011768337486824E+01
   0.1005505259091354E+01
   0.1104541235831665E+01
   0.1009508663776722E+01
   0.9944724162936766E+00
   0.1003484963798530E+01
   0.1031780745532338E+01
   0.1003233923346146E+01
   0.1007153691889962E+01
   0.1005818816532340E+01
   0.1020072021174584E+01
   0.1027554355538403E+01
   0.1005437733294424E+01
   0.9864752226062147E+00
   0.1005970415949789E+01
   0.1005444243893917E+01
   0.1011535251871406E+01
   0.9881303955263832E+00
   0.1018232129488953E+01
   0.9986157574272869E+00
   0.1000939782112268E+01
   0.1000618963237683E+01
   0.1006132306044239E+01
   0.1015179410249294E+01
   0.9781198813761887E+00
   0.8132594958436348E+00
   0.9743372065545390E+00
   0.9804668353008631E+00
   0.9748068165765910E+00
   0.9244535672630769E+00
   0.1500119796040759E+01
   0.9983927108511863E+00
   0.1028574825922408E+01
   0.9998833090255526E+00
   0.1004633799277278E+01
   0.1001419372920171E+01
   0.1002561033877010E+01
   0.1002597658046485E+01
   0.1001504800296711E+01
   0.1000209678230378E+01
   0.1000782814803926E+01
   0.1002819323347835E+01
   0.1061815990941605E+01
   0.9902414008756467E+00
   0.9994431443427640E+00
   0.1002651049283986E+01
   0.9952987980876609E+00
   0.1000980015312632E+01
   0.1002832575896811E+01
   0.1009762116004301E+01
   0.1005138446195907E+01
   0.9927700618285048E+00
   0.1002317021476508E+01
   0.1057465336536575E+01
   0.9885773694577861E+00
   0.9745784136761221E+00
   0.9941466307962822E+00
   0.9937232056391678E+00
   0.9925214869262521E+00
   0.1001061117183361E+01
   0.1000200475223622E+01
   0.9968396803710904E+00
   0.1000113076724961E+01
   0.9987227140751257E+00
   0.9722381574105565E+00
   0.1000676165177004E+01
   0.1000756023855641E+01
   0.1002548349899435E+01
   0.9875709021465097E+00
   0.1008888536717012E+01
   0.9918603670527630E+00
   0.1002697376325834E+01
   0.1002079928825127E+01
   0.1009422163377605E+01
   0.1021911768954439E+01
   0.9846490654512906E+00
   0.8132900291655945E+00
   0.9770312137765172E+00
   0.9849918131908304E+00
   0.9743285366972028E+00
   0.9244075610826924E+00
   0.1511563273413429E+01
   0.1005802637842350E+01
   0.1039843740429861E+01
   0.1003346017519053E+01
   0.1006753914056133E+01
   0.1002386900648609E+01
   0.1004283008697679E+01
   0.1005020863568132E+01
   0.1004490068099273E+01
   0.1002991951261647E+01
   0.1003438062150105E+01
   0.1004699177553866E+01
   0.1108568227647292E+01
   0.9992777151129137E+00
   0.1002994805614200E+01
   0.1006527979706311E+01
   0.9981018584023272E+00
   0.1004040694487077E+01
   0.1005326398009036E+01
   0.1015180888790800E+01
   0.1015768783249939E+01
   0.9994656321091411E+00
   0.1005474727601213E+01
   0.1068528857441337E+01
   0.9955870212429082E+00
   0.9786991500682869E+00
   0.9981190736520953E+00
   0.1003601007969947E+01
   0.9971973520513600E+00
   0.1005036108311052E+01
   0.1003460328747615E+01
   0.1003848644053620E+01
   0.1008491332008138E+01
   0.1002724775472924E+01
   0.9760183895701243E+00
   0.1003755855559401E+01
   0.1003653876095638E+01
   0.1006707144788835E+01
   0.9964278925817230E+00
   0.1013780541454682E+01
   0.9954454016635870E+00
   0.1001723072990541E+01
   0.1001537533146410E+01
   0.1008444924778927E+01
   0.1020217110485720E+01
   0.9816511560004221E+00
   0.8115746071748241E+00
   0.9754000267869933E+00
   0.9828426487470721E+00
   0.9714613845452711E+00
   0.9233245140484031E+00
   0.1508623224127949E+01
   0.1006694450972500E+01
   0.1035858992481910E+01
   0.1002253145848452E+01
   0.1005733071253370E+01
   0.1001945233278285E+01
   0.1003059188752089E+01
   0.1003019267833842E+01
   0.1002000580415004E+01
   0.1000870837981724E+01
   0.1001726075550770E+01
   0.1003451266479007E+01
   0.1094978153763889E+01
   0.9956292373750619E+00
   0.1001463391549865E+01
   0.1004880910676209E+01
   0.9961229497757024E+00
   0.1001521990787753E+01
   0.1003334280018648E+01
   0.1011617095455096E+01
   0.1012816098844376E+01
   0.9959701717400434E+00
   0.1003518464529684E+01
   0.1060430299251525E+01
   0.9932058338680397E+00
   0.9755870232431662E+00
   0.9952985601923973E+00
   0.9988850226557905E+00
   0.9939946188655994E+00
   0.1002784900416757E+01
   0.1001038570311946E+01
   0.1001226496470620E+01
   0.1005227204610022E+01
   0.1000083472727112E+01
   0.9727727263225884E+00
   0.1001346532567378E+01
   0.1001336264017485E+01
   0.1003561451679172E+01
   0.9939924176925855E+00
   0.1010406057582949E+01
   0.9931027974161216E+00
   0.1002697280312993E+01
   0.1002079905623547E+01
   0.1009422173228210E+01
   0.1021911498912482E+01
   0.9846481766397988E+00
   0.8132877078930815E+00
   0.9770298617505807E+00
   0.9849905087771795E+00
   0.9743271035425691E+00
   0.9244070773085113E+00
   0.1511557824950695E+01
   0.1005803434263317E+01
   0.1039842935648684E+01
   0.1003345952112187E+01
   0.1006753752170474E+01
   0.1002386870305056E+01
   0.1004282899921233E+01
   0.1005020695379582E+01
   0.1004489872150772E+01
   0.1002991784417062E+01
   0.1003437897906110E+01
   0.1004699056102091E+01
   0.1108565359747372E+01
   0.9992768818327254E+00
   0.1002994663686380E+01
   0.1006527836743906E+01
   0.9981015839192159E+00
   0.1004040496333412E+01
   0.1005326217488257E+01
   0.1015180468689743E+01
   0.1015767729499969E+01
   0.9994644727655018E+00
   0.1005474575973975E+01
   0.1068527213059201E+01
   0.9955863947269644E+00
   0.9786982315276271E+00
   0.9981188245605644E+00
   0.1003600361794980E+01
   0.9971972052074420E+00
   0.1005035860500623E+01
   0.1003460109926423E+01
   0.1003848315675322E+01
   0.1008490807006356E+01
   0.1002724486916977E+01
   0.9760175107726234E+00
   0.1003755671032267E+01
   0.1003653698785805E+01
   0.1006706800393973E+01
   0.9964279346262560E+00
   0.1013780131010866E+01
   0.9954452132759094E+00
   0.1000940041051220E+01
   0.1000619138769565E+01
   0.1006132188308516E+01
   0.1015179153402738E+01
   0.9781196962719917E+00
   0.8132558241596474E+00
   0.9743350549645923E+00
   0.9804655962545114E+00
   0.9748042451584021E+00
   0.9244516849487714E+00
   0.1500109546575116E+01
   0.9983945463220519E+00
   0.1028574339567165E+01
   0.9998835379785709E+00
   0.1004633781835024E+01
   0.1001419398801518E+01
   0.1002561036291016E+01
   0.1002597710402911E+01
   0.1001504972705989E+01
   0.1000209897642052E+01
   0.1000783010893473E+01
   0.1002819333155379E+01
   0.1061814521825767E+01
   0.9902414829614706E+00
   0.9994434069528335E+00
   0.1002651194583948E+01
   0.9952991860524828E+00
   0.1000980225018896E+01
   0.1002832612401943E+01
   0.1009762033423398E+01
   0.1005139158991915E+01
   0.9927705032553932E+00
   0.1002317170245843E+01
   0.1057463964467062E+01
   0.9885774890642877E+00
   0.9745784518784577E+00
   0.9941471340224689E+00
   0.9937241734115261E+00
   0.9925221272564531E+00
   0.1001061534611624E+01
   0.1000200764775591E+01
   0.9968404546681063E+00
   0.1000113974699465E+01
   0.9987231871470290E+00
   0.9722386017766455E+00
   0.1000676290400404E+01
   0.1000756152007245E+01
   0.1002548558631345E+01
   0.9875717639294130E+00
   0.1008888601371754E+01
   0.9918609935651674E+00
   0.1003883892568514E+01
   0.1002018477181574E+01
   0.1012261742818383E+01
   0.1028918953027738E+01
   0.9938559072854087E+00
   0.8111897030543769E+00
   0.9796542949372860E+00
   0.9975571853621972E+00
   0.9851910637124023E+00
   0.9069820514171670E+00
   0.1536236687933249E+01
   0.9814827591657898E+00
   0.1048357847215775E+01
   0.1000014076760474E+01
   0.1005480512421462E+01
   0.1001266539196171E+01
   0.1004154146881941E+01
   0.1005912186240693E+01
   0.1006557450137245E+01
   0.1005298592763037E+01
   0.1005443009291347E+01
   0.1004498170492047E+01
   0.1208903976443438E+01
   0.1011048943456645E+01
   0.1003761945020319E+01
   0.1014636851798399E+01
   0.1002741614803387E+01
   0.1006432562990748E+01
   0.1006101613446722E+01
   0.1021351300356904E+01
   0.1027930909642220E+01
   0.1011762260925335E+01
   0.1005504888596493E+01
   0.1104532341754552E+01
   0.1009503614146126E+01
   0.9944676074635994E+00
   0.1003483433772683E+01
   0.1031774365785416E+01
   0.1003233022859834E+01
   0.1007153088115774E+01
   0.1005818160686533E+01
   0.1020067559937446E+01
   0.1027549248078110E+01
   0.1005437099607100E+01
   0.9864691542037187E+00
   0.1005969673741438E+01
   0.1005443515406881E+01
   0.1011533962109993E+01
   0.9881314406652255E+00
   0.1018230943972674E+01
   0.9986146603797861E+00
SCALARS u double 1
LOOKUP_TABLE default
   0.4946886286017528E+00
   0.4987733751955752E+00
   0.5149143916294814E+00
   0.5145393457960790E+00
   0.4667574511917584E+00
   0.0000000000000000E+00
   0.0000000000000000E+00
   0.0000000000000000E+00
   0.0000000000000000E+00
   0.0000000000000000E+00
   0.0000000000000000E+00
   0.4678649102538679E+00
   0.4699327396078394E+00
   0.4970517832403438E+00
   0.4962980010498450E+00
   0.4982170219297590E+00
   0.4937323302720551E+00
   0.4920802441919010E+00
   0.4909022440360522E+00
   0.4909373441266781E+00
   0.4873610651042364E+00
   0.4949302885900320E+00
   0.4165037643852599E+00
   0.3942216019448797E+00
   0.5032930142977478E+00
   0.5481086477356686E+00
   0.5303281463207252E+00
   0.4870321659582548E+00
   0.4912367990010149E+00
   0.4803183935509682E+00
   0.4131915941111920E+00
   0.3128416110875122E+00
   0.4883945496001705E+00
   0.5088806221202848E+00
   0.5366225027192244E+00
   0.4565849005565137E+00
   0.5239749656501895E+00
   0.5639094569692594E+00
   0.5045766639715300E+00
   0.4913057897057273E+00
   0.4865104351984589E+00
   0.5620240442755472E+00
   0.5556647992858978E+00
   0.4907771017656670E+00
   0.3796934621312926E+00
   0.4841535703338989E+00
   0.4868381223915179E+00
   0.4865470456907185E+00
   0.4678092354397995E+00
   0.4802698301009497E+00
   0.5165843976857046E+00
   0.4988917973546371E+00
   0.4984262519867246E+00
   0.5113763874461544E+00
   0.5199013935541829E+00
   0.4748666067019590E+00
   0.0000000000000000E+00
   0.0000000000000000E+00
   0.0000000000000000E+00
   0.0000000000000000E+00
   0.0000000000000000E+00
   0.0000000000000000E+00
   0.4978954115968587E+00
   0.4787446767969360E+00
   0.4991673278478252E+00
   0.4966241696212551E+00
   0.4980931997561192E+00
   0.4967836910335424E+00
   0.4982619161700400E+00
   0.5008655928486981E+00
   0.5019986251125024E+00
   0.4975543835154665E+00
   0.4976568436421843E+00
   0.4622026370630644E+00
   0.4038131708557143E+00
   0.5067727802181654E+00
   0.5458120136585715E+00
   0.5348883753414501E+00
   0.4990727030990054E+00
   0.4975390908401417E+00
   0.4920428732255186E+00
   0.4287744719432625E+00
   0.3180212505002826E+00
   0.4955904346722319E+00
   0.5318798075124466E+00
   0.5515276919962014E+00
   0.4739606492663977E+00
   0.5369473639185067E+00
   0.5862197753315193E+00
   0.5305658816522479E+00
   0.5001908495273989E+00
   0.4990523984227471E+00
   0.5728554531810920E+00
   0.5728671919957823E+00
   0.5020230078369935E+00
   0.3864201111452868E+00
   0.4965354219091969E+00
   0.4976540937693627E+00
   0.5007728277429991E+00
   0.5036489988676552E+00
   0.4943379975921824E+00
   0.5263853272460699E+00
   0.4972219328094900E+00
   0.4986894358474113E+00
   0.5144096695548714E+00
   0.5224666302142973E+00
   0.4753791799988449E+00
   0.0000000000000000E+00
   0.0000000000000000E+00
   0.0000000000000000E+00
   0.0000000000000000E+00
   0.0000000000000000E+00
   0.0000000000000000E+00
   0.4807947226552315E+00
   0.4683331430829040E+00
   0.4954151791932148E+00
   0.4946498011038979E+00
   0.4970769796019794E+00
   0.4943000037594774E+00
   0.4946000473650745E+00
   0.4958421100648052E+00
   0.4967824106173006E+00
   0.4932464560000066E+00
   0.4954085235367127E+00
   0.4500966039997576E+00
   0.4022941930648297E+00
   0.5056453201959681E+00
   0.5513150015352655E+00
   0.5372524567761473E+00
   0.4940831153155293E+00
   0.4942156130282354E+00
   0.4867117435431227E+00
   0.4283183364245307E+00
   0.3211376868470075E+00
   0.4918088748636634E+00
   0.5371661335198393E+00
   0.5548066354569270E+00
   0.4769837758771994E+00
   0.5375393400908267E+00
   0.5894765618122703E+00
   0.5291146787294444E+00
   0.4964948585835652E+00
   0.4936777795096516E+00
   0.5785289038036087E+00
   0.5769922170719886E+00
   0.4979786171604912E+00
   0.3908829518327139E+00
   0.4921951363062630E+00
   0.4933060572688203E+00
   0.4963836842517980E+00
   0.4917422446163960E+00
   0.4900695485722580E+00
   0.5260613726406854E+00
   0.4981252403440752E+00
   0.4984635958463060E+00
   0.5135640314660446E+00
   0.5217809135024737E+00
   0.4752280937598234E+00
   0.0000000000000000E+00
   0.0000000000000000E+00
   0.0000000000000000E+00
   0.0000000000000000E+00
   0.0000000000000000E+00
   0.0000000000000000E+00
   0.4847043672780965E+00
   0.4709730223098372E+00
   0.4970806762881120E+00
   0.4955194763904756E+00
   0.4975152929329077E+00
   0.4963867853351331E+00
   0.4983123093088055E+00
   0.5006619366485960E+00
   0.5011650713478848E+00
   0.4960170257343080E+00
   0.4971835544296554E+00
   0.4572937568906941E+00
   0.4020996096049332E+00
   0.5067398281240636E+00
   0.5511793828266430E+00
   0.5386445479792883E+00
   0.4986780352157784E+00
   0.4974239683523409E+00
   0.4904127546031710E+00
   0.4282338034097308E+00
   0.3202899304788292E+00
   0.4950209311845408E+00
   0.5428644582169455E+00
   0.5541569156362721E+00
   0.4765958000012063E+00
   0.5406932326513079E+00
   0.5920044781018120E+00
   0.5341283460697129E+00
   0.4992356156458927E+00
   0.4979694133315355E+00
   0.5787570147186536E+00
   0.5781848798872180E+00
   0.5015029276692397E+00
   0.3912051206196346E+00
   0.4965137651826833E+00
   0.4976343891802726E+00
   0.5006285944731457E+00
   0.4979262335722701E+00
   0.4942050798387170E+00
   0.5285772883679323E+00
   0.4972219222391158E+00
   0.4986894549579515E+00
   0.5144097015874937E+00
   0.5224666547311212E+00
   0.4753794815427793E+00
   0.0000000000000000E+00
   0.0000000000000000E+00
   0.0000000000000000E+00
   0.0000000000000000E+00
   0.0000000000000000E+00
   0.0000000000000000E+00
   0.4807951834286132E+00
   0.4683335167640876E+00
   0.4954153301346614E+00
   0.4946499002604515E+00
   0.4970770192854707E+00
   0.4943001659483798E+00
   0.4946002715174360E+00
   0.4958423952226432E+00
   0.4967825948329217E+00
   0.4932467919726226E+00
   0.4954086638450597E+00
   0.4500962451921952E+00
   0.4022940787456179E+00
   0.5056456176438722E+00
   0.5513154607849735E+00
   0.5372530378728800E+00
   0.4940835319555237E+00
   0.4942158663082257E+00
   0.4867119838349083E+00
   0.4283176322581397E+00
   0.3211367678127191E+00
   0.4918091502937719E+00
   0.5371664887782014E+00
   0.5548064789808852E+00
   0.4769831332118424E+00
   0.5375400036454391E+00
   0.5894765853031306E+00
   0.5291152946400325E+00
   0.4964952477657312E+00
   0.4936782624718654E+00
   0.5785291428715990E+00
   0.5769924201498929E+00
   0.4979789891329565E+00
   0.3908823693002193E+00
   0.4921955543516804E+00
   0.4933064906996819E+00
   0.4963840788097153E+00
   0.4917431318073043E+00
   0.4900699458418734E+00
   0.5260620350112785E+00
   0.4988918123599161E+00
   0.4984262972938444E+00
   0.5113755933733930E+00
   0.5199004176766006E+00
   0.4748678419443432E+00
   0.0000000000000000E+00
   0.0000000000000000E+00
   0.0000000000000000E+00
   0.0000000000000000E+00
   0.0000000000000000E+00
   0.0000000000000000E+00
   0.4978927135621863E+00
   0.4787451645285588E+00
   0.4991669485415531E+00
   0.4966241966235282E+00
   0.4980932315703689E+00
   0.4967836941037177E+00
   0.4982619220270089E+00
   0.5008652912670858E+00
   0.5019983826501929E+00
   0.4975541832330789E+00
   0.4976568048186272E+00
   0.4622008087331344E+00
   0.4038153090638144E+00
   0.5067721668991172E+00
   0.5458094236505994E+00
   0.5348861873947877E+00
   0.4990722311334432E+00
   0.4975389826436703E+00
   0.4920434705859935E+00
   0.4287741093600678E+00
   0.3180224756416494E+00
   0.4955900181089650E+00
   0.5318783829039156E+00
   0.5515266318598598E+00
   0.4739610855578740E+00
   0.5369453065546020E+00
   0.5862161385596076E+00
   0.5305643818507004E+00
   0.5001905428404347E+00
   0.4990518739043534E+00
   0.5728520914021477E+00
   0.5728637124761775E+00
   0.5020229185775055E+00
   0.3864197235172400E+00
   0.4965349512173131E+00
   0.4976536335436438E+00
   0.5007728284846772E+00
   0.5036480371945256E+00
   0.4943382707964133E+00
   0.5263832448382358E+00
   0.4946899319663830E+00
   0.4987738584358581E+00
   0.5149146193882964E+00
   0.5145420817577245E+00
   0.4667628093193006E+00
   0.0000000000000000E+00
   0.0000000000000000E+00
   0.0000000000000000E+00
   0.0000000000000000E+00
   0.0000000000000000E+00
   0.0000000000000000E+00
   0.4678671598702810E+00
   0.4699360265969601E+00
   0.4970516696613208E+00
   0.4962982565055003E+00
   0.4982171838751058E+00
   0.4937327620946682E+00
   0.4920814290606710E+00
   0.4909036469700323E+00
   0.4909397836357910E+00
   0.4873635196024118E+00
   0.4949306134827721E+00
   0.4165050307110978E+00
   0.3942285023885509E+00
   0.5032956385027512E+00
   0.5481095509685880E+00
   0.5303305681415190E+00
   0.4870338715475749E+00
   0.4912377026753650E+00
   0.4803223019719982E+00
   0.4131968019045889E+00
   0.3128479047515469E+00
   0.4883948736399666E+00
   0.5088819516719910E+00
   0.5366272007806765E+00
   0.4565913524541003E+00
   0.5239776647461838E+00
   0.5639097894638105E+00
   0.5045797755891523E+00
   0.4913091633034837E+00
   0.4865123621055950E+00
   0.5620252553811220E+00
   0.5556663839175479E+00
   0.4907815081725057E+00
   0.3796963456308364E+00
   0.4841547573124386E+00
   0.4868391949932232E+00
   0.4865513565647476E+00
   0.4678134651605442E+00
   0.4802739746750709E+00
   0.5165877629619805E+00
SCALARS v double 1
LOOKUP_TABLE default
  -0.1221638949464173E-02
   0.1917842976787861E-02
   0.4388491901268191E-02
   0.1425414059647516E-01
   0.5237090976115626E-02
   0.0000000000000000E+00
   0.0000000000000000E+00
   0.0000000000000000E+00
   0.0000000000000000E+00
   0.0000000000000000E+00
   0.0000000000000000E+00
   0.3686766506239368E-01
   0.3199904836234536E-03
   0.4123622675281644E-02
   0.7741658831476206E-03
   0.7468976219600024E-03
   0.1377246891124883E-02
   0.1160872698031318E-02
  -0.5373636288612770E-04
  -0.6531621869862401E-03
  -0.1284125602234320E-02
   0.1003884270572522E-02
   0.1483218474472678E+00
   0.9233838575305048E-02
   0.3352474175580006E-02
   0.6200685345295493E-02
   0.9365947665128848E-03
   0.5767855391602409E-03
   0.1714502132269307E-02
  -0.2448018247619079E-02
   0.2668746069573902E-01
   0.1303373020508083E-01
   0.4624163665763821E-02
   0.2328104828282574E-01
   0.1490468610008231E-01
   0.7287852471369240E-03
   0.8321594744062674E-02
   0.2670554761794564E-01
   0.2310238430919898E-01
  -0.5609618210073651E-03
  -0.5016863281635117E-03
   0.2228469559360671E-01
   0.2804925982001525E-01
  -0.1735278213039233E-02
  -0.6092706633604251E-02
   0.3238107217088239E-02
   0.3780442409241572E-02
  -0.3912681940442592E-02
   0.4672292423452310E-01