# vtk DataFile Version 2.0
FUN3D:global_image_vtk
ASCII
DATASET UNSTRUCTURED_GRID
POINTS 357 double
    0.5000000000000000E+01    0.0000000000000000E+00    0.2500000000000000E+01
    0.5000000000000000E+01    0.0000000000000000E+00    0.1500000000000000E+01
    0.5000000000000000E+01    0.0000000000000000E+00    0.5000000000000000E+00
    0.5000000000000000E+01    0.0000000000000000E+00   -0.5000000000000000E+00
    0.5000000000000000E+01    0.0000000000000000E+00   -0.1500000000000000E+01
    0.5000000000000000E+01    0.0000000000000000E+00   -0.2500000000000000E+01
    0.4000000000000000E+01    0.0000000000000000E+00   -0.2500000000000000E+01
    0.3000000000000000E+01    0.0000000000000000E+00   -0.2500000000000000E+01
    0.2000000000000000E+01    0.0000000000000000E+00   -0.2500000000000000E+01
    0.9999999999999998E+00    0.0000000000000000E+00   -0.2500000000000000E+01
    0.0000000000000000E+00    0.0000000000000000E+00   -0.2500000000000000E+01
    0.0000000000000000E+00    0.0000000000000000E+00   -0.1500000000000000E+01
    0.0000000000000000E+00    0.0000000000000000E+00   -0.5000000000000000E+00
    0.0000000000000000E+00    0.0000000000000000E+00    0.5000000000000000E+00
    0.0000000000000000E+00    0.0000000000000000E+00    0.1500000000000000E+01
    0.0000000000000000E+00    0.0000000000000000E+00    0.2500000000000000E+01
    0.1000000000000000E+01    0.0000000000000000E+00    0.2500000000000000E+01
    0.2000000000000000E+01    0.0000000000000000E+00    0.2500000000000000E+01
    0.3000000000000000E+01    0.0000000000000000E+00    0.2500000000000000E+01
    0.4000000000000000E+01    0.0000000000000000E+00    0.2500000000000000E+01
    0.4251722454414101E+01    0.0000000000000000E+00    0.1683881519811194E+01
    0.6137332127746504E+00    0.0000000000000000E+00    0.1857879939968904E+01
    0.5055778377301318E+00    0.0000000000000000E+00   -0.1984051145810370E+01
    0.4417350419147004E+01    0.0000000000000000E+00   -0.1798049780917599E+01
    0.4277413896341787E+01    0.0000000000000000E+00    0.7849806286986014E+00
    0.4308949446070184E+01    0.0000000000000000E+00   -0.1030628045339280E+00
    0.3520446556869569E+01    0.0000000000000000E+00    0.1794049766750259E+00
    0.2591686382569276E+01    0.0000000000000000E+00    0.1667295362171870E+01
    0.1306794966956192E+01    0.0000000000000000E+00    0.1758138528035871E+01
    0.7010346092308208E+00    0.0000000000000000E+00    0.3961722714940701E-01
    0.2308484603929350E+01    0.0000000000000000E+00   -0.1644203313594280E+01
    0.2985842179142563E+01    0.0000000000000000E+00   -0.1902408850608312E+01
    0.7941286090671454E+00    0.0000000000000000E+00    0.1001771779085911E+01
    0.1020081380390785E+01    0.0000000000000000E+00   -0.1456956300840256E+01
    0.4356436167904402E+01    0.0000000000000000E+00   -0.1022551130153989E+01
    0.3730315927830617E+01    0.0000000000000000E+00   -0.1467697774434008E+01
    0.2084566650673803E+01    0.0000000000000000E+00   -0.2237556063676878E+00
    0.1900542590153839E+01    0.0000000000000000E+00   -0.1088755785946356E+01
    0.1324761360056765E+01    0.0000000000000000E+00   -0.5267852841860601E+00
    0.3681169751640886E+01    0.0000000000000000E+00    0.1040160628527462E+01
    0.3418876656618056E+01    0.0000000000000000E+00    0.1726168461930342E+01
    0.3751175205920376E+01    0.0000000000000000E+00   -0.6691259304140329E+00
    0.2889801815813465E+01    0.0000000000000000E+00   -0.8562661438192326E+00
    0.3017983410224082E+01    0.0000000000000000E+00    0.9231712184526961E+00
    0.1645821714894795E+01    0.0000000000000000E+00   -0.1837983080076178E+01
    0.1513509181197389E+01    0.0000000000000000E+00    0.1108836692078749E+01
    0.1919398798697967E+01    0.0000000000000000E+00    0.1580342757081665E+01
    0.2193859429875553E+01    0.0000000000000000E+00    0.7740897355665203E+00
    0.6091754699356742E+00    0.0000000000000000E+00   -0.7888248715753817E+00
    0.1441359832811715E+01    0.0000000000000000E+00    0.3490936567660688E+00
    0.2716632372076206E+01    0.0000000000000000E+00    0.1359772398136161E+00
    0.5000000000000000E+01   -0.8333333333333334E+00    0.2500000000000000E+01
    0.5000000000000000E+01   -0.8333333333333334E+00    0.1500000000000000E+01
    0.5000000000000000E+01   -0.8333333333333334E+00    0.5000000000000000E+00
    0.5000000000000000E+01   -0.8333333333333334E+00   -0.5000000000000000E+00
    0.5000000000000000E+01   -0.8333333333333334E+00   -0.1500000000000000E+01
    0.5000000000000000E+01   -0.8333333333333334E+00   -0.2500000000000000E+01
    0.4000000000000000E+01   -0.8333333333333334E+00   -0.2500000000000000E+01
    0.3000000000000000E+01   -0.8333333333333334E+00   -0.2500000000000000E+01
    0.2000000000000000E+01   -0.8333333333333334E+00   -0.2500000000000000E+01
    0.9999999999999998E+00   -0.8333333333333334E+00   -0.2500000000000000E+01
    0.0000000000000000E+00   -0.8333333333333334E+00   -0.2500000000000000E+01
    0.0000000000000000E+00   -0.8333333333333334E+00   -0.1500000000000000E+01
    0.0000000000000000E+00   -0.8333333333333334E+00   -0.5000000000000000E+00
    0.0000000000000000E+00   -0.8333333333333334E+00    0.5000000000000000E+00
    0.0000000000000000E+00   -0.8333333333333334E+00    0.1500000000000000E+01
    0.0000000000000000E+00   -0.8333333333333334E+00    0.2500000000000000E+01
    0.1000000000000000E+01   -0.8333333333333334E+00    0.2500000000000000E+01
    0.2000000000000000E+01   -0.8333333333333334E+00    0.2500000000000000E+01
    0.3000000000000000E+01   -0.8333333333333334E+00    0.2500000000000000E+01
    0.4000000000000000E+01   -0.8333333333333334E+00    0.2500000000000000E+01
    0.4251722454414101E+01   -0.8333333333333334E+00    0.1683881519811194E+01
    0.6137332127746504E+00   -0.8333333333333334E+00    0.1857879939968904E+01
    0.5055778377301318E+00   -0.8333333333333334E+00   -0.1984051145810370E+01
    0.4417350419147004E+01   -0.8333333333333334E+00   -0.1798049780917599E+01
    0.4277413896341787E+01   -0.8333333333333334E+00    0.7849806286986014E+00
    0.4308949446070184E+01   -0.8333333333333334E+00   -0.1030628045339280E+00
    0.3520446556869569E+01   -0.8333333333333334E+00    0.1794049766750259E+00
    0.2591686382569276E+01   -0.8333333333333334E+00    0.1667295362171870E+01
    0.1306794966956192E+01   -0.8333333333333334E+00    0.1758138528035871E+01
    0.7010346092308208E+00   -0.8333333333333334E+00    0.3961722714940701E-01
    0.2308484603929350E+01   -0.8333333333333334E+00   -0.1644203313594280E+01
    0.2985842179142563E+01   -0.8333333333333334E+00   -0.1902408850608312E+01
    0.7941286090671454E+00   -0.8333333333333334E+00    0.1001771779085911E+01
    0.1020081380390785E+01   -0.8333333333333334E+00   -0.1456956300840256E+01
    0.4356436167904402E+01   -0.8333333333333334E+00   -0.1022551130153989E+01
    0.3730315927830617E+01   -0.8333333333333334E+00   -0.1467697774434008E+01
    0.2084566650673803E+01   -0.8333333333333334E+00   -0.2237556063676878E+00
    0.1900542590153839E+01   -0.8333333333333334E+00   -0.1088755785946356E+01
    0.1324761360056765E+01   -0.8333333333333334E+00   -0.5267852841860601E+00
    0.3681169751640886E+01   -0.8333333333333334E+00    0.1040160628527462E+01
    0.3418876656618056E+01   -0.8333333333333334E+00    0.1726168461930342E+01
    0.3751175205920376E+01   -0.8333333333333334E+00   -0.6691259304140329E+00
    0.2889801815813465E+01   -0.8333333333333334E+00   -0.8562661438192326E+00
    0.3017983410224082E+01   -0.8333333333333334E+00    0.9231712184526961E+00
    0.1645821714894795E+01   -0.8333333333333334E+00   -0.1837983080076178E+01
    0.1513509181197389E+01   -0.8333333333333334E+00    0.1108836692078749E+01
    0.1919398798697967E+01   -0.8333333333333334E+00    0.1580342757081665E+01
    0.2193859429875553E+01   -0.8333333333333334E+00    0.7740897355665203E+00
    0.6091754699356742E+00   -0.8333333333333334E+00   -0.7888248715753817E+00
    0.1441359832811715E+01   -0.8333333333333334E+00    0.3490936567660688E+00
    0.2716632372076206E+01   -0.8333333333333334E+00    0.1359772398136161E+00
    0.5000000000000000E+01   -0.1666666666666667E+01    0.2500000000000000E+01
    0.5000000000000000E+01   -0.1666666666666667E+01    0.1500000000000000E+01
    0.5000000000000000E+01   -0.1666666666666667E+01    0.5000000000000000E+00
    0.5000000000000000E+01   -0.1666666666666667E+01   -0.5000000000000000E+00
    0.5000000000000000E+01   -0.1666666666666667E+01   -0.1500000000000000E+01
    0.5000000000000000E+01   -0.1666666666666667E+01   -0.2500000000000000E+01
    0.4000000000000000E+01   -0.1666666666666667E+01   -0.2500000000000000E+01
    0.3000000000000000E+01   -0.1666666666666667E+01   -0.2500000000000000E+01
    0.2000000000000000E+01   -0.1666666666666667E+01   -0.2500000000000000E+01
    0.9999999999999998E+00   -0.1666666666666667E+01   -0.2500000000000000E+01
    0.0000000000000000E+00   -0.1666666666666667E+01   -0.2500000000000000E+01
    0.0000000000000000E+00   -0.1666666666666667E+01   -0.1500000000000000E+01
    0.0000000000000000E+00   -0.1666666666666667E+01   -0.5000000000000000E+00
    0.0000000000000000E+00   -0.1666666666666667E+01    0.5000000000000000E+00
    0.0000000000000000E+00   -0.1666666666666667E+01    0.1500000000000000E+01
    0.0000000000000000E+00   -0.1666666666666667E+01    0.2500000000000000E+01
    0.1000000000000000E+01   -0.1666666666666667E+01    0.2500000000000000E+01
    0.2000000000000000E+01   -0.1666666666666667E+01    0.2500000000000000E+01
    0.3000000000000000E+01   -0.1666666666666667E+01    0.2500000000000000E+01
    0.4000000000000000E+01   -0.1666666666666667E+01    0.2500000000000000E+01
    0.4251722454414101E+01   -0.1666666666666667E+01    0.1683881519811194E+01
    0.6137332127746504E+00   -0.1666666666666667E+01    0.1857879939968904E+01
    0.5055778377301318E+00   -0.1666666666666667E+01   -0.1984051145810370E+01
[...]
POINT_DATA 357
SCALARS rho double 1
LOOKUP_TABLE default
   0.1002615915718115E+01
   0.1002318887281338E+01
   0.1009859953964686E+01
   0.1020739680770885E+01
   0.9775234325242236E+00
   0.8139111359514687E+00
   0.9782815833623456E+00
   0.9823003620265577E+00
   0.9726780626513395E+00
   0.9251975793814595E+00
   0.1509538809577592E+01
   0.1010832161770207E+01
   0.1039702945462141E+01
   0.1005508000404200E+01
   0.1007053840403717E+01
   0.1003252504531679E+01
   0.1004967453667445E+01
   0.1004830503188417E+01
   0.1003619268867910E+01
   0.1002398477172278E+01
   0.1002866652562160E+01
   0.1005067301022889E+01
   0.1102010264400257E+01
   0.9921306455184297E+00
   0.1003054054163757E+01
   0.1005852955807972E+01
   0.9966188010236635E+00
   0.1003466819940326E+01
   0.1004966756995832E+01
   0.1012765777997232E+01
   0.1011265136952030E+01
   0.9936978839464358E+00
   0.1006724929855935E+01
   0.1060484851632352E+01
   0.9929007418565674E+00
   0.9730269637796810E+00
   0.9968093798970026E+00
   0.9985045448806654E+00
   0.9966234610324974E+00
   0.1004187642956785E+01
   0.1002775825978633E+01
   0.1001754966646064E+01
   0.1005817162671831E+01
   0.1001484370392481E+01
   0.9688101644165069E+00
   0.1003901760731078E+01
   0.1003681611871116E+01
   0.1004717981881299E+01
   0.9993113883813294E+00
   0.1011791868120947E+01
   0.9945175059505871E+00
   0.1002559279508199E+01
   0.1002222564100158E+01
   0.1009777834019908E+01
   0.1022528229315034E+01
   0.9835315889418051E+00
   0.8149719959363259E+00
   0.9786655175605182E+00
   0.9831672243544418E+00
   0.9723281663714507E+00
   0.9227888579800063E+00
   0.1511100196516680E+01
   0.1007738453361984E+01
   0.1039414236390862E+01
   0.1005191232252655E+01
   0.1007002318563989E+01
   0.1003214694660611E+01
   0.1004899448146987E+01
   0.1004743272311340E+01
   0.1003494023300800E+01
   0.1002279464200094E+01
   0.1002802098717491E+01
   0.1004998157093781E+01
   0.1102685089377787E+01
   0.9960842958947168E+00
   0.1003037654249002E+01
   0.1006091050686018E+01
   0.9966548133326218E+00
   0.1003319810459904E+01
   0.1004854126235154E+01
   0.1012537005167457E+01
   0.1012846948502227E+01
   0.9960261579850089E+00
   0.1006521097307096E+01
   0.1060681099630352E+01
   0.9949623213117277E+00
   0.9749491830269803E+00
   0.9963102823355519E+00
   0.9984586467593993E+00
   0.9959775034638718E+00
   0.1004159858148908E+01
   0.1002644829882649E+01
   0.1002382258273767E+01
   0.1005992168979038E+01
   0.1001375105487503E+01
   0.9695779847915605E+00
   0.1003675460489254E+01
   0.1003504346629155E+01
   0.1004642958260937E+01
   0.9980958625233416E+00
   0.1011695412464890E+01
   0.9941747289237545E+00
   0.1002594181140947E+01
   0.1002244822791329E+01
   0.1009792079090765E+01
   0.1022543763147970E+01
   0.9834935191940094E+00
   0.8151947562968576E+00
   0.9788114375838429E+00
   0.9834854655044347E+00
   0.9725407746598540E+00
   0.9225057976256069E+00
   0.1511612754778206E+01
   0.1007726284851071E+01
   0.1039555258843908E+01
   0.1005261967477688E+01
   0.1007042195462303E+01
   0.1003238232579311E+01
   0.1004952273031854E+01
   0.1004817452205590E+01
   0.1003577054020873E+01
   0.1002349015682622E+01
   0.1002850187643330E+01
   0.1005050211478365E+01
   0.1103226279427796E+01
   0.9959986762352661E+00
   0.1003063642568121E+01
   0.1006099713954820E+01
   0.9967043131203994E+00
   0.1003409337513095E+01
   0.1004929356910896E+01
   0.1012681410326754E+01
   0.1013077687118000E+01
   0.9961215907375568E+00
   0.1006620083307828E+01
   0.1061099667479212E+01
   0.9950751160243093E+00
   0.9750428222896278E+00
   0.9964518987233490E+00
   0.9986746562063925E+00
   0.9961360096385183E+00
   0.1004215975309847E+01
   0.1002725799068812E+01
   0.1002425913367794E+01
   0.1006158784945644E+01
   0.1001458724411455E+01
   0.9698863484939025E+00
   0.1003785955305425E+01
   0.1003601098219375E+01
   0.1004747615086765E+01
   0.9983040882626547E+00
   0.1011836758570681E+01
   0.9942668223119574E+00
   0.1002582251096057E+01
   0.1002227075770883E+01
   0.1009784334903379E+01
   0.1022588626621145E+01
   0.9837258649846349E+00
   0.8151880401017083E+00
   0.9789583577758476E+00
   0.9835414544836782E+00
   0.9725970727881743E+00
   0.9224737659966586E+00
   0.1511503905441011E+01
   0.1007539220874667E+01
   0.1039440783310946E+01
   0.1005188977000717E+01
   0.1007005976980351E+01
   0.1003216721542519E+01
   0.1004909649063042E+01
   0.1004763778014048E+01
   0.1003526310430323E+01
   0.1002316432787651E+01
   0.1002834776391681E+01
   0.1005005381486655E+01
   0.1102948831235257E+01
   0.9962058564844809E+00
   0.1003068674465134E+01
   0.1006168360903189E+01
   0.9967490390466669E+00
   0.1003358570821367E+01
   0.1004871884086182E+01
   0.1012571629318490E+01
   0.1013116637799894E+01
   0.9961377409214499E+00
   0.1006549687836407E+01
   0.1061002407843910E+01
   0.9951741433938620E+00
   0.9751084849505011E+00
   0.9964184197992595E+00
   0.9986500263265741E+00
   0.9960697489485910E+00
   0.1004209905973770E+01
   0.1002689042938102E+01
   0.1002539988456334E+01
   0.1006201436188786E+01
   0.1001432513355093E+01
   0.9697902587201588E+00
   0.1003717187383865E+01
   0.1003544061814395E+01
   0.1004699885235534E+01
   0.9981686497726999E+00
   0.1011763009304359E+01
   0.9942546725657464E+00
   0.1002594180335958E+01
   0.1002244824186268E+01
   0.1009792078172283E+01
   0.1022543751509655E+01
   0.9834935081239615E+00
   0.8151947690708371E+00
   0.9788114369162442E+00
   0.9834854537006633E+00
   0.9725407707975657E+00
   0.9225058007938608E+00
   0.1511612759229261E+01
   0.1007726300418724E+01
   0.1039555257361024E+01
   0.1005261965476839E+01
   0.1007042194452692E+01
   0.1003238231717779E+01
   0.1004952272400978E+01
   0.1004817451421201E+01
   0.1003577055408408E+01
   0.1002349016119154E+01
   0.1002850187935702E+01
   0.1005050210639057E+01
   0.1103226273803812E+01
   0.9959986654353036E+00
   0.1003063640017252E+01
   0.1006099709758623E+01
   0.9967043190164090E+00
   0.1003409338519720E+01
   0.1004929355714994E+01
   0.1012681409897874E+01
   0.1013077676537616E+01
   0.9961215861202337E+00
   0.1006620081557726E+01
   0.1061099656231151E+01
   0.9950751100001023E+00
   0.9750428094116180E+00
   0.9964518984647650E+00
   0.9986746527415972E+00
   0.9961360055816324E+00
   0.1004215973642180E+01
   0.1002725800384028E+01
   0.1002425904691139E+01
   0.1006158781920960E+01
   0.1001458728088515E+01
   0.9698863476418240E+00
   0.1003785954597211E+01
   0.1003601096948395E+01
   0.1004747613426343E+01
   0.9983040894238309E+00
   0.1011836758300678E+01
   0.9942668263169172E+00
   0.1002559281579629E+01
   0.1002222565257548E+01
   0.1009777827814130E+01
   0.1022528193336701E+01
   0.9835315248560690E+00
   0.8149721102221593E+00
   0.9786655921728635E+00
   0.9831672401255268E+00
   0.9723282262644433E+00
   0.9227889009080514E+00
   0.1511100253608148E+01
   0.1007738533156112E+01
   0.1039414251126388E+01
   0.1005191232513967E+01
   0.1007002318350417E+01
   0.1003214692171309E+01
   0.1004899446803565E+01
   0.1004743266908055E+01
   0.1003494024355752E+01
   0.1002279462668474E+01
   0.1002802101616996E+01
   0.1004998155598744E+01
   0.1102684991886082E+01
   0.9960842629411957E+00
   0.1003037644311632E+01
   0.1006091038814235E+01
   0.9966548134295555E+00
   0.1003319810650924E+01
   0.1004854123917245E+01
   0.1012537000265697E+01
   0.1012846938645423E+01
   0.9960261566117812E+00
   0.1006521096574861E+01
   0.1060681064601120E+01
   0.9949622760801911E+00
   0.9749491189156887E+00
   0.9963102692567150E+00
   0.9984586257498861E+00
   0.9959774937328277E+00
   0.1004159858679730E+01
   0.1002644832226854E+01
   0.1002382210480146E+01
   0.1005992132201367E+01
   0.1001375114926419E+01
   0.9695779758853597E+00
   0.1003675459678419E+01
   0.1003504343939714E+01
   0.1004642948883888E+01
   0.9980958764081220E+00
   0.1011695406669590E+01
   0.9941747228902708E+00
   0.1002615926281724E+01
   0.1002318895088339E+01
   0.1009859943406606E+01
   0.1020739578045341E+01
   0.9775232859725670E+00
   0.8139114171010079E+00
   0.9782817394597229E+00
   0.9823004092455431E+00
   0.9726781930906622E+00
   0.9251976529787607E+00
   0.1509538987186883E+01
   0.1010832315153916E+01
   0.1039702947859701E+01
   0.1005507999204790E+01
   0.1007053840630237E+01
   0.1003252502957225E+01
   0.1004967451637635E+01
   0.1004830493691139E+01
   0.1003619273531108E+01
   0.1002398479450502E+01
   0.1002866662280417E+01
   0.1005067299479255E+01
   0.1102010110664037E+01
   0.9921306219442839E+00
   0.1003054034297863E+01
   0.1005852910149464E+01
   0.9966187924397617E+00
   0.1003466823351850E+01
   0.1004966750787657E+01
   0.1012765768786434E+01
   0.1011265122179142E+01
   0.9936978702839918E+00
   0.1006724928746672E+01
   0.1060484781793534E+01
   0.9929006123729842E+00
   0.9730268504190370E+00
   0.9968093508909194E+00
   0.9985044855091708E+00
   0.9966234429007725E+00
   0.1004187648337029E+01
   0.1002775835788578E+01
   0.1001754874437794E+01
   0.1005817090678596E+01
   0.1001484393487272E+01
   0.9688101409705059E+00
   0.1003901756654017E+01
   0.1003681606648092E+01
   0.1004717962907343E+01
   0.9993114141981551E+00
   0.1011791853659624E+01
   0.9945174929172237E+00
SCALARS u double 1
LOOKUP_TABLE default
   0.4977064607363912E+00
   0.4991916057596631E+00
   0.5148100464574510E+00
   0.5220026646706123E+00
   0.4738852036118841E+00
   0.0000000000000000E+00
   0.0000000000000000E+00
   0.0000000000000000E+00
   0.0000000000000000E+00
   0.0000000000000000E+00
   0.0000000000000000E+00
   0.4793505376682926E+00
   0.4667672972560936E+00
   0.4942478342445745E+00
   0.4935718559933812E+00
   0.4961740221855453E+00
   0.4941045974750296E+00
   0.4954064698832594E+00
   0.4976871647107604E+00
   0.4986205248569246E+00
   0.4952810132324045E+00
   0.4948286554961046E+00
   0.4518265781175884E+00
   0.3969575629004214E+00
   0.5074363220835033E+00
   0.5527311753565177E+00
   0.5406448644623517E+00
   0.4966243155750677E+00
   0.4948241825316887E+00
   0.4884965809460963E+00
   0.4237260321158691E+00
   0.3186731743369213E+00
   0.4921857475566412E+00
   0.5409691376004225E+00
   0.5516562404620170E+00
   0.4724934481160778E+00
   0.5415327729316290E+00
   0.5917031122750926E+00
   0.5333954200351261E+00
   0.4992018850156674E+00
   0.4964233143186981E+00
   0.5788415688321802E+00
   0.5773695250965545E+00
   0.5014310680357187E+00
   0.3900565929835869E+00
   0.4947103520745447E+00
   0.4951997065246358E+00
   0.5000039023198539E+00
   0.4930693968730319E+00
   0.4929407946170689E+00
   0.5301083437817260E+00
   0.4978789306724413E+00
   0.4988764614694925E+00
   0.5143944812502854E+00
   0.5235837991731932E+00
   0.4771914681503868E+00
   0.0000000000000000E+00
   0.0000000000000000E+00
   0.0000000000000000E+00
   0.0000000000000000E+00
   0.0000000000000000E+00
   0.0000000000000000E+00
   0.4807090883829929E+00
   0.4673208569071865E+00
   0.4946062600319831E+00
   0.4936277503670458E+00
   0.4962110496370430E+00
   0.4941934823780786E+00
   0.4955606876273613E+00
   0.4980457889720388E+00
   0.4990570290539927E+00
   0.4952165506247007E+00
   0.4949301018839679E+00
   0.4554241820200498E+00
   0.4048651719700059E+00
   0.5064339442479793E+00
   0.5528318252411184E+00
   0.5400959644821418E+00
   0.4969037030174533E+00
   0.4950184613120513E+00
   0.4887501899467503E+00
   0.4334616989499709E+00
   0.3253281727416605E+00
   0.4924541282026937E+00
   0.5463256786906338E+00
   0.5582390514222076E+00
   0.4829643688269081E+00
   0.5412672106721088E+00
   0.5970126559137551E+00
   0.5336666613630445E+00
   0.4985842969837732E+00
   0.4965291119596587E+00
   0.5826640329698646E+00
   0.5826614128315873E+00
   0.5008675365123288E+00
   0.3974805078347630E+00
   0.4949857639459392E+00
   0.4954653108484773E+00
   0.4999411394019130E+00
   0.4931326930983055E+00
   0.4928664114271624E+00
   0.5292138425622984E+00
   0.4978499355529979E+00
   0.4988898255509991E+00
   0.5144728307926654E+00
   0.5237706491416159E+00
   0.4773610888241885E+00
   0.0000000000000000E+00
   0.0000000000000000E+00
   0.0000000000000000E+00
   0.0000000000000000E+00
   0.0000000000000000E+00
   0.0000000000000000E+00
   0.4805186751364806E+00
   0.4671731114765057E+00
   0.4945339384476477E+00
   0.4935862132654818E+00
   0.4961884825970446E+00
   0.4941127746087788E+00
   0.4954292827687766E+00
   0.4978911305934416E+00
   0.4989291477223922E+00
   0.4951473828728682E+00
   0.4948533826267555E+00
   0.4553971472957069E+00
   0.4051654809268001E+00
   0.5064658469626704E+00
   0.5530081606069553E+00
   0.5401374239693275E+00
   0.4967555214761222E+00
   0.4948915490326237E+00
   0.4885438075168831E+00
   0.4336754335805970E+00
   0.3256644181731123E+00
   0.4923148133289269E+00
   0.5461348771301625E+00
   0.5586023098013041E+00
   0.4833116617787621E+00
   0.5411043937302928E+00
   0.5969553585963490E+00
   0.5334302224254360E+00
   0.4985319953288065E+00
   0.4964032616119182E+00
   0.5828608001688589E+00
   0.5827402409310777E+00
   0.5007547564171233E+00
   0.3974044039943112E+00
   0.4948224975360200E+00
   0.4953140394563441E+00
   0.4997854886117921E+00
   0.4927295876191147E+00
   0.4926616622605989E+00
   0.5291180706086039E+00
   0.4978556815113626E+00
   0.4988782368994533E+00
   0.5144187013126666E+00
   0.5235650564207072E+00
   0.4770657444971055E+00
   0.0000000000000000E+00
   0.0000000000000000E+00
   0.0000000000000000E+00
   0.0000000000000000E+00
   0.0000000000000000E+00
   0.0000000000000000E+00
   0.4806945211445976E+00
   0.4673233074291925E+00
   0.4946145933447734E+00
   0.4936262633363089E+00
   0.4962108553948293E+00
   0.4941809521674867E+00
   0.4955255329643885E+00
   0.4979864859825970E+00
   0.4989887461204615E+00
   0.4951447634595548E+00
   0.4949163943201672E+00
   0.4554019987376589E+00
   0.4047312610592066E+00
   0.5063812438149337E+00
   0.5527591975271632E+00
   0.5399526666302966E+00
   0.4968250573140602E+00
   0.4949767697748494E+00
   0.4886654327003513E+00
   0.4332782026863473E+00
   0.3253212667314014E+00
   0.4924049945342768E+00
   0.5460618744328319E+00
   0.5580209612171725E+00
   0.4828142410104267E+00
   0.5410470750601665E+00
   0.5967599581147170E+00
   0.5334275800887771E+00
   0.4984839628915710E+00
   0.4964373692738522E+00
   0.5824839606150766E+00
   0.5824299494056031E+00
   0.5007402106543901E+00
   0.3971708909378167E+00
   0.4949050899570636E+00
   0.4953944543180424E+00
   0.4998212121661892E+00
   0.4928385411088569E+00
   0.4927256378859136E+00
   0.5290313544440695E+00
   0.4978499313372765E+00
   0.4988898246880326E+00
   0.5144728404176891E+00
   0.5237706685730297E+00
   0.4773610889553936E+00
   0.0000000000000000E+00
   0.0000000000000000E+00
   0.0000000000000000E+00
   0.0000000000000000E+00
   0.0000000000000000E+00
   0.0000000000000000E+00
   0.4805186722231586E+00
   0.4671731076984139E+00
   0.4945339398830062E+00
   0.4935862140869562E+00
   0.4961884829542607E+00
   0.4941127756589205E+00
   0.4954292818522479E+00
   0.4978911255518199E+00
   0.4989291402933631E+00
   0.4951473816435059E+00
   0.4948533832694507E+00
   0.4553971472838083E+00
   0.4051654683908639E+00
   0.5064658555789396E+00
   0.5530081830343097E+00
   0.5401374320637107E+00
   0.4967555195922924E+00
   0.4948915503870237E+00
   0.4885438082821631E+00
   0.4336754275177455E+00
   0.3256644110333958E+00
   0.4923148153140532E+00
   0.5461348887427807E+00
   0.5586023192700654E+00
   0.4833116700336617E+00
   0.5411044085442768E+00
   0.5969553740946937E+00
   0.5334302421471284E+00
   0.4985319980162377E+00
   0.4964032605886320E+00
   0.5828608184276597E+00
   0.5827402553632597E+00
   0.5007547492820668E+00
   0.3974044009652624E+00
   0.4948225020703949E+00
   0.4953140438287589E+00
   0.4997854898940909E+00
   0.4927296094590272E+00
   0.4926616647958070E+00
   0.5291180762911448E+00
   0.4978789309355500E+00
   0.4988764604773718E+00
   0.5143944861571740E+00
   0.5235837690405650E+00
   0.4771915436630816E+00
   0.0000000000000000E+00
   0.0000000000000000E+00
   0.0000000000000000E+00
   0.0000000000000000E+00
   0.0000000000000000E+00
   0.0000000000000000E+00
   0.4807090123696594E+00
   0.4673208516804294E+00
   0.4946062541326562E+00
   0.4936277535568231E+00
   0.4962110514694472E+00
   0.4941934860573043E+00
   0.4955606935833669E+00
   0.4980457875121584E+00
   0.4990570283715817E+00
   0.4952165517837172E+00
   0.4949301038586696E+00
   0.4554241905363915E+00
   0.4048652443998058E+00
   0.5064339491479658E+00
   0.5528318071228542E+00
   0.5400959481539089E+00
   0.4969037025700646E+00
   0.4950184650289441E+00
   0.4887502114487256E+00
   0.4334616652195294E+00
   0.3253281411011777E+00
   0.4924541248237126E+00
   0.5463256652419660E+00
   0.5582389972490747E+00
   0.4829643506708177E+00
   0.5412672082855686E+00
   0.5970126548264333E+00
   0.5336666829006913E+00
   0.4985843043292649E+00
   0.4965291032531466E+00
   0.5826640925310217E+00
   0.5826613892466806E+00
   0.5008675432860975E+00
   0.3974803911776780E+00
   0.4949857658420614E+00
   0.4954653160022706E+00
   0.4999411494874812E+00
   0.4931326605017744E+00
   0.4928664312001266E+00
   0.5292138642393774E+00
   0.4977064609251532E+00
   0.4991916245758110E+00
   0.5148101338700253E+00
   0.5220026770640841E+00
   0.4738852996718444E+00
   0.0000000000000000E+00
   0.0000000000000000E+00
   0.0000000000000000E+00
   0.0000000000000000E+00
   0.0000000000000000E+00
   0.0000000000000000E+00
   0.4793503989656170E+00
   0.4667673240058528E+00
   0.4942478105349232E+00
   0.4935718613077478E+00
   0.4961740247112957E+00
   0.4941046046764404E+00
   0.4954064885597872E+00
   0.4976871575727642E+00
   0.4986205151201337E+00
   0.4952810333539915E+00
   0.4948286595066225E+00
   0.4518264843128175E+00
   0.3969575397411950E+00
   0.5074364204998192E+00
   0.5527312721769742E+00
   0.5406449668233165E+00
   0.4966243193306840E+00
   0.4948241960741154E+00
   0.4884966582773392E+00
   0.4237258133869700E+00
   0.3186729743204101E+00
   0.4921857380764277E+00
   0.5409690159732538E+00
   0.5516560939722343E+00
   0.4724932682738227E+00
   0.5415329140172404E+00
   0.5917030933362706E+00
   0.5333955424061554E+00
   0.4992019599760750E+00
   0.4964233008588185E+00
   0.5788416993145832E+00
   0.5773694842078029E+00
   0.5014311510287421E+00
   0.3900562527775492E+00
   0.4947103610838424E+00
   0.4951997217582991E+00
   0.5000039737909784E+00
   0.4930694027564731E+00
   0.4929408866851266E+00
   0.5301085486878758E+00
SCALARS v double 1
LOOKUP_TABLE default
   0.0000000000000000E+00
   0.0000000000000000E+00
   0.0000000000000000E+00
   0.0000000000000000E+00
   0.0000000000000000E+00
   0.0000000000000000E+00
   0.0000000000000000E+00
   0.0000000000000000E+00
   0.0000000000000000E+00
   0.0000000000000000E+00
   0.0000000000000000E+00
   0.0000000000000000E+00
   0.0000000000000000E+00
   0.0000000000000000E+00
   0.0000000000000000E+00
   0.0000000000000000E+00
   0.0000000000000000E+00
   0.0000000000000000E+00
   0.0000000000000000E+00
   0.0000000000000000E+00
   0.0000000000000000E+00
   0.0000000000000000E+00
   0.0000000000000000E+00
   0.0000000000000000E+00
   0.0000000000000000E+00
   0.0000000000000000E+00
   0.0000000000000000E+00
   0.0000000000000000E+00
   0.0000000000000000E+00
   0.0000000000000000E+00
   0.0000000000000000E+00
   0.0000000000000000E+00
   0.0000000000000000E+00
   0.0000000000000000E+00
   0.0000000000000000E+00
   0.0000000000000000E+00
   0.0000000000000000E+00
   0.0000000000000000E+00
   0.0000000000000000E+00
   0.0000000000000000E+00
   0.0000000000000000E+00
   0.0000000000000000E+00
   0.0000000000000000E+00
   0.0000000000000000E+00
   0.0000000000000000E+00
   0.0000000000000000E+00
   0.0000000000000000E+00
   0.0000000000000000E+00
   0.0000000000000000E+00