title="tecplot geometry and solution file"
variables = x y z rho u v w p mach temperature
zone t="boundary 1 bc-1", solutiontime= 0.6000000E+02, strandid=1001, i=42, j=30, f=feblock
  0.000000000000E+00  0.000000000000E+00  0.000000000000E+00  0.000000000000E+00  0.000000000000E+00  0.000000000000E+00  0.000000000000E+00
  0.000000000000E+00  0.000000000000E+00  0.000000000000E+00  0.000000000000E+00  0.000000000000E+00  0.000000000000E+00  0.000000000000E+00
  0.000000000000E+00  0.000000000000E+00  0.000000000000E+00  0.000000000000E+00  0.000000000000E+00  0.000000000000E+00  0.000000000000E+00
  0.000000000000E+00  0.000000000000E+00  0.000000000000E+00  0.000000000000E+00  0.000000000000E+00  0.000000000000E+00  0.000000000000E+00
  0.000000000000E+00  0.000000000000E+00  0.000000000000E+00  0.000000000000E+00  0.000000000000E+00  0.000000000000E+00  0.000000000000E+00
  0.000000000000E+00  0.000000000000E+00  0.000000000000E+00  0.000000000000E+00  0.000000000000E+00  0.000000000000E+00  0.000000000000E+00
  0.000000000000E+00 -0.833333333333E+00  0.000000000000E+00  0.000000000000E+00  0.000000000000E+00 -0.166666666667E+01 -0.833333333333E+00
 -0.833333333333E+00 -0.833333333333E+00  0.000000000000E+00 -0.250000000000E+01 -0.166666666667E+01 -0.166666666667E+01 -0.166666666667E+01
 -0.833333333333E+00  0.000000000000E+00 -0.333333333333E+01 -0.250000000000E+01 -0.250000000000E+01 -0.250000000000E+01 -0.166666666667E+01
 -0.833333333333E+00 -0.416666666667E+01 -0.333333333333E+01 -0.333333333333E+01 -0.333333333333E+01 -0.250000000000E+01 -0.166666666667E+01
 -0.500000000000E+01 -0.416666666667E+01 -0.416666666667E+01 -0.416666666667E+01 -0.333333333333E+01 -0.250000000000E+01 -0.500000000000E+01
 -0.500000000000E+01 -0.500000000000E+01 -0.416666666667E+01 -0.333333333333E+01 -0.500000000000E+01 -0.416666666667E+01 -0.500000000000E+01
  0.500000000000E+01  0.500000000000E+01  0.400000000000E+01  0.200000000000E+01  0.300000000000E+01  0.500000000000E+01  0.400000000000E+01
  0.200000000000E+01  0.300000000000E+01  0.100000000000E+01  0.500000000000E+01  0.400000000000E+01  0.200000000000E+01  0.300000000000E+01
  0.100000000000E+01  0.000000000000E+00  0.500000000000E+01  0.400000000000E+01  0.200000000000E+01  0.300000000000E+01  0.100000000000E+01
  0.000000000000E+00  0.500000000000E+01  0.400000000000E+01  0.200000000000E+01  0.300000000000E+01  0.100000000000E+01  0.000000000000E+00
  0.500000000000E+01  0.400000000000E+01  0.200000000000E+01  0.300000000000E+01  0.100000000000E+01  0.000000000000E+00  0.400000000000E+01
  0.200000000000E+01  0.300000000000E+01  0.100000000000E+01  0.000000000000E+00  0.100000000000E+01  0.000000000000E+00  0.000000000000E+00
  0.100379917131E+01  0.100377184884E+01  0.100552847210E+01  0.103485206347E+01  0.100776920066E+01  0.100379373356E+01  0.100543336664E+01
  0.103452934459E+01  0.100752843092E+01  0.100724021404E+01  0.100377371930E+01  0.100547517327E+01  0.103466720393E+01  0.100759132743E+01
  0.100406041772E+01  0.150297338296E+01  0.100379373351E+01  0.100543730922E+01  0.103455204459E+01  0.100752301672E+01  0.100402274854E+01
  0.150469350768E+01  0.100377184950E+01  0.100547517325E+01  0.103466720296E+01  0.100759132710E+01  0.100383872769E+01  0.150523407611E+01
  0.100379917248E+01  0.100543336747E+01  0.103452935791E+01  0.100752843128E+01  0.100402274615E+01  0.150512208365E+01  0.100552847249E+01
  0.103485207139E+01  0.100776919898E+01  0.100406041299E+01  0.150523407148E+01  0.100724015564E+01  0.150469342249E+01  0.150297316019E+01
  0.495822767278E+00  0.495860033230E+00  0.494916061527E+00  0.468456975545E+00  0.491963508799E+00  0.495835559317E+00  0.494982445165E+00
  0.468941562177E+00  0.492167197830E+00  0.483647240823E+00  0.495857662506E+00  0.494947727513E+00  0.468789085434E+00  0.492104234051E+00
  0.485198740023E+00  0.000000000000E+00  0.495835559400E+00  0.494985795861E+00  0.468931373348E+00  0.492171022374E+00  0.485008841396E+00
  0.000000000000E+00  0.495860032558E+00  0.494947727617E+00  0.468789083785E+00  0.492104234597E+00  0.485187705317E+00  0.000000000000E+00
  0.495822765208E+00  0.494982444330E+00  0.468941573999E+00  0.492167195291E+00  0.485008846342E+00  0.000000000000E+00  0.494916057303E+00
  0.468457035170E+00  0.491963502464E+00  0.485198725699E+00  0.000000000000E+00  0.483647274551E+00  0.000000000000E+00  0.000000000000E+00
  0.000000000000E+00  0.741704767542E-05  0.000000000000E+00  0.000000000000E+00  0.000000000000E+00  0.260095574360E-05 -0.185371774948E-04
  0.127784504284E-04 -0.343226613952E-04  0.000000000000E+00 -0.270934667231E-09 -0.435358676858E-05  0.647201661055E-04 -0.829158447046E-05
 -0.108406285494E-02  0.000000000000E+00 -0.260090436892E-05  0.912552634754E-09 -0.394404543827E-08  0.127780597405E-08 -0.138955671670E-03
  0.000000000000E+00 -0.741652865650E-05  0.435524370424E-05 -0.647223144971E-04  0.829267554391E-05  0.274607439525E-09  0.000000000000E+00
  0.000000000000E+00  0.185378100862E-04 -0.127904068669E-04  0.343231442078E-04  0.138956539924E-03  0.000000000000E+00  0.000000000000E+00
  0.000000000000E+00  0.000000000000E+00  0.108405913043E-02  0.000000000000E+00  0.000000000000E+00  0.000000000000E+00  0.000000000000E+00
  0.177015027791E-02  0.174893253295E-02 -0.839568571399E-03 -0.500681974688E-02  0.363926064204E-02  0.176199297831E-02 -0.827602240735E-03
 -0.522806236056E-02  0.368545138908E-02  0.352738201255E-01  0.174975247091E-02 -0.835804815980E-03 -0.525046435113E-02  0.368247358233E-02
  0.339324642709E-01  0.000000000000E+00  0.176199301298E-02 -0.831632133349E-03 -0.527595347771E-02  0.368991028418E-02  0.340561679182E-01
  0.000000000000E+00  0.174893351462E-02 -0.835805303173E-03 -0.525046921604E-02  0.368247322667E-02  0.340205596813E-01  0.000000000000E+00
  0.177015001844E-02 -0.827600480053E-03 -0.522808169116E-02  0.368545461335E-02  0.340561728254E-01  0.000000000000E+00 -0.839569100278E-03
 -0.500682116412E-02  0.363926083834E-02  0.339324753426E-01  0.000000000000E+00  0.352738795845E-01  0.000000000000E+00  0.000000000000E+00
  0.717938262236E+00  0.717911389166E+00  0.720348497067E+00  0.741922925213E+00  0.723054814490E+00  0.717932548204E+00  0.720254688652E+00
  0.741395033524E+00  0.722829218473E+00  0.744874790197E+00  0.717912713508E+00  0.720299294451E+00  0.741517991118E+00  0.722895807028E+00
  0.742490138712E+00  0.107355241640E+01  0.717932548155E+00  0.720260416805E+00  0.741407887722E+00  0.722825951310E+00  0.742508431947E+00
  0.107478107692E+01  0.717911390182E+00  0.720299294392E+00  0.741517990069E+00  0.722895806493E+00  0.742297290212E+00  0.107516719722E+01
  0.717938264088E+00  0.720254688993E+00  0.741395048170E+00  0.722829217064E+00  0.742508429138E+00  0.107508720261E+01  0.720348496698E+00
  0.741922936622E+00  0.723054809258E+00  0.742490138013E+00  0.107516719392E+01  0.744874735873E+00  0.107478101606E+01  0.107355225728E+01
  0.495501623084E+00  0.495541319507E+00  0.494190069542E+00  0.467616939817E+00  0.490880391644E+00  0.495515007395E+00  0.494265145509E+00
  0.468196612337E+00  0.491101917297E+00  0.476586327192E+00  0.495538957809E+00  0.494225463219E+00  0.468037025791E+00  0.491031779729E+00
  0.478025172411E+00  0.000000000000E+00  0.495515007483E+00  0.494267501379E+00  0.468188054105E+00  0.491105555843E+00  0.477831475322E+00
  0.000000000000E+00  0.495541318652E+00  0.494225463339E+00  0.468037024311E+00  0.491031780374E+00  0.478028523743E+00  0.000000000000E+00
  0.495501620666E+00  0.494265144758E+00  0.468196622742E+00  0.491101915355E+00  0.477831480845E+00  0.000000000000E+00  0.494190065547E+00
  0.467616997537E+00  0.490880386692E+00  0.478025158218E+00  0.000000000000E+00  0.476586368066E+00  0.000000000000E+00  0.000000000000E+00
  0.100130942111E+01  0.100129919563E+01  0.100294315266E+01  0.100371070606E+01  0.100447278963E+01  0.100130687599E+01  0.100290740050E+01
  0.100330942989E+01  0.100439935471E+01  0.103532870485E+01  0.100129917689E+01  0.100292780870E+01  0.100334212162E+01  0.100442917907E+01
  0.103528251473E+01  0.100000000000E+01  0.100130687597E+01  0.100291144388E+01  0.100330481027E+01  0.100440021224E+01  0.103534686464E+01
  0.100000000000E+01  0.100129919638E+01  0.100292780864E+01  0.100334212114E+01  0.100442917865E+01  0.103524219343E+01  0.100000000000E+01
  0.100130942252E+01  0.100290740015E+01  0.100330943680E+01  0.100439935238E+01  0.103534686319E+01  0.100000000000E+01  0.100294315176E+01
  0.100371071382E+01  0.100447278403E+01  0.103528251863E+01  0.100000000000E+01  0.103532868937E+01  0.100000000000E+01  0.100000000000E+01
         2         7         3         1
         7         9         5         3
         9         8         4         5
         8        15        10         4
        15        22        16        10
         6        12         7         2
        12        14         9         7
        14        13         8         9
        13        21        15         8
        21        28        22        15
        11        18        12         6
        18        20        14        12
        20        19        13        14
        19        27        21        13
        27        34        28        21
        17        24        18        11
        24        26        20        18
        26        25        19        20
        25        33        27        19
        33        39        34        27
        23        30        24        17
        30        32        26        24
        32        31        25        26
        31        38        33        25
        38        41        39        33
        29        35        30        23
        35        37        32        30
        37        36        31        32
        36        40        38        31
        40        42        41        38
zone t="boundary 2 bc-2", solutiontime= 0.6000000E+02, strandid=1002, i=50, j=78, f=feblock
  0.500000000000E+01  0.400000000000E+01  0.500000000000E+01  0.432205072469E+01  0.300000000000E+01  0.339985167428E+01  0.500000000000E+01
  0.414352482062E+01  0.200000000000E+01  0.238772260472E+01  0.328766614337E+01  0.253053942594E+01  0.500000000000E+01  0.437470683547E+01
  0.355186041251E+01  0.100000000000E+01  0.148474164412E+01  0.182006405350E+01  0.265208498144E+01  0.158439218620E+01  0.500000000000E+01
  0.421824364393E+01  0.356601661300E+01  0.279151482472E+01  0.000000000000E+00  0.691584087487E+00  0.102677755985E+01  0.203910647352E+01
  0.786163368796E+00  0.130062434092E+01  0.579883387792E+00  0.500000000000E+01  0.439593351493E+01  0.365358382485E+01  0.222719085292E+01
  0.294979435250E+01  0.181898636514E+01  0.000000000000E+00  0.000000000000E+00  0.608717331133E+00  0.956798945949E+00  0.000000000000E+00
  0.400000000000E+01  0.200000000000E+01  0.160059523280E+01  0.300000000000E+01  0.000000000000E+00  0.482256655205E+00  0.100000000000E+01
  0.000000000000E+00
 -0.500000000000E+01 -0.500000000000E+01 -0.500000000000E+01 -0.500000000000E+01 -0.500000000000E+01 -0.500000000000E+01 -0.500000000000E+01
 -0.500000000000E+01 -0.500000000000E+01 -0.500000000000E+01 -0.500000000000E+01 -0.500000000000E+01 -0.500000000000E+01 -0.500000000000E+01
 -0.500000000000E+01 -0.500000000000E+01 -0.500000000000E+01 -0.500000000000E+01 -0.500000000000E+01 -0.500000000000E+01 -0.500000000000E+01
 -0.500000000000E+01 -0.500000000000E+01 -0.500000000000E+01 -0.500000000000E+01 -0.500000000000E+01 -0.500000000000E+01 -0.500000000000E+01
 -0.500000000000E+01 -0.500000000000E+01 -0.500000000000E+01 -0.500000000000E+01 -0.500000000000E+01 -0.500000000000E+01 -0.500000000000E+01
 -0.500000000000E+01 -0.500000000000E+01 -0.500000000000E+01 -0.500000000000E+01 -0.500000000000E+01 -0.500000000000E+01 -0.500000000000E+01
 -0.500000000000E+01 -0.500000000000E+01 -0.500000000000E+01 -0.500000000000E+01 -0.500000000000E+01 -0.500000000000E+01 -0.500000000000E+01
 -0.500000000000E+01
  0.500000000000E+01  0.500000000000E+01  0.400000000000E+01  0.427284776458E+01  0.500000000000E+01  0.409791606955E+01  0.300000000000E+01
  0.334954216394E+01  0.500000000000E+01  0.428961258157E+01  0.317389756208E+01  0.342579600005E+01  0.200000000000E+01  0.245604909385E+01
  0.233993022181E+01  0.500000000000E+01  0.436396516571E+01  0.369973104758E+01  0.256908373316E+01  0.279597472668E+01  0.100000000000E+01
  0.157729503259E+01  0.159701071514E+01  0.152167522831E+01  0.500000000000E+01  0.441213888848E+01  0.370665089386E+01  0.199896920986E+01
  0.224835513052E+01  0.181406525358E+01  0.296809553468E+01  0.000000000000E+00  0.696815730569E+00  0.990157383601E+00  0.787866207738E+00
  0.548147595005E+00  0.128672970530E+01  0.400000000000E+01  0.200000000000E+01  0.160443740745E+01  0.959766653149E+00  0.300000000000E+01
  0.000000000000E+00  0.000000000000E+00  0.606872513237E+00  0.000000000000E+00  0.100000000000E+01  0.486991412371E+00  0.000000000000E+00
  0.000000000000E+00
  0.100230043812E+01  0.100190739375E+01  0.100208899393E+01  0.100305119433E+01  0.100199652931E+01  0.100313020569E+01  0.100511342499E+01
  0.100369605815E+01  0.100548260972E+01  0.100303589785E+01  0.100096248641E+01  0.100461330170E+01  0.101903350896E+01  0.100460549620E+01
  0.996426920219E+00  0.100461507873E+01  0.100463183253E+01  0.100385793726E+01  0.996053805836E+00  0.101002517601E+01  0.983182532722E+00
  0.999202512647E+00  0.100338751635E+01  0.100830610537E+01  0.100379917248E+01  0.100495170935E+01  0.100724228579E+01  0.997528051890E+00
  0.101249080393E+01  0.993492731813E+00  0.100751090638E+01  0.820300343033E+00  0.996132861363E+00  0.984669432446E+00  0.101949674552E+01
  0.100280125970E+01  0.100187178517E+01  0.100552847249E+01  0.103485207139E+01  0.100265212940E+01  0.106810493767E+01  0.100776919898E+01
  0.980062505465E+00  0.984130578518E+00  0.975525170547E+00  0.986240142227E+00  0.100724015564E+01  0.109839856259E+01  0.922324956611E+00
  0.150297316019E+01
  0.500083506798E+00  0.499207174376E+00  0.499426224911E+00  0.497832328362E+00  0.499701738051E+00  0.497949679140E+00  0.512031568006E+00
  0.500204158871E+00  0.494203100181E+00  0.498607593357E+00  0.501680799998E+00  0.498591359569E+00  0.523956514455E+00  0.537339518895E+00
  0.549693431298E+00  0.493153693036E+00  0.495428489679E+00  0.497562259470E+00  0.522248488398E+00  0.493538266164E+00  0.477419982828E+00
  0.570417307043E+00  0.584152351363E+00  0.571389267623E+00  0.495822765208E+00  0.494727580598E+00  0.493738594194E+00  0.547550200444E+00
  0.488844740132E+00  0.537948234662E+00  0.492249562407E+00  0.000000000000E+00  0.397688017789E+00  0.465939368767E+00  0.413354246889E+00
  0.307146669072E+00  0.585767894544E+00  0.494916057303E+00  0.468457035170E+00  0.493117216774E+00  0.532068334726E+00  0.491963502464E+00
  0.000000000000E+00  0.000000000000E+00  0.377546098979E+00  0.000000000000E+00  0.483647274551E+00  0.446821642143E+00  0.000000000000E+00
  0.000000000000E+00
  0.000000000000E+00  0.000000000000E+00  0.000000000000E+00  0.000000000000E+00  0.000000000000E+00  0.000000000000E+00  0.000000000000E+00
  0.000000000000E+00  0.000000000000E+00  0.000000000000E+00  0.000000000000E+00  0.000000000000E+00  0.000000000000E+00  0.000000000000E+00
  0.000000000000E+00  0.000000000000E+00  0.000000000000E+00  0.000000000000E+00  0.000000000000E+00  0.000000000000E+00  0.000000000000E+00
  0.000000000000E+00  0.000000000000E+00  0.000000000000E+00  0.000000000000E+00  0.000000000000E+00  0.000000000000E+00  0.000000000000E+00
  0.000000000000E+00  0.000000000000E+00  0.000000000000E+00  0.000000000000E+00  0.000000000000E+00  0.000000000000E+00  0.000000000000E+00
  0.000000000000E+00  0.000000000000E+00  0.000000000000E+00  0.000000000000E+00  0.000000000000E+00  0.000000000000E+00  0.000000000000E+00
  0.000000000000E+00  0.000000000000E+00  0.000000000000E+00  0.000000000000E+00  0.000000000000E+00  0.000000000000E+00  0.000000000000E+00
  0.000000000000E+00
  0.327105272748E-02  0.433459761072E-02  0.733678321957E-02  0.466774575440E-02  0.461270767018E-02  0.429168261464E-02  0.121351426096E-01
  0.421193802682E-02  0.342423058790E-02  0.532012635652E-02  0.321386343206E-02  0.656368098692E-02 -0.228655919585E-01  0.630582483019E-02
  0.934034986082E-02  0.482000467467E-02  0.603811403037E-02  0.734601144738E-02  0.127818340488E-01  0.106210147783E-01 -0.872638199824E-01
 -0.932890917486E-02  0.727752916083E-02  0.219484239247E-01  0.177015001844E-02  0.391471106034E-02  0.536434378721E-02  0.250614865414E-01
  0.861761540522E-02  0.445508165631E-01  0.601782511064E-02  0.000000000000E+00 -0.437731117517E-01  0.126988824380E-01  0.560213757996E-02
  0.453813818773E-02  0.380557780709E-01 -0.839569100278E-03 -0.500682116412E-02  0.258314854983E-01  0.733035727919E-01  0.363926083834E-02
  0.000000000000E+00  0.000000000000E+00 -0.110058379420E-01  0.000000000000E+00  0.352738795845E-01  0.179012098848E+00  0.000000000000E+00
  0.000000000000E+00
  0.716679570260E+00  0.716861709798E+00  0.716427967627E+00  0.717007186288E+00  0.716858534592E+00  0.716846923454E+00  0.720759914158E+00
  0.718673913663E+00  0.719247376963E+00  0.718218323013E+00  0.715862844848E+00  0.716773347870E+00  0.730503093387E+00  0.720079834957E+00
  0.711995691855E+00  0.719026872955E+00  0.719199593911E+00  0.718602891885E+00  0.714411525381E+00  0.721663490245E+00  0.687381308182E+00
  0.705377995578E+00  0.708075646445E+00  0.712749831400E+00  0.717938264088E+00  0.719437696191E+00  0.721992508178E+00  0.718921245193E+00
  0.723520330146E+00  0.717705351401E+00  0.720781682077E+00  0.585928816452E+00  0.694218990523E+00  0.690304687080E+00  0.715889184379E+00
  0.707670665116E+00  0.698077222862E+00  0.720348496698E+00  0.741922936622E+00  0.738946139786E+00  0.749085115420E+00  0.723054809258E+00
  0.700044646760E+00  0.702950413227E+00  0.681417374896E+00  0.704457244448E+00  0.744874735873E+00  0.724803751971E+00  0.658803540437E+00
  0.107355225728E+01
  0.499832224268E+00  0.498803245081E+00  0.499253436882E+00  0.497665989584E+00  0.499323174622E+00  0.497855156496E+00  0.511171790436E+00
  0.499613132163E+00  0.493855631747E+00  0.498023216209E+00  0.501379258386E+00  0.498915385723E+00  0.523513140064E+00  0.536441190155E+00
  0.549671550394E+00  0.492681550733E+00  0.494911975297E+00  0.497075535974E+00  0.521327195710E+00  0.493578332932E+00  0.490558690426E+00
  0.573855507179E+00  0.587746876494E+00  0.574798815915E+00  0.495501620666E+00  0.494187438819E+00  0.492900568275E+00  0.545677758786E+00
  0.488815056246E+00  0.536747398607E+00  0.491899951384E+00  0.000000000000E+00  0.405045532098E+00  0.470491133322E+00  0.416934938153E+00
  0.309044507845E+00  0.594333872354E+00  0.494190065547E+00  0.467616997537E+00  0.486127233449E+00  0.542035563926E+00  0.490880386692E+00
  0.000000000000E+00  0.000000000000E+00  0.381946958973E+00  0.000000000000E+00  0.476586368066E+00  0.500799621044E+00  0.000000000000E+00
  0.000000000000E+00
  0.100104854813E+01  0.100169576547E+01  0.100090826339E+01  0.100075655807E+01  0.100160222023E+01  0.100045406583E+01  0.100393035725E+01
  0.100243840848E+01  0.100145573680E+01  0.100246227914E+01  0.100124429875E+01  0.998874577232E+00  0.100360225817E+01  0.100349019864E+01
  0.100036836457E+01  0.100201325209E+01  0.100223723644E+01  0.100217770991E+01  0.100413866166E+01  0.100030069581E+01  0.978794678939E+00
  0.988317364408E+00  0.987959177155E+00  0.989629794605E+00  0.100130942252E+01  0.100224992435E+01  0.100352172035E+01  0.100898389911E+01
  0.100043225901E+01  0.101136873959E+01  0.100157164405E+01  0.100000000000E+01  0.975679675302E+00  0.981473101598E+00  0.983078035836E+00
  0.987971366789E+00  0.975482218852E+00  0.100294315176E+01  0.100371071382E+01  0.103178815999E+01  0.981850307590E+00  0.100447278403E+01
  0.100000000000E+01  0.100000000000E+01  0.977918718714E+00  0.100000000000E+01  0.103532868937E+01  0.923822451445E+00  0.100000000000E+01
  0.100000000000E+01
        44        35        36        36
        24        34        36        36
        38        27        31        31
        20        29        31        31
        24        23        34        34
        15        22        23        23
        24        35        37        37
        41        30        37        37
        27        18        20        20
        17        18        27        27
        15        19        11        11
        12         6        11        11
         8         7        14        14
        13        14         7         7
        41        40        30        30
        47        39        40        40
        17         9        10        10
         5        10         9         9
        44        45        35        35
        49        41        45        45
        19        15        24        24
        36        35        24        24
        37        45        41        41
        40        39        29        29
        30        29        20        20
        12        18        10        10
        20        12        19        19
        11         8        15        15
        20        18        12        12
        27        20        31        31
        28        20        19        19
        23        24        15        15
        23        22        34        34
        28        24        37        37
        11        19        12        12
        11         6         8         8
        28        19        24        24
        40        41        47        47
        30        40        29        29
        45        44        49        49
        37        35        45        45
        16        26        25        25
        27        38        26        26
        47        48        50        50
        43        33        32        32
        22        21        33        33
         3         4         1         1
         6         2         4         4
        10         5         6         6
        14        13        22        22
         4         3         8         8
         7         8         3         3
        42        38        31        31
         9        17        16        16
        33        43        34        34
        36        34        43        43
        41        48        47        47
        15         8        14        14
        28        30        20        20
        18        17        10        10
        42        31        39        39
        26        16        17        17
         8         6         4         4
        34        22        33        33
        37        30        28        28
        27        26        17        17
        49        48        41        41
        46        36        43        43
        31        29        39        39
        36        46        44        44
        22        13        21        21
        15        14        22        22
         6         5         2         2
        12        10         6         6
        26        38        25        25
        48        49        50        50
        33        21        32        32
         4         2         1         1
zone t="boundary 3 bc-3", solutiontime= 0.6000000E+02, strandid=1003, i=50, j=78, f=feblock
  0.500000000000E+01  0.400000000000E+01  0.500000000000E+01  0.432205072469E+01  0.300000000000E+01  0.339985167428E+01  0.500000000000E+01
  0.414352482062E+01  0.200000000000E+01  0.238772260472E+01  0.328766614337E+01  0.253053942594E+01  0.500000000000E+01  0.437470683547E+01
  0.355186041251E+01  0.100000000000E+01  0.148474164412E+01  0.182006405350E+01  0.265208498144E+01  0.158439218620E+01  0.500000000000E+01
  0.421824364393E+01  0.356601661300E+01  0.279151482472E+01  0.000000000000E+00  0.691584087487E+00  0.102677755985E+01  0.203910647352E+01
  0.786163368796E+00  0.130062434092E+01  0.579883387792E+00  0.500000000000E+01  0.439593351493E+01  0.365358382485E+01  0.222719085292E+01
  0.294979435250E+01  0.181898636514E+01  0.000000000000E+00  0.000000000000E+00  0.608717331133E+00  0.956798945949E+00  0.000000000000E+00
  0.400000000000E+01  0.200000000000E+01  0.160059523280E+01  0.300000000000E+01  0.000000000000E+00  0.482256655205E+00  0.100000000000E+01
  0.000000000000E+00
  0.000000000000E+00  0.000000000000E+00  0.000000000000E+00  0.000000000000E+00  0.000000000000E+00  0.000000000000E+00  0.000000000000E+00
  0.000000000000E+00  0.000000000000E+00  0.000000000000E+00  0.000000000000E+00  0.000000000000E+00  0.000000000000E+00  0.000000000000E+00
  0.000000000000E+00  0.000000000000E+00  0.000000000000E+00  0.000000000000E+00  0.000000000000E+00  0.000000000000E+00  0.000000000000E+00
  0.000000000000E+00  0.000000000000E+00  0.000000000000E+00  0.000000000000E+00  0.000000000000E+00  0.000000000000E+00  0.000000000000E+00
  0.000000000000E+00  0.000000000000E+00  0.000000000000E+00  0.000000000000E+00  0.000000000000E+00  0.000000000000E+00  0.000000000000E+00
  0.000000000000E+00  0.000000000000E+00  0.000000000000E+00  0.000000000000E+00  0.000000000000E+00  0.000000000000E+00  0.000000000000E+00
  0.000000000000E+00  0.000000000000E+00  0.000000000000E+00  0.000000000000E+00  0.000000000000E+00  0.000000000000E+00  0.000000000000E+00
  0.000000000000E+00
  0.500000000000E+01  0.500000000000E+01  0.400000000000E+01  0.427284776458E+01  0.500000000000E+01  0.409791606955E+01  0.300000000000E+01
  0.334954216394E+01  0.500000000000E+01  0.428961258157E+01  0.317389756208E+01  0.342579600005E+01  0.200000000000E+01  0.245604909385E+01
  0.233993022181E+01  0.500000000000E+01  0.436396516571E+01  0.369973104758E+01  0.256908373316E+01  0.279597472668E+01  0.100000000000E+01
  0.157729503259E+01  0.159701071514E+01  0.152167522831E+01  0.500000000000E+01  0.441213888848E+01  0.370665089386E+01  0.199896920986E+01
  0.224835513052E+01  0.181406525358E+01  0.296809553468E+01  0.000000000000E+00  0.696815730569E+00  0.990157383601E+00  0.787866207738E+00
  0.548147595005E+00  0.128672970530E+01  0.400000000000E+01  0.200000000000E+01  0.160443740745E+01  0.959766653149E+00  0.300000000000E+01
  0.000000000000E+00  0.000000000000E+00  0.606872513237E+00  0.000000000000E+00  0.100000000000E+01  0.486991412371E+00  0.000000000000E+00
  0.000000000000E+00
  0.100230043449E+01  0.100190739391E+01  0.100208900388E+01  0.100305118872E+01  0.100199654212E+01  0.100313020839E+01  0.100511344996E+01
  0.100369606560E+01  0.100548260917E+01  0.100303590428E+01  0.100096248071E+01  0.100461330464E+01  0.101903355913E+01  0.100460552263E+01
  0.996426932634E+00  0.100461507914E+01  0.100463183422E+01  0.100385793663E+01  0.996053820056E+00  0.101002517923E+01  0.983182338368E+00
  0.999202528470E+00  0.100338755060E+01  0.100830617127E+01  0.100379917131E+01  0.100495170802E+01  0.100724228490E+01  0.997528040479E+00
  0.101249077739E+01  0.993492785534E+00  0.100751090194E+01  0.820299764439E+00  0.996132590223E+00  0.984669312688E+00  0.101949673022E+01
  0.100280102357E+01  0.100187178836E+01  0.100552847210E+01  0.103485206347E+01  0.100265215525E+01  0.106810495573E+01  0.100776920066E+01
  0.980062205155E+00  0.984130549268E+00  0.975525120279E+00  0.986240365581E+00  0.100724021404E+01  0.109839852976E+01  0.922324850958E+00
  0.150297338296E+01
  0.500083498027E+00  0.499207146483E+00  0.499426184773E+00  0.497832303448E+00  0.499701696254E+00  0.497949651924E+00  0.512031523545E+00
  0.500204117167E+00  0.494203076276E+00  0.498607589438E+00  0.501680775294E+00  0.498591329020E+00  0.523956482832E+00  0.537339543688E+00
  0.549693393916E+00  0.493153691386E+00  0.495428487475E+00  0.497562250619E+00  0.522248467395E+00  0.493538228071E+00  0.477419980730E+00
  0.570417326369E+00  0.584152199743E+00  0.571389188052E+00  0.495822767278E+00  0.494727585664E+00  0.493738596059E+00  0.547550103794E+00
  0.488844728651E+00  0.537948164399E+00  0.492249555303E+00  0.000000000000E+00  0.397687891999E+00  0.465939379431E+00  0.413354357364E+00
  0.307146777740E+00  0.585767874481E+00  0.494916061527E+00  0.468456975545E+00  0.493117217982E+00  0.532068346423E+00  0.491963508799E+00
  0.000000000000E+00  0.000000000000E+00  0.377546078294E+00  0.000000000000E+00  0.483647240823E+00  0.446821537530E+00  0.000000000000E+00
  0.000000000000E+00
  0.000000000000E+00  0.000000000000E+00  0.000000000000E+00  0.000000000000E+00  0.000000000000E+00  0.000000000000E+00  0.000000000000E+00
  0.000000000000E+00  0.000000000000E+00  0.000000000000E+00  0.000000000000E+00  0.000000000000E+00  0.000000000000E+00  0.000000000000E+00
  0.000000000000E+00  0.000000000000E+00  0.000000000000E+00  0.000000000000E+00  0.000000000000E+00  0.000000000000E+00  0.000000000000E+00
  0.000000000000E+00  0.000000000000E+00  0.000000000000E+00  0.000000000000E+00  0.000000000000E+00  0.000000000000E+00  0.000000000000E+00
  0.000000000000E+00  0.000000000000E+00  0.000000000000E+00  0.000000000000E+00  0.000000000000E+00  0.000000000000E+00  0.000000000000E+00
  0.000000000000E+00  0.000000000000E+00  0.000000000000E+00  0.000000000000E+00  0.000000000000E+00  0.000000000000E+00  0.000000000000E+00
  0.000000000000E+00  0.000000000000E+00  0.000000000000E+00  0.000000000000E+00  0.000000000000E+00  0.000000000000E+00  0.000000000000E+00
  0.000000000000E+00
  0.327104666472E-02  0.433460636582E-02  0.733681608314E-02  0.466775397971E-02  0.461270414553E-02  0.429172098557E-02  0.121352156888E-01
  0.421193459726E-02  0.342423282942E-02  0.532010608839E-02  0.321390701118E-02  0.656366116659E-02 -0.228656475651E-01  0.630587975536E-02
  0.934039301398E-02  0.482000298367E-02  0.603810731590E-02  0.734600777971E-02  0.127818342477E-01  0.106209902312E-01 -0.872638906371E-01
 -0.932880261015E-02  0.727746375074E-02  0.219485147188E-01  0.177015027791E-02  0.391470488974E-02  0.536433422414E-02  0.250615289395E-01