title="tecplot geometry and solution file"
variables = x y z rho u v w p mach temperature
zone t="boundary 1 bc-1", solutiontime= 0.7000000E+02, strandid=1001, i=42, j=30, f=feblock
  0.000000000000E+00  0.000000000000E+00  0.000000000000E+00  0.000000000000E+00  0.000000000000E+00  0.000000000000E+00  0.000000000000E+00
  0.000000000000E+00  0.000000000000E+00  0.000000000000E+00  0.000000000000E+00  0.000000000000E+00  0.000000000000E+00  0.000000000000E+00
  0.000000000000E+00  0.000000000000E+00  0.000000000000E+00  0.000000000000E+00  0.000000000000E+00  0.000000000000E+00  0.000000000000E+00
  0.000000000000E+00  0.000000000000E+00  0.000000000000E+00  0.000000000000E+00  0.000000000000E+00  0.000000000000E+00  0.000000000000E+00
  0.000000000000E+00  0.000000000000E+00  0.000000000000E+00  0.000000000000E+00  0.000000000000E+00  0.000000000000E+00  0.000000000000E+00
  0.000000000000E+00  0.000000000000E+00  0.000000000000E+00  0.000000000000E+00  0.000000000000E+00  0.000000000000E+00  0.000000000000E+00
  0.000000000000E+00  0.000000000000E+00 -0.833333333333E+00  0.000000000000E+00  0.000000000000E+00 -0.833333333333E+00 -0.166666666667E+01
  0.000000000000E+00 -0.833333333333E+00 -0.833333333333E+00  0.000000000000E+00 -0.166666666667E+01 -0.250000000000E+01 -0.833333333333E+00
 -0.166666666667E+01 -0.166666666667E+01 -0.833333333333E+00 -0.250000000000E+01 -0.333333333333E+01 -0.166666666667E+01 -0.250000000000E+01
 -0.250000000000E+01 -0.166666666667E+01 -0.333333333333E+01 -0.416666666667E+01 -0.250000000000E+01 -0.333333333333E+01 -0.333333333333E+01
 -0.250000000000E+01 -0.416666666667E+01 -0.500000000000E+01 -0.333333333333E+01 -0.416666666667E+01 -0.416666666667E+01 -0.333333333333E+01
 -0.500000000000E+01 -0.416666666667E+01 -0.500000000000E+01 -0.500000000000E+01 -0.416666666667E+01 -0.500000000000E+01 -0.500000000000E+01
  0.250000000000E+01  0.150000000000E+01  0.250000000000E+01  0.500000000000E+00 -0.150000000000E+01  0.150000000000E+01  0.250000000000E+01
 -0.500000000000E+00  0.500000000000E+00 -0.150000000000E+01 -0.250000000000E+01  0.150000000000E+01  0.250000000000E+01 -0.500000000000E+00
  0.500000000000E+00 -0.150000000000E+01 -0.250000000000E+01  0.150000000000E+01  0.250000000000E+01 -0.500000000000E+00  0.500000000000E+00
 -0.150000000000E+01 -0.250000000000E+01  0.150000000000E+01  0.250000000000E+01 -0.500000000000E+00  0.500000000000E+00 -0.150000000000E+01
 -0.250000000000E+01  0.150000000000E+01  0.250000000000E+01 -0.500000000000E+00  0.500000000000E+00 -0.150000000000E+01 -0.250000000000E+01
  0.150000000000E+01 -0.500000000000E+00  0.500000000000E+00 -0.150000000000E+01 -0.250000000000E+01 -0.500000000000E+00 -0.250000000000E+01
  0.100128484072E+01  0.100547571721E+01  0.100147648367E+01  0.999910863916E+00  0.981352046032E+00  0.100471555945E+01  0.100246155569E+01
  0.104770320976E+01  0.100016582886E+01  0.998699590187E+00  0.153630841727E+01  0.100685866717E+01  0.100202330522E+01  0.103039713000E+01
  0.100364431130E+01  0.100614127134E+01  0.150031572589E+01  0.100584204869E+01  0.100246152493E+01  0.104087485780E+01  0.100253785837E+01
  0.100702135453E+01  0.151181059449E+01  0.100685850442E+01  0.100147651012E+01  0.103663109288E+01  0.100364423785E+01  0.100614206206E+01
  0.150887706028E+01  0.100471554199E+01  0.100128483341E+01  0.104087401086E+01  0.100016604622E+01  0.998701417382E+00  0.151180514735E+01
  0.100547544007E+01  0.103039653437E+01  0.999910627615E+00  0.981354134559E+00  0.150030548086E+01  0.104769915276E+01  0.153628316592E+01
  0.498195722662E+00  0.496287636224E+00  0.498048521453E+00  0.497059639318E+00  0.467862613249E+00  0.496567211738E+00  0.497011938229E+00
  0.470096772942E+00  0.499029528744E+00  0.497758163526E+00  0.000000000000E+00  0.494565440350E+00  0.497444042275E+00  0.478136572624E+00
  0.495236452917E+00  0.480611313942E+00  0.000000000000E+00  0.495427321367E+00  0.497011977389E+00  0.467891283003E+00  0.496895601274E+00
  0.484510090738E+00  0.000000000000E+00  0.494565539635E+00  0.498048551265E+00  0.470593952089E+00  0.495236609290E+00  0.480611772273E+00
  0.000000000000E+00  0.496567237256E+00  0.498195879742E+00  0.467891668350E+00  0.499029159366E+00  0.497755459479E+00  0.000000000000E+00
  0.496287882620E+00  0.478137089233E+00  0.497059487635E+00  0.467864883543E+00  0.000000000000E+00  0.470100045090E+00  0.000000000000E+00
  0.775226365747E-03  0.766638177792E-03  0.433163088760E-03  0.357445226903E-02  0.362462033654E-01 -0.216652654386E-03  0.843049078499E-04
 -0.102979508890E-01  0.345171782187E-02  0.159921723497E-01  0.000000000000E+00 -0.241790962699E-03  0.243909795257E-07 -0.893903001369E-02
  0.152305473041E-02  0.314677743616E-02  0.000000000000E+00 -0.673469705094E-07 -0.842296154603E-04 -0.836039178599E-03  0.256856657732E-07
  0.439896389803E-06  0.000000000000E+00  0.241761972581E-03 -0.433114894460E-03 -0.317817588653E-06 -0.152288157837E-02 -0.314570021427E-02
  0.000000000000E+00  0.216529627186E-03 -0.775167388401E-03  0.835531877086E-03 -0.345156130116E-02 -0.159911007627E-01  0.000000000000E+00
 -0.766618307606E-03  0.893779248864E-02 -0.357434095154E-02 -0.362450828962E-01  0.000000000000E+00  0.102967148564E-01  0.000000000000E+00
  0.185655885754E-02 -0.129473623473E-02  0.175667783261E-02  0.891866507893E-02  0.757111307585E-01  0.124833480755E-03  0.244865106022E-02
 -0.138449220273E-01  0.568592815361E-02  0.355361604996E-01  0.000000000000E+00 -0.258431841542E-03  0.210857546762E-02 -0.695682863594E-02
  0.598079357955E-02  0.442365713215E-01  0.000000000000E+00  0.892623041945E-04  0.244860328092E-02 -0.591153872894E-02  0.538653792174E-02
  0.414097206923E-01  0.000000000000E+00 -0.258364259776E-03  0.175668216422E-02 -0.503649084865E-02  0.598062004573E-02  0.442362681340E-01
  0.000000000000E+00  0.124902442196E-03  0.185654892641E-02 -0.591159030265E-02  0.568549127960E-02  0.355360233139E-01  0.000000000000E+00
 -0.129445615871E-02 -0.695601964046E-02  0.891747010981E-02  0.757087451112E-01  0.000000000000E+00 -0.138433719032E-01  0.000000000000E+00
  0.715731288250E+00  0.719448818222E+00  0.715882158878E+00  0.716735319328E+00  0.727248345327E+00  0.718687417076E+00  0.716877464090E+00
  0.751281767162E+00  0.716398967346E+00  0.735398003212E+00  0.109733795837E+01  0.720831589842E+00  0.716434901297E+00  0.736657584320E+00
  0.720050765972E+00  0.745808786366E+00  0.107163064255E+01  0.719812404820E+00  0.716877429086E+00  0.746287394956E+00  0.718898997122E+00
  0.746121721485E+00  0.107984209823E+01  0.720831432884E+00  0.715882177129E+00  0.742231035524E+00  0.720050640691E+00  0.745808977561E+00
  0.107774774818E+01  0.718687407166E+00  0.715731257327E+00  0.746286744080E+00  0.716399130191E+00  0.735399300693E+00  0.107983974425E+01
  0.719448548159E+00  0.736657199529E+00  0.716734914392E+00  0.727248300082E+00  0.107162624538E+01  0.751278435411E+00  0.109732420871E+01
  0.498016047429E+00  0.495857944446E+00  0.497863297587E+00  0.496280083664E+00  0.466664670295E+00  0.496210123526E+00  0.496728957979E+00
  0.469497537820E+00  0.498378540164E+00  0.491742159260E+00  0.000000000000E+00  0.494000296292E+00  0.497204054649E+00  0.478056544522E+00
  0.494186256005E+00  0.473791006981E+00  0.000000000000E+00  0.494961218735E+00  0.496729001374E+00  0.467049052894E+00  0.495955947440E+00
  0.477456405929E+00  0.000000000000E+00  0.494000409271E+00  0.497863327589E+00  0.470056167306E+00  0.494186434310E+00  0.473791546266E+00
  0.000000000000E+00  0.496210148098E+00  0.498016213260E+00  0.467049450887E+00  0.498378162795E+00  0.491739476789E+00  0.000000000000E+00
  0.495858214596E+00  0.478057012557E+00  0.496279991630E+00  0.466666918327E+00  0.000000000000E+00  0.469500860908E+00  0.000000000000E+00
  0.100073801460E+01  0.100174308367E+01  0.100075742044E+01  0.100351889680E+01  0.103749483947E+01  0.100144003389E+01  0.100116402871E+01
  0.100390498400E+01  0.100279226239E+01  0.103089779410E+01  0.999977038757E+00  0.100228985327E+01  0.100098356654E+01  0.100089624478E+01
  0.100441068715E+01  0.103775914045E+01  0.999978120391E+00  0.100188430983E+01  0.100116401055E+01  0.100377326353E+01  0.100391081251E+01
  0.103728724856E+01  0.999979060231E+00  0.100228979704E+01  0.100075741952E+01  0.100240428526E+01  0.100441058589E+01  0.103775859092E+01
  0.999979976617E+00  0.100144003749E+01  0.100073797867E+01  0.100377320483E+01  0.100279227240E+01  0.103089772684E+01  0.999980483333E+00
  0.100174298375E+01  0.100089630054E+01  0.100351856700E+01  0.103749256691E+01  0.999980845676E+00  0.100390441932E+01  0.999980945096E+00
         3         6         2         1
         6         9         4         2
         9        14         8         4
        14        10         5         8
        10        17        11         5
         7        12         6         3
        12        15         9         6
        15        20        14         9
        20        16        10        14
        16        23        17        10
        13        18        12         7
        18        21        15        12
        21        26        20        15
        26        22        16        20
        22        29        23        16
        19        24        18        13
        24        27        21        18
        27        32        26        21
        32        28        22        26
        28        35        29        22
        25        30        24        19
        30        33        27        24
        33        37        32        27
        37        34        28        32
        34        40        35        28
        31        36        30        25
        36        38        33        30
        38        41        37        33
        41        39        34        37
        39        42        40        34
zone t="boundary 2 bc-2", solutiontime= 0.7000000E+02, strandid=1002, i=51, j=80, f=feblock
  0.500000000000E+01  0.500000000000E+01  0.400000000000E+01  0.425172245441E+01  0.500000000000E+01  0.427741389634E+01  0.300000000000E+01
  0.341887665662E+01  0.368116975164E+01  0.500000000000E+01  0.430894944607E+01  0.352044655687E+01  0.200000000000E+01  0.259168638257E+01
  0.301798341022E+01  0.500000000000E+01  0.435643616790E+01  0.375117520592E+01  0.271663237208E+01  0.288980181581E+01  0.100000000000E+01
  0.191939879870E+01  0.130679496696E+01  0.219385942988E+01  0.500000000000E+01  0.441735041915E+01  0.373031592783E+01  0.208456665067E+01
  0.230848460393E+01  0.190054259015E+01  0.298584217914E+01  0.000000000000E+00  0.613733212775E+00  0.151350918120E+01  0.794128609067E+00
  0.144135983281E+01  0.400000000000E+01  0.132476136006E+01  0.200000000000E+01  0.164582171489E+01  0.102008138039E+01  0.300000000000E+01
  0.000000000000E+00  0.000000000000E+00  0.701034609231E+00  0.609175469936E+00  0.100000000000E+01  0.505577837730E+00  0.000000000000E+00
  0.000000000000E+00  0.000000000000E+00
 -0.500000000000E+01 -0.500000000000E+01 -0.500000000000E+01 -0.500000000000E+01 -0.500000000000E+01 -0.500000000000E+01 -0.500000000000E+01
 -0.500000000000E+01 -0.500000000000E+01 -0.500000000000E+01 -0.500000000000E+01 -0.500000000000E+01 -0.500000000000E+01 -0.500000000000E+01
 -0.500000000000E+01 -0.500000000000E+01 -0.500000000000E+01 -0.500000000000E+01 -0.500000000000E+01 -0.500000000000E+01 -0.500000000000E+01
 -0.500000000000E+01 -0.500000000000E+01 -0.500000000000E+01 -0.500000000000E+01 -0.500000000000E+01 -0.500000000000E+01 -0.500000000000E+01
 -0.500000000000E+01 -0.500000000000E+01 -0.500000000000E+01 -0.500000000000E+01 -0.500000000000E+01 -0.500000000000E+01 -0.500000000000E+01
 -0.500000000000E+01 -0.500000000000E+01 -0.500000000000E+01 -0.500000000000E+01 -0.500000000000E+01 -0.500000000000E+01 -0.500000000000E+01
 -0.500000000000E+01 -0.500000000000E+01 -0.500000000000E+01 -0.500000000000E+01 -0.500000000000E+01 -0.500000000000E+01 -0.500000000000E+01
 -0.500000000000E+01 -0.500000000000E+01
  0.250000000000E+01  0.150000000000E+01  0.250000000000E+01  0.168388151981E+01  0.500000000000E+00  0.784980628699E+00  0.250000000000E+01
  0.172616846193E+01  0.104016062853E+01 -0.500000000000E+00 -0.103062804534E+00  0.179404976675E+00  0.250000000000E+01  0.166729536217E+01
  0.923171218453E+00 -0.150000000000E+01 -0.102255113015E+01 -0.669125930414E+00  0.135977239814E+00 -0.856266143819E+00  0.250000000000E+01
  0.158034275708E+01  0.175813852804E+01  0.774089735567E+00 -0.250000000000E+01 -0.179804978092E+01 -0.146769777443E+01 -0.223755606368E+00
 -0.164420331359E+01 -0.108875578595E+01 -0.190240885061E+01  0.250000000000E+01  0.185787993997E+01  0.110883669208E+01  0.100177177909E+01
  0.349093656766E+00 -0.250000000000E+01 -0.526785284186E+00 -0.250000000000E+01 -0.183798308008E+01 -0.145695630084E+01 -0.250000000000E+01
  0.150000000000E+01  0.500000000000E+00  0.396172271494E-01 -0.788824871575E+00 -0.250000000000E+01 -0.198405114581E+01 -0.150000000000E+01
 -0.500000000000E+00 -0.250000000000E+01
  0.100390371206E+01  0.100203446559E+01  0.100531519817E+01  0.100545341733E+01  0.101227684802E+01  0.100376888305E+01  0.100657074478E+01
  0.100582061177E+01  0.100715198936E+01  0.102893422436E+01  0.101464322450E+01  0.100273183925E+01  0.100591892668E+01  0.100642247837E+01
  0.100541855895E+01  0.993866355317E+00  0.100951074512E+01  0.102006318108E+01  0.998575589611E+00  0.102751852570E+01  0.100416988104E+01
  0.100542319575E+01  0.100608757183E+01  0.101148069259E+01  0.811196934375E+00  0.101105377959E+01  0.994466139224E+00  0.100338986726E+01
  0.102791641670E+01  0.103168765736E+01  0.101176509764E+01  0.100128483341E+01  0.100449977922E+01  0.100591228206E+01  0.100543622084E+01
  0.101809493415E+01  0.979662262951E+00  0.100303621925E+01  0.985205971992E+00  0.986445158666E+00  0.110441387757E+01  0.997567431189E+00
  0.100547544007E+01  0.999910627615E+00  0.102108090073E+01  0.987763895591E+00  0.907005895149E+00  0.120887478621E+01  0.981354134559E+00
  0.104769915276E+01  0.153628316592E+01
  0.494725631924E+00  0.498803164211E+00  0.490980596843E+00  0.487397972238E+00  0.514937772259E+00  0.503324765850E+00  0.490932336601E+00
  0.486543653520E+00  0.491339175922E+00  0.514558008196E+00  0.548133265573E+00  0.530358906738E+00  0.492092467167E+00  0.487058586769E+00
  0.490810893089E+00  0.466772573877E+00  0.536644539073E+00  0.562045537203E+00  0.516612968244E+00  0.555684993185E+00  0.493720577319E+00
  0.486854419619E+00  0.491238508346E+00  0.486572672517E+00  0.000000000000E+00  0.394236608610E+00  0.456604606180E+00  0.523996720878E+00
  0.413198731259E+00  0.563919332808E+00  0.312853711852E+00  0.498195879742E+00  0.494916832117E+00  0.484165897728E+00  0.488388685141E+00
  0.480278694884E+00  0.000000000000E+00  0.504574980043E+00  0.000000000000E+00  0.379686289705E+00  0.508867374356E+00  0.000000000000E+00
  0.496287882620E+00  0.497059487635E+00  0.480301156745E+00  0.467774821406E+00  0.000000000000E+00  0.416476365793E+00  0.467864883543E+00
  0.470100045090E+00  0.000000000000E+00
  0.119463473710E-02 -0.194017967015E-02  0.621641122425E-03  0.125729663763E-02 -0.440886345424E-02 -0.337346974861E-02  0.192742397069E-04
  0.471077046058E-03  0.535814943528E-03 -0.142716413935E-01 -0.621602631468E-02 -0.950307018577E-03 -0.119769084431E-02 -0.605618061336E-03
  0.171720064246E-02 -0.524546456411E-02 -0.149139406109E-01 -0.222909722050E-01 -0.450721417535E-02 -0.280369524269E-01 -0.141545696786E-02
 -0.380102318199E-02 -0.173074017951E-02  0.393017841376E-02  0.000000000000E+00 -0.923708760405E-02 -0.734166442148E-03 -0.824333676937E-02
 -0.266807618925E-01 -0.266149535848E-01 -0.130407255333E-01 -0.775167388401E-03 -0.102549174871E-02 -0.320702533794E-02 -0.448384062317E-02
  0.209932849784E-02  0.000000000000E+00 -0.227129068192E-01  0.000000000000E+00  0.612909693423E-02 -0.230861742418E-01  0.000000000000E+00
 -0.766618307606E-03 -0.357434095154E-02  0.367484664280E-02 -0.449496611760E-01  0.000000000000E+00 -0.148212331261E+00 -0.362450828962E-01
  0.102967148564E-01  0.000000000000E+00
  0.394571636519E-02  0.253227417544E-01  0.511080484019E-02  0.137684729415E-01  0.498430934112E-01  0.353328575624E-01  0.525685224462E-02
  0.121033520202E-01  0.218037238777E-01  0.134520631703E-01  0.483665471210E-01  0.491410731774E-01  0.516907449218E-02  0.114984666817E-01
  0.208514131684E-01 -0.689741781802E-01  0.123523439221E-01  0.417696996672E-01  0.484780783910E-01  0.585235112733E-01  0.403995279350E-02
  0.971271091490E-02  0.623235204680E-02  0.204841419291E-01  0.000000000000E+00 -0.481716410981E-01  0.209895226171E-01  0.648262554666E-01
  0.800045967306E-02  0.836282723566E-01  0.355933651735E-02  0.185654892641E-02  0.321137774107E-02  0.110888155417E-01  0.659958865658E-02
  0.152893417104E-01  0.000000000000E+00  0.751706427072E-01  0.000000000000E+00 -0.698731495133E-02  0.124509213580E+00  0.000000000000E+00
 -0.129445615871E-02  0.891747010981E-02  0.542466659088E-03  0.315315881844E-01  0.000000000000E+00  0.180750679052E+00  0.757087451112E-01
 -0.138433719032E-01  0.000000000000E+00
  0.717827996476E+00  0.717644460549E+00  0.719567402555E+00  0.719704036888E+00  0.726302659036E+00  0.720814425703E+00  0.720586388604E+00
  0.720333641290E+00  0.722321277921E+00  0.733197482477E+00  0.723330200299E+00  0.717925052428E+00  0.720010506049E+00  0.720776092469E+00
  0.720819234217E+00  0.694718803783E+00  0.708704033716E+00  0.719755181080E+00  0.717697603555E+00  0.724253406540E+00  0.718338126889E+00
  0.720832304236E+00  0.720354816062E+00  0.724465098276E+00  0.579416046391E+00  0.707243695334E+00  0.696801595444E+00  0.722071238929E+00
  0.721363056247E+00  0.721578952023E+00  0.714866432589E+00  0.715731257327E+00  0.718523936070E+00  0.721103007454E+00  0.720928323405E+00
  0.729971432530E+00  0.699746307008E+00  0.726863060498E+00  0.703705752214E+00  0.689507374793E+00  0.777007453542E+00  0.712535386840E+00
  0.719448548159E+00  0.716734914392E+00  0.729430553044E+00  0.727572384993E+00  0.647849309419E+00  0.806984792486E+00  0.727248300082E+00
  0.751278435411E+00  0.109732420871E+01
  0.494482932523E+00  0.498785765944E+00  0.490500631784E+00  0.487077834803E+00  0.516205172316E+00  0.503230051233E+00  0.490412625861E+00
  0.486055373522E+00  0.490825514748E+00  0.515547723978E+00  0.550836112798E+00  0.532004958542E+00  0.491609217394E+00  0.486551134915E+00
  0.490348284280E+00  0.476999694164E+00  0.541661906393E+00  0.567497639777E+00  0.517298408271E+00  0.563190792577E+00  0.493369923063E+00
  0.486062443940E+00  0.490693935431E+00  0.486353913058E+00  0.000000000000E+00  0.401449623508E+00  0.461504178036E+00  0.526090738017E+00
  0.417812540155E+00  0.576742234729E+00  0.314854356873E+00  0.498016213260E+00  0.494575483196E+00  0.483431534558E+00  0.487518097105E+00
  0.479617040957E+00  0.000000000000E+00  0.506979601400E+00  0.000000000000E+00  0.383935259435E+00  0.528373553327E+00  0.000000000000E+00
  0.495858214596E+00  0.496279991630E+00  0.480286859202E+00  0.463802015006E+00  0.000000000000E+00  0.494023198134E+00  0.466666918327E+00
  0.469500860908E+00  0.000000000000E+00
  0.100105137872E+01  0.100266236269E+01  0.100206817266E+01  0.100212066942E+01  0.100449173034E+01  0.100535114509E+01  0.100223551030E+01
  0.100263117101E+01  0.100406870042E+01  0.997611364430E+00  0.998047644699E+00  0.100235679577E+01  0.100208345000E+01  0.100264705046E+01
  0.100370827545E+01  0.978608763737E+00  0.982838124312E+00  0.987838079247E+00  0.100620990081E+01  0.986799501707E+00  0.100149725324E+01
  0.100372184588E+01  0.100239459340E+01  0.100273899938E+01  0.999982162867E+00  0.979316029924E+00  0.980950678102E+00  0.100748449579E+01
  0.982480931661E+00  0.979182532260E+00  0.989175262086E+00  0.100073797867E+01  0.100142730870E+01  0.100361058160E+01  0.100384254302E+01
  0.100379637621E+01  0.999982204950E+00  0.101452795539E+01  0.999981812035E+00  0.978574750182E+00  0.984966285788E+00  0.999982066763E+00
  0.100174298375E+01  0.100351856700E+01  0.100011935737E+01  0.103121944782E+01  0.999981409203E+00  0.934570496766E+00  0.103749256691E+01
  0.100390441932E+01  0.999980945096E+00
        28        24        19        19
        19        24        15        15
        19        15        12        12
        22        13        14        14
        13        22        23        23
        31        27        37        37
        31        29        20        20
        35        34        36        36
        34        23        22        22
         8         9        15        15
         9         6        12        12
        20        18        27        27
        27        18        17        17
        38        45        36        36
        38        30        41        41
        28        19        20        20
        30        40        41        41
        40        39        47        47
        11        10        17        17
        10        11         5         5
         8        14         7         7
        14        24        22        22
        45        46        50        50
        46        41        49        49
        41        46        38        38
        29        39        40        40
        36        24        28        28
        36        45        35        35
        20        29        30        30
        11        18        12        12
        15        24        14        14
        12        20        19        19
        12        18        20        20
        31        20        27        27
         9        12        15        15
         9         4         6         6
        24        36        34        34
        35        23        34        34
        38        36        28        28
        41        47        48        48
        29        40        30        30
        49        50        46        46
        46        45        38        38
        25        26        16        16
        26        37        27        27
        32        33        43        43
        33        21        23        23
        51        48        47        47
         1         4         3         3
         4         2         6         6
         6         5        11        11
        35        43        33        33
        43        35        44        44
         8         3         4         4
         3         8         7         7
        31        37        42        42
        17        16        26        26
        16        17        10        10
        34        22        24        24
        47        41        40        40
        15        14         8         8
        20        30        28        28
        11        17        18        18
        39        31        42        42
         4         9         8         8
        33        23        35        35
        28        30        38        38
        17        26        27        27
        41        48        49        49
        35        45        44        44
        39        29        31        31
        45        50        44        44
        21        13        23        23
        13         7        14        14
         2         5         6         6
         6        11        12        12
        25        37        26        26
        51        49        48        48
        32        21        33        33
         1         2         4         4
zone t="boundary 3 bc-3", solutiontime= 0.7000000E+02, strandid=1003, i=51, j=80, f=feblock
  0.500000000000E+01  0.500000000000E+01  0.400000000000E+01  0.425172245441E+01  0.500000000000E+01  0.427741389634E+01  0.300000000000E+01
  0.341887665662E+01  0.368116975164E+01  0.500000000000E+01  0.430894944607E+01  0.352044655687E+01  0.200000000000E+01  0.259168638257E+01
  0.301798341022E+01  0.500000000000E+01  0.435643616790E+01  0.375117520592E+01  0.271663237208E+01  0.288980181581E+01  0.100000000000E+01
  0.191939879870E+01  0.130679496696E+01  0.219385942988E+01  0.500000000000E+01  0.441735041915E+01  0.373031592783E+01  0.208456665067E+01
  0.230848460393E+01  0.190054259015E+01  0.298584217914E+01  0.000000000000E+00  0.613733212775E+00  0.151350918120E+01  0.794128609067E+00
  0.144135983281E+01  0.400000000000E+01  0.132476136006E+01  0.200000000000E+01  0.164582171489E+01  0.102008138039E+01  0.300000000000E+01
  0.000000000000E+00  0.000000000000E+00  0.701034609231E+00  0.609175469936E+00  0.100000000000E+01  0.505577837730E+00  0.000000000000E+00
  0.000000000000E+00  0.000000000000E+00
  0.000000000000E+00  0.000000000000E+00  0.000000000000E+00  0.000000000000E+00  0.000000000000E+00  0.000000000000E+00  0.000000000000E+00
  0.000000000000E+00  0.000000000000E+00  0.000000000000E+00  0.000000000000E+00  0.000000000000E+00  0.000000000000E+00  0.000000000000E+00
  0.000000000000E+00  0.000000000000E+00  0.000000000000E+00  0.000000000000E+00  0.000000000000E+00  0.000000000000E+00  0.000000000000E+00
  0.000000000000E+00  0.000000000000E+00  0.000000000000E+00  0.000000000000E+00  0.000000000000E+00  0.000000000000E+00  0.000000000000E+00
  0.000000000000E+00  0.000000000000E+00  0.000000000000E+00  0.000000000000E+00  0.000000000000E+00  0.000000000000E+00  0.000000000000E+00
  0.000000000000E+00  0.000000000000E+00  0.000000000000E+00  0.000000000000E+00  0.000000000000E+00  0.000000000000E+00  0.000000000000E+00
  0.000000000000E+00  0.000000000000E+00  0.000000000000E+00  0.000000000000E+00  0.000000000000E+00  0.000000000000E+00  0.000000000000E+00
  0.000000000000E+00  0.000000000000E+00
  0.250000000000E+01  0.150000000000E+01  0.250000000000E+01  0.168388151981E+01  0.500000000000E+00  0.784980628699E+00  0.250000000000E+01
  0.172616846193E+01  0.104016062853E+01 -0.500000000000E+00 -0.103062804534E+00  0.179404976675E+00  0.250000000000E+01  0.166729536217E+01
  0.923171218453E+00 -0.150000000000E+01 -0.102255113015E+01 -0.669125930414E+00  0.135977239814E+00 -0.856266143819E+00  0.250000000000E+01
  0.158034275708E+01  0.175813852804E+01  0.774089735567E+00 -0.250000000000E+01 -0.179804978092E+01 -0.146769777443E+01 -0.223755606368E+00
 -0.164420331359E+01 -0.108875578595E+01 -0.190240885061E+01  0.250000000000E+01  0.185787993997E+01  0.110883669208E+01  0.100177177909E+01
  0.349093656766E+00 -0.250000000000E+01 -0.526785284186E+00 -0.250000000000E+01 -0.183798308008E+01 -0.145695630084E+01 -0.250000000000E+01
  0.150000000000E+01  0.500000000000E+00  0.396172271494E-01 -0.788824871575E+00 -0.250000000000E+01 -0.198405114581E+01 -0.150000000000E+01
 -0.500000000000E+00 -0.250000000000E+01
  0.100390373511E+01  0.100203397883E+01  0.100531592092E+01  0.100545394691E+01  0.101227791647E+01  0.100376928709E+01  0.100657145181E+01
  0.100582126239E+01  0.100715258740E+01  0.102893810685E+01  0.101464614567E+01  0.100273319533E+01  0.100591945167E+01  0.100642319933E+01
  0.100541918426E+01  0.993869882676E+00  0.100951578759E+01  0.102006763258E+01  0.998576674189E+00  0.102752361802E+01  0.100417018965E+01
  0.100542391607E+01  0.100608807165E+01  0.101148196902E+01  0.811204813557E+00  0.101105846200E+01  0.994470939355E+00  0.100339137707E+01
  0.102792264981E+01  0.103169401170E+01  0.101177116321E+01  0.100128484072E+01  0.100450002953E+01  0.100591301138E+01  0.100543657660E+01
  0.101809609600E+01  0.979673515334E+00  0.100303708759E+01  0.985220218520E+00  0.986451209022E+00  0.110442274127E+01  0.997577597305E+00
  0.100547571721E+01  0.999910863916E+00  0.102108247708E+01  0.987762814196E+00  0.907017910215E+00  0.120889005223E+01  0.981352046032E+00
  0.104770320976E+01  0.153630841727E+01
  0.494724327914E+00  0.498802679160E+00  0.490978156919E+00  0.487395517226E+00  0.514937542420E+00  0.503322140009E+00  0.490930932781E+00
  0.486541726635E+00  0.491335801907E+00  0.514555273286E+00  0.548132361170E+00  0.530356483868E+00  0.492091283913E+00  0.487056883207E+00
  0.490806487378E+00  0.466767219952E+00  0.536639845339E+00  0.562044327386E+00  0.516609602594E+00  0.555683411102E+00  0.493720149710E+00
  0.486853350792E+00  0.491237609876E+00  0.486568363751E+00  0.000000000000E+00  0.394229714521E+00  0.456598161059E+00  0.523994022892E+00
  0.413193529397E+00  0.563919003617E+00  0.312847424873E+00  0.498195722662E+00  0.494916513186E+00  0.484164716886E+00  0.488388372810E+00
  0.480274555713E+00  0.000000000000E+00  0.504571868499E+00  0.000000000000E+00  0.379683409319E+00  0.508866044443E+00  0.000000000000E+00
  0.496287636224E+00  0.497059639318E+00  0.480297260517E+00  0.467770563949E+00  0.000000000000E+00  0.416475098438E+00  0.467862613249E+00
  0.470096772942E+00  0.000000000000E+00
 -0.119495345526E-02  0.194049576416E-02 -0.622228748096E-03 -0.125766454024E-02  0.440856339435E-02  0.337355355824E-02 -0.197260978488E-04
 -0.471456016555E-03 -0.536059238943E-03  0.142734344748E-01  0.621659210716E-02  0.949443091055E-03  0.119747970736E-02  0.605231535005E-03
 -0.171747093698E-02  0.525051219910E-02  0.149185309350E-01  0.222940366510E-01  0.450679434416E-02  0.280399632261E-01  0.141539362480E-02
  0.380085944175E-02  0.173060776280E-02 -0.393074177568E-02  0.000000000000E+00  0.924251023400E-02  0.738843217111E-03  0.824277236812E-02
  0.266856548250E-01  0.266175438598E-01  0.130464560429E-01  0.775226365747E-03  0.102547225547E-02  0.320679088911E-02  0.448376478879E-02
 -0.209980477967E-02  0.000000000000E+00  0.227133761832E-01  0.000000000000E+00 -0.612517141056E-02  0.230852834970E-01  0.000000000000E+00
  0.766638177792E-03  0.357445226903E-02 -0.367550670844E-02  0.449520023848E-01  0.000000000000E+00  0.148219881961E+00  0.362462033654E-01
 -0.102979508890E-01  0.000000000000E+00
  0.394619564577E-02  0.253264752087E-01  0.511129806045E-02  0.137705266686E-01  0.498524528623E-01  0.353392054160E-01  0.525744684318E-02