# vtk DataFile Version 2.0
FUN3D:global_image_vtk
ASCII
DATASET UNSTRUCTURED_GRID
POINTS 357 double
    0.5000000000000000E+01    0.0000000000000000E+00    0.2500000000000000E+01
    0.5000000000000000E+01    0.0000000000000000E+00    0.1500000000000000E+01
    0.5000000000000000E+01    0.0000000000000000E+00    0.5000000000000000E+00
    0.5000000000000000E+01    0.0000000000000000E+00   -0.5000000000000000E+00
    0.5000000000000000E+01    0.0000000000000000E+00   -0.1500000000000000E+01
    0.5000000000000000E+01    0.0000000000000000E+00   -0.2500000000000000E+01
    0.4000000000000000E+01    0.0000000000000000E+00   -0.2500000000000000E+01
    0.3000000000000000E+01    0.0000000000000000E+00   -0.2500000000000000E+01
    0.2000000000000000E+01    0.0000000000000000E+00   -0.2500000000000000E+01
    0.9999999999999998E+00    0.0000000000000000E+00   -0.2500000000000000E+01
    0.0000000000000000E+00    0.0000000000000000E+00   -0.2500000000000000E+01
    0.0000000000000000E+00    0.0000000000000000E+00   -0.1500000000000000E+01
    0.0000000000000000E+00    0.0000000000000000E+00   -0.5000000000000000E+00
    0.0000000000000000E+00    0.0000000000000000E+00    0.5000000000000000E+00
    0.0000000000000000E+00    0.0000000000000000E+00    0.1500000000000000E+01
    0.0000000000000000E+00    0.0000000000000000E+00    0.2500000000000000E+01
    0.1000000000000000E+01    0.0000000000000000E+00    0.2500000000000000E+01
    0.2000000000000000E+01    0.0000000000000000E+00    0.2500000000000000E+01
    0.3000000000000000E+01    0.0000000000000000E+00    0.2500000000000000E+01
    0.4000000000000000E+01    0.0000000000000000E+00    0.2500000000000000E+01
    0.4251722454414101E+01    0.0000000000000000E+00    0.1683881519811194E+01
    0.6137332127746504E+00    0.0000000000000000E+00    0.1857879939968904E+01
    0.5055778377301318E+00    0.0000000000000000E+00   -0.1984051145810370E+01
    0.4417350419147004E+01    0.0000000000000000E+00   -0.1798049780917599E+01
    0.4277413896341787E+01    0.0000000000000000E+00    0.7849806286986014E+00
    0.4308949446070184E+01    0.0000000000000000E+00   -0.1030628045339280E+00
    0.3520446556869569E+01    0.0000000000000000E+00    0.1794049766750259E+00
    0.2591686382569276E+01    0.0000000000000000E+00    0.1667295362171870E+01
    0.1306794966956192E+01    0.0000000000000000E+00    0.1758138528035871E+01
    0.7010346092308208E+00    0.0000000000000000E+00    0.3961722714940701E-01
    0.2308484603929350E+01    0.0000000000000000E+00   -0.1644203313594280E+01
    0.2985842179142563E+01    0.0000000000000000E+00   -0.1902408850608312E+01
    0.7941286090671454E+00    0.0000000000000000E+00    0.1001771779085911E+01
    0.1020081380390785E+01    0.0000000000000000E+00   -0.1456956300840256E+01
    0.4356436167904402E+01    0.0000000000000000E+00   -0.1022551130153989E+01
    0.3730315927830617E+01    0.0000000000000000E+00   -0.1467697774434008E+01
    0.2084566650673803E+01    0.0000000000000000E+00   -0.2237556063676878E+00
    0.1900542590153839E+01    0.0000000000000000E+00   -0.1088755785946356E+01
    0.1324761360056765E+01    0.0000000000000000E+00   -0.5267852841860601E+00
    0.3681169751640886E+01    0.0000000000000000E+00    0.1040160628527462E+01
    0.3418876656618056E+01    0.0000000000000000E+00    0.1726168461930342E+01
    0.3751175205920376E+01    0.0000000000000000E+00   -0.6691259304140329E+00
    0.2889801815813465E+01    0.0000000000000000E+00   -0.8562661438192326E+00
    0.3017983410224082E+01    0.0000000000000000E+00    0.9231712184526961E+00
    0.1645821714894795E+01    0.0000000000000000E+00   -0.1837983080076178E+01
    0.1513509181197389E+01    0.0000000000000000E+00    0.1108836692078749E+01
    0.1919398798697967E+01    0.0000000000000000E+00    0.1580342757081665E+01
    0.2193859429875553E+01    0.0000000000000000E+00    0.7740897355665203E+00
    0.6091754699356742E+00    0.0000000000000000E+00   -0.7888248715753817E+00
    0.1441359832811715E+01    0.0000000000000000E+00    0.3490936567660688E+00
    0.2716632372076206E+01    0.0000000000000000E+00    0.1359772398136161E+00
    0.5000000000000000E+01   -0.8333333333333334E+00    0.2500000000000000E+01
    0.5000000000000000E+01   -0.8333333333333334E+00    0.1500000000000000E+01
    0.5000000000000000E+01   -0.8333333333333334E+00    0.5000000000000000E+00
    0.5000000000000000E+01   -0.8333333333333334E+00   -0.5000000000000000E+00
    0.5000000000000000E+01   -0.8333333333333334E+00   -0.1500000000000000E+01
    0.5000000000000000E+01   -0.8333333333333334E+00   -0.2500000000000000E+01
    0.4000000000000000E+01   -0.8333333333333334E+00   -0.2500000000000000E+01
    0.3000000000000000E+01   -0.8333333333333334E+00   -0.2500000000000000E+01
    0.2000000000000000E+01   -0.8333333333333334E+00   -0.2500000000000000E+01
    0.9999999999999998E+00   -0.8333333333333334E+00   -0.2500000000000000E+01
    0.0000000000000000E+00   -0.8333333333333334E+00   -0.2500000000000000E+01
    0.0000000000000000E+00   -0.8333333333333334E+00   -0.1500000000000000E+01
    0.0000000000000000E+00   -0.8333333333333334E+00   -0.5000000000000000E+00
    0.0000000000000000E+00   -0.8333333333333334E+00    0.5000000000000000E+00
    0.0000000000000000E+00   -0.8333333333333334E+00    0.1500000000000000E+01
    0.0000000000000000E+00   -0.8333333333333334E+00    0.2500000000000000E+01
    0.1000000000000000E+01   -0.8333333333333334E+00    0.2500000000000000E+01
    0.2000000000000000E+01   -0.8333333333333334E+00    0.2500000000000000E+01
    0.3000000000000000E+01   -0.8333333333333334E+00    0.2500000000000000E+01
    0.4000000000000000E+01   -0.8333333333333334E+00    0.2500000000000000E+01
    0.4251722454414101E+01   -0.8333333333333334E+00    0.1683881519811194E+01
    0.6137332127746504E+00   -0.8333333333333334E+00    0.1857879939968904E+01
    0.5055778377301318E+00   -0.8333333333333334E+00   -0.1984051145810370E+01
    0.4417350419147004E+01   -0.8333333333333334E+00   -0.1798049780917599E+01
    0.4277413896341787E+01   -0.8333333333333334E+00    0.7849806286986014E+00
    0.4308949446070184E+01   -0.8333333333333334E+00   -0.1030628045339280E+00
    0.3520446556869569E+01   -0.8333333333333334E+00    0.1794049766750259E+00
    0.2591686382569276E+01   -0.8333333333333334E+00    0.1667295362171870E+01
    0.1306794966956192E+01   -0.8333333333333334E+00    0.1758138528035871E+01
    0.7010346092308208E+00   -0.8333333333333334E+00    0.3961722714940701E-01
    0.2308484603929350E+01   -0.8333333333333334E+00   -0.1644203313594280E+01
    0.2985842179142563E+01   -0.8333333333333334E+00   -0.1902408850608312E+01
    0.7941286090671454E+00   -0.8333333333333334E+00    0.1001771779085911E+01
    0.1020081380390785E+01   -0.8333333333333334E+00   -0.1456956300840256E+01
    0.4356436167904402E+01   -0.8333333333333334E+00   -0.1022551130153989E+01
    0.3730315927830617E+01   -0.8333333333333334E+00   -0.1467697774434008E+01
    0.2084566650673803E+01   -0.8333333333333334E+00   -0.2237556063676878E+00
    0.1900542590153839E+01   -0.8333333333333334E+00   -0.1088755785946356E+01
    0.1324761360056765E+01   -0.8333333333333334E+00   -0.5267852841860601E+00
    0.3681169751640886E+01   -0.8333333333333334E+00    0.1040160628527462E+01
    0.3418876656618056E+01   -0.8333333333333334E+00    0.1726168461930342E+01
    0.3751175205920376E+01   -0.8333333333333334E+00   -0.6691259304140329E+00
    0.2889801815813465E+01   -0.8333333333333334E+00   -0.8562661438192326E+00
    0.3017983410224082E+01   -0.8333333333333334E+00    0.9231712184526961E+00
    0.1645821714894795E+01   -0.8333333333333334E+00   -0.1837983080076178E+01
    0.1513509181197389E+01   -0.8333333333333334E+00    0.1108836692078749E+01
    0.1919398798697967E+01   -0.8333333333333334E+00    0.1580342757081665E+01
    0.2193859429875553E+01   -0.8333333333333334E+00    0.7740897355665203E+00
    0.6091754699356742E+00   -0.8333333333333334E+00   -0.7888248715753817E+00
    0.1441359832811715E+01   -0.8333333333333334E+00    0.3490936567660688E+00
    0.2716632372076206E+01   -0.8333333333333334E+00    0.1359772398136161E+00
    0.5000000000000000E+01   -0.1666666666666667E+01    0.2500000000000000E+01
    0.5000000000000000E+01   -0.1666666666666667E+01    0.1500000000000000E+01
    0.5000000000000000E+01   -0.1666666666666667E+01    0.5000000000000000E+00
    0.5000000000000000E+01   -0.1666666666666667E+01   -0.5000000000000000E+00
    0.5000000000000000E+01   -0.1666666666666667E+01   -0.1500000000000000E+01
    0.5000000000000000E+01   -0.1666666666666667E+01   -0.2500000000000000E+01
    0.4000000000000000E+01   -0.1666666666666667E+01   -0.2500000000000000E+01
    0.3000000000000000E+01   -0.1666666666666667E+01   -0.2500000000000000E+01
    0.2000000000000000E+01   -0.1666666666666667E+01   -0.2500000000000000E+01
    0.9999999999999998E+00   -0.1666666666666667E+01   -0.2500000000000000E+01
    0.0000000000000000E+00   -0.1666666666666667E+01   -0.2500000000000000E+01
    0.0000000000000000E+00   -0.1666666666666667E+01   -0.1500000000000000E+01
    0.0000000000000000E+00   -0.1666666666666667E+01   -0.5000000000000000E+00
    0.0000000000000000E+00   -0.1666666666666667E+01    0.5000000000000000E+00
    0.0000000000000000E+00   -0.1666666666666667E+01    0.1500000000000000E+01
    0.0000000000000000E+00   -0.1666666666666667E+01    0.2500000000000000E+01
    0.1000000000000000E+01   -0.1666666666666667E+01    0.2500000000000000E+01
    0.2000000000000000E+01   -0.1666666666666667E+01    0.2500000000000000E+01
    0.3000000000000000E+01   -0.1666666666666667E+01    0.2500000000000000E+01
    0.4000000000000000E+01   -0.1666666666666667E+01    0.2500000000000000E+01
    0.4251722454414101E+01   -0.1666666666666667E+01    0.1683881519811194E+01
    0.6137332127746504E+00   -0.1666666666666667E+01    0.1857879939968904E+01
    0.5055778377301318E+00   -0.1666666666666667E+01   -0.1984051145810370E+01
[...]
POINT_DATA 357
SCALARS rho double 1
LOOKUP_TABLE default
   0.1003902509290600E+01
   0.1002033477404669E+01
   0.1012278531453689E+01
   0.1028936913689245E+01
   0.9938703182883002E+00
   0.8112030423022470E+00
   0.9796728075323274E+00
   0.9975779592512245E+00
   0.9852212350642167E+00
   0.9070183568137958E+00
   0.1536308978733258E+01
   0.9813520573824607E+00
   0.1047703182786489E+01
   0.9999109107943962E+00
   0.1005475899812636E+01
   0.1001285035082684E+01
   0.1004169905200837E+01
   0.1005919475063271E+01
   0.1006570636011982E+01
   0.1005315486012242E+01
   0.1005453626212923E+01
   0.1004500003597717E+01
   0.1208890563210179E+01
   0.1011060818695170E+01
   0.1003769765164886E+01
   0.1014646155298140E+01
   0.1002732564924590E+01
   0.1006423725365926E+01
   0.1006088176297921E+01
   0.1021082699342308E+01
   0.1027922377601530E+01
   0.1011772431736775E+01
   0.1005436510265381E+01
   0.1104423143078345E+01
   0.1009514930845328E+01
   0.9944716459567297E+00
   0.1003391917315819E+01
   0.1031694508488276E+01
   0.1003036928331180E+01
   0.1007153437311887E+01
   0.1005821761533353E+01
   0.1020068073430304E+01
   0.1027524018627903E+01
   0.1005419079277157E+01
   0.9864519731985116E+00
   0.1005913259396674E+01
   0.1005423664898711E+01
   0.1011481694612669E+01
   0.9877630443757059E+00
   0.1018096357741524E+01
   0.9985768794754534E+00
   0.1000971916173629E+01
   0.1000645642366724E+01
   0.1006158157945094E+01
   0.1015202263887431E+01
   0.9781354510097571E+00
   0.8132755978658398E+00
   0.9743642931540786E+00
   0.9805087509676859E+00
   0.9749048600849636E+00
   0.9246452550917994E+00
   0.1500315863447742E+01
   0.9986995067209428E+00
   0.1030397217693766E+01
   0.1000165806530534E+01
   0.1004715490206879E+01
   0.1001476348399951E+01
   0.1002620648633289E+01
   0.1002643076638423E+01
   0.1001543252852142E+01
   0.1000242784708978E+01
   0.1000804788894196E+01
   0.1002879711923282E+01
   0.1062058952015278E+01
   0.9902551890685454E+00
   0.9994623670283973E+00
   0.1002668739204480E+01
   0.9953168739715071E+00
   0.1001004125610437E+01
   0.1002881542001361E+01
   0.1010264203049680E+01
   0.1005205900808527E+01
   0.9928096890260945E+00
   0.1002456229005457E+01
   0.1057676802440322E+01
   0.9885921126054998E+00
   0.9745972541284762E+00
   0.9942096677158061E+00
   0.9938057565802222E+00
   0.9927317092373371E+00
   0.1001079855456723E+01
   0.1000222526928765E+01
   0.9968583912825787E+00
   0.1000142835829308E+01
   0.9987440046286096E+00
   0.9723634059987675E+00
   0.1000733778332851E+01
   0.1000786556997720E+01
   0.1002589181653160E+01
   0.9882201803194245E+00
   0.1009033655171318E+01
   0.9918883110408732E+00
   0.1002741662899938E+01
   0.1002119674997164E+01
   0.1009462530632591E+01
   0.1021948435060340E+01
   0.9846782036982032E+00
   0.8133206227095576E+00
   0.9770820418492554E+00
   0.9850656123624369E+00
   0.9744808308313594E+00
   0.9246707287645511E+00
   0.1511810779179005E+01
   0.1006141259358228E+01
   0.1040874790670298E+01
   0.1003644328939058E+01
   0.1006858741353905E+01
   0.1002461677526445E+01
   0.1004363416599965E+01
   0.1005086229986612E+01
   0.1004545776813877E+01
   0.1003037900849326E+01
   0.1003470767448169E+01
   0.1004782669307686E+01
   0.1108883006752292E+01
   0.9993073023414061E+00
   0.1003026579860839E+01
   0.1006558988750722E+01
   0.9981394021657842E+00
   0.1004082973285110E+01
   0.1005399958904439E+01
   0.1015721872696518E+01
   0.1015886282964434E+01
   0.9995373380340719E+00
   0.1005664165857876E+01
   0.1068840338052984E+01
   0.9956147342693317E+00
   0.9787383957195032E+00
   0.9982418821565242E+00
   0.1003753536074534E+01
   0.9975070017644641E+00
   0.1005069254959089E+01
   0.1003496256644651E+01
   0.1003886342916505E+01
   0.1008554625289422E+01
   0.1002767008310759E+01
   0.9762134427185646E+00
   0.1003855439311595E+01
   0.1003708785720006E+01
   0.1006784217469527E+01
   0.9970912343576690E+00
   0.1013993524716268E+01
   0.9955071296970659E+00
   0.1001770676972784E+01
   0.1001580006166024E+01
   0.1008488277328195E+01
   0.1020258409567393E+01
   0.9816828135745420E+00
   0.8116096214689625E+00
   0.9754569117057975E+00
   0.9829245127075145E+00
   0.9716252652033319E+00
   0.9235981814013003E+00
   0.1508877352372197E+01
   0.1007021193374139E+01
   0.1036631164903700E+01
   0.1002537877361692E+01
   0.1005842039083042E+01
   0.1002023197478336E+01
   0.1003143025764205E+01
   0.1003088122601655E+01
   0.1002059513233317E+01
   0.1000919906481942E+01
   0.1001760698603139E+01
   0.1003539520148155E+01
   0.1095301919957687E+01
   0.9956615965088562E+00
   0.1001496946876407E+01
   0.1004914934424370E+01
   0.9961638188442191E+00
   0.1001567048339846E+01
   0.1003411297791361E+01
   0.1012133840426087E+01
   0.1012942956302685E+01
   0.9960495854108994E+00
   0.1003712578640033E+01
   0.1060752876246791E+01
   0.9932367126618081E+00
   0.9756309313982828E+00
   0.9954302689973512E+00
   0.9990481355821118E+00
   0.9943129759216085E+00
   0.1002819745452383E+01
   0.1001076255836534E+01
   0.1001267699197142E+01
   0.1005296440966209E+01
   0.1000129085237440E+01
   0.9729792799948375E+00
   0.1001452627250105E+01
   0.1001394264154900E+01
   0.1003644047552869E+01
   0.9946144054012623E+00
   0.1010625967559262E+01
   0.9931693700944647E+00
   0.1002741567430387E+01
   0.1002119652340736E+01
   0.1009462541075461E+01
   0.1021948165223431E+01
   0.9846773142998971E+00
   0.8133182987433546E+00
   0.9770806884650777E+00
   0.9850643064764617E+00
   0.9744793948516522E+00
   0.9246702408183196E+00
   0.1511805321040038E+01
   0.1006142051466801E+01
   0.1040873941977351E+01
   0.1003644255412421E+01
   0.1006858578285296E+01
   0.1002461646670592E+01
   0.1004363307312413E+01
   0.1005086061972931E+01
   0.1004545581233320E+01
   0.1003037734469810E+01
   0.1003470603714097E+01
   0.1004782547468219E+01
   0.1108880131143145E+01
   0.9993064685499624E+00
   0.1003026438504389E+01
   0.1006558846213005E+01
   0.9981391282887269E+00
   0.1004082775807325E+01
   0.1005399778468886E+01
   0.1015721439723030E+01
   0.1015885227618738E+01
   0.9995361774994882E+00
   0.1005664012174676E+01
   0.1068838687882735E+01
   0.9956141074787775E+00
   0.9787374765823602E+00
   0.9982416332018261E+00
   0.1003752888688580E+01
   0.9975068510618968E+00
   0.1005069007717794E+01
   0.1003496038378400E+01
   0.1003886014659488E+01
   0.1008554100165270E+01
   0.1002766720473440E+01
   0.9762125610807963E+00
   0.1003855255221502E+01
   0.1003708609161374E+01
   0.1006783873632358E+01
   0.9970912597603472E+00
   0.1013993112397300E+01
   0.9955069420884411E+00
   0.1000972177084562E+01
   0.1000645819966949E+01
   0.1006158042481830E+01
   0.1015202009046219E+01
   0.9781352669839345E+00
   0.8132719218591410E+00
   0.9743621396554374E+00
   0.9805075119402927E+00
   0.9749022861002411E+00
   0.9246433679699360E+00
   0.1500305597732646E+01
   0.9987013370628156E+00
   0.1030396620856604E+01
   0.1000166024355531E+01
   0.1004715472654185E+01
   0.1001476374884969E+01
   0.1002620652087335E+01
   0.1002643131162217E+01
   0.1001543427730164E+01
   0.1000243006301258E+01
   0.1000804987257201E+01
   0.1002879722868018E+01
   0.1062057477877266E+01
   0.9902552727576088E+00
   0.9994626323188013E+00
   0.1002668887106203E+01
   0.9953172655138910E+00
   0.1001004338412647E+01
   0.1002881580701406E+01
   0.1010264104629468E+01
   0.1005206616602175E+01
   0.9928101327357934E+00
   0.1002456378137312E+01
   0.1057675429035569E+01
   0.9885922343194389E+00
   0.9745972943327732E+00
   0.9942101765787199E+00
   0.9938067297182746E+00
   0.9927323507830118E+00
   0.1001080275854415E+01
   0.1000222819229339E+01
   0.9968591691681788E+00
   0.1000143738546273E+01
   0.9987444814772363E+00
   0.9723638520840491E+00
   0.1000733907568169E+01
   0.1000786688564523E+01
   0.1002589394749080E+01
   0.9882210199374184E+00
   0.1009033722193410E+01
   0.9918889425760817E+00
   0.1003902485382111E+01
   0.1002033964181330E+01
   0.1012277460628683E+01
   0.1028933025414918E+01
   0.9938667865223996E+00
   0.8111951476045344E+00
   0.9796615322342568E+00
   0.9975677732736415E+00
   0.9852069590439605E+00
   0.9070063163348959E+00
   0.1536283672465055E+01
   0.9813541494564960E+00
   0.1047699118664346E+01
   0.9999106744914703E+00
   0.1005475621941162E+01
   0.1001285027679604E+01
   0.1004169595907983E+01
   0.1005918949340917E+01
   0.1006569927736041E+01
   0.1005314761907826E+01
   0.1005453095350769E+01
   0.1004499752741564E+01
   0.1208875263477787E+01
   0.1011056129158558E+01
   0.1003769360294625E+01
   0.1014643229108698E+01
   0.1002731206429818E+01
   0.1006423002907737E+01
   0.1006087675610192E+01
   0.1021081119528316E+01
   0.1027916133173833E+01
   0.1011766355013131E+01
   0.1005436153510007E+01
   0.1104414261230570E+01
   0.1009509880756480E+01
   0.9944668380908217E+00
   0.1003390404594063E+01
   0.1031688142126999E+01
   0.1003036057767627E+01
   0.1007152837700622E+01
   0.1005821109464369E+01
   0.1020063614265764E+01
   0.1027518916825419E+01
   0.1005418452517289E+01
   0.9864459115351818E+00
   0.1005912528679356E+01
   0.1005422943355896E+01
   0.1011480415893428E+01
   0.9877641269357316E+00
   0.1018095193143230E+01
   0.9985757930831635E+00
SCALARS u double 1
LOOKUP_TABLE default
   0.4947214004280016E+00
   0.4988037394276325E+00
   0.5149376675828036E+00
   0.5145550208023726E+00
   0.4667645468390054E+00
   0.0000000000000000E+00
   0.0000000000000000E+00
   0.0000000000000000E+00
   0.0000000000000000E+00
   0.0000000000000000E+00
   0.0000000000000000E+00
   0.4678625659846865E+00
   0.4700967009570437E+00
   0.4970595907460935E+00
   0.4962876257913065E+00
   0.4981955625524426E+00
   0.4937205656294695E+00
   0.4920930556284974E+00
   0.4909305236684584E+00
   0.4909709228033058E+00
   0.4873960413271635E+00
   0.4949164758900323E+00
   0.4164748802348439E+00
   0.3942267895748107E+00
   0.5033231890655567E+00
   0.5481318620407164E+00
   0.5303551797243520E+00
   0.4870578204552715E+00
   0.4912373309228282E+00
   0.4802971467944143E+00
   0.4131919996221837E+00
   0.3128452348626805E+00
   0.4883882896288753E+00
   0.5088654126180124E+00
   0.5366369032739321E+00
   0.4565949238958966E+00
   0.5239940169300938E+00
   0.5639184234549834E+00
   0.5045716299015359E+00
   0.4913370356276061E+00
   0.4865432330238453E+00
   0.5620425978306838E+00
   0.5556823463228990E+00
   0.4908060183488837E+00
   0.3796823294210369E+00
   0.4841644665428257E+00
   0.4868529472151475E+00
   0.4865673180838085E+00
   0.4677703496216005E+00
   0.4802743757295843E+00
   0.5166086977063020E+00
   0.4989388899451543E+00
   0.4984708099627553E+00
   0.5114155049394342E+00
   0.5199314817365192E+00
   0.4748858877896143E+00
   0.0000000000000000E+00
   0.0000000000000000E+00
   0.0000000000000000E+00
   0.0000000000000000E+00
   0.0000000000000000E+00
   0.0000000000000000E+00
   0.4977581868725713E+00
   0.4781365308405323E+00
   0.4990295651435567E+00
   0.4965672252824848E+00
   0.4980487057852813E+00
   0.4967705846217479E+00
   0.4982932665637513E+00
   0.5009152579089138E+00
   0.5020516678575808E+00
   0.4976056000590853E+00
   0.4976282899980975E+00
   0.4621302586246483E+00
   0.4038302694260624E+00
   0.5068234697425481E+00
   0.5458569467799257E+00
   0.5349518974831405E+00
   0.4991275813458272E+00
   0.4975535653282576E+00
   0.4920122650160353E+00
   0.4288208247670425E+00
   0.3180507990602108E+00
   0.4955746475415781E+00
   0.5318791495518093E+00
   0.5515614451259621E+00
   0.4739962400165798E+00
   0.5370452263225232E+00
   0.5862890149016754E+00
   0.5306516713615947E+00
   0.5002480958189076E+00
   0.4991076588401894E+00
   0.5729059053698037E+00
   0.5729305600964574E+00
   0.5020917738805365E+00
   0.3864508256756651E+00
   0.4965815793104363E+00
   0.4977004118165081E+00
   0.5008508611320066E+00
   0.5035904818833480E+00
   0.4944184029827809E+00
   0.5264677702115692E+00
   0.4972809232624499E+00
   0.4987464997340431E+00
   0.5144616336079482E+00
   0.5225086613501040E+00
   0.4754053918540159E+00
   0.0000000000000000E+00
   0.0000000000000000E+00
   0.0000000000000000E+00
   0.0000000000000000E+00
   0.0000000000000000E+00
   0.0000000000000000E+00
   0.4806112633131108E+00
   0.4678912745468747E+00
   0.4952364630799651E+00
   0.4945654740497705E+00
   0.4970118150652290E+00
   0.4942760507396242E+00
   0.4946376170916906E+00
   0.4959067736628985E+00
   0.4968493022262431E+00
   0.4933133696424303E+00
   0.4953608039299046E+00
   0.4499878628175378E+00
   0.4023172181624373E+00
   0.5057129570102272E+00
   0.5513768085979202E+00
   0.5373365880467833E+00
   0.4941531460465007E+00
   0.4942226179155512E+00
   0.4866086564085704E+00
   0.4283739892399350E+00
   0.3211776243702610E+00
   0.4917603363950073E+00
   0.5371196603588532E+00
   0.5548530547233849E+00
   0.4770313582761417E+00
   0.5376456154383054E+00
   0.5895416525457818E+00
   0.5291612151248383E+00
   0.4965713939535594E+00
   0.4937505743232183E+00
   0.5785964036124500E+00
   0.5770734597817464E+00
   0.4980680088002084E+00
   0.3909054600799614E+00
   0.4922374632870075E+00
   0.4933590678921115E+00
   0.4964747246521881E+00
   0.4916066626964709E+00
   0.4901307892005928E+00
   0.5261654213657420E+00
   0.4981896078005998E+00
   0.4985251882184775E+00
   0.5136205795529083E+00
   0.5218266161168090E+00
   0.4752583998853960E+00
   0.0000000000000000E+00
   0.0000000000000000E+00
   0.0000000000000000E+00
   0.0000000000000000E+00
   0.0000000000000000E+00
   0.0000000000000000E+00
   0.4845101708753999E+00
   0.4705939261663314E+00
   0.4968956195631323E+00
   0.4954272905225833E+00
   0.4974441072351003E+00
   0.4963582969059534E+00
   0.4983494229036568E+00
   0.5007303614627489E+00
   0.5012385705056746E+00
   0.4960891266129437E+00
   0.4971286626325699E+00
   0.4571683409393800E+00
   0.4021255653497400E+00
   0.5068132973793982E+00
   0.5512467726739133E+00
   0.5387362443093511E+00
   0.4987510838047125E+00
   0.4974270005029821E+00
   0.4902825928837709E+00
   0.4282911728293006E+00
   0.3203328475029093E+00
   0.4949606591215976E+00
   0.5427979033192443E+00
   0.5542086670086624E+00
   0.4766487200388081E+00
   0.5407945933281038E+00
   0.5920627228004497E+00
   0.5341523713420934E+00
   0.4993182041096917E+00
   0.4980472725501593E+00
   0.5788319606258017E+00
   0.5782692464392825E+00
   0.5015975501260173E+00
   0.3912216764392848E+00
   0.4965500658776528E+00
   0.4976877172680434E+00
   0.5007192108365655E+00
   0.4977567089241729E+00
   0.4942514921962678E+00
   0.5286860598910419E+00
   0.4972809127665264E+00
   0.4987465186768028E+00
   0.5144616652396250E+00
   0.5225086854691088E+00
   0.4754056937002929E+00
   0.0000000000000000E+00
   0.0000000000000000E+00
   0.0000000000000000E+00
   0.0000000000000000E+00
   0.0000000000000000E+00
   0.0000000000000000E+00
   0.4806117216705896E+00
   0.4678916609847263E+00
   0.4952366196779540E+00
   0.4945655735371307E+00
   0.4970118543428887E+00
   0.4942762118271821E+00
   0.4946378398855102E+00
   0.4959070582343443E+00
   0.4968494867838982E+00
   0.4933137056450060E+00
   0.4953609434656893E+00
   0.4499875026024550E+00
   0.4023171037591838E+00
   0.5057132542547643E+00
   0.5513772674832818E+00
   0.5373371683144574E+00
   0.4941535616063943E+00
   0.4942228696688955E+00
   0.4866088965815219E+00
   0.4283732827832764E+00
   0.3211767039558880E+00
   0.4917606112534386E+00
   0.5371200121542763E+00
   0.5548528975855614E+00
   0.4770307143498660E+00
   0.5376462750511010E+00
   0.5895416719814263E+00
   0.5291618253430470E+00
   0.4965717828244156E+00
   0.4937510568971411E+00
   0.5785966416426060E+00
   0.5770736607200945E+00
   0.4980683797651920E+00
   0.3909048749404255E+00
   0.4922378791217039E+00
   0.4933594996967396E+00
   0.4964751169710394E+00
   0.4916075446282572E+00
   0.4901311829612953E+00
   0.5261660816210244E+00
   0.4989389050157854E+00
   0.4984708555852733E+00
   0.5114147113181406E+00
   0.5199305061204724E+00
   0.4748871242428525E+00
   0.0000000000000000E+00
   0.0000000000000000E+00
   0.0000000000000000E+00
   0.0000000000000000E+00
   0.0000000000000000E+00
   0.0000000000000000E+00
   0.4977554803719849E+00
   0.4781370476655933E+00
   0.4990291954998798E+00
   0.4965672508624927E+00
   0.4980487355707189E+00
   0.4967705846990448E+00
   0.4982932697490076E+00
   0.5009149549462432E+00
   0.5020514247662492E+00
   0.4976053994727514E+00
   0.4976282483263954E+00
   0.4621284252486819E+00
   0.4038324083186829E+00
   0.5068228561879560E+00
   0.5458543567351993E+00
   0.5349497081636553E+00
   0.4991271068181825E+00
   0.4975534532279097E+00
   0.4920128604982595E+00
   0.4288204570455033E+00
   0.3180520219828533E+00
   0.4955742273565353E+00
   0.5318777176933419E+00
   0.5515603842876105E+00
   0.4739966748190813E+00
   0.5370431625399319E+00
   0.5862853702417135E+00
   0.5306501614096604E+00
   0.5002477882508549E+00
   0.4991071331502567E+00
   0.5729025417034527E+00
   0.5729270762576905E+00
   0.5020916822782417E+00
   0.3864504323406913E+00
   0.4965811034508812E+00
   0.4976999478418642E+00
   0.5008508573471091E+00
   0.5035895052996050E+00
   0.4944186689652615E+00
   0.5264656843297834E+00
   0.4947227054867981E+00
   0.4988042236573092E+00
   0.5149378966163569E+00
   0.5145577631257074E+00
   0.4667699146931548E+00
   0.0000000000000000E+00
   0.0000000000000000E+00
   0.0000000000000000E+00
   0.0000000000000000E+00
   0.0000000000000000E+00
   0.0000000000000000E+00
   0.4678648394152586E+00
   0.4700999774854913E+00
   0.4970594394717268E+00
   0.4962878726575771E+00
   0.4981957198425546E+00
   0.4937209940227264E+00
   0.4920942392752997E+00
   0.4909319277172002E+00
   0.4909733643229761E+00
   0.4873984990400309E+00
   0.4949167956403878E+00
   0.4164761526209247E+00
   0.3942337016470913E+00
   0.5033258153957256E+00
   0.5481327683096685E+00
   0.5303576039675134E+00
   0.4870595277165669E+00
   0.4912382311964139E+00
   0.4803010462768568E+00
   0.4131972185335678E+00
   0.3128515405961843E+00
   0.4883886037111274E+00
   0.5088667517722294E+00
   0.5366416124786719E+00
   0.4566013894579989E+00
   0.5239967179774766E+00
   0.5639187609157961E+00
   0.5045747474403488E+00
   0.4913404125361229E+00
   0.4865451630208655E+00
   0.5620438157324061E+00
   0.5556839379379066E+00
   0.4908104275855313E+00
   0.3796852192890705E+00
   0.4841656504661799E+00
   0.4868540192659900E+00
   0.4865716305640955E+00
   0.4677746146743262E+00
   0.4802785189039281E+00
   0.5166120653969833E+00
SCALARS v double 1
LOOKUP_TABLE default
  -0.1193577087996361E-02
   0.1941459478645534E-02
   0.4407679937154017E-02
   0.1427346958069252E-01
   0.5252693644884596E-02
   0.0000000000000000E+00
   0.0000000000000000E+00
   0.0000000000000000E+00
   0.0000000000000000E+00
   0.0000000000000000E+00
   0.0000000000000000E+00
   0.3624623855332021E-01
  -0.1029783230022982E-01
   0.3574416304498142E-02
   0.7664859839994917E-03
   0.7749223931108856E-03
   0.1415723522448199E-02
   0.1197358413439437E-02
  -0.1826430704005719E-04
  -0.6215391758745909E-03
  -0.1257708762727400E-02
   0.1025491799539414E-02
   0.1482201480772231E+00
   0.9246235058181982E-02
   0.3372807447395245E-02
   0.6216658368466760E-02
   0.9502757859246393E-03
   0.6045055162816643E-03
   0.1730514998673633E-02
  -0.3675606671710868E-02
   0.2668431671540636E-01
   0.1304753665687027E-01
   0.4483873157090509E-02
   0.2308504103084804E-01
   0.1491787836372175E-01
   0.7395831684027125E-03
   0.8242183330159462E-02
   0.2661748167439718E-01
   0.2271359510651342E-01
  -0.5373265386571047E-03
  -0.4722587499453955E-03
   0.2229392740818183E-01
   0.2803944166046572E-01
  -0.1717268221589965E-02
  -0.6125155296266996E-02
   0.3206507198763692E-02
   0.3801232951955293E-02
  -0.3930336240951574E-02
   0.4495182028972958E-01