# vtk DataFile Version 2.0
FUN3D:global_image_vtk
ASCII
DATASET UNSTRUCTURED_GRID
POINTS 357 double
    0.5000000000000000E+01    0.0000000000000000E+00    0.2500000000000000E+01
    0.5000000000000000E+01    0.0000000000000000E+00    0.1500000000000000E+01
    0.5000000000000000E+01    0.0000000000000000E+00    0.5000000000000000E+00
    0.5000000000000000E+01    0.0000000000000000E+00   -0.5000000000000000E+00
    0.5000000000000000E+01    0.0000000000000000E+00   -0.1500000000000000E+01
    0.5000000000000000E+01    0.0000000000000000E+00   -0.2500000000000000E+01
    0.4000000000000000E+01    0.0000000000000000E+00   -0.2500000000000000E+01
    0.3000000000000000E+01    0.0000000000000000E+00   -0.2500000000000000E+01
    0.2000000000000000E+01    0.0000000000000000E+00   -0.2500000000000000E+01
    0.9999999999999998E+00    0.0000000000000000E+00   -0.2500000000000000E+01
    0.0000000000000000E+00    0.0000000000000000E+00   -0.2500000000000000E+01
    0.0000000000000000E+00    0.0000000000000000E+00   -0.1500000000000000E+01
    0.0000000000000000E+00    0.0000000000000000E+00   -0.5000000000000000E+00
    0.0000000000000000E+00    0.0000000000000000E+00    0.5000000000000000E+00
    0.0000000000000000E+00    0.0000000000000000E+00    0.1500000000000000E+01
    0.0000000000000000E+00    0.0000000000000000E+00    0.2500000000000000E+01
    0.1000000000000000E+01    0.0000000000000000E+00    0.2500000000000000E+01
    0.2000000000000000E+01    0.0000000000000000E+00    0.2500000000000000E+01
    0.3000000000000000E+01    0.0000000000000000E+00    0.2500000000000000E+01
    0.4000000000000000E+01    0.0000000000000000E+00    0.2500000000000000E+01
    0.4251722454414101E+01    0.0000000000000000E+00    0.1683881519811194E+01
    0.6137332127746504E+00    0.0000000000000000E+00    0.1857879939968904E+01
    0.5055778377301318E+00    0.0000000000000000E+00   -0.1984051145810370E+01
    0.4417350419147004E+01    0.0000000000000000E+00   -0.1798049780917599E+01
    0.4277413896341787E+01    0.0000000000000000E+00    0.7849806286986014E+00
    0.4308949446070184E+01    0.0000000000000000E+00   -0.1030628045339280E+00
    0.3520446556869569E+01    0.0000000000000000E+00    0.1794049766750259E+00
    0.2591686382569276E+01    0.0000000000000000E+00    0.1667295362171870E+01
    0.1306794966956192E+01    0.0000000000000000E+00    0.1758138528035871E+01
    0.7010346092308208E+00    0.0000000000000000E+00    0.3961722714940701E-01
    0.2308484603929350E+01    0.0000000000000000E+00   -0.1644203313594280E+01
    0.2985842179142563E+01    0.0000000000000000E+00   -0.1902408850608312E+01
    0.7941286090671454E+00    0.0000000000000000E+00    0.1001771779085911E+01
    0.1020081380390785E+01    0.0000000000000000E+00   -0.1456956300840256E+01
    0.4356436167904402E+01    0.0000000000000000E+00   -0.1022551130153989E+01
    0.3730315927830617E+01    0.0000000000000000E+00   -0.1467697774434008E+01
    0.2084566650673803E+01    0.0000000000000000E+00   -0.2237556063676878E+00
    0.1900542590153839E+01    0.0000000000000000E+00   -0.1088755785946356E+01
    0.1324761360056765E+01    0.0000000000000000E+00   -0.5267852841860601E+00
    0.3681169751640886E+01    0.0000000000000000E+00    0.1040160628527462E+01
    0.3418876656618056E+01    0.0000000000000000E+00    0.1726168461930342E+01
    0.3751175205920376E+01    0.0000000000000000E+00   -0.6691259304140329E+00
    0.2889801815813465E+01    0.0000000000000000E+00   -0.8562661438192326E+00
    0.3017983410224082E+01    0.0000000000000000E+00    0.9231712184526961E+00
    0.1645821714894795E+01    0.0000000000000000E+00   -0.1837983080076178E+01
    0.1513509181197389E+01    0.0000000000000000E+00    0.1108836692078749E+01
    0.1919398798697967E+01    0.0000000000000000E+00    0.1580342757081665E+01
    0.2193859429875553E+01    0.0000000000000000E+00    0.7740897355665203E+00
    0.6091754699356742E+00    0.0000000000000000E+00   -0.7888248715753817E+00
    0.1441359832811715E+01    0.0000000000000000E+00    0.3490936567660688E+00
    0.2716632372076206E+01    0.0000000000000000E+00    0.1359772398136161E+00
    0.5000000000000000E+01   -0.8333333333333334E+00    0.2500000000000000E+01
    0.5000000000000000E+01   -0.8333333333333334E+00    0.1500000000000000E+01
    0.5000000000000000E+01   -0.8333333333333334E+00    0.5000000000000000E+00
    0.5000000000000000E+01   -0.8333333333333334E+00   -0.5000000000000000E+00
    0.5000000000000000E+01   -0.8333333333333334E+00   -0.1500000000000000E+01
    0.5000000000000000E+01   -0.8333333333333334E+00   -0.2500000000000000E+01
    0.4000000000000000E+01   -0.8333333333333334E+00   -0.2500000000000000E+01
    0.3000000000000000E+01   -0.8333333333333334E+00   -0.2500000000000000E+01
    0.2000000000000000E+01   -0.8333333333333334E+00   -0.2500000000000000E+01
    0.9999999999999998E+00   -0.8333333333333334E+00   -0.2500000000000000E+01
    0.0000000000000000E+00   -0.8333333333333334E+00   -0.2500000000000000E+01
    0.0000000000000000E+00   -0.8333333333333334E+00   -0.1500000000000000E+01
    0.0000000000000000E+00   -0.8333333333333334E+00   -0.5000000000000000E+00
    0.0000000000000000E+00   -0.8333333333333334E+00    0.5000000000000000E+00
    0.0000000000000000E+00   -0.8333333333333334E+00    0.1500000000000000E+01
    0.0000000000000000E+00   -0.8333333333333334E+00    0.2500000000000000E+01
    0.1000000000000000E+01   -0.8333333333333334E+00    0.2500000000000000E+01
    0.2000000000000000E+01   -0.8333333333333334E+00    0.2500000000000000E+01
    0.3000000000000000E+01   -0.8333333333333334E+00    0.2500000000000000E+01
    0.4000000000000000E+01   -0.8333333333333334E+00    0.2500000000000000E+01
    0.4251722454414101E+01   -0.8333333333333334E+00    0.1683881519811194E+01
    0.6137332127746504E+00   -0.8333333333333334E+00    0.1857879939968904E+01
    0.5055778377301318E+00   -0.8333333333333334E+00   -0.1984051145810370E+01
    0.4417350419147004E+01   -0.8333333333333334E+00   -0.1798049780917599E+01
    0.4277413896341787E+01   -0.8333333333333334E+00    0.7849806286986014E+00
    0.4308949446070184E+01   -0.8333333333333334E+00   -0.1030628045339280E+00
    0.3520446556869569E+01   -0.8333333333333334E+00    0.1794049766750259E+00
    0.2591686382569276E+01   -0.8333333333333334E+00    0.1667295362171870E+01
    0.1306794966956192E+01   -0.8333333333333334E+00    0.1758138528035871E+01
    0.7010346092308208E+00   -0.8333333333333334E+00    0.3961722714940701E-01
    0.2308484603929350E+01   -0.8333333333333334E+00   -0.1644203313594280E+01
    0.2985842179142563E+01   -0.8333333333333334E+00   -0.1902408850608312E+01
    0.7941286090671454E+00   -0.8333333333333334E+00    0.1001771779085911E+01
    0.1020081380390785E+01   -0.8333333333333334E+00   -0.1456956300840256E+01
    0.4356436167904402E+01   -0.8333333333333334E+00   -0.1022551130153989E+01
    0.3730315927830617E+01   -0.8333333333333334E+00   -0.1467697774434008E+01
    0.2084566650673803E+01   -0.8333333333333334E+00   -0.2237556063676878E+00
    0.1900542590153839E+01   -0.8333333333333334E+00   -0.1088755785946356E+01
    0.1324761360056765E+01   -0.8333333333333334E+00   -0.5267852841860601E+00
    0.3681169751640886E+01   -0.8333333333333334E+00    0.1040160628527462E+01
    0.3418876656618056E+01   -0.8333333333333334E+00    0.1726168461930342E+01
    0.3751175205920376E+01   -0.8333333333333334E+00   -0.6691259304140329E+00
    0.2889801815813465E+01   -0.8333333333333334E+00   -0.8562661438192326E+00
    0.3017983410224082E+01   -0.8333333333333334E+00    0.9231712184526961E+00
    0.1645821714894795E+01   -0.8333333333333334E+00   -0.1837983080076178E+01
    0.1513509181197389E+01   -0.8333333333333334E+00    0.1108836692078749E+01
    0.1919398798697967E+01   -0.8333333333333334E+00    0.1580342757081665E+01
    0.2193859429875553E+01   -0.8333333333333334E+00    0.7740897355665203E+00
    0.6091754699356742E+00   -0.8333333333333334E+00   -0.7888248715753817E+00
    0.1441359832811715E+01   -0.8333333333333334E+00    0.3490936567660688E+00
    0.2716632372076206E+01   -0.8333333333333334E+00    0.1359772398136161E+00
    0.5000000000000000E+01   -0.1666666666666667E+01    0.2500000000000000E+01
    0.5000000000000000E+01   -0.1666666666666667E+01    0.1500000000000000E+01
    0.5000000000000000E+01   -0.1666666666666667E+01    0.5000000000000000E+00
    0.5000000000000000E+01   -0.1666666666666667E+01   -0.5000000000000000E+00
    0.5000000000000000E+01   -0.1666666666666667E+01   -0.1500000000000000E+01
    0.5000000000000000E+01   -0.1666666666666667E+01   -0.2500000000000000E+01
    0.4000000000000000E+01   -0.1666666666666667E+01   -0.2500000000000000E+01
    0.3000000000000000E+01   -0.1666666666666667E+01   -0.2500000000000000E+01
    0.2000000000000000E+01   -0.1666666666666667E+01   -0.2500000000000000E+01
    0.9999999999999998E+00   -0.1666666666666667E+01   -0.2500000000000000E+01
    0.0000000000000000E+00   -0.1666666666666667E+01   -0.2500000000000000E+01
    0.0000000000000000E+00   -0.1666666666666667E+01   -0.1500000000000000E+01
    0.0000000000000000E+00   -0.1666666666666667E+01   -0.5000000000000000E+00
    0.0000000000000000E+00   -0.1666666666666667E+01    0.5000000000000000E+00
    0.0000000000000000E+00   -0.1666666666666667E+01    0.1500000000000000E+01
    0.0000000000000000E+00   -0.1666666666666667E+01    0.2500000000000000E+01
    0.1000000000000000E+01   -0.1666666666666667E+01    0.2500000000000000E+01
    0.2000000000000000E+01   -0.1666666666666667E+01    0.2500000000000000E+01
    0.3000000000000000E+01   -0.1666666666666667E+01    0.2500000000000000E+01
    0.4000000000000000E+01   -0.1666666666666667E+01    0.2500000000000000E+01
    0.4251722454414101E+01   -0.1666666666666667E+01    0.1683881519811194E+01
    0.6137332127746504E+00   -0.1666666666666667E+01    0.1857879939968904E+01
    0.5055778377301318E+00   -0.1666666666666667E+01   -0.1984051145810370E+01
[...]
POINT_DATA 357
SCALARS rho double 1
LOOKUP_TABLE default
   0.1003865898902255E+01
   0.1002038855987716E+01
   0.1012264076238546E+01
   0.1028933763976214E+01
   0.9938478517994473E+00
   0.8112170559644202E+00
   0.9796696057969039E+00
   0.9975660378647003E+00
   0.9851962055229687E+00
   0.9069886385341999E+00
   0.1536257692866843E+01
   0.9814805653128853E+00
   0.1048363063168957E+01
   0.1000012918007101E+01
   0.1005484488194532E+01
   0.1001266317856873E+01
   0.1004157992186639E+01
   0.1005912998913561E+01
   0.1006552464618888E+01
   0.1005244813192119E+01
   0.1005453687688121E+01
   0.1004495559556312E+01
   0.1208914508589051E+01
   0.1011021567438259E+01
   0.1003766260609031E+01
   0.1014632143834673E+01
   0.1002732138587876E+01
   0.1006427916951232E+01
   0.1006095828508061E+01
   0.1021350299268810E+01
   0.1027934625770196E+01
   0.1011748318294653E+01
   0.1005505611022354E+01
   0.1104538139979194E+01
   0.1009518732277892E+01
   0.9944664541073244E+00
   0.1003481653718808E+01
   0.1031770692131932E+01
   0.1003233882213145E+01
   0.1007155345872462E+01
   0.1005822366426832E+01
   0.1020069790054434E+01
   0.1027554387813199E+01
   0.1005426437638368E+01
   0.9864643764310123E+00
   0.1005972795449083E+01
   0.1005433647712660E+01
   0.1011529658402106E+01
   0.9881272400378588E+00
   0.1018229361608500E+01
   0.9986084375144114E+00
   0.1000955006531673E+01
   0.1000600347805710E+01
   0.1006127996006116E+01
   0.1015168694804742E+01
   0.9781288606408992E+00
   0.8132430662684584E+00
   0.9743346219888771E+00
   0.9804673044150689E+00
   0.9748115255129091E+00
   0.9244574598566250E+00
   0.1500121377751110E+01
   0.9983932857505322E+00
   0.1028573923604488E+01
   0.9998838026066917E+00
   0.1004631219123813E+01
   0.1001419826196595E+01
   0.1002559917830384E+01
   0.1002599921662259E+01
   0.1001509747859425E+01
   0.1000240241081247E+01
   0.1000778724364204E+01
   0.1002820892614912E+01
   0.1061819281712831E+01
   0.9902677252464953E+00
   0.9994383229227060E+00
   0.1002657214219513E+01
   0.9953061466201826E+00
   0.1000984883606103E+01
   0.1002835801895731E+01
   0.1009763746480232E+01
   0.1005139236936727E+01
   0.9927840065616678E+00
   0.1002317953257980E+01
   0.1057466903984625E+01
   0.9885673306902113E+00
   0.9745818141126283E+00
   0.9941492762164328E+00
   0.9937288362197949E+00
   0.9925226623304807E+00
   0.1001058666998499E+01
   0.1000203236166099E+01
   0.9968424195286072E+00
   0.1000111843851224E+01
   0.9987286344492361E+00
   0.9722465328216086E+00
   0.1000677412859732E+01
   0.1000762986579717E+01
   0.1002553293310619E+01
   0.9875739454129979E+00
   0.1008889939556468E+01
   0.9918682961799955E+00
   0.1002688326370234E+01
   0.1002085414501314E+01
   0.1009426234390139E+01
   0.1021923367245070E+01
   0.9846412193653870E+00
   0.8132915001741986E+00
   0.9770299305948806E+00
   0.9849890721016776E+00
   0.9743245073538476E+00
   0.9244053433207516E+00
   0.1511563335833227E+01
   0.1005802727464626E+01
   0.1039844908083847E+01
   0.1003345860099901E+01
   0.1006755877702232E+01
   0.1002386550332732E+01
   0.1004285027895272E+01
   0.1005018671032340E+01
   0.1004482901587280E+01
   0.1002964142607672E+01
   0.1003440061011614E+01
   0.1004697060900892E+01
   0.1108566447726189E+01
   0.9992597583709288E+00
   0.1002996920596908E+01
   0.1006526445999221E+01
   0.9980964074205969E+00
   0.1004038184603723E+01
   0.1005322797066265E+01
   0.1015179305032924E+01
   0.1015767520381809E+01
   0.9994560750570827E+00
   0.1005474488222971E+01
   0.1068527692356430E+01
   0.9955916466279680E+00
   0.9786944403726028E+00
   0.9981166352008030E+00
   0.1003597555411593E+01
   0.9971974115299530E+00
   0.1005039033368125E+01
   0.1003461004426676E+01
   0.1003846684837406E+01
   0.1008490693283038E+01
   0.1002719778159783E+01
   0.9760128350620222E+00
   0.1003755175500526E+01
   0.1003647971676054E+01
   0.1006702650132997E+01
   0.9964256016349479E+00
   0.1013777838131326E+01
   0.9954389336402618E+00
   0.1001730080587401E+01
   0.1001530615561225E+01
   0.1008440842020494E+01
   0.1020204500544087E+01
   0.9816595630009268E+00
   0.8115762987902254E+00
   0.9754040696226808E+00
   0.9828502369638376E+00
   0.9714671026601599E+00
   0.9233267012390338E+00
   0.1508624573374220E+01
   0.1006694823912512E+01
   0.1035859009643880E+01
   0.1002253336734470E+01
   0.1005731572935553E+01
   0.1001946453746574E+01
   0.1003059066725123E+01
   0.1003024764322367E+01
   0.1002010903293653E+01
   0.1000893917620799E+01
   0.1001728421107441E+01
   0.1003453637030199E+01
   0.1094980968296920E+01
   0.9956450416068832E+00
   0.1001462391054594E+01
   0.1004881496568674E+01
   0.9961282001140206E+00
   0.1001525043288446E+01
   0.1003337586334462E+01
   0.1011619063910071E+01
   0.1012817743382461E+01
   0.9959788618484231E+00
   0.1003520177133215E+01
   0.1060433056376840E+01
   0.9932036458409943E+00
   0.9755928068336842E+00
   0.9953016785733998E+00
   0.9988884772366010E+00
   0.9939960079284557E+00
   0.1002781518418929E+01
   0.1001043180457945E+01
   0.1001229767552644E+01
   0.1005229929406674E+01
   0.1000088191420486E+01
   0.9727784171427388E+00
   0.1001350577089279E+01
   0.1001342821804514E+01
   0.1003568739854157E+01
   0.9939953853770042E+00
   0.1010408818036655E+01
   0.9931126780113115E+00
   0.1002688233366924E+01
   0.1002085389245996E+01
   0.1009426243395222E+01
   0.1021923097774861E+01
   0.9846403333215968E+00
   0.8132891868945611E+00
   0.9770285829682922E+00
   0.9849877715154084E+00
   0.9743230781375900E+00
   0.9244048611347145E+00
   0.1511557901924075E+01
   0.1005803521959171E+01
   0.1039844105510447E+01
   0.1003345794865128E+01
   0.1006755715793080E+01
   0.1002386520182821E+01
   0.1004284919131037E+01
   0.1005018503133497E+01
   0.1004482706437235E+01
   0.1002963980566239E+01
   0.1003439896655585E+01
   0.1004696939939500E+01
   0.1108563586915553E+01
   0.9992589281300793E+00
   0.1002996778017255E+01
   0.1006526303682966E+01
   0.9980961342981816E+00
   0.1004037987383646E+01
   0.1005322617390145E+01
   0.1015178886111088E+01
   0.1015766469542700E+01
   0.9994549191277355E+00
   0.1005474336981382E+01
   0.1068526052534811E+01
   0.9955910216923634E+00
   0.9786935243331032E+00
   0.9981163866145679E+00
   0.1003596911093178E+01
   0.9971972651069256E+00
   0.1005038785609063E+01
   0.1003460785696081E+01
   0.1003846357097314E+01
   0.1008490169283500E+01
   0.1002719491089445E+01
   0.9760119591058090E+00
   0.1003754991291131E+01
   0.1003647795607521E+01
   0.1006702307079053E+01
   0.9964256436190931E+00
   0.1013777428776783E+01
   0.9954387461743680E+00
   0.1000955261474183E+01
   0.1000600526728183E+01
   0.1006127879267655E+01
   0.1015168437723469E+01
   0.9781286760653943E+00
   0.8132394067811739E+00
   0.9743324788224421E+00
   0.9804660693667703E+00
   0.9748089610631080E+00
   0.9244555818906590E+00
   0.1500111155073806E+01
   0.9983951169381418E+00
   0.1028573438514690E+01
   0.9998840308924369E+00
   0.1004631202600595E+01
   0.1001419851923990E+01
   0.1002559921136671E+01
   0.1002599973612755E+01
   0.1001509919588137E+01
   0.1000240453969894E+01
   0.1000778921015000E+01
   0.1002820902421002E+01
   0.1061817814289556E+01
   0.9902678065109465E+00
   0.9994385858206488E+00
   0.1002657357568371E+01
   0.9953065326779245E+00
   0.1000985091677196E+01
   0.1002835837620177E+01
   0.1009763664062689E+01
   0.1005139948820748E+01
   0.9927844470157566E+00
   0.1002318101905179E+01
   0.1057465534931818E+01
   0.9885674499812878E+00
   0.9745818528936980E+00
   0.9941497778993648E+00
   0.9937298013370196E+00
   0.9925233007176297E+00
   0.1001059083569740E+01
   0.1000203524583623E+01
   0.9968431911756275E+00
   0.1000112739650817E+01
   0.9987291056394438E+00
   0.9722469749660207E+00
   0.1000677537578458E+01
   0.1000763113208706E+01
   0.1002553500984973E+01
   0.9875748042853435E+00
   0.1008890004175369E+01
   0.9918689199434740E+00
   0.1003865872512326E+01
   0.1002039336648979E+01
   0.1012263005325500E+01
   0.1028929883582206E+01
   0.9938443262775974E+00
   0.8112091859306044E+00
   0.9796583709898652E+00
   0.9975558864317868E+00
   0.9851819796751164E+00
   0.9069766396328475E+00
   0.1536232488865766E+01
   0.9814826397740029E+00
   0.1048358952238196E+01
   0.1000012655316545E+01
   0.1005484203640974E+01
   0.1001266305769182E+01
   0.1004157680258040E+01
   0.1005912469597671E+01
   0.1006551759443535E+01
   0.1005244092087664E+01
   0.1005453155258780E+01
   0.1004495304282952E+01
   0.1208899259459427E+01
   0.1011016889866671E+01
   0.1003765852295849E+01
   0.1014629224175247E+01
   0.1002730779473099E+01
   0.1006427191717127E+01
   0.1006095322529869E+01
   0.1021348691785127E+01
   0.1027928392177908E+01
   0.1011742258499648E+01
   0.1005505241892627E+01
   0.1104529270294149E+01
   0.1009513693276222E+01
   0.9944616562037150E+00
   0.1003480127682297E+01
   0.1031764329325639E+01
   0.1003232984919913E+01
   0.1007154742480942E+01
   0.1005821712554845E+01
   0.1020065340042943E+01
   0.1027549293828004E+01
   0.1005425807412418E+01
   0.9864583241286283E+00
   0.1005972054793374E+01
   0.1005432922612250E+01
   0.1011528373098634E+01
   0.9881282839736617E+00
   0.1018228180060468E+01
   0.9986073433383844E+00
SCALARS u double 1
LOOKUP_TABLE default
   0.4947157327017602E+00
   0.4987785242728833E+00
   0.5149119450732564E+00
   0.5145372242933236E+00
   0.4667963577663162E+00
   0.0000000000000000E+00
   0.0000000000000000E+00
   0.0000000000000000E+00
   0.0000000000000000E+00
   0.0000000000000000E+00
   0.0000000000000000E+00
   0.4678650721325160E+00
   0.4699325350133600E+00
   0.4970528085930997E+00
   0.4962972875988160E+00
   0.4982162111672792E+00
   0.4937241460286758E+00
   0.4921143064084187E+00
   0.4909859021378009E+00
   0.4910009467828265E+00
   0.4874066812670935E+00
   0.4949278739800979E+00
   0.4165061271198611E+00
   0.3942587254997248E+00
   0.5033124042788867E+00
   0.5481018958876087E+00
   0.5303286865875134E+00
   0.4870469266506971E+00
   0.4912296128848997E+00
   0.4803225583209171E+00
   0.4132177189720392E+00
   0.3128755957879972E+00
   0.4883972944205703E+00
   0.5088874055837139E+00
   0.5366574386199721E+00
   0.4566268071014320E+00
   0.5239847187820590E+00
   0.5639217109284946E+00
   0.5045824342771505E+00
   0.4913316719861667E+00
   0.4865635891491561E+00
   0.5620352167575290E+00
   0.5556801038899496E+00
   0.4907827402537363E+00
   0.3797077823488847E+00
   0.4841549467372734E+00
   0.4868341171583170E+00
   0.4865478493372942E+00
   0.4678114475930295E+00
   0.4802766661522368E+00
   0.5165881670206701E+00
   0.4988749657964405E+00
   0.4984246845197187E+00
   0.5113760169005600E+00
   0.5199051845238317E+00
   0.4748323440413743E+00
   0.0000000000000000E+00
   0.0000000000000000E+00
   0.0000000000000000E+00
   0.0000000000000000E+00
   0.0000000000000000E+00
   0.0000000000000000E+00
   0.4978957089728050E+00
   0.4787451297712976E+00
   0.4991659314065928E+00
   0.4966259982005367E+00
   0.4980955167275945E+00
   0.4967809353742906E+00
   0.4982379757664632E+00
   0.5008336291774026E+00
   0.5019860745152794E+00
   0.4975238943311385E+00
   0.4976621630790145E+00
   0.4622004961538397E+00
   0.4037797840886942E+00
   0.5067515525240351E+00
   0.5458113094461906E+00
   0.5348812114088679E+00
   0.4990420921431022E+00
   0.4975400742668730E+00
   0.4920399115286542E+00
   0.4287558272815308E+00
   0.3179942119151735E+00
   0.4955889172844041E+00
   0.5318742285211617E+00
   0.5514995128463240E+00
   0.4739266987573616E+00
   0.5369445468174676E+00
   0.5862108625532741E+00
   0.5305600136325648E+00
   0.5001545715727378E+00
   0.4990062446870831E+00
   0.5728464373443840E+00
   0.5728591769369170E+00
   0.5020058021736785E+00
   0.3864091106067656E+00
   0.4965356898382817E+00
   0.4976457409222262E+00
   0.5007718389963663E+00
   0.5036474520944180E+00
   0.4943368471949001E+00
   0.5263872993575798E+00
   0.4972321943762934E+00
   0.4986941646455550E+00
   0.5144104946603100E+00
   0.5224632148357025E+00
   0.4754005233862992E+00
   0.0000000000000000E+00
   0.0000000000000000E+00
   0.0000000000000000E+00
   0.0000000000000000E+00
   0.0000000000000000E+00
   0.0000000000000000E+00
   0.4807942887247891E+00
   0.4683326451700792E+00
   0.4954153502091136E+00
   0.4946489287424689E+00
   0.4970750453471450E+00
   0.4942997352816258E+00
   0.4946195051824436E+00
   0.4958717784143799E+00
   0.4968097727235512E+00
   0.4932651876720697E+00
   0.4954071453710867E+00
   0.4500981639291334E+00
   0.4023109407751797E+00
   0.5056575126198579E+00
   0.5513238074985266E+00
   0.5372670055896874E+00
   0.4941068954953726E+00
   0.4942179283949589E+00
   0.4867138898449528E+00
   0.4283291369943020E+00
   0.3211510958648396E+00
   0.4918089006274141E+00
   0.5371701354888077E+00
   0.5548257482671258E+00
   0.4770014813444940E+00
   0.5375407105257332E+00
   0.5894835193756669E+00
   0.5291187026865293E+00
   0.4965205220633161E+00
   0.4937049994338205E+00
   0.5785412861865803E+00
   0.5769999813966348E+00
   0.4980015973215487E+00
   0.3908903112700299E+00
   0.4921976101581104E+00
   0.4933179300232750E+00
   0.4963916845651970E+00
   0.4917443646222348E+00
   0.4900707911432720E+00
   0.5260672959679067E+00
   0.4981282553560901E+00
   0.4984593144312717E+00
   0.5135609264459471E+00
   0.5217865425475227E+00
   0.4752124103933369E+00
   0.0000000000000000E+00
   0.0000000000000000E+00
   0.0000000000000000E+00
   0.0000000000000000E+00
   0.0000000000000000E+00
   0.0000000000000000E+00
   0.4847038938395242E+00
   0.4709729350844291E+00
   0.4970802733964753E+00
   0.4955189539913245E+00
   0.4975171858977520E+00
   0.4963847498681733E+00
   0.4982830176184625E+00
   0.5006284486926758E+00
   0.5011642339144220E+00
   0.4959937914855380E+00
   0.4971870104982067E+00
   0.4572915996963174E+00
   0.4020915194505005E+00
   0.5067245018556845E+00
   0.5511684041365476E+00
   0.5386316179694600E+00
   0.4986460941057524E+00
   0.4974218302794925E+00
   0.4904098825424009E+00
   0.4282256159742772E+00
   0.3202841694633287E+00
   0.4950184861932796E+00
   0.5428603735460069E+00
   0.5541432802708509E+00
   0.4765852835978346E+00
   0.5406866958116280E+00
   0.5919979279327277E+00
   0.5341231896547693E+00
   0.4992027567136503E+00
   0.4979280903066197E+00
   0.5787406553245718E+00
   0.5781725465043134E+00
   0.5014796039692985E+00
   0.3911986359933732E+00
   0.4965096650075052E+00
   0.4976229069788705E+00
   0.5006199138079079E+00
   0.4979232665087681E+00
   0.4942014143912837E+00
   0.5285693937322844E+00
   0.4972321848217356E+00
   0.4986941830325374E+00
   0.5144105266614687E+00
   0.5224632398312223E+00
   0.4754008231452350E+00
   0.0000000000000000E+00
   0.0000000000000000E+00
   0.0000000000000000E+00
   0.0000000000000000E+00
   0.0000000000000000E+00
   0.0000000000000000E+00
   0.4807947495822747E+00
   0.4683330174160998E+00
   0.4954155006587961E+00
   0.4946490275694158E+00
   0.4970750852091746E+00
   0.4942998962046380E+00
   0.4946197239424591E+00
   0.4958720569035246E+00
   0.4968099597183138E+00
   0.4932655181429624E+00
   0.4954072861423944E+00
   0.4500978056213169E+00
   0.4023108258898399E+00
   0.5056578059472401E+00
   0.5513242675609127E+00
   0.5372675865262617E+00
   0.4941073084917865E+00
   0.4942181817595485E+00
   0.4867141291025618E+00
   0.4283284327346535E+00
   0.3211501771785812E+00
   0.4918091754914261E+00
   0.5371704893746391E+00
   0.5548255910593036E+00
   0.4770008381939395E+00
   0.5375413725608987E+00
   0.5894835425515553E+00
   0.5291193173108443E+00
   0.4965209061646227E+00
   0.4937054744630190E+00
   0.5785415257065221E+00
   0.5770001834242519E+00
   0.4980019679530732E+00
   0.3908897285524233E+00
   0.4921980276532381E+00
   0.4933183627798176E+00
   0.4963920791991198E+00
   0.4917452497853922E+00
   0.4900711871427357E+00
   0.5260679580514998E+00
   0.4988749855503132E+00
   0.4984247312801763E+00
   0.5113752226840316E+00
   0.5199042097090963E+00
   0.4748335799510234E+00
   0.0000000000000000E+00
   0.0000000000000000E+00
   0.0000000000000000E+00
   0.0000000000000000E+00
   0.0000000000000000E+00
   0.0000000000000000E+00
   0.4978930140901543E+00
   0.4787456173087718E+00
   0.4991655526874137E+00
   0.4966260246434306E+00
   0.4980955476164893E+00
   0.4967809387190750E+00
   0.4982379883896040E+00
   0.5008333377238305E+00
   0.5019858372601294E+00
   0.4975237024739204E+00
   0.4976621224931556E+00
   0.4621986735542497E+00
   0.4037819233504478E+00
   0.5067509450196098E+00
   0.5458087197662083E+00
   0.5348790254314927E+00
   0.4990416264710257E+00
   0.4975399646560775E+00
   0.4920405099250554E+00
   0.4287554739743181E+00
   0.3179954436890189E+00
   0.4955885008995440E+00
   0.5318728062803368E+00
   0.5514984587360364E+00
   0.4739271413494447E+00
   0.5369424912681120E+00
   0.5862072329456530E+00
   0.5305585157325869E+00
   0.5001542741894901E+00
   0.4990057317582529E+00
   0.5728430793895848E+00
   0.5728557034859827E+00
   0.5020057167072316E+00
   0.3864087305004770E+00
   0.4965352184790807E+00
   0.4976452814260402E+00
   0.5007718398325641E+00
   0.5036464909260590E+00
   0.4943371211961222E+00
   0.5263852172674077E+00
   0.4947170199242953E+00
   0.4987790086381230E+00
   0.5149121748620626E+00
   0.5145399475895744E+00
   0.4668016952881545E+00
   0.0000000000000000E+00
   0.0000000000000000E+00
   0.0000000000000000E+00
   0.0000000000000000E+00
   0.0000000000000000E+00
   0.0000000000000000E+00
   0.4678673175714783E+00
   0.4699358161468811E+00
   0.4970526945993643E+00
   0.4962975434578313E+00
   0.4982163712822798E+00
   0.4937245861636751E+00
   0.4921154934671324E+00
   0.4909872845041356E+00
   0.4910033517973201E+00
   0.4874091249932293E+00
   0.4949281962450433E+00
   0.4165073868406444E+00
   0.3942655995022142E+00
   0.5033150273705148E+00
   0.5481027927107990E+00
   0.5303311041095928E+00
   0.4870486260360011E+00
   0.4912305153858194E+00
   0.4803264622991263E+00
   0.4132229022307566E+00
   0.3128818624204356E+00
   0.4883976150756115E+00
   0.5088887223400614E+00
   0.5366621126806871E+00
   0.4566332307308394E+00
   0.5239874128926999E+00
   0.5639220307991398E+00
   0.5045855369820971E+00
   0.4913350402617923E+00
   0.4865655062916452E+00
   0.5620364125942996E+00
   0.5556816740336348E+00
   0.4907871379258233E+00
   0.3797106523664215E+00
   0.4841561277263271E+00
   0.4868351859745669E+00
   0.4865521512612349E+00
   0.4678156669388896E+00
   0.4802808047372908E+00
   0.5165915283451592E+00
SCALARS v double 1
LOOKUP_TABLE default
  -0.1180219123185949E-02
   0.1890718534005997E-02
   0.4385422174234270E-02
   0.1425276558925182E-01
   0.5210852012370116E-02
   0.0000000000000000E+00
   0.0000000000000000E+00
   0.0000000000000000E+00
   0.0000000000000000E+00
   0.0000000000000000E+00
   0.0000000000000000E+00
   0.3686687434478880E-01
   0.3187226337788236E-03
   0.4124448635181071E-02
   0.7688023234675677E-03
   0.7498179660539321E-03
   0.1370786092999319E-02
   0.1156271832954559E-02
  -0.5228531347691984E-04
  -0.5755725919751821E-03
  -0.1299843976169012E-02
   0.1008172892868887E-02
   0.1483204733688419E+00
   0.9193273940263409E-02
   0.3346070291372102E-02
   0.6209291342251546E-02
   0.9556773152298782E-03
   0.5841985949312855E-03
   0.1722614911389927E-02
  -0.2445954506589764E-02
   0.2669873531834837E-01
   0.1301783793562649E-01
   0.4623113283733620E-02
   0.2328434400549203E-01
   0.1491516542029938E-01
   0.7269940333832189E-03
   0.8322107137446100E-02
   0.2670381048449831E-01
   0.2310327511895037E-01
  -0.5672256570776766E-03
  -0.5105300631404726E-03
   0.2229633420857371E-01
   0.2806080148629152E-01
  -0.1721010476579492E-02
  -0.6094742070819016E-02
   0.3233915296249843E-02
   0.3795321614826835E-02
  -0.3906324167475297E-02
   0.4672632688423402E-01