title="tecplot geometry and solution file"
variables = x y z rho u v w p mach temperature
zone t="boundary 1 bc-1", solutiontime= 0.1000000E+02, strandid=1001, i=42, j=30, f=feblock
  0.000000000000E+00  0.000000000000E+00  0.000000000000E+00  0.000000000000E+00  0.000000000000E+00  0.000000000000E+00  0.000000000000E+00
  0.000000000000E+00  0.000000000000E+00  0.000000000000E+00  0.000000000000E+00  0.000000000000E+00  0.000000000000E+00  0.000000000000E+00
  0.000000000000E+00  0.000000000000E+00  0.000000000000E+00  0.000000000000E+00  0.000000000000E+00  0.000000000000E+00  0.000000000000E+00
  0.000000000000E+00  0.000000000000E+00  0.000000000000E+00  0.000000000000E+00  0.000000000000E+00  0.000000000000E+00  0.000000000000E+00
  0.000000000000E+00  0.000000000000E+00  0.000000000000E+00  0.000000000000E+00  0.000000000000E+00  0.000000000000E+00  0.000000000000E+00
  0.000000000000E+00  0.000000000000E+00  0.000000000000E+00  0.000000000000E+00  0.000000000000E+00  0.000000000000E+00  0.000000000000E+00
  0.000000000000E+00 -0.833333333333E+00  0.000000000000E+00  0.000000000000E+00  0.000000000000E+00 -0.166666666667E+01 -0.833333333333E+00
 -0.833333333333E+00 -0.833333333333E+00  0.000000000000E+00 -0.250000000000E+01 -0.166666666667E+01 -0.166666666667E+01 -0.166666666667E+01
 -0.833333333333E+00  0.000000000000E+00 -0.333333333333E+01 -0.250000000000E+01 -0.250000000000E+01 -0.250000000000E+01 -0.166666666667E+01
 -0.833333333333E+00 -0.416666666667E+01 -0.333333333333E+01 -0.333333333333E+01 -0.333333333333E+01 -0.250000000000E+01 -0.166666666667E+01
 -0.500000000000E+01 -0.416666666667E+01 -0.416666666667E+01 -0.416666666667E+01 -0.333333333333E+01 -0.250000000000E+01 -0.500000000000E+01
 -0.500000000000E+01 -0.500000000000E+01 -0.416666666667E+01 -0.333333333333E+01 -0.500000000000E+01 -0.416666666667E+01 -0.500000000000E+01
  0.500000000000E+01  0.500000000000E+01  0.400000000000E+01  0.200000000000E+01  0.300000000000E+01  0.500000000000E+01  0.400000000000E+01
  0.200000000000E+01  0.300000000000E+01  0.100000000000E+01  0.500000000000E+01  0.400000000000E+01  0.200000000000E+01  0.300000000000E+01
  0.100000000000E+01  0.000000000000E+00  0.500000000000E+01  0.400000000000E+01  0.200000000000E+01  0.300000000000E+01  0.100000000000E+01
  0.000000000000E+00  0.500000000000E+01  0.400000000000E+01  0.200000000000E+01  0.300000000000E+01  0.100000000000E+01  0.000000000000E+00
  0.500000000000E+01  0.400000000000E+01  0.200000000000E+01  0.300000000000E+01  0.100000000000E+01  0.000000000000E+00  0.400000000000E+01
  0.200000000000E+01  0.300000000000E+01  0.100000000000E+01  0.000000000000E+00  0.100000000000E+01  0.000000000000E+00  0.000000000000E+00
  0.100346080034E+01  0.100343343615E+01  0.100412217793E+01  0.103214430097E+01  0.100648242737E+01  0.100346111469E+01  0.100401894180E+01
  0.103170952850E+01  0.100624939738E+01  0.100870381318E+01  0.100344277666E+01  0.100405198072E+01  0.103182249019E+01  0.100629323263E+01
  0.100583691568E+01  0.149780242617E+01  0.100346111462E+01  0.100402166553E+01  0.103174937963E+01  0.100625021235E+01  0.100570104116E+01
  0.149949783358E+01  0.100343343664E+01  0.100405198068E+01  0.103182249126E+01  0.100629323242E+01  0.100553648608E+01  0.149993825599E+01
  0.100346080153E+01  0.100401894221E+01  0.103170954258E+01  0.100624939941E+01  0.100570103940E+01  0.149987850460E+01  0.100412217743E+01
  0.103214431479E+01  0.100648242967E+01  0.100583690305E+01  0.149993824977E+01  0.100870375131E+01  0.149949777734E+01  0.149780228153E+01
  0.496264977414E+00  0.496288156315E+00  0.496495694683E+00  0.470916726850E+00  0.493252660999E+00  0.496263377297E+00  0.496612360311E+00
  0.471437568320E+00  0.493472120755E+00  0.481939261496E+00  0.496271638253E+00  0.496567189608E+00  0.471321974406E+00  0.493423457045E+00
  0.483081423137E+00  0.000000000000E+00  0.496263377583E+00  0.496605912324E+00  0.471423413911E+00  0.493472430552E+00  0.482960182107E+00
  0.000000000000E+00  0.496288154816E+00  0.496567189308E+00  0.471321973578E+00  0.493423457141E+00  0.483105436338E+00  0.000000000000E+00
  0.496264971068E+00  0.496612360995E+00  0.471437578073E+00  0.493472116485E+00  0.482960183115E+00  0.000000000000E+00  0.496495696004E+00
  0.470916771087E+00  0.493252652066E+00  0.483081416194E+00  0.000000000000E+00  0.481939303713E+00  0.000000000000E+00  0.000000000000E+00
  0.000000000000E+00  0.763614239932E-05  0.000000000000E+00  0.000000000000E+00  0.000000000000E+00  0.784364917174E-05 -0.981768163587E-05
 -0.543830728315E-04 -0.258330525790E-04  0.000000000000E+00  0.274572292502E-09  0.423223361604E-05  0.684755536946E-04 -0.145774676094E-05
 -0.103122598251E-02  0.000000000000E+00 -0.784327211461E-05 -0.289738865296E-09 -0.221869557387E-08  0.905767424512E-10 -0.151449633759E-03
  0.000000000000E+00 -0.763479266902E-05 -0.423242312112E-05 -0.684776402534E-04  0.145779013951E-05 -0.946456474644E-09  0.000000000000E+00
  0.000000000000E+00  0.981641880170E-05  0.543734938164E-04  0.258329483410E-04  0.151444465959E-03  0.000000000000E+00  0.000000000000E+00
  0.000000000000E+00  0.000000000000E+00  0.103121680971E-02  0.000000000000E+00  0.000000000000E+00  0.000000000000E+00  0.000000000000E+00
  0.137698289437E-02  0.137280322799E-02  0.470485055933E-03 -0.472857023512E-02  0.377090810438E-02  0.137010026328E-02  0.545330416508E-03
 -0.507101622980E-02  0.385076130489E-02  0.373917735042E-01  0.136238273184E-02  0.532296304864E-03 -0.501767738323E-02  0.383471541091E-02
  0.359620320530E-01  0.000000000000E+00  0.137010022417E-02  0.526715148669E-03 -0.505961523814E-02  0.381672107291E-02  0.360825937425E-01
  0.000000000000E+00  0.137280347859E-02  0.532296500221E-03 -0.501768060685E-02  0.383471570521E-02  0.360672373478E-01  0.000000000000E+00
  0.137698092114E-02  0.545330195403E-03 -0.507103738207E-02  0.385076213573E-02  0.360825993998E-01  0.000000000000E+00  0.470482334398E-03
 -0.472857556288E-02  0.377090354445E-02  0.359620286313E-01  0.000000000000E+00  0.373918066492E-01  0.000000000000E+00  0.000000000000E+00
  0.717541288562E+00  0.717516382545E+00  0.719411834105E+00  0.740481138850E+00  0.722010374624E+00  0.717541680763E+00  0.719317559686E+00
  0.739944765663E+00  0.721789260952E+00  0.745010703622E+00  0.717525946742E+00  0.719353031830E+00  0.740035966468E+00  0.721836505132E+00
  0.742774161171E+00  0.106985887584E+01  0.717541680754E+00  0.719323860842E+00  0.739960885049E+00  0.721794021805E+00  0.742720849030E+00
  0.107106988113E+01  0.717516383107E+00  0.719353031670E+00  0.740035967071E+00  0.721836504807E+00  0.742538706838E+00  0.107138446856E+01
  0.717541289805E+00  0.719317559665E+00  0.739944778882E+00  0.721789261190E+00  0.742720847757E+00  0.107134178900E+01  0.719411832869E+00
  0.740481152036E+00  0.722010373259E+00  0.742774152418E+00  0.107138446412E+01  0.745010647171E+00  0.107106984096E+01  0.106985877252E+01
  0.495995845473E+00  0.496020845465E+00  0.495742502754E+00  0.469910555798E+00  0.492208930720E+00  0.495994169395E+00  0.495866068093E+00
  0.470505132850E+00  0.492446931254E+00  0.475370345111E+00  0.496003310454E+00  0.495816883857E+00  0.470385976316E+00  0.492392856947E+00
  0.476423034335E+00  0.000000000000E+00  0.495994169667E+00  0.495858110405E+00  0.470494844532E+00  0.492445551184E+00  0.476296807465E+00
  0.000000000000E+00  0.496020843894E+00  0.495816883605E+00  0.470385975576E+00  0.492392857103E+00  0.476457561106E+00  0.000000000000E+00
  0.495995838990E+00  0.495866068885E+00  0.470505141817E+00  0.492446927416E+00  0.476296808858E+00  0.000000000000E+00  0.495742504374E+00
  0.469910598952E+00  0.492208922799E+00  0.476423027072E+00  0.000000000000E+00  0.475370392457E+00  0.000000000000E+00  0.000000000000E+00
  0.100109322023E+01  0.100108577148E+01  0.100304185077E+01  0.100438823662E+01  0.100430419547E+01  0.100109345381E+01  0.100301353056E+01
  0.100408365273E+01  0.100422913839E+01  0.103401511073E+01  0.100108979685E+01  0.100302998640E+01  0.100409747113E+01  0.100425112126E+01
  0.103384933425E+01  0.100000000000E+01  0.100109345387E+01  0.100301959584E+01  0.100406674288E+01  0.100423494884E+01  0.103391479782E+01
  0.100000000000E+01  0.100108577178E+01  0.100302998621E+01  0.100409747091E+01  0.100425112102E+01  0.103383040194E+01  0.100000000000E+01
  0.100109322078E+01  0.100301353012E+01  0.100408365696E+01  0.100422913669E+01  0.103391479786E+01  0.100000000000E+01  0.100304184954E+01
  0.100438824106E+01  0.100430419127E+01  0.103384933505E+01  0.100000000000E+01  0.103401509579E+01  0.100000000000E+01  0.100000000000E+01
         2         7         3         1
         7         9         5         3
         9         8         4         5
         8        15        10         4
        15        22        16        10
         6        12         7         2
        12        14         9         7
        14        13         8         9
        13        21        15         8
        21        28        22        15
        11        18        12         6
        18        20        14        12
        20        19        13        14
        19        27        21        13
        27        34        28        21
        17        24        18        11
        24        26        20        18
        26        25        19        20
        25        33        27        19
        33        39        34        27
        23        30        24        17
        30        32        26        24
        32        31        25        26
        31        38        33        25
        38        41        39        33
        29        35        30        23
        35        37        32        30
        37        36        31        32
        36        40        38        31
        40        42        41        38
zone t="boundary 2 bc-2", solutiontime= 0.1000000E+02, strandid=1002, i=50, j=78, f=feblock
  0.500000000000E+01  0.400000000000E+01  0.500000000000E+01  0.432205072469E+01  0.300000000000E+01  0.339985167428E+01  0.500000000000E+01
  0.414352482062E+01  0.200000000000E+01  0.238772260472E+01  0.328766614337E+01  0.253053942594E+01  0.500000000000E+01  0.437470683547E+01
  0.355186041251E+01  0.100000000000E+01  0.148474164412E+01  0.182006405350E+01  0.265208498144E+01  0.158439218620E+01  0.500000000000E+01
  0.421824364393E+01  0.356601661300E+01  0.279151482472E+01  0.000000000000E+00  0.691584087487E+00  0.102677755985E+01  0.203910647352E+01
  0.786163368796E+00  0.130062434092E+01  0.579883387792E+00  0.500000000000E+01  0.439593351493E+01  0.365358382485E+01  0.222719085292E+01
  0.294979435250E+01  0.181898636514E+01  0.000000000000E+00  0.000000000000E+00  0.608717331133E+00  0.956798945949E+00  0.000000000000E+00
  0.400000000000E+01  0.200000000000E+01  0.160059523280E+01  0.300000000000E+01  0.000000000000E+00  0.482256655205E+00  0.100000000000E+01
  0.000000000000E+00
 -0.500000000000E+01 -0.500000000000E+01 -0.500000000000E+01 -0.500000000000E+01 -0.500000000000E+01 -0.500000000000E+01 -0.500000000000E+01
 -0.500000000000E+01 -0.500000000000E+01 -0.500000000000E+01 -0.500000000000E+01 -0.500000000000E+01 -0.500000000000E+01 -0.500000000000E+01
 -0.500000000000E+01 -0.500000000000E+01 -0.500000000000E+01 -0.500000000000E+01 -0.500000000000E+01 -0.500000000000E+01 -0.500000000000E+01
 -0.500000000000E+01 -0.500000000000E+01 -0.500000000000E+01 -0.500000000000E+01 -0.500000000000E+01 -0.500000000000E+01 -0.500000000000E+01
 -0.500000000000E+01 -0.500000000000E+01 -0.500000000000E+01 -0.500000000000E+01 -0.500000000000E+01 -0.500000000000E+01 -0.500000000000E+01
 -0.500000000000E+01 -0.500000000000E+01 -0.500000000000E+01 -0.500000000000E+01 -0.500000000000E+01 -0.500000000000E+01 -0.500000000000E+01
 -0.500000000000E+01 -0.500000000000E+01 -0.500000000000E+01 -0.500000000000E+01 -0.500000000000E+01 -0.500000000000E+01 -0.500000000000E+01
 -0.500000000000E+01
  0.500000000000E+01  0.500000000000E+01  0.400000000000E+01  0.427284776458E+01  0.500000000000E+01  0.409791606955E+01  0.300000000000E+01
  0.334954216394E+01  0.500000000000E+01  0.428961258157E+01  0.317389756208E+01  0.342579600005E+01  0.200000000000E+01  0.245604909385E+01
  0.233993022181E+01  0.500000000000E+01  0.436396516571E+01  0.369973104758E+01  0.256908373316E+01  0.279597472668E+01  0.100000000000E+01
  0.157729503259E+01  0.159701071514E+01  0.152167522831E+01  0.500000000000E+01  0.441213888848E+01  0.370665089386E+01  0.199896920986E+01
  0.224835513052E+01  0.181406525358E+01  0.296809553468E+01  0.000000000000E+00  0.696815730569E+00  0.990157383601E+00  0.787866207738E+00
  0.548147595005E+00  0.128672970530E+01  0.400000000000E+01  0.200000000000E+01  0.160443740745E+01  0.959766653149E+00  0.300000000000E+01
  0.000000000000E+00  0.000000000000E+00  0.606872513237E+00  0.000000000000E+00  0.100000000000E+01  0.486991412371E+00  0.000000000000E+00
  0.000000000000E+00
  0.100236658441E+01  0.100380518114E+01  0.100178255233E+01  0.100348098180E+01  0.100368001978E+01  0.100372167685E+01  0.100614960529E+01
  0.100323258485E+01  0.100333750981E+01  0.100413133388E+01  0.999969981170E+00  0.100389193663E+01  0.101615017589E+01  0.100494570240E+01
  0.997796268193E+00  0.100400366862E+01  0.100392242388E+01  0.100517886131E+01  0.996772880905E+00  0.100779913579E+01  0.980831135738E+00
  0.998452098482E+00  0.100525138353E+01  0.100901583735E+01  0.100346080153E+01  0.100419793893E+01  0.100767866305E+01  0.999082862559E+00
  0.101106690908E+01  0.994281409760E+00  0.100809088028E+01  0.827232210272E+00  0.996527620626E+00  0.985914905654E+00  0.101791733079E+01
  0.100312699023E+01  0.100104885642E+01  0.100412217743E+01  0.103214431479E+01  0.100340813224E+01  0.106552042793E+01  0.100648242967E+01
  0.983363797098E+00  0.985156076552E+00  0.975121321037E+00  0.990922226564E+00  0.100870375131E+01  0.109445560044E+01  0.922671608941E+00
  0.149780228153E+01
  0.495602338983E+00  0.491998565150E+00  0.500090833258E+00  0.493518298791E+00  0.495076533332E+00  0.493134620934E+00  0.513343669617E+00
  0.504878829641E+00  0.496372634217E+00  0.496068713977E+00  0.504671669228E+00  0.495904425818E+00  0.521397263861E+00  0.536198909416E+00
  0.548394158214E+00  0.495922176984E+00  0.496522052980E+00  0.495440777914E+00  0.525466840631E+00  0.494077891558E+00  0.483251923858E+00
  0.559614035083E+00  0.566528089169E+00  0.563110685076E+00  0.496264971068E+00  0.496149517358E+00  0.493311888105E+00  0.549088241598E+00
  0.488164918445E+00  0.539707313699E+00  0.491800002304E+00  0.000000000000E+00  0.413148812702E+00  0.476048601812E+00  0.418759798124E+00
  0.319772031451E+00  0.581873761223E+00  0.496495696004E+00  0.470916771087E+00  0.496042595901E+00  0.531891981736E+00  0.493252652066E+00
  0.000000000000E+00  0.000000000000E+00  0.382453414657E+00  0.000000000000E+00  0.481939303713E+00  0.448154298094E+00  0.000000000000E+00
  0.000000000000E+00
  0.000000000000E+00  0.000000000000E+00  0.000000000000E+00  0.000000000000E+00  0.000000000000E+00  0.000000000000E+00  0.000000000000E+00
  0.000000000000E+00  0.000000000000E+00  0.000000000000E+00  0.000000000000E+00  0.000000000000E+00  0.000000000000E+00  0.000000000000E+00
  0.000000000000E+00  0.000000000000E+00  0.000000000000E+00  0.000000000000E+00  0.000000000000E+00  0.000000000000E+00  0.000000000000E+00
  0.000000000000E+00  0.000000000000E+00  0.000000000000E+00  0.000000000000E+00  0.000000000000E+00  0.000000000000E+00  0.000000000000E+00
  0.000000000000E+00  0.000000000000E+00  0.000000000000E+00  0.000000000000E+00  0.000000000000E+00  0.000000000000E+00  0.000000000000E+00
  0.000000000000E+00  0.000000000000E+00  0.000000000000E+00  0.000000000000E+00  0.000000000000E+00  0.000000000000E+00  0.000000000000E+00
  0.000000000000E+00  0.000000000000E+00  0.000000000000E+00  0.000000000000E+00  0.000000000000E+00  0.000000000000E+00  0.000000000000E+00
  0.000000000000E+00
  0.141244742880E-02  0.141668143151E-02  0.764862340349E-02  0.273421303437E-02  0.548899603514E-02  0.225508838647E-02  0.998999745713E-02
  0.531033670364E-02  0.714002576664E-02  0.589669549628E-02  0.385694781089E-02  0.499164665787E-02 -0.228771060687E-01  0.540238413266E-02
  0.105152358532E-01  0.511284171490E-02  0.697428143067E-02  0.653740824586E-02  0.135785138019E-01  0.938242537391E-02 -0.781099510676E-01
 -0.960630841470E-02  0.489879499555E-02  0.183922976333E-01  0.137698092114E-02  0.438962690359E-02  0.535895572878E-02  0.260757278205E-01
  0.773214019005E-02  0.436985531438E-01  0.591058451108E-02  0.000000000000E+00 -0.390825017916E-01  0.103412078549E-01  0.926388291590E-03
  0.456505874912E-02  0.347772395296E-01  0.470482334398E-03 -0.472857556288E-02  0.266450248699E-01  0.716310438782E-01  0.377090354445E-02
  0.000000000000E+00  0.000000000000E+00 -0.109465890718E-01  0.000000000000E+00  0.373918066492E-01  0.176754417542E+00  0.000000000000E+00
  0.000000000000E+00
  0.715763320151E+00  0.717683738777E+00  0.716406700365E+00  0.717205485399E+00  0.718577058647E+00  0.717484658199E+00  0.721756021838E+00
  0.718979342324E+00  0.718601665354E+00  0.718403472172E+00  0.715970067496E+00  0.716818852406E+00  0.727853260345E+00  0.719636792845E+00
  0.712484275381E+00  0.718656089110E+00  0.718529916093E+00  0.718703293559E+00  0.714896736144E+00  0.721229338162E+00  0.686964614038E+00
  0.706200820363E+00  0.710400635482E+00  0.713715277938E+00  0.717541289805E+00  0.718970661640E+00  0.721420746724E+00  0.718521298860E+00
  0.723889788215E+00  0.717112235351E+00  0.720636818517E+00  0.590880150194E+00  0.696192184263E+00  0.692951179249E+00  0.715320189128E+00
  0.709487865339E+00  0.698555977002E+00  0.719411832869E+00  0.740481152036E+00  0.737398221618E+00  0.747467204636E+00  0.722010373259E+00
  0.702402712213E+00  0.703682911823E+00  0.680610060059E+00  0.707801590403E+00  0.745010647171E+00  0.722926491754E+00  0.659051149244E+00
  0.106985877252E+01
  0.495678023041E+00  0.491767453061E+00  0.499853316096E+00  0.493376749266E+00  0.494533800411E+00  0.492953959058E+00  0.512344982277E+00
  0.504068748464E+00  0.495756198019E+00  0.495700718642E+00  0.504084842369E+00  0.496014919918E+00  0.521169991714E+00  0.535548206767E+00
  0.548582463581E+00  0.495427017511E+00  0.496072340808E+00  0.495236210256E+00  0.524569092855E+00  0.493696437406E+00  0.494355948525E+00
  0.562455367655E+00  0.569586037440E+00  0.566171201498E+00  0.495995838990E+00  0.495586686106E+00  0.492776405258E+00  0.547833039138E+00
  0.487652822858E+00  0.538857932092E+00  0.491640317177E+00  0.000000000000E+00  0.419620885281E+00  0.480018658132E+00  0.422190094483E+00
  0.321385427569E+00  0.589747477584E+00  0.495742504374E+00  0.469910598952E+00  0.489743134661E+00  0.541560857838E+00  0.492208922799E+00
  0.000000000000E+00  0.000000000000E+00  0.387054826713E+00  0.000000000000E+00  0.475370392457E+00  0.500969124028E+00  0.000000000000E+00
  0.000000000000E+00
  0.999702767224E+00  0.100094844414E+01  0.100118471636E+01  0.100060459318E+01  0.100231932716E+01  0.100075403835E+01  0.100428248966E+01
  0.100332773721E+01  0.100269582435E+01  0.100162680628E+01  0.100238818501E+01  0.999655796356E+00  0.100279918132E+01  0.100253327874E+01
  0.999681014382E+00  0.100210642272E+01  0.100201156842E+01  0.100100056787E+01  0.100409576723E+01  0.100190706419E+01  0.980546420897E+00
  0.990213902111E+00  0.989365352760E+00  0.990273246589E+00  0.100109322078E+01  0.100235111752E+01  0.100229277691E+01  0.100685324121E+01
  0.100235275668E+01  0.100973136945E+01  0.100079423955E+01  0.100000000000E+01  0.978065271644E+00  0.983991260691E+00  0.983820821682E+00
  0.990186707318E+00  0.976953683662E+00  0.100304184954E+01  0.100438824106E+01  0.102885104983E+01  0.982106076115E+00  0.100430419127E+01
  0.100000000000E+01  0.100000000000E+01  0.977164649696E+00  0.100000000000E+01  0.103401509579E+01  0.924749334780E+00  0.100000000000E+01
  0.100000000000E+01
        44        35        36        36
        24        34        36        36
        38        27        31        31
        20        29        31        31
        24        23        34        34
        15        22        23        23
        24        35        37        37
        41        30        37        37
        27        18        20        20
        17        18        27        27
        15        19        11        11
        12         6        11        11
         8         7        14        14
        13        14         7         7
        41        40        30        30
        47        39        40        40
        17         9        10        10
         5        10         9         9
        44        45        35        35
        49        41        45        45
        19        15        24        24
        36        35        24        24
        37        45        41        41
        40        39        29        29
        30        29        20        20
        12        18        10        10
        20        12        19        19
        11         8        15        15
        20        18        12        12
        27        20        31        31
        28        20        19        19
        23        24        15        15
        23        22        34        34
        28        24        37        37
        11        19        12        12
        11         6         8         8
        28        19        24        24
        40        41        47        47
        30        40        29        29
        45        44        49        49
        37        35        45        45
        16        26        25        25
        27        38        26        26
        47        48        50        50
        43        33        32        32
        22        21        33        33
         3         4         1         1
         6         2         4         4
        10         5         6         6
        14        13        22        22
         4         3         8         8
         7         8         3         3
        42        38        31        31
         9        17        16        16
        33        43        34        34
        36        34        43        43
        41        48        47        47
        15         8        14        14
        28        30        20        20
        18        17        10        10
        42        31        39        39
        26        16        17        17
         8         6         4         4
        34        22        33        33
        37        30        28        28
        27        26        17        17
        49        48        41        41
        46        36        43        43
        31        29        39        39
        36        46        44        44
        22        13        21        21
        15        14        22        22
         6         5         2         2
        12        10         6         6
        26        38        25        25
        48        49        50        50
        33        21        32        32
         4         2         1         1
zone t="boundary 3 bc-3", solutiontime= 0.1000000E+02, strandid=1003, i=50, j=78, f=feblock
  0.500000000000E+01  0.400000000000E+01  0.500000000000E+01  0.432205072469E+01  0.300000000000E+01  0.339985167428E+01  0.500000000000E+01
  0.414352482062E+01  0.200000000000E+01  0.238772260472E+01  0.328766614337E+01  0.253053942594E+01  0.500000000000E+01  0.437470683547E+01
  0.355186041251E+01  0.100000000000E+01  0.148474164412E+01  0.182006405350E+01  0.265208498144E+01  0.158439218620E+01  0.500000000000E+01
  0.421824364393E+01  0.356601661300E+01  0.279151482472E+01  0.000000000000E+00  0.691584087487E+00  0.102677755985E+01  0.203910647352E+01
  0.786163368796E+00  0.130062434092E+01  0.579883387792E+00  0.500000000000E+01  0.439593351493E+01  0.365358382485E+01  0.222719085292E+01
  0.294979435250E+01  0.181898636514E+01  0.000000000000E+00  0.000000000000E+00  0.608717331133E+00  0.956798945949E+00  0.000000000000E+00
  0.400000000000E+01  0.200000000000E+01  0.160059523280E+01  0.300000000000E+01  0.000000000000E+00  0.482256655205E+00  0.100000000000E+01
  0.000000000000E+00
  0.000000000000E+00  0.000000000000E+00  0.000000000000E+00  0.000000000000E+00  0.000000000000E+00  0.000000000000E+00  0.000000000000E+00
  0.000000000000E+00  0.000000000000E+00  0.000000000000E+00  0.000000000000E+00  0.000000000000E+00  0.000000000000E+00  0.000000000000E+00
  0.000000000000E+00  0.000000000000E+00  0.000000000000E+00  0.000000000000E+00  0.000000000000E+00  0.000000000000E+00  0.000000000000E+00
  0.000000000000E+00  0.000000000000E+00  0.000000000000E+00  0.000000000000E+00  0.000000000000E+00  0.000000000000E+00  0.000000000000E+00
  0.000000000000E+00  0.000000000000E+00  0.000000000000E+00  0.000000000000E+00  0.000000000000E+00  0.000000000000E+00  0.000000000000E+00
  0.000000000000E+00  0.000000000000E+00  0.000000000000E+00  0.000000000000E+00  0.000000000000E+00  0.000000000000E+00  0.000000000000E+00
  0.000000000000E+00  0.000000000000E+00  0.000000000000E+00  0.000000000000E+00  0.000000000000E+00  0.000000000000E+00  0.000000000000E+00
  0.000000000000E+00
  0.500000000000E+01  0.500000000000E+01  0.400000000000E+01  0.427284776458E+01  0.500000000000E+01  0.409791606955E+01  0.300000000000E+01
  0.334954216394E+01  0.500000000000E+01  0.428961258157E+01  0.317389756208E+01  0.342579600005E+01  0.200000000000E+01  0.245604909385E+01
  0.233993022181E+01  0.500000000000E+01  0.436396516571E+01  0.369973104758E+01  0.256908373316E+01  0.279597472668E+01  0.100000000000E+01
  0.157729503259E+01  0.159701071514E+01  0.152167522831E+01  0.500000000000E+01  0.441213888848E+01  0.370665089386E+01  0.199896920986E+01
  0.224835513052E+01  0.181406525358E+01  0.296809553468E+01  0.000000000000E+00  0.696815730569E+00  0.990157383601E+00  0.787866207738E+00
  0.548147595005E+00  0.128672970530E+01  0.400000000000E+01  0.200000000000E+01  0.160443740745E+01  0.959766653149E+00  0.300000000000E+01
  0.000000000000E+00  0.000000000000E+00  0.606872513237E+00  0.000000000000E+00  0.100000000000E+01  0.486991412371E+00  0.000000000000E+00
  0.000000000000E+00
  0.100236658503E+01  0.100380518106E+01  0.100178255976E+01  0.100348098180E+01  0.100368002182E+01  0.100372167845E+01  0.100614962574E+01
  0.100323259567E+01  0.100333750861E+01  0.100413133450E+01  0.999969991618E+00  0.100389194233E+01  0.101615019240E+01  0.100494570814E+01
  0.997796271654E+00  0.100400366865E+01  0.100392242385E+01  0.100517886075E+01  0.996772898117E+00  0.100779914018E+01  0.980831056815E+00
  0.998452119781E+00  0.100525142448E+01  0.100901585862E+01  0.100346080034E+01  0.100419793769E+01  0.100767866072E+01  0.999082855565E+00
  0.101106688634E+01  0.994281448419E+00  0.100809087533E+01  0.827231830201E+00  0.996527493350E+00  0.985914849282E+00  0.101791729333E+01
  0.100312688062E+01  0.100104886824E+01  0.100412217793E+01  0.103214430097E+01  0.100340814163E+01  0.106552044063E+01  0.100648242737E+01
  0.983363570331E+00  0.985156040843E+00  0.975121272923E+00  0.990922376487E+00  0.100870381318E+01  0.109445558120E+01  0.922671467850E+00
  0.149780242617E+01
  0.495602325069E+00  0.491998544720E+00  0.500090810130E+00  0.493518284126E+00  0.495076505742E+00  0.493134606037E+00  0.513343647072E+00
  0.504878807434E+00  0.496372617782E+00  0.496068711172E+00  0.504671637016E+00  0.495904394253E+00  0.521397265968E+00  0.536198935016E+00
  0.548394133177E+00  0.495922173323E+00  0.496522050826E+00  0.495440767508E+00  0.525466820446E+00  0.494077859205E+00  0.483251877221E+00
  0.559614053442E+00  0.566528020308E+00  0.563110668862E+00  0.496264977414E+00  0.496149520462E+00  0.493311885558E+00  0.549088187672E+00
  0.488164921032E+00  0.539707273112E+00  0.491799997302E+00  0.000000000000E+00  0.413148706210E+00  0.476048601019E+00  0.418759893270E+00
  0.319772081358E+00  0.581873769768E+00  0.496495694683E+00  0.470916726850E+00  0.496042620183E+00  0.531891985877E+00  0.493252660999E+00
  0.000000000000E+00  0.000000000000E+00  0.382453390786E+00  0.000000000000E+00  0.481939261496E+00  0.448154179600E+00  0.000000000000E+00
  0.000000000000E+00
  0.000000000000E+00  0.000000000000E+00  0.000000000000E+00  0.000000000000E+00  0.000000000000E+00  0.000000000000E+00  0.000000000000E+00
  0.000000000000E+00  0.000000000000E+00  0.000000000000E+00  0.000000000000E+00  0.000000000000E+00  0.000000000000E+00  0.000000000000E+00
  0.000000000000E+00  0.000000000000E+00  0.000000000000E+00  0.000000000000E+00  0.000000000000E+00  0.000000000000E+00  0.000000000000E+00
  0.000000000000E+00  0.000000000000E+00  0.000000000000E+00  0.000000000000E+00  0.000000000000E+00  0.000000000000E+00  0.000000000000E+00
  0.000000000000E+00  0.000000000000E+00  0.000000000000E+00  0.000000000000E+00  0.000000000000E+00  0.000000000000E+00  0.000000000000E+00
  0.000000000000E+00  0.000000000000E+00  0.000000000000E+00  0.000000000000E+00  0.000000000000E+00  0.000000000000E+00  0.000000000000E+00
  0.000000000000E+00  0.000000000000E+00  0.000000000000E+00  0.000000000000E+00  0.000000000000E+00  0.000000000000E+00  0.000000000000E+00
  0.000000000000E+00
  0.141245034063E-02  0.141668462890E-02  0.764864654712E-02  0.273422128625E-02  0.548900050592E-02  0.225510121577E-02  0.999003595513E-02
  0.531034176753E-02  0.714002418340E-02  0.589668822495E-02  0.385698050157E-02  0.499164090305E-02 -0.228771380189E-01  0.540244930971E-02
  0.105152740754E-01  0.511283888694E-02  0.697427468826E-02  0.653740573435E-02  0.135785272266E-01  0.938240494712E-02 -0.781099778265E-01
 -0.960623812276E-02  0.489878728071E-02  0.183923408971E-01  0.137698289437E-02  0.438962056798E-02  0.535894811588E-02  0.260757578128E-01