title="tecplot geometry and solution file"
variables = x y z rho u v w p mach temperature
zone t="boundary 1 bc-1", solutiontime= 0.6000000E+02, strandid=1001, i=42, j=30, f=feblock
  0.000000000000E+00  0.000000000000E+00  0.000000000000E+00  0.000000000000E+00  0.000000000000E+00  0.000000000000E+00  0.000000000000E+00
  0.000000000000E+00  0.000000000000E+00  0.000000000000E+00  0.000000000000E+00  0.000000000000E+00  0.000000000000E+00  0.000000000000E+00
  0.000000000000E+00  0.000000000000E+00  0.000000000000E+00  0.000000000000E+00  0.000000000000E+00  0.000000000000E+00  0.000000000000E+00
  0.000000000000E+00  0.000000000000E+00  0.000000000000E+00  0.000000000000E+00  0.000000000000E+00  0.000000000000E+00  0.000000000000E+00
  0.000000000000E+00  0.000000000000E+00  0.000000000000E+00  0.000000000000E+00  0.000000000000E+00  0.000000000000E+00  0.000000000000E+00
  0.000000000000E+00  0.000000000000E+00  0.000000000000E+00  0.000000000000E+00  0.000000000000E+00  0.000000000000E+00  0.000000000000E+00
  0.000000000000E+00  0.000000000000E+00 -0.833333333333E+00  0.000000000000E+00  0.000000000000E+00 -0.833333333333E+00 -0.166666666667E+01
  0.000000000000E+00 -0.833333333333E+00 -0.833333333333E+00  0.000000000000E+00 -0.166666666667E+01 -0.250000000000E+01 -0.833333333333E+00
 -0.166666666667E+01 -0.166666666667E+01 -0.833333333333E+00 -0.250000000000E+01 -0.333333333333E+01 -0.166666666667E+01 -0.250000000000E+01
 -0.250000000000E+01 -0.166666666667E+01 -0.333333333333E+01 -0.416666666667E+01 -0.250000000000E+01 -0.333333333333E+01 -0.333333333333E+01
 -0.250000000000E+01 -0.416666666667E+01 -0.500000000000E+01 -0.333333333333E+01 -0.416666666667E+01 -0.416666666667E+01 -0.333333333333E+01
 -0.500000000000E+01 -0.416666666667E+01 -0.500000000000E+01 -0.500000000000E+01 -0.416666666667E+01 -0.500000000000E+01 -0.500000000000E+01
  0.250000000000E+01  0.150000000000E+01  0.250000000000E+01  0.500000000000E+00 -0.150000000000E+01  0.150000000000E+01  0.250000000000E+01
 -0.500000000000E+00  0.500000000000E+00 -0.150000000000E+01 -0.250000000000E+01  0.150000000000E+01  0.250000000000E+01 -0.500000000000E+00
  0.500000000000E+00 -0.150000000000E+01 -0.250000000000E+01  0.150000000000E+01  0.250000000000E+01 -0.500000000000E+00  0.500000000000E+00
 -0.150000000000E+01 -0.250000000000E+01  0.150000000000E+01  0.250000000000E+01 -0.500000000000E+00  0.500000000000E+00 -0.150000000000E+01
 -0.250000000000E+01  0.150000000000E+01  0.250000000000E+01 -0.500000000000E+00  0.500000000000E+00 -0.150000000000E+01 -0.250000000000E+01
  0.150000000000E+01 -0.500000000000E+00  0.500000000000E+00 -0.150000000000E+01 -0.250000000000E+01 -0.500000000000E+00 -0.250000000000E+01
  0.100325251519E+01  0.100705384739E+01  0.100321469373E+01  0.100550799674E+01  0.101083209288E+01  0.100700233923E+01  0.100323823536E+01
  0.103970285022E+01  0.100519123606E+01  0.100773849276E+01  0.150953876373E+01  0.100704220247E+01  0.100321673051E+01  0.103941431318E+01
  0.100526196084E+01  0.100772626072E+01  0.151110022802E+01  0.100700599502E+01  0.100323823450E+01  0.103955522790E+01  0.100518898204E+01
  0.100753921940E+01  0.151161274691E+01  0.100704220146E+01  0.100321469124E+01  0.103944080163E+01  0.100526195884E+01  0.100772627629E+01
  0.151150390763E+01  0.100700233901E+01  0.100325251362E+01  0.103955522642E+01  0.100519123632E+01  0.100773857255E+01  0.151161275136E+01
  0.100705384760E+01  0.103941432792E+01  0.100550799554E+01  0.101083224625E+01  0.151110028511E+01  0.103970285261E+01  0.150953894133E+01
  0.496174033518E+00  0.493571860461E+00  0.496211042786E+00  0.494247832686E+00  0.479350594055E+00  0.493627735527E+00  0.496188491077E+00
  0.466767369768E+00  0.494606262556E+00  0.480709057674E+00  0.000000000000E+00  0.493586220476E+00  0.496210851762E+00  0.467320784670E+00
  0.494533950433E+00  0.480518692071E+00  0.000000000000E+00  0.493626246914E+00  0.496188491432E+00  0.467173131742E+00  0.494614583092E+00
  0.480694524926E+00  0.000000000000E+00  0.493586221298E+00  0.496211044620E+00  0.467323280351E+00  0.494533951871E+00  0.480518689155E+00
  0.000000000000E+00  0.493627738717E+00  0.496174036059E+00  0.467173127964E+00  0.494606256655E+00  0.480708981661E+00  0.000000000000E+00
  0.493571865777E+00  0.467320779440E+00  0.494247808972E+00  0.479350455369E+00  0.000000000000E+00  0.466767396525E+00  0.000000000000E+00
  0.000000000000E+00  0.000000000000E+00  0.111327150111E-05  0.000000000000E+00  0.000000000000E+00  0.717145561619E-05 -0.551443490044E-07
  0.000000000000E+00 -0.527757705402E-04 -0.110054588709E-02  0.000000000000E+00  0.305677530890E-05 -0.722465147238E-09  0.953132552779E-04
 -0.952944434652E-05 -0.157039391314E-03  0.000000000000E+00  0.402309772081E-10  0.541692470102E-07  0.865653333154E-04  0.472611315301E-09
  0.745934546078E-08  0.000000000000E+00 -0.305427413122E-05 -0.111464954677E-05 -0.555271947526E-08  0.952911443315E-05  0.157077671081E-03
  0.000000000000E+00 -0.717199990724E-05  0.000000000000E+00 -0.865716915430E-04  0.527717932280E-04  0.110061324445E-02  0.000000000000E+00
  0.000000000000E+00 -0.953215343830E-04  0.000000000000E+00  0.000000000000E+00  0.000000000000E+00  0.000000000000E+00  0.000000000000E+00
  0.241321413818E-02  0.284796586808E-03  0.239965917793E-02  0.435737408198E-02  0.431903945639E-01  0.298962895544E-03  0.241320405755E-02
 -0.475956609930E-02  0.447849992869E-02  0.419822678412E-01  0.000000000000E+00  0.290282821509E-03  0.240004634177E-02 -0.494748289335E-02
  0.445851284760E-02  0.421012868820E-01  0.000000000000E+00  0.294679968102E-03  0.241320386815E-02 -0.497525260693E-02  0.446122930222E-02
  0.420725390022E-01  0.000000000000E+00  0.290281544364E-03  0.239965927128E-02 -0.500039291864E-02  0.445851303512E-02  0.421012903889E-01
  0.000000000000E+00  0.298960818396E-03  0.241321638642E-02 -0.497525048062E-02  0.447850603525E-02  0.419822979596E-01  0.000000000000E+00
  0.284798351119E-03 -0.494748731090E-02  0.435737567895E-02  0.431905057412E-01  0.000000000000E+00 -0.475956767219E-02  0.000000000000E+00
  0.717657274984E+00  0.721033270489E+00  0.717623372781E+00  0.721848907744E+00  0.749905348979E+00  0.720967970103E+00  0.717647187402E+00
  0.745363168028E+00  0.721595833506E+00  0.747614145591E+00  0.107824197409E+01  0.721008014987E+00  0.717625575590E+00  0.744851699559E+00
  0.721669742570E+00  0.747655136524E+00  0.107935730573E+01  0.720971591089E+00  0.717647186574E+00  0.744975589928E+00  0.721595485039E+00
  0.747441634363E+00  0.107972339065E+01  0.721008014029E+00  0.717623370298E+00  0.744866574403E+00  0.721669740396E+00  0.747655152494E+00
  0.107964564831E+01  0.720967970366E+00  0.717657273136E+00  0.744975588629E+00  0.721595829887E+00  0.747614194402E+00  0.107972339383E+01
  0.721033271731E+00  0.744851721809E+00  0.721848898851E+00  0.749905436020E+00  0.107935734651E+01  0.745363185299E+00  0.107824210095E+01
  0.495817366032E+00  0.492986628988E+00  0.495856647778E+00  0.493023074266E+00  0.472260146426E+00  0.493052164271E+00  0.495831768860E+00
  0.465939683655E+00  0.493390446975E+00  0.473483157134E+00  0.000000000000E+00  0.493006759099E+00  0.495856201085E+00  0.466589397000E+00
  0.493310227306E+00  0.473290198321E+00  0.000000000000E+00  0.493050331601E+00  0.495831769287E+00  0.466435112216E+00  0.493398153830E+00
  0.473483250129E+00  0.000000000000E+00  0.493006760000E+00  0.495856649853E+00  0.466593727316E+00  0.493310228993E+00  0.473290194385E+00
  0.000000000000E+00  0.493052167313E+00  0.495817368834E+00  0.466435108497E+00  0.493390442446E+00  0.473483088842E+00  0.000000000000E+00
  0.492986633928E+00  0.466589388167E+00  0.493023053370E+00  0.472260029099E+00  0.000000000000E+00  0.465939705514E+00  0.000000000000E+00
  0.100146291165E+01  0.100237597156E+01  0.100145335607E+01  0.100505264415E+01  0.103861709176E+01  0.100233645825E+01  0.100146308917E+01
  0.100366026218E+01  0.100501688701E+01  0.103862243166E+01  0.100000000000E+01  0.100235245207E+01  0.100145439691E+01  0.100324997083E+01
  0.100504911053E+01  0.103869198604E+01  0.100000000000E+01  0.100233785352E+01  0.100146308888E+01  0.100328082425E+01  0.100501865531E+01
  0.103858814422E+01  0.100000000000E+01  0.100235245174E+01  0.100145335509E+01  0.100324443925E+01  0.100504910951E+01  0.103869199218E+01
  0.100000000000E+01  0.100233645882E+01  0.100146291063E+01  0.100328082393E+01  0.100501688170E+01  0.103862241723E+01  0.100000000000E+01
  0.100237597307E+01  0.100324998658E+01  0.100505263297E+01  0.103861705473E+01  0.100000000000E+01  0.100366028313E+01  0.100000000000E+01
         3         6         2         1
         6         9         4         2
         9        14         8         4
        14        10         5         8
        10        17        11         5
         7        12         6         3
        12        15         9         6
        15        20        14         9
        20        16        10        14
        16        23        17        10
        13        18        12         7
        18        21        15        12
        21        26        20        15
        26        22        16        20
        22        29        23        16
        19        24        18        13
        24        27        21        18
        27        32        26        21
        32        28        22        26
        28        35        29        22
        25        30        24        19
        30        33        27        24
        33        37        32        27
        37        34        28        32
        34        40        35        28
        31        36        30        25
        36        38        33        30
        38        41        37        33
        41        39        34        37
        39        42        40        34
zone t="boundary 2 bc-2", solutiontime= 0.6000000E+02, strandid=1002, i=51, j=80, f=feblock
  0.500000000000E+01  0.500000000000E+01  0.400000000000E+01  0.425172245441E+01  0.500000000000E+01  0.427741389634E+01  0.300000000000E+01
  0.341887665662E+01  0.368116975164E+01  0.500000000000E+01  0.430894944607E+01  0.352044655687E+01  0.200000000000E+01  0.259168638257E+01
  0.301798341022E+01  0.500000000000E+01  0.435643616790E+01  0.375117520592E+01  0.271663237208E+01  0.288980181581E+01  0.100000000000E+01
  0.191939879870E+01  0.130679496696E+01  0.219385942988E+01  0.500000000000E+01  0.441735041915E+01  0.373031592783E+01  0.208456665067E+01
  0.230848460393E+01  0.190054259015E+01  0.298584217914E+01  0.000000000000E+00  0.613733212775E+00  0.151350918120E+01  0.794128609067E+00
  0.144135983281E+01  0.400000000000E+01  0.132476136006E+01  0.200000000000E+01  0.164582171489E+01  0.102008138039E+01  0.300000000000E+01
  0.000000000000E+00  0.000000000000E+00  0.701034609231E+00  0.609175469936E+00  0.100000000000E+01  0.505577837730E+00  0.000000000000E+00
  0.000000000000E+00  0.000000000000E+00
 -0.500000000000E+01 -0.500000000000E+01 -0.500000000000E+01 -0.500000000000E+01 -0.500000000000E+01 -0.500000000000E+01 -0.500000000000E+01
 -0.500000000000E+01 -0.500000000000E+01 -0.500000000000E+01 -0.500000000000E+01 -0.500000000000E+01 -0.500000000000E+01 -0.500000000000E+01
 -0.500000000000E+01 -0.500000000000E+01 -0.500000000000E+01 -0.500000000000E+01 -0.500000000000E+01 -0.500000000000E+01 -0.500000000000E+01
 -0.500000000000E+01 -0.500000000000E+01 -0.500000000000E+01 -0.500000000000E+01 -0.500000000000E+01 -0.500000000000E+01 -0.500000000000E+01
 -0.500000000000E+01 -0.500000000000E+01 -0.500000000000E+01 -0.500000000000E+01 -0.500000000000E+01 -0.500000000000E+01 -0.500000000000E+01
 -0.500000000000E+01 -0.500000000000E+01 -0.500000000000E+01 -0.500000000000E+01 -0.500000000000E+01 -0.500000000000E+01 -0.500000000000E+01
 -0.500000000000E+01 -0.500000000000E+01 -0.500000000000E+01 -0.500000000000E+01 -0.500000000000E+01 -0.500000000000E+01 -0.500000000000E+01
 -0.500000000000E+01 -0.500000000000E+01
  0.250000000000E+01  0.150000000000E+01  0.250000000000E+01  0.168388151981E+01  0.500000000000E+00  0.784980628699E+00  0.250000000000E+01
  0.172616846193E+01  0.104016062853E+01 -0.500000000000E+00 -0.103062804534E+00  0.179404976675E+00  0.250000000000E+01  0.166729536217E+01
  0.923171218453E+00 -0.150000000000E+01 -0.102255113015E+01 -0.669125930414E+00  0.135977239814E+00 -0.856266143819E+00  0.250000000000E+01
  0.158034275708E+01  0.175813852804E+01  0.774089735567E+00 -0.250000000000E+01 -0.179804978092E+01 -0.146769777443E+01 -0.223755606368E+00
 -0.164420331359E+01 -0.108875578595E+01 -0.190240885061E+01  0.250000000000E+01  0.185787993997E+01  0.110883669208E+01  0.100177177909E+01
  0.349093656766E+00 -0.250000000000E+01 -0.526785284186E+00 -0.250000000000E+01 -0.183798308008E+01 -0.145695630084E+01 -0.250000000000E+01
  0.150000000000E+01  0.500000000000E+00  0.396172271494E-01 -0.788824871575E+00 -0.250000000000E+01 -0.198405114581E+01 -0.150000000000E+01
 -0.500000000000E+00 -0.250000000000E+01
  0.100261568673E+01  0.100231881036E+01  0.100239844617E+01  0.100286661028E+01  0.100986024836E+01  0.100305411455E+01  0.100361916348E+01
  0.100277590975E+01  0.100418780018E+01  0.102073898523E+01  0.100585299311E+01  0.996618688591E+00  0.100483054462E+01  0.100346686088E+01
  0.100148438517E+01  0.977524207540E+00  0.992900187185E+00  0.100175484385E+01  0.994517543018E+00  0.100581698084E+01  0.100496736669E+01
  0.100368154525E+01  0.100496674968E+01  0.100471786450E+01  0.813911860107E+00  0.992132219852E+00  0.973027110457E+00  0.996809401795E+00
  0.101126495184E+01  0.998504543804E+00  0.993698416927E+00  0.100325251362E+01  0.100506730821E+01  0.100390177263E+01  0.100672488583E+01
  0.101179186657E+01  0.978281973330E+00  0.996623351219E+00  0.972678158874E+00  0.968810265374E+00  0.106048471881E+01  0.982300446613E+00
  0.100705384760E+01  0.100550799554E+01  0.101276579940E+01  0.999311466235E+00  0.925197618789E+00  0.110201019706E+01  0.101083224625E+01
  0.103970285261E+01  0.150953894133E+01
  0.497705730553E+00  0.499191967923E+00  0.498618899294E+00  0.495281120211E+00  0.514809991780E+00  0.507436930576E+00  0.497686879666E+00
  0.496423669747E+00  0.499202427999E+00  0.522003165514E+00  0.552731053202E+00  0.540644840943E+00  0.495406735250E+00  0.496624674142E+00
  0.501431234872E+00  0.473884493689E+00  0.551656004768E+00  0.578841507711E+00  0.530108400666E+00  0.577369491011E+00  0.494104614621E+00
  0.495199753136E+00  0.494824186498E+00  0.500003852676E+00  0.000000000000E+00  0.396957475735E+00  0.472493443892E+00  0.541533000273E+00
  0.423725980691E+00  0.591703197349E+00  0.318673183618E+00  0.496174036059E+00  0.494828697252E+00  0.494710357400E+00  0.492185749547E+00
  0.492940910093E+00  0.000000000000E+00  0.533395578390E+00  0.000000000000E+00  0.390056335164E+00  0.540969040206E+00  0.000000000000E+00
  0.493571865777E+00  0.494247808972E+00  0.488496683227E+00  0.493069414576E+00  0.000000000000E+00  0.451826482729E+00  0.479350455369E+00
  0.466767396525E+00  0.000000000000E+00
  0.000000000000E+00  0.000000000000E+00  0.000000000000E+00  0.000000000000E+00  0.000000000000E+00  0.000000000000E+00  0.000000000000E+00
  0.000000000000E+00  0.000000000000E+00  0.000000000000E+00  0.000000000000E+00  0.000000000000E+00  0.000000000000E+00  0.000000000000E+00
  0.000000000000E+00  0.000000000000E+00  0.000000000000E+00  0.000000000000E+00  0.000000000000E+00  0.000000000000E+00  0.000000000000E+00
  0.000000000000E+00  0.000000000000E+00  0.000000000000E+00  0.000000000000E+00  0.000000000000E+00  0.000000000000E+00  0.000000000000E+00
  0.000000000000E+00  0.000000000000E+00  0.000000000000E+00  0.000000000000E+00  0.000000000000E+00  0.000000000000E+00  0.000000000000E+00
  0.000000000000E+00  0.000000000000E+00  0.000000000000E+00  0.000000000000E+00  0.000000000000E+00  0.000000000000E+00  0.000000000000E+00
  0.000000000000E+00  0.000000000000E+00  0.000000000000E+00  0.000000000000E+00  0.000000000000E+00  0.000000000000E+00  0.000000000000E+00
  0.000000000000E+00  0.000000000000E+00
  0.185249962569E-02  0.808569466918E-02  0.296838385754E-02  0.297831955811E-02  0.992188578092E-02  0.454879229805E-02  0.298499032321E-02
  0.284145692389E-02  0.144545361367E-02 -0.328562330188E-01 -0.576599822302E-03  0.771100144396E-02  0.422484514822E-02  0.428477363295E-02
  0.316228676723E-02 -0.940445999929E-01 -0.231547184267E-01 -0.139453415790E-02  0.121290682146E-01  0.193779044637E-01  0.421911708872E-02
  0.534854275065E-02  0.533196546331E-02  0.840977324368E-02  0.000000000000E+00 -0.489710322577E-01  0.816998179949E-02  0.238079482281E-01
  0.452806490735E-02  0.403439895956E-01  0.368593324724E-02  0.241321638642E-02  0.408081031324E-02  0.620855929327E-02  0.367544560843E-02
  0.943626545760E-02  0.000000000000E+00  0.434111457431E-01  0.000000000000E+00 -0.584710000873E-02  0.776847386279E-01  0.000000000000E+00
  0.284798351119E-03  0.435737567895E-02  0.542021351268E-02  0.228475060258E-01  0.000000000000E+00  0.178838620025E+00  0.431905057412E-01
 -0.475956767219E-02  0.000000000000E+00
  0.716617344246E+00  0.716948973270E+00  0.716839790796E+00  0.716743650972E+00  0.725094206014E+00  0.718972777909E+00  0.717663652738E+00
  0.717073930137E+00  0.718289759989E+00  0.731803125270E+00  0.719013637068E+00  0.713102733337E+00  0.718853001509E+00  0.717837262723E+00
  0.715741887814E+00  0.684046560933E+00  0.700357771427E+00  0.708883977426E+00  0.713351290719E+00  0.710759203893E+00  0.719173357097E+00
  0.719041721192E+00  0.719172844755E+00  0.717230152891E+00  0.581365614362E+00  0.692799980092E+00  0.682760739415E+00  0.716388158320E+00
  0.712115485544E+00  0.698545689978E+00  0.703727327737E+00  0.717657273136E+00  0.719092236906E+00  0.718998964145E+00  0.722066577156E+00
  0.723224593984E+00  0.698772838093E+00  0.719973571965E+00  0.694770113481E+00  0.677238886085E+00  0.745925638907E+00  0.701643176152E+00
  0.721033271731E+00  0.721848898851E+00  0.721985560212E+00  0.733886426211E+00  0.660855441992E+00  0.730094472629E+00  0.749905436020E+00
  0.745363185299E+00  0.107824210095E+01
  0.497548271370E+00  0.498906717333E+00  0.498335187383E+00  0.495148270287E+00  0.513566886807E+00  0.506572325956E+00  0.497420846441E+00
  0.496152925308E+00  0.498852467317E+00  0.522069026201E+00  0.552520982710E+00  0.540232460987E+00  0.495039723784E+00  0.496271067683E+00
  0.501302505983E+00  0.488109744126E+00  0.555621922777E+00  0.581554009047E+00  0.529137835396E+00  0.580807898350E+00  0.493662239688E+00
  0.494495855656E+00  0.494391868857E+00  0.500222872828E+00  0.000000000000E+00  0.404520665208E+00  0.476787524845E+00  0.540395939116E+00
  0.426779091691E+00  0.599272940411E+00  0.320063124789E+00  0.495817368834E+00  0.494436930720E+00  0.494086128546E+00  0.491183655590E+00
  0.492855266668E+00  0.000000000000E+00  0.532140398779E+00  0.000000000000E+00  0.394330646535E+00  0.550738266961E+00  0.000000000000E+00
  0.492986633928E+00  0.493023053370E+00  0.489006454456E+00  0.486794654456E+00  0.000000000000E+00  0.504562802924E+00  0.472260029099E+00
  0.465939705514E+00  0.000000000000E+00
  0.100064690312E+01  0.100140649083E+01  0.100117444410E+01  0.100057285891E+01  0.100522016790E+01  0.100349709400E+01  0.100110594775E+01
  0.100112447101E+01  0.100141195083E+01  0.100370848003E+01  0.100076164091E+01  0.100173099110E+01  0.100155614049E+01  0.100150010627E+01
  0.100055343626E+01  0.979684367834E+00  0.987512030568E+00  0.990699046272E+00  0.100419727537E+01  0.989308099194E+00  0.100186606382E+01
  0.100296594516E+01  0.100186596519E+01  0.999407146547E+00  0.100000000000E+01  0.977611605310E+00  0.982362181802E+00  0.100615365369E+01
  0.985856058741E+00  0.979428658625E+00  0.991466064602E+00  0.100146291063E+01  0.100165344494E+01  0.100268629586E+01  0.100414047795E+01
  0.100071414392E+01  0.100000000000E+01  0.101137806928E+01  0.100000000000E+01  0.978658540693E+00  0.984734504839E+00  0.100000000000E+01
  0.100237597307E+01  0.100505263297E+01  0.998039018394E+00  0.102814891194E+01  0.100000000000E+01  0.927516155850E+00  0.103861705473E+01
  0.100366028313E+01  0.100000000000E+01
        28        24        19        19
        19        24        15        15
        19        15        12        12
        22        13        14        14
        13        22        23        23
        31        27        37        37
        31        29        20        20
        35        34        36        36
        34        23        22        22
         8         9        15        15
         9         6        12        12
        20        18        27        27
        27        18        17        17
        38        45        36        36
        38        30        41        41
        28        19        20        20
        30        40        41        41
        40        39        47        47
        11        10        17        17
        10        11         5         5
         8        14         7         7
        14        24        22        22
        45        46        50        50
        46        41        49        49
        41        46        38        38
        29        39        40        40
        36        24        28        28
        36        45        35        35
        20        29        30        30
        11        18        12        12
        15        24        14        14
        12        20        19        19
        12        18        20        20
        31        20        27        27
         9        12        15        15
         9         4         6         6
        24        36        34        34
        35        23        34        34
        38        36        28        28
        41        47        48        48
        29        40        30        30
        49        50        46        46
        46        45        38        38
        25        26        16        16
        26        37        27        27
        32        33        43        43
        33        21        23        23
        51        48        47        47
         1         4         3         3
         4         2         6         6
         6         5        11        11
        35        43        33        33
        43        35        44        44
         8         3         4         4
         3         8         7         7
        31        37        42        42
        17        16        26        26
        16        17        10        10
        34        22        24        24
        47        41        40        40
        15        14         8         8
        20        30        28        28
        11        17        18        18
        39        31        42        42
         4         9         8         8
        33        23        35        35
        28        30        38        38
        17        26        27        27
        41        48        49        49
        35        45        44        44
        39        29        31        31
        45        50        44        44
        21        13        23        23
        13         7        14        14
         2         5         6         6
         6        11        12        12
        25        37        26        26
        51        49        48        48
        32        21        33        33
         1         2         4         4
zone t="boundary 3 bc-3", solutiontime= 0.6000000E+02, strandid=1003, i=51, j=80, f=feblock
  0.500000000000E+01  0.500000000000E+01  0.400000000000E+01  0.425172245441E+01  0.500000000000E+01  0.427741389634E+01  0.300000000000E+01
  0.341887665662E+01  0.368116975164E+01  0.500000000000E+01  0.430894944607E+01  0.352044655687E+01  0.200000000000E+01  0.259168638257E+01
  0.301798341022E+01  0.500000000000E+01  0.435643616790E+01  0.375117520592E+01  0.271663237208E+01  0.288980181581E+01  0.100000000000E+01
  0.191939879870E+01  0.130679496696E+01  0.219385942988E+01  0.500000000000E+01  0.441735041915E+01  0.373031592783E+01  0.208456665067E+01
  0.230848460393E+01  0.190054259015E+01  0.298584217914E+01  0.000000000000E+00  0.613733212775E+00  0.151350918120E+01  0.794128609067E+00
  0.144135983281E+01  0.400000000000E+01  0.132476136006E+01  0.200000000000E+01  0.164582171489E+01  0.102008138039E+01  0.300000000000E+01
  0.000000000000E+00  0.000000000000E+00  0.701034609231E+00  0.609175469936E+00  0.100000000000E+01  0.505577837730E+00  0.000000000000E+00
  0.000000000000E+00  0.000000000000E+00
  0.000000000000E+00  0.000000000000E+00  0.000000000000E+00  0.000000000000E+00  0.000000000000E+00  0.000000000000E+00  0.000000000000E+00
  0.000000000000E+00  0.000000000000E+00  0.000000000000E+00  0.000000000000E+00  0.000000000000E+00  0.000000000000E+00  0.000000000000E+00
  0.000000000000E+00  0.000000000000E+00  0.000000000000E+00  0.000000000000E+00  0.000000000000E+00  0.000000000000E+00  0.000000000000E+00
  0.000000000000E+00  0.000000000000E+00  0.000000000000E+00  0.000000000000E+00  0.000000000000E+00  0.000000000000E+00  0.000000000000E+00
  0.000000000000E+00  0.000000000000E+00  0.000000000000E+00  0.000000000000E+00  0.000000000000E+00  0.000000000000E+00  0.000000000000E+00
  0.000000000000E+00  0.000000000000E+00  0.000000000000E+00  0.000000000000E+00  0.000000000000E+00  0.000000000000E+00  0.000000000000E+00
  0.000000000000E+00  0.000000000000E+00  0.000000000000E+00  0.000000000000E+00  0.000000000000E+00  0.000000000000E+00  0.000000000000E+00
  0.000000000000E+00  0.000000000000E+00
  0.250000000000E+01  0.150000000000E+01  0.250000000000E+01  0.168388151981E+01  0.500000000000E+00  0.784980628699E+00  0.250000000000E+01
  0.172616846193E+01  0.104016062853E+01 -0.500000000000E+00 -0.103062804534E+00  0.179404976675E+00  0.250000000000E+01  0.166729536217E+01
  0.923171218453E+00 -0.150000000000E+01 -0.102255113015E+01 -0.669125930414E+00  0.135977239814E+00 -0.856266143819E+00  0.250000000000E+01
  0.158034275708E+01  0.175813852804E+01  0.774089735567E+00 -0.250000000000E+01 -0.179804978092E+01 -0.146769777443E+01 -0.223755606368E+00
 -0.164420331359E+01 -0.108875578595E+01 -0.190240885061E+01  0.250000000000E+01  0.185787993997E+01  0.110883669208E+01  0.100177177909E+01
  0.349093656766E+00 -0.250000000000E+01 -0.526785284186E+00 -0.250000000000E+01 -0.183798308008E+01 -0.145695630084E+01 -0.250000000000E+01
  0.150000000000E+01  0.500000000000E+00  0.396172271494E-01 -0.788824871575E+00 -0.250000000000E+01 -0.198405114581E+01 -0.150000000000E+01
 -0.500000000000E+00 -0.250000000000E+01
  0.100261567622E+01  0.100231880254E+01  0.100239844389E+01  0.100286660056E+01  0.100986025889E+01  0.100305413439E+01  0.100361915880E+01
  0.100277589989E+01  0.100418779479E+01  0.102073908802E+01  0.100585303877E+01  0.996618697172E+00  0.100483055410E+01  0.100346685745E+01
  0.100148436208E+01  0.977524353930E+00  0.992900316666E+00  0.100175493606E+01  0.994517556040E+00  0.100581705286E+01  0.100496736874E+01
  0.100368155048E+01  0.100496675589E+01  0.100471788350E+01  0.813911578864E+00  0.992132243239E+00  0.973027223754E+00  0.996809430797E+00
  0.101126496661E+01  0.998504603173E+00  0.993698430546E+00  0.100325251519E+01  0.100506730975E+01  0.100390177671E+01  0.100672488694E+01
  0.101179188103E+01  0.978281817193E+00  0.996623369364E+00  0.972678028456E+00  0.968810288819E+00  0.106048478866E+01  0.982300399388E+00
  0.100705384739E+01  0.100550799674E+01  0.101276580861E+01  0.999311440418E+00  0.925197545204E+00  0.110201035078E+01  0.101083209288E+01
  0.103970285022E+01  0.150953876373E+01
  0.497705730581E+00  0.499191949056E+00  0.498618909667E+00  0.495281100067E+00  0.514809904374E+00  0.507436832036E+00  0.497686887104E+00
  0.496423683149E+00  0.499202352906E+00  0.522003153075E+00  0.552730956461E+00  0.540644738607E+00  0.495406716637E+00  0.496624670282E+00
  0.501431151819E+00  0.473884397704E+00  0.551656151234E+00  0.578841377268E+00  0.530108195784E+00  0.577369531888E+00  0.494104607453E+00
  0.495199737843E+00  0.494824172925E+00  0.500003781223E+00  0.000000000000E+00  0.396957498800E+00  0.472493623612E+00  0.541532859184E+00
  0.423726199341E+00  0.591703216268E+00  0.318673383516E+00  0.496174033518E+00  0.494828693213E+00  0.494710348375E+00  0.492185759028E+00
  0.492940818023E+00  0.000000000000E+00  0.533395456017E+00  0.000000000000E+00  0.390056675319E+00  0.540969161818E+00  0.000000000000E+00
  0.493571860461E+00  0.494247832686E+00  0.488496605891E+00  0.493069408689E+00  0.000000000000E+00  0.451826576530E+00  0.479350594055E+00
  0.466767369768E+00  0.000000000000E+00
  0.000000000000E+00  0.000000000000E+00  0.000000000000E+00  0.000000000000E+00  0.000000000000E+00  0.000000000000E+00  0.000000000000E+00
  0.000000000000E+00  0.000000000000E+00  0.000000000000E+00  0.000000000000E+00  0.000000000000E+00  0.000000000000E+00  0.000000000000E+00
  0.000000000000E+00  0.000000000000E+00  0.000000000000E+00  0.000000000000E+00  0.000000000000E+00  0.000000000000E+00  0.000000000000E+00
  0.000000000000E+00  0.000000000000E+00  0.000000000000E+00  0.000000000000E+00  0.000000000000E+00  0.000000000000E+00  0.000000000000E+00
  0.000000000000E+00  0.000000000000E+00  0.000000000000E+00  0.000000000000E+00  0.000000000000E+00  0.000000000000E+00  0.000000000000E+00
  0.000000000000E+00  0.000000000000E+00  0.000000000000E+00  0.000000000000E+00  0.000000000000E+00  0.000000000000E+00  0.000000000000E+00
  0.000000000000E+00  0.000000000000E+00  0.000000000000E+00  0.000000000000E+00  0.000000000000E+00  0.000000000000E+00  0.000000000000E+00
  0.000000000000E+00  0.000000000000E+00
  0.185250316756E-02  0.808570164932E-02  0.296838193688E-02  0.297832001365E-02  0.992197165586E-02  0.454878570073E-02  0.298499039028E-02