title="tecplot geometry and solution file"
variables = x y z rho u v w p mach temperature
zone t="boundary 1 bc-1", solutiontime= 0.3000000E+02, strandid=1001, i=42, j=30, f=feblock
  0.000000000000E+00  0.000000000000E+00  0.000000000000E+00  0.000000000000E+00  0.000000000000E+00  0.000000000000E+00  0.000000000000E+00
  0.000000000000E+00  0.000000000000E+00  0.000000000000E+00  0.000000000000E+00  0.000000000000E+00  0.000000000000E+00  0.000000000000E+00
  0.000000000000E+00  0.000000000000E+00  0.000000000000E+00  0.000000000000E+00  0.000000000000E+00  0.000000000000E+00  0.000000000000E+00
  0.000000000000E+00  0.000000000000E+00  0.000000000000E+00  0.000000000000E+00  0.000000000000E+00  0.000000000000E+00  0.000000000000E+00
  0.000000000000E+00  0.000000000000E+00  0.000000000000E+00  0.000000000000E+00  0.000000000000E+00  0.000000000000E+00  0.000000000000E+00
  0.000000000000E+00  0.000000000000E+00  0.000000000000E+00  0.000000000000E+00  0.000000000000E+00  0.000000000000E+00  0.000000000000E+00
  0.000000000000E+00  0.000000000000E+00 -0.833333333333E+00  0.000000000000E+00  0.000000000000E+00 -0.833333333333E+00 -0.166666666667E+01
  0.000000000000E+00 -0.833333333333E+00 -0.833333333333E+00  0.000000000000E+00 -0.166666666667E+01 -0.250000000000E+01 -0.833333333333E+00
 -0.166666666667E+01 -0.166666666667E+01 -0.833333333333E+00 -0.250000000000E+01 -0.333333333333E+01 -0.166666666667E+01 -0.250000000000E+01
 -0.250000000000E+01 -0.166666666667E+01 -0.333333333333E+01 -0.416666666667E+01 -0.250000000000E+01 -0.333333333333E+01 -0.333333333333E+01
 -0.250000000000E+01 -0.416666666667E+01 -0.500000000000E+01 -0.333333333333E+01 -0.416666666667E+01 -0.416666666667E+01 -0.333333333333E+01
 -0.500000000000E+01 -0.416666666667E+01 -0.500000000000E+01 -0.500000000000E+01 -0.416666666667E+01 -0.500000000000E+01 -0.500000000000E+01
  0.250000000000E+01  0.150000000000E+01  0.250000000000E+01  0.500000000000E+00 -0.150000000000E+01  0.150000000000E+01  0.250000000000E+01
 -0.500000000000E+00  0.500000000000E+00 -0.150000000000E+01 -0.250000000000E+01  0.150000000000E+01  0.250000000000E+01 -0.500000000000E+00
  0.500000000000E+00 -0.150000000000E+01 -0.250000000000E+01  0.150000000000E+01  0.250000000000E+01 -0.500000000000E+00  0.500000000000E+00
 -0.150000000000E+01 -0.250000000000E+01  0.150000000000E+01  0.250000000000E+01 -0.500000000000E+00  0.500000000000E+00 -0.150000000000E+01
 -0.250000000000E+01  0.150000000000E+01  0.250000000000E+01 -0.500000000000E+00  0.500000000000E+00 -0.150000000000E+01 -0.250000000000E+01
  0.150000000000E+01 -0.500000000000E+00  0.500000000000E+00 -0.150000000000E+01 -0.250000000000E+01 -0.500000000000E+00 -0.250000000000E+01
  0.100130535643E+01  0.100539402189E+01  0.100144940886E+01  0.999929485469E+00  0.981406524398E+00  0.100475607839E+01  0.100246596647E+01
  0.104781965237E+01  0.100011280538E+01  0.998651311132E+00  0.153626645912E+01  0.100682715875E+01  0.100200879511E+01  0.102951100909E+01
  0.100359862858E+01  0.100609212133E+01  0.150025754657E+01  0.100586897978E+01  0.100246593314E+01  0.104056135297E+01  0.100252588115E+01
  0.100700622235E+01  0.151172861076E+01  0.100682700310E+01  0.100144943508E+01  0.103650222700E+01  0.100359855944E+01  0.100609290926E+01
  0.150882803200E+01  0.100475605600E+01  0.100130532913E+01  0.104056052692E+01  0.100011302769E+01  0.998653130990E+00  0.151172318841E+01
  0.100539375669E+01  0.102951047537E+01  0.999929251192E+00  0.981408625749E+00  0.150024735164E+01  0.104781560845E+01  0.153624133347E+01
  0.498127552306E+00  0.496317662879E+00  0.498078985134E+00  0.496998474806E+00  0.467814227611E+00  0.496519858595E+00  0.496993207174E+00
  0.470087026021E+00  0.499058371265E+00  0.497782315018E+00  0.000000000000E+00  0.494597651071E+00  0.497445972033E+00  0.478429184561E+00
  0.495289094492E+00  0.480658202042E+00  0.000000000000E+00  0.495425144540E+00  0.496993250796E+00  0.468087845167E+00  0.496930578663E+00
  0.484555907493E+00  0.000000000000E+00  0.494597748597E+00  0.498079011449E+00  0.470690927912E+00  0.495289251187E+00  0.480658661859E+00
  0.000000000000E+00  0.496519892422E+00  0.498127713888E+00  0.468088220323E+00  0.499057994983E+00  0.497779624265E+00  0.000000000000E+00
  0.496317911137E+00  0.478429685349E+00  0.496998342469E+00  0.467816465586E+00  0.000000000000E+00  0.470090276431E+00  0.000000000000E+00
  0.699821834054E-03  0.805819086910E-03  0.410907062806E-03  0.357494831213E-02  0.362999314860E-01 -0.217870806228E-03  0.102963140948E-03
 -0.689482775455E-02  0.340370795517E-02  0.159707516876E-01  0.000000000000E+00 -0.254857169599E-03  0.252312521708E-07 -0.829470350278E-02
  0.150775125907E-02  0.314271190721E-02  0.000000000000E+00 -0.677358235069E-07 -0.102886596168E-03 -0.652939788403E-03  0.245380413519E-07
  0.438165959546E-06  0.000000000000E+00  0.254827657870E-03 -0.410875060536E-03 -0.310688389189E-06 -0.150757767034E-02 -0.314163569223E-02
  0.000000000000E+00  0.217751456664E-03 -0.699785276459E-03  0.652449036887E-03 -0.340355038139E-02 -0.159696750014E-01  0.000000000000E+00
 -0.805787489454E-03  0.829350834626E-02 -0.357482957950E-02 -0.362988006065E-01  0.000000000000E+00  0.689380960616E-02  0.000000000000E+00
  0.181446921020E-02 -0.126908931569E-02  0.182745430985E-02  0.895989426538E-02  0.756791473520E-01  0.901336201410E-04  0.242271490550E-02
 -0.138162682480E-01  0.555580378846E-02  0.356406285236E-01  0.000000000000E+00 -0.290567368034E-03  0.215381596934E-02 -0.696882797675E-02
  0.591632832903E-02  0.442898972665E-01  0.000000000000E+00  0.659586812872E-04  0.242267095569E-02 -0.591403293165E-02  0.531630866100E-02
  0.414570689279E-01  0.000000000000E+00 -0.290496472611E-03  0.182745010068E-02 -0.504665216414E-02  0.591615905856E-02  0.442895972394E-01
  0.000000000000E+00  0.902040714951E-04  0.181448240609E-02 -0.591408121085E-02  0.555537938651E-02  0.356404893404E-01  0.000000000000E+00
 -0.126881591005E-02 -0.696801700915E-02  0.895868105125E-02  0.756767578877E-01  0.000000000000E+00 -0.138147409921E-01  0.000000000000E+00
  0.715741462052E+00  0.719405758636E+00  0.715879100927E+00  0.716757746105E+00  0.727289262899E+00  0.718695698718E+00  0.716878020623E+00
  0.751413359460E+00  0.716348582490E+00  0.735343589788E+00  0.109730810517E+01  0.720809223203E+00  0.716430968754E+00  0.735828264678E+00
  0.720001361444E+00  0.745748177413E+00  0.107158919494E+01  0.719830089210E+00  0.716877983819E+00  0.745982956645E+00  0.718885405719E+00
  0.746097520573E+00  0.107978364401E+01  0.720809070507E+00  0.715879115538E+00  0.742092049847E+00  0.720001241416E+00  0.745748369029E+00
  0.107771282839E+01  0.718695688500E+00  0.715741418769E+00  0.745982324213E+00  0.716348750092E+00  0.735344884716E+00  0.107978130081E+01
  0.719405493493E+00  0.735827936751E+00  0.716757339354E+00  0.727289233153E+00  0.107158482050E+01  0.751410035930E+00  0.109729442601E+01
  0.497949198378E+00  0.495882634406E+00  0.497888318322E+00  0.496216638870E+00  0.466616763501E+00  0.496169943444E+00  0.496711014465E+00
  0.469409879074E+00  0.498409862756E+00  0.491778839185E+00  0.000000000000E+00  0.494032429133E+00  0.497203941769E+00  0.478401161632E+00
  0.494243666343E+00  0.473849294213E+00  0.000000000000E+00  0.494959586387E+00  0.496711062326E+00  0.467269917292E+00  0.495991825622E+00
  0.477509345580E+00  0.000000000000E+00  0.494032540632E+00  0.497888346023E+00  0.470167928581E+00  0.494243844310E+00  0.473849834454E+00
  0.000000000000E+00  0.496169975206E+00  0.497949368163E+00  0.467270304259E+00  0.498409478327E+00  0.491776168526E+00  0.000000000000E+00
  0.495882907674E+00  0.478401612216E+00  0.496216566778E+00  0.466618976905E+00  0.000000000000E+00  0.469413193935E+00  0.000000000000E+00
  0.100073173527E+01  0.100176452233E+01  0.100078020161E+01  0.100353160811E+01  0.103749561751E+01  0.100141118809E+01  0.100116040089E+01
  0.100396924305E+01  0.100277489708E+01  0.103087135042E+01  0.999977144668E+00  0.100229011873E+01  0.100099256728E+01  0.100062997040E+01
  0.100438748850E+01  0.103772549873E+01  0.999978221298E+00  0.100188209911E+01  0.100116038278E+01  0.100366608497E+01  0.100390382625E+01
  0.103726919022E+01  0.999979156880E+00  0.100229006135E+01  0.100078019583E+01  0.100234118434E+01  0.100438739026E+01  0.103772495266E+01
  0.999980069132E+00  0.100141119617E+01  0.100073170204E+01  0.100366603084E+01  0.100277490879E+01  0.103087128719E+01  0.999980573641E+00
  0.100176441736E+01  0.100063004321E+01  0.100353127374E+01  0.103749335363E+01  0.999980934514E+00  0.100396867714E+01  0.999981033547E+00
         3         6         2         1
         6         9         4         2
         9        14         8         4
        14        10         5         8
        10        17        11         5
         7        12         6         3
        12        15         9         6
        15        20        14         9
        20        16        10        14
        16        23        17        10
        13        18        12         7
        18        21        15        12
        21        26        20        15
        26        22        16        20
        22        29        23        16
        19        24        18        13
        24        27        21        18
        27        32        26        21
        32        28        22        26
        28        35        29        22
        25        30        24        19
        30        33        27        24
        33        37        32        27
        37        34        28        32
        34        40        35        28
        31        36        30        25
        36        38        33        30
        38        41        37        33
        41        39        34        37
        39        42        40        34
zone t="boundary 2 bc-2", solutiontime= 0.3000000E+02, strandid=1002, i=51, j=80, f=feblock
  0.500000000000E+01  0.500000000000E+01  0.400000000000E+01  0.425172245441E+01  0.500000000000E+01  0.427741389634E+01  0.300000000000E+01
  0.341887665662E+01  0.368116975164E+01  0.500000000000E+01  0.430894944607E+01  0.352044655687E+01  0.200000000000E+01  0.259168638257E+01
  0.301798341022E+01  0.500000000000E+01  0.435643616790E+01  0.375117520592E+01  0.271663237208E+01  0.288980181581E+01  0.100000000000E+01
  0.191939879870E+01  0.130679496696E+01  0.219385942988E+01  0.500000000000E+01  0.441735041915E+01  0.373031592783E+01  0.208456665067E+01
  0.230848460393E+01  0.190054259015E+01  0.298584217914E+01  0.000000000000E+00  0.613733212775E+00  0.151350918120E+01  0.794128609067E+00
  0.144135983281E+01  0.400000000000E+01  0.132476136006E+01  0.200000000000E+01  0.164582171489E+01  0.102008138039E+01  0.300000000000E+01
  0.000000000000E+00  0.000000000000E+00  0.701034609231E+00  0.609175469936E+00  0.100000000000E+01  0.505577837730E+00  0.000000000000E+00
  0.000000000000E+00  0.000000000000E+00
 -0.500000000000E+01 -0.500000000000E+01 -0.500000000000E+01 -0.500000000000E+01 -0.500000000000E+01 -0.500000000000E+01 -0.500000000000E+01
 -0.500000000000E+01 -0.500000000000E+01 -0.500000000000E+01 -0.500000000000E+01 -0.500000000000E+01 -0.500000000000E+01 -0.500000000000E+01
 -0.500000000000E+01 -0.500000000000E+01 -0.500000000000E+01 -0.500000000000E+01 -0.500000000000E+01 -0.500000000000E+01 -0.500000000000E+01
 -0.500000000000E+01 -0.500000000000E+01 -0.500000000000E+01 -0.500000000000E+01 -0.500000000000E+01 -0.500000000000E+01 -0.500000000000E+01
 -0.500000000000E+01 -0.500000000000E+01 -0.500000000000E+01 -0.500000000000E+01 -0.500000000000E+01 -0.500000000000E+01 -0.500000000000E+01
 -0.500000000000E+01 -0.500000000000E+01 -0.500000000000E+01 -0.500000000000E+01 -0.500000000000E+01 -0.500000000000E+01 -0.500000000000E+01
 -0.500000000000E+01 -0.500000000000E+01 -0.500000000000E+01 -0.500000000000E+01 -0.500000000000E+01 -0.500000000000E+01 -0.500000000000E+01
 -0.500000000000E+01 -0.500000000000E+01
  0.250000000000E+01  0.150000000000E+01  0.250000000000E+01  0.168388151981E+01  0.500000000000E+00  0.784980628699E+00  0.250000000000E+01
  0.172616846193E+01  0.104016062853E+01 -0.500000000000E+00 -0.103062804534E+00  0.179404976675E+00  0.250000000000E+01  0.166729536217E+01
  0.923171218453E+00 -0.150000000000E+01 -0.102255113015E+01 -0.669125930414E+00  0.135977239814E+00 -0.856266143819E+00  0.250000000000E+01
  0.158034275708E+01  0.175813852804E+01  0.774089735567E+00 -0.250000000000E+01 -0.179804978092E+01 -0.146769777443E+01 -0.223755606368E+00
 -0.164420331359E+01 -0.108875578595E+01 -0.190240885061E+01  0.250000000000E+01  0.185787993997E+01  0.110883669208E+01  0.100177177909E+01
  0.349093656766E+00 -0.250000000000E+01 -0.526785284186E+00 -0.250000000000E+01 -0.183798308008E+01 -0.145695630084E+01 -0.250000000000E+01
  0.150000000000E+01  0.500000000000E+00  0.396172271494E-01 -0.788824871575E+00 -0.250000000000E+01 -0.198405114581E+01 -0.150000000000E+01
 -0.500000000000E+00 -0.250000000000E+01
  0.100404186767E+01  0.100199875323E+01  0.100557390026E+01  0.100548444635E+01  0.101245610836E+01  0.100366954451E+01  0.100647611751E+01
  0.100588122222E+01  0.100701957475E+01  0.102920183428E+01  0.101487709819E+01  0.100270368232E+01  0.100570568269E+01  0.100647105795E+01
  0.100535060477E+01  0.993582691630E+00  0.100953077107E+01  0.102014458958E+01  0.998522248446E+00  0.102758841498E+01  0.100419348763E+01
  0.100550165535E+01  0.100599360361E+01  0.101146697516E+01  0.811387608813E+00  0.101063645288E+01  0.994240622404E+00  0.100337372333E+01
  0.102796578622E+01  0.103160879994E+01  0.101141750211E+01  0.100130532913E+01  0.100447494691E+01  0.100603413695E+01  0.100551725245E+01
  0.101808539663E+01  0.979839066411E+00  0.100322581213E+01  0.985072439819E+00  0.986321569079E+00  0.110445078415E+01  0.997572308506E+00
  0.100539375669E+01  0.999929251192E+00  0.102118972134E+01  0.987993586939E+00  0.906964119916E+00  0.120883571242E+01  0.981408625749E+00
  0.104781560845E+01  0.153624133347E+01
  0.494731324665E+00  0.498859934944E+00  0.491028911724E+00  0.487409985085E+00  0.514734584938E+00  0.503326121333E+00  0.491070114248E+00
  0.486567155046E+00  0.491274569673E+00  0.514575986157E+00  0.548045730673E+00  0.530373099379E+00  0.492309347955E+00  0.487125803407E+00
  0.490856153427E+00  0.467395884788E+00  0.537116574086E+00  0.562243830234E+00  0.516693520747E+00  0.555876883605E+00  0.493812086016E+00
  0.486937294606E+00  0.491334198558E+00  0.486673654193E+00  0.000000000000E+00  0.394686517449E+00  0.457114711105E+00  0.524056157810E+00
  0.413507765091E+00  0.564003659497E+00  0.313284146168E+00  0.498127713888E+00  0.494938346114E+00  0.484236449015E+00  0.488398621429E+00
  0.480320743365E+00  0.000000000000E+00  0.504630404779E+00  0.000000000000E+00  0.379851004529E+00  0.508938098363E+00  0.000000000000E+00
  0.496317911137E+00  0.496998342469E+00  0.480274912073E+00  0.467754434686E+00  0.000000000000E+00  0.416493075338E+00  0.467816465586E+00
  0.470090276431E+00  0.000000000000E+00
  0.138519790063E-02 -0.197936579720E-02  0.103611829092E-02  0.132889471155E-02 -0.424376096398E-02 -0.355297813474E-02 -0.778004556969E-04
  0.624919859671E-03  0.314693023624E-03 -0.141612568669E-01 -0.636445397873E-02 -0.103963525243E-02 -0.144171191014E-02 -0.519213288588E-03
  0.160796174478E-02 -0.476429115826E-02 -0.148392577227E-01 -0.225844546781E-01 -0.460401714202E-02 -0.282401154494E-01 -0.136727145116E-02
 -0.368636621073E-02 -0.185944071898E-02  0.391644864704E-02  0.000000000000E+00 -0.871658286955E-02 -0.473729717952E-03 -0.829184306273E-02
 -0.268500945826E-01 -0.265624700671E-01 -0.126758800057E-01 -0.699785276459E-03 -0.106018100201E-02 -0.300378043785E-02 -0.437826009774E-02
  0.199181018757E-02  0.000000000000E+00 -0.226975789857E-01  0.000000000000E+00  0.620929647720E-02 -0.230737968795E-01  0.000000000000E+00
 -0.805787489454E-03 -0.357482957950E-02  0.337633161407E-02 -0.454170583962E-01  0.000000000000E+00 -0.148128280828E+00 -0.362988006065E-01
  0.689380960616E-02  0.000000000000E+00
  0.365086892564E-02  0.252065123977E-01  0.473044787821E-02  0.132915448239E-01  0.497255005464E-01  0.352891374578E-01  0.539126482188E-02
  0.119210323409E-01  0.215516639776E-01  0.129348124376E-01  0.482147905453E-01  0.490811531609E-01  0.537259577507E-02  0.115861366794E-01
  0.207720429842E-01 -0.692456026617E-01  0.119343766456E-01  0.414909335025E-01  0.484244631575E-01  0.583275376534E-01  0.392720335346E-02
  0.982160628891E-02  0.629665133560E-02  0.203881895187E-01  0.000000000000E+00 -0.480663732667E-01  0.207753758797E-01  0.648031019249E-01
  0.785579165954E-02  0.835294070104E-01  0.353251891884E-02  0.181448240609E-02  0.318110338804E-02  0.110733381634E-01  0.661792689355E-02
  0.152530934329E-01  0.000000000000E+00  0.751175740817E-01  0.000000000000E+00 -0.701245325564E-02  0.124418987184E+00  0.000000000000E+00
 -0.126881591005E-02  0.895868105125E-02  0.544519919796E-03  0.315173842952E-01  0.000000000000E+00  0.180749558206E+00  0.756767578877E-01
 -0.138147409921E-01  0.000000000000E+00
  0.717878590731E+00  0.717671448188E+00  0.719663086893E+00  0.719724405784E+00  0.726414753649E+00  0.720828649552E+00  0.720533879898E+00
  0.720330569153E+00  0.722296825134E+00  0.733376719529E+00  0.723407231358E+00  0.717904758538E+00  0.719893639037E+00  0.720763112483E+00
  0.720791272936E+00  0.694665437980E+00  0.708756530610E+00  0.719739182909E+00  0.717664912659E+00  0.724242638070E+00  0.718332196733E+00
  0.720829040474E+00  0.720306173110E+00  0.724441315866E+00  0.579552289042E+00  0.707116232482E+00  0.696728272289E+00  0.722068043688E+00
  0.721346179966E+00  0.721530493477E+00  0.714733091818E+00  0.715741418769E+00  0.718517037948E+00  0.721118655985E+00  0.720960514765E+00
  0.729999681788E+00  0.699872651836E+00  0.726984428389E+00  0.703610433807E+00  0.689440118768E+00  0.777033616016E+00  0.712538930701E+00
  0.719405493493E+00  0.716757339354E+00  0.729549719930E+00  0.727735994355E+00  0.647819526682E+00  0.806977684745E+00  0.727289233153E+00
  0.751410035930E+00  0.109729442601E+01
  0.494503453709E+00  0.498818401971E+00  0.490576282593E+00  0.487077423081E+00  0.515996586206E+00  0.503199710486E+00  0.490546517638E+00
  0.486090197840E+00  0.490725868039E+00  0.515553417561E+00  0.550771345135E+00  0.532013772185E+00  0.491816471744E+00  0.486636344516E+00
  0.490382633819E+00  0.477608135768E+00  0.542111423764E+00  0.567716455856E+00  0.517372179418E+00  0.563395693943E+00  0.493468152524E+00
  0.486166515007E+00  0.490784441713E+00  0.486455219842E+00  0.000000000000E+00  0.401829305106E+00  0.461980373633E+00  0.526144355549E+00
  0.418146784682E+00  0.576806662837E+00  0.315246630679E+00  0.497949368163E+00  0.494593119663E+00  0.483524322683E+00  0.487536065341E+00
  0.479645854139E+00  0.000000000000E+00  0.507031131951E+00  0.000000000000E+00  0.384098173107E+00  0.528420514644E+00  0.000000000000E+00
  0.495882907674E+00  0.496216566778E+00  0.480244791764E+00  0.463827072436E+00  0.000000000000E+00  0.494005050228E+00  0.466618976905E+00
  0.469413193935E+00  0.000000000000E+00
  0.100098418143E+01  0.100273580603E+01  0.100194358802E+01  0.100211810511E+01  0.100446888187E+01  0.100547049066E+01  0.100225669969E+01
  0.100256648055E+01  0.100416673175E+01  0.997595780673E+00  0.997923911879E+00  0.100235660811E+01  0.100213324037E+01  0.100258060031E+01
  0.100373718117E+01  0.978812957759E+00  0.982891429655E+00  0.987737293679E+00  0.100621781767E+01  0.986717715493E+00  0.100146544248E+01
  0.100363898089E+01  0.100242053104E+01  0.100271968054E+01  0.999982247506E+00  0.979543853439E+00  0.981069933398E+00  0.100749624757E+01
  0.982410762585E+00  0.979191618880E+00  0.989330643836E+00  0.100073170204E+01  0.100144245132E+01  0.100351079680E+01  0.100380646698E+01
  0.100384462628E+01  0.999982289091E+00  0.101450559529E+01  0.999981897282E+00  0.978601904830E+00  0.984966535432E+00  0.999982151144E+00
  0.100176441736E+01  0.100353127374E+01  0.100017615391E+01  0.103121154385E+01  0.999981495893E+00  0.934592473599E+00  0.103749335363E+01
  0.100396867714E+01  0.999981033547E+00
        28        24        19        19
        19        24        15        15
        19        15        12        12
        22        13        14        14
        13        22        23        23
        31        27        37        37
        31        29        20        20
        35        34        36        36
        34        23        22        22
         8         9        15        15
         9         6        12        12
        20        18        27        27
        27        18        17        17
        38        45        36        36
        38        30        41        41
        28        19        20        20
        30        40        41        41
        40        39        47        47
        11        10        17        17
        10        11         5         5
         8        14         7         7
        14        24        22        22
        45        46        50        50
        46        41        49        49
        41        46        38        38
        29        39        40        40
        36        24        28        28
        36        45        35        35
        20        29        30        30
        11        18        12        12
        15        24        14        14
        12        20        19        19
        12        18        20        20
        31        20        27        27
         9        12        15        15
         9         4         6         6
        24        36        34        34
        35        23        34        34
        38        36        28        28
        41        47        48        48
        29        40        30        30
        49        50        46        46
        46        45        38        38
        25        26        16        16
        26        37        27        27
        32        33        43        43
        33        21        23        23
        51        48        47        47
         1         4         3         3
         4         2         6         6
         6         5        11        11
        35        43        33        33
        43        35        44        44
         8         3         4         4
         3         8         7         7
        31        37        42        42
        17        16        26        26
        16        17        10        10
        34        22        24        24
        47        41        40        40
        15        14         8         8
        20        30        28        28
        11        17        18        18
        39        31        42        42
         4         9         8         8
        33        23        35        35
        28        30        38        38
        17        26        27        27
        41        48        49        49
        35        45        44        44
        39        29        31        31
        45        50        44        44
        21        13        23        23
        13         7        14        14
         2         5         6         6
         6        11        12        12
        25        37        26        26
        51        49        48        48
        32        21        33        33
         1         2         4         4
zone t="boundary 3 bc-3", solutiontime= 0.3000000E+02, strandid=1003, i=51, j=80, f=feblock
  0.500000000000E+01  0.500000000000E+01  0.400000000000E+01  0.425172245441E+01  0.500000000000E+01  0.427741389634E+01  0.300000000000E+01
  0.341887665662E+01  0.368116975164E+01  0.500000000000E+01  0.430894944607E+01  0.352044655687E+01  0.200000000000E+01  0.259168638257E+01
  0.301798341022E+01  0.500000000000E+01  0.435643616790E+01  0.375117520592E+01  0.271663237208E+01  0.288980181581E+01  0.100000000000E+01
  0.191939879870E+01  0.130679496696E+01  0.219385942988E+01  0.500000000000E+01  0.441735041915E+01  0.373031592783E+01  0.208456665067E+01
  0.230848460393E+01  0.190054259015E+01  0.298584217914E+01  0.000000000000E+00  0.613733212775E+00  0.151350918120E+01  0.794128609067E+00
  0.144135983281E+01  0.400000000000E+01  0.132476136006E+01  0.200000000000E+01  0.164582171489E+01  0.102008138039E+01  0.300000000000E+01
  0.000000000000E+00  0.000000000000E+00  0.701034609231E+00  0.609175469936E+00  0.100000000000E+01  0.505577837730E+00  0.000000000000E+00
  0.000000000000E+00  0.000000000000E+00
  0.000000000000E+00  0.000000000000E+00  0.000000000000E+00  0.000000000000E+00  0.000000000000E+00  0.000000000000E+00  0.000000000000E+00
  0.000000000000E+00  0.000000000000E+00  0.000000000000E+00  0.000000000000E+00  0.000000000000E+00  0.000000000000E+00  0.000000000000E+00
  0.000000000000E+00  0.000000000000E+00  0.000000000000E+00  0.000000000000E+00  0.000000000000E+00  0.000000000000E+00  0.000000000000E+00
  0.000000000000E+00  0.000000000000E+00  0.000000000000E+00  0.000000000000E+00  0.000000000000E+00  0.000000000000E+00  0.000000000000E+00
  0.000000000000E+00  0.000000000000E+00  0.000000000000E+00  0.000000000000E+00  0.000000000000E+00  0.000000000000E+00  0.000000000000E+00
  0.000000000000E+00  0.000000000000E+00  0.000000000000E+00  0.000000000000E+00  0.000000000000E+00  0.000000000000E+00  0.000000000000E+00
  0.000000000000E+00  0.000000000000E+00  0.000000000000E+00  0.000000000000E+00  0.000000000000E+00  0.000000000000E+00  0.000000000000E+00
  0.000000000000E+00  0.000000000000E+00
  0.250000000000E+01  0.150000000000E+01  0.250000000000E+01  0.168388151981E+01  0.500000000000E+00  0.784980628699E+00  0.250000000000E+01
  0.172616846193E+01  0.104016062853E+01 -0.500000000000E+00 -0.103062804534E+00  0.179404976675E+00  0.250000000000E+01  0.166729536217E+01
  0.923171218453E+00 -0.150000000000E+01 -0.102255113015E+01 -0.669125930414E+00  0.135977239814E+00 -0.856266143819E+00  0.250000000000E+01
  0.158034275708E+01  0.175813852804E+01  0.774089735567E+00 -0.250000000000E+01 -0.179804978092E+01 -0.146769777443E+01 -0.223755606368E+00
 -0.164420331359E+01 -0.108875578595E+01 -0.190240885061E+01  0.250000000000E+01  0.185787993997E+01  0.110883669208E+01  0.100177177909E+01
  0.349093656766E+00 -0.250000000000E+01 -0.526785284186E+00 -0.250000000000E+01 -0.183798308008E+01 -0.145695630084E+01 -0.250000000000E+01
  0.150000000000E+01  0.500000000000E+00  0.396172271494E-01 -0.788824871575E+00 -0.250000000000E+01 -0.198405114581E+01 -0.150000000000E+01
 -0.500000000000E+00 -0.250000000000E+01
  0.100404189687E+01  0.100199826390E+01  0.100557467893E+01  0.100548496627E+01  0.101245724784E+01  0.100366996439E+01  0.100647681431E+01
  0.100588187994E+01  0.100702013890E+01  0.102920575109E+01  0.101488004876E+01  0.100270504257E+01  0.100570617565E+01  0.100647178299E+01
  0.100535122575E+01  0.993586209651E+00  0.100953580712E+01  0.102014900396E+01  0.998523324964E+00  0.102759348485E+01  0.100419378159E+01
  0.100550239458E+01  0.100599408982E+01  0.101146824029E+01  0.811395481701E+00  0.101064110083E+01  0.994245400326E+00  0.100337522603E+01
  0.102797201036E+01  0.103161511690E+01  0.101142351517E+01  0.100130535643E+01  0.100447519477E+01  0.100603487562E+01  0.100551762227E+01
  0.101808655041E+01  0.979850269593E+00  0.100322668862E+01  0.985086614230E+00  0.986327592021E+00  0.110445961786E+01  0.997582422992E+00
  0.100539402189E+01  0.999929485469E+00  0.102119129746E+01  0.987992518005E+00  0.906976065531E+00  0.120885091805E+01  0.981406524398E+00
  0.104781965237E+01  0.153626645912E+01
  0.494730069207E+00  0.498859456482E+00  0.491026657962E+00  0.487407526717E+00  0.514734320708E+00  0.503323497258E+00  0.491068822015E+00
  0.486565246808E+00  0.491271165805E+00  0.514573311735E+00  0.548044888054E+00  0.530370703274E+00  0.492308250518E+00  0.487124117408E+00
  0.490851735703E+00  0.467390594365E+00  0.537111964154E+00  0.562242701360E+00  0.516690185533E+00  0.555875357718E+00  0.493811649101E+00
  0.486936237894E+00  0.491333311775E+00  0.486669354413E+00  0.000000000000E+00  0.394679701568E+00  0.457108342295E+00  0.524053483832E+00
  0.413502623081E+00  0.564003358039E+00  0.313277939120E+00  0.498127552306E+00  0.494938035754E+00  0.484235284826E+00  0.488398312402E+00
  0.480316621450E+00  0.000000000000E+00  0.504627316214E+00  0.000000000000E+00  0.379848159781E+00  0.508936799204E+00  0.000000000000E+00
  0.496317662879E+00  0.496998474806E+00  0.480271009637E+00  0.467750219496E+00  0.000000000000E+00  0.416491817266E+00  0.467814227611E+00
  0.470087026021E+00  0.000000000000E+00
 -0.138551129321E-02  0.197968022818E-02 -0.103677025798E-02 -0.132923198778E-02  0.424338218326E-02  0.355305579416E-02  0.773598887249E-04
 -0.625312586915E-03 -0.314875526503E-03  0.141629855344E-01  0.636501259236E-02  0.103877185546E-02  0.144152803956E-02  0.518811853047E-03
 -0.160821742564E-02  0.476928472795E-02  0.148438187116E-01  0.225875108632E-01  0.460361454407E-02  0.282431274275E-01  0.136721573865E-02
  0.368616858646E-02  0.185931610919E-02 -0.391700326415E-02  0.000000000000E+00  0.872197439537E-02  0.478392473564E-03  0.829128317655E-02
  0.268549941782E-01  0.265650445410E-01  0.126815593442E-01  0.699821834054E-03  0.106016344487E-02  0.300351743184E-02  0.437816404180E-02
 -0.199227662054E-02  0.000000000000E+00  0.226980517152E-01  0.000000000000E+00 -0.620538292326E-02  0.230729151905E-01  0.000000000000E+00
  0.805819086910E-03  0.357494831213E-02 -0.337697577257E-02  0.454194315368E-01  0.000000000000E+00  0.148135807358E+00  0.362999314860E-01
 -0.689482775455E-02  0.000000000000E+00
  0.365130254844E-02  0.252102158865E-01  0.473086718307E-02  0.132934765156E-01  0.497348340775E-01  0.352954406229E-01  0.539188646206E-02