# vtk DataFile Version 2.0
FUN3D:global_image_vtk
ASCII
DATASET UNSTRUCTURED_GRID
POINTS 357 double
    0.5000000000000000E+01    0.0000000000000000E+00    0.2500000000000000E+01
    0.5000000000000000E+01    0.0000000000000000E+00    0.1500000000000000E+01
    0.5000000000000000E+01    0.0000000000000000E+00    0.5000000000000000E+00
    0.5000000000000000E+01    0.0000000000000000E+00   -0.5000000000000000E+00
    0.5000000000000000E+01    0.0000000000000000E+00   -0.1500000000000000E+01
    0.5000000000000000E+01    0.0000000000000000E+00   -0.2500000000000000E+01
    0.4000000000000000E+01    0.0000000000000000E+00   -0.2500000000000000E+01
    0.3000000000000000E+01    0.0000000000000000E+00   -0.2500000000000000E+01
    0.2000000000000000E+01    0.0000000000000000E+00   -0.2500000000000000E+01
    0.9999999999999998E+00    0.0000000000000000E+00   -0.2500000000000000E+01
    0.0000000000000000E+00    0.0000000000000000E+00   -0.2500000000000000E+01
    0.0000000000000000E+00    0.0000000000000000E+00   -0.1500000000000000E+01
    0.0000000000000000E+00    0.0000000000000000E+00   -0.5000000000000000E+00
    0.0000000000000000E+00    0.0000000000000000E+00    0.5000000000000000E+00
    0.0000000000000000E+00    0.0000000000000000E+00    0.1500000000000000E+01
    0.0000000000000000E+00    0.0000000000000000E+00    0.2500000000000000E+01
    0.1000000000000000E+01    0.0000000000000000E+00    0.2500000000000000E+01
    0.2000000000000000E+01    0.0000000000000000E+00    0.2500000000000000E+01
    0.3000000000000000E+01    0.0000000000000000E+00    0.2500000000000000E+01
    0.4000000000000000E+01    0.0000000000000000E+00    0.2500000000000000E+01
    0.4251722454414101E+01    0.0000000000000000E+00    0.1683881519811194E+01
    0.6137332127746504E+00    0.0000000000000000E+00    0.1857879939968904E+01
    0.5055778377301318E+00    0.0000000000000000E+00   -0.1984051145810370E+01
    0.4417350419147004E+01    0.0000000000000000E+00   -0.1798049780917599E+01
    0.4277413896341787E+01    0.0000000000000000E+00    0.7849806286986014E+00
    0.4308949446070184E+01    0.0000000000000000E+00   -0.1030628045339280E+00
    0.3520446556869569E+01    0.0000000000000000E+00    0.1794049766750259E+00
    0.2591686382569276E+01    0.0000000000000000E+00    0.1667295362171870E+01
    0.1306794966956192E+01    0.0000000000000000E+00    0.1758138528035871E+01
    0.7010346092308208E+00    0.0000000000000000E+00    0.3961722714940701E-01
    0.2308484603929350E+01    0.0000000000000000E+00   -0.1644203313594280E+01
    0.2985842179142563E+01    0.0000000000000000E+00   -0.1902408850608312E+01
    0.7941286090671454E+00    0.0000000000000000E+00    0.1001771779085911E+01
    0.1020081380390785E+01    0.0000000000000000E+00   -0.1456956300840256E+01
    0.4356436167904402E+01    0.0000000000000000E+00   -0.1022551130153989E+01
    0.3730315927830617E+01    0.0000000000000000E+00   -0.1467697774434008E+01
    0.2084566650673803E+01    0.0000000000000000E+00   -0.2237556063676878E+00
    0.1900542590153839E+01    0.0000000000000000E+00   -0.1088755785946356E+01
    0.1324761360056765E+01    0.0000000000000000E+00   -0.5267852841860601E+00
    0.3681169751640886E+01    0.0000000000000000E+00    0.1040160628527462E+01
    0.3418876656618056E+01    0.0000000000000000E+00    0.1726168461930342E+01
    0.3751175205920376E+01    0.0000000000000000E+00   -0.6691259304140329E+00
    0.2889801815813465E+01    0.0000000000000000E+00   -0.8562661438192326E+00
    0.3017983410224082E+01    0.0000000000000000E+00    0.9231712184526961E+00
    0.1645821714894795E+01    0.0000000000000000E+00   -0.1837983080076178E+01
    0.1513509181197389E+01    0.0000000000000000E+00    0.1108836692078749E+01
    0.1919398798697967E+01    0.0000000000000000E+00    0.1580342757081665E+01
    0.2193859429875553E+01    0.0000000000000000E+00    0.7740897355665203E+00
    0.6091754699356742E+00    0.0000000000000000E+00   -0.7888248715753817E+00
    0.1441359832811715E+01    0.0000000000000000E+00    0.3490936567660688E+00
    0.2716632372076206E+01    0.0000000000000000E+00    0.1359772398136161E+00
    0.5000000000000000E+01   -0.8333333333333334E+00    0.2500000000000000E+01
    0.5000000000000000E+01   -0.8333333333333334E+00    0.1500000000000000E+01
    0.5000000000000000E+01   -0.8333333333333334E+00    0.5000000000000000E+00
    0.5000000000000000E+01   -0.8333333333333334E+00   -0.5000000000000000E+00
    0.5000000000000000E+01   -0.8333333333333334E+00   -0.1500000000000000E+01
    0.5000000000000000E+01   -0.8333333333333334E+00   -0.2500000000000000E+01
    0.4000000000000000E+01   -0.8333333333333334E+00   -0.2500000000000000E+01
    0.3000000000000000E+01   -0.8333333333333334E+00   -0.2500000000000000E+01
    0.2000000000000000E+01   -0.8333333333333334E+00   -0.2500000000000000E+01
    0.9999999999999998E+00   -0.8333333333333334E+00   -0.2500000000000000E+01
    0.0000000000000000E+00   -0.8333333333333334E+00   -0.2500000000000000E+01
    0.0000000000000000E+00   -0.8333333333333334E+00   -0.1500000000000000E+01
    0.0000000000000000E+00   -0.8333333333333334E+00   -0.5000000000000000E+00
    0.0000000000000000E+00   -0.8333333333333334E+00    0.5000000000000000E+00
    0.0000000000000000E+00   -0.8333333333333334E+00    0.1500000000000000E+01
    0.0000000000000000E+00   -0.8333333333333334E+00    0.2500000000000000E+01
    0.1000000000000000E+01   -0.8333333333333334E+00    0.2500000000000000E+01
    0.2000000000000000E+01   -0.8333333333333334E+00    0.2500000000000000E+01
    0.3000000000000000E+01   -0.8333333333333334E+00    0.2500000000000000E+01
    0.4000000000000000E+01   -0.8333333333333334E+00    0.2500000000000000E+01
    0.4251722454414101E+01   -0.8333333333333334E+00    0.1683881519811194E+01
    0.6137332127746504E+00   -0.8333333333333334E+00    0.1857879939968904E+01
    0.5055778377301318E+00   -0.8333333333333334E+00   -0.1984051145810370E+01
    0.4417350419147004E+01   -0.8333333333333334E+00   -0.1798049780917599E+01
    0.4277413896341787E+01   -0.8333333333333334E+00    0.7849806286986014E+00
    0.4308949446070184E+01   -0.8333333333333334E+00   -0.1030628045339280E+00
    0.3520446556869569E+01   -0.8333333333333334E+00    0.1794049766750259E+00
    0.2591686382569276E+01   -0.8333333333333334E+00    0.1667295362171870E+01
    0.1306794966956192E+01   -0.8333333333333334E+00    0.1758138528035871E+01
    0.7010346092308208E+00   -0.8333333333333334E+00    0.3961722714940701E-01
    0.2308484603929350E+01   -0.8333333333333334E+00   -0.1644203313594280E+01
    0.2985842179142563E+01   -0.8333333333333334E+00   -0.1902408850608312E+01
    0.7941286090671454E+00   -0.8333333333333334E+00    0.1001771779085911E+01
    0.1020081380390785E+01   -0.8333333333333334E+00   -0.1456956300840256E+01
    0.4356436167904402E+01   -0.8333333333333334E+00   -0.1022551130153989E+01
    0.3730315927830617E+01   -0.8333333333333334E+00   -0.1467697774434008E+01
    0.2084566650673803E+01   -0.8333333333333334E+00   -0.2237556063676878E+00
    0.1900542590153839E+01   -0.8333333333333334E+00   -0.1088755785946356E+01
    0.1324761360056765E+01   -0.8333333333333334E+00   -0.5267852841860601E+00
    0.3681169751640886E+01   -0.8333333333333334E+00    0.1040160628527462E+01
    0.3418876656618056E+01   -0.8333333333333334E+00    0.1726168461930342E+01
    0.3751175205920376E+01   -0.8333333333333334E+00   -0.6691259304140329E+00
    0.2889801815813465E+01   -0.8333333333333334E+00   -0.8562661438192326E+00
    0.3017983410224082E+01   -0.8333333333333334E+00    0.9231712184526961E+00
    0.1645821714894795E+01   -0.8333333333333334E+00   -0.1837983080076178E+01
    0.1513509181197389E+01   -0.8333333333333334E+00    0.1108836692078749E+01
    0.1919398798697967E+01   -0.8333333333333334E+00    0.1580342757081665E+01
    0.2193859429875553E+01   -0.8333333333333334E+00    0.7740897355665203E+00
    0.6091754699356742E+00   -0.8333333333333334E+00   -0.7888248715753817E+00
    0.1441359832811715E+01   -0.8333333333333334E+00    0.3490936567660688E+00
    0.2716632372076206E+01   -0.8333333333333334E+00    0.1359772398136161E+00
    0.5000000000000000E+01   -0.1666666666666667E+01    0.2500000000000000E+01
    0.5000000000000000E+01   -0.1666666666666667E+01    0.1500000000000000E+01
    0.5000000000000000E+01   -0.1666666666666667E+01    0.5000000000000000E+00
    0.5000000000000000E+01   -0.1666666666666667E+01   -0.5000000000000000E+00
    0.5000000000000000E+01   -0.1666666666666667E+01   -0.1500000000000000E+01
    0.5000000000000000E+01   -0.1666666666666667E+01   -0.2500000000000000E+01
    0.4000000000000000E+01   -0.1666666666666667E+01   -0.2500000000000000E+01
    0.3000000000000000E+01   -0.1666666666666667E+01   -0.2500000000000000E+01
    0.2000000000000000E+01   -0.1666666666666667E+01   -0.2500000000000000E+01
    0.9999999999999998E+00   -0.1666666666666667E+01   -0.2500000000000000E+01
    0.0000000000000000E+00   -0.1666666666666667E+01   -0.2500000000000000E+01
    0.0000000000000000E+00   -0.1666666666666667E+01   -0.1500000000000000E+01
    0.0000000000000000E+00   -0.1666666666666667E+01   -0.5000000000000000E+00
    0.0000000000000000E+00   -0.1666666666666667E+01    0.5000000000000000E+00
    0.0000000000000000E+00   -0.1666666666666667E+01    0.1500000000000000E+01
    0.0000000000000000E+00   -0.1666666666666667E+01    0.2500000000000000E+01
    0.1000000000000000E+01   -0.1666666666666667E+01    0.2500000000000000E+01
    0.2000000000000000E+01   -0.1666666666666667E+01    0.2500000000000000E+01
    0.3000000000000000E+01   -0.1666666666666667E+01    0.2500000000000000E+01
    0.4000000000000000E+01   -0.1666666666666667E+01    0.2500000000000000E+01
    0.4251722454414101E+01   -0.1666666666666667E+01    0.1683881519811194E+01
    0.6137332127746504E+00   -0.1666666666666667E+01    0.1857879939968904E+01
    0.5055778377301318E+00   -0.1666666666666667E+01   -0.1984051145810370E+01
[...]
POINT_DATA 357
SCALARS rho double 1
LOOKUP_TABLE default
   0.1004041896872116E+01
   0.1001998263895524E+01
   0.1012457247844897E+01
   0.1029205751089925E+01
   0.9935862096505877E+00
   0.8113954817014736E+00
   0.9798502695925718E+00
   0.9975824229923608E+00
   0.9850866142295897E+00
   0.9069760655306374E+00
   0.1536266459115979E+01
   0.9814065243977549E+00
   0.1047819652369693E+01
   0.9999294854691083E+00
   0.1005394021889796E+01
   0.1001305356428047E+01
   0.1004193781592805E+01
   0.1005706175647672E+01
   0.1006476814305039E+01
   0.1005574678926731E+01
   0.1005484966269287E+01
   0.1004475194767833E+01
   0.1208850918054422E+01
   0.1010641100827702E+01
   0.1003669964394109E+01
   0.1014880048762173E+01
   0.1002705042569717E+01
   0.1006471782985628E+01
   0.1005994089822711E+01
   0.1021191297457039E+01
   0.1027972010355899E+01
   0.1011423515173870E+01
   0.1005517622269331E+01
   0.1104459617861427E+01
   0.1009535807120581E+01
   0.9942454003264055E+00
   0.1003375226032249E+01
   0.1031615116897891E+01
   0.1003226688615303E+01
   0.1007020138896245E+01
   0.1005881879937268E+01
   0.1020149003961264E+01
   0.1027593484845222E+01
   0.1005351225752535E+01
   0.9863275920212945E+00
   0.1006034875615683E+01
   0.1005502394578859E+01
   0.1011468240291080E+01
   0.9879925180052486E+00
   0.1018086550411559E+01
   0.9985233249637729E+00
   0.1000901164071053E+01
   0.1000659503399969E+01
   0.1006016857111192E+01
   0.1014890258846396E+01
   0.9783226682600021E+00
   0.8132179458897955E+00
   0.9743172806887936E+00
   0.9805066536557281E+00
   0.9749408537280585E+00
   0.9246466728302554E+00
   0.1500257546572376E+01
   0.9986513111316384E+00
   0.1029511009086567E+01
   0.1000112805377447E+01
   0.1004756078394242E+01
   0.1001449408855118E+01
   0.1002662712391185E+01
   0.1002752151338648E+01
   0.1001581192791854E+01
   0.1000064409998842E+01
   0.1000808401621243E+01
   0.1002902695591868E+01
   0.1062048803094951E+01
   0.9905959780848984E+00
   0.9994500840037247E+00
   0.1002525812002941E+01
   0.9953753011828571E+00
   0.1000977451113613E+01
   0.1002910510716718E+01
   0.1010158498398473E+01
   0.1005199560491908E+01
   0.9930507306019610E+00
   0.1002464559447050E+01
   0.1057664926756812E+01
   0.9885090131004700E+00
   0.9747550930242386E+00
   0.9942704824199765E+00
   0.9938833003342187E+00
   0.9927299579914357E+00
   0.1001086802597626E+01
   0.1000182415956692E+01
   0.9967669565563584E+00
   0.1000082446118716E+01
   0.9987590605903117E+00
   0.9724650181046651E+00
   0.1000742733551333E+01
   0.1000781092930912E+01
   0.1002621978271432E+01
   0.9880236209953903E+00
   0.1009065359822506E+01
   0.9919722388630988E+00
   0.1002806324928105E+01
   0.1002167112271911E+01
   0.1009602324197184E+01
   0.1022146248938294E+01
   0.9845316716909112E+00
   0.8133714422420657E+00
   0.9770220876234795E+00
   0.9850040527004625E+00
   0.9743911000732108E+00
   0.9245938118137520E+00
   0.1511728610762032E+01
   0.1006092121333515E+01
   0.1040561352966359E+01
   0.1003598628583157E+01
   0.1006827158753903E+01
   0.1002465966468278E+01
   0.1004358952278466E+01
   0.1005025252409009E+01
   0.1004538675071754E+01
   0.1003091707650679E+01
   0.1003511847517732E+01
   0.1004777156010090E+01
   0.1108797509006432E+01
   0.9991039430802816E+00
   0.1002994725247781E+01
   0.1006685091902217E+01
   0.9981233077207595E+00
   0.1004083835491958E+01
   0.1005358214294214E+01
   0.1015582826376383E+01
   0.1015871221984957E+01
   0.9993572055802393E+00
   0.1005685931086417E+01
   0.1068774399537628E+01
   0.9956430078212049E+00
   0.9786351903848640E+00
   0.9982028828454276E+00
   0.1003712024833471E+01
   0.9974878347269763E+00
   0.1004987249670862E+01
   0.1003492487160155E+01
   0.1003929688265307E+01
   0.1008577322699046E+01
   0.1002710541578714E+01
   0.9761206095120063E+00
   0.1003907947668452E+01
   0.1003743985101673E+01
   0.1006769676668005E+01
   0.9969320535416335E+00
   0.1013945666766312E+01
   0.9954739986517979E+00
   0.1001826135959572E+01
   0.1001497469711380E+01
   0.1008167646839950E+01
   0.1020051240618419E+01
   0.9818083442521793E+00
   0.8117277048956895E+00
   0.9755331067101826E+00
   0.9830170968012232E+00
   0.9716158641821633E+00
   0.9235777150117651E+00
   0.1508828032004010E+01
   0.1007006222346803E+01
   0.1036502226999691E+01
   0.1002525881150594E+01
   0.1005868979779790E+01
   0.1002008795110404E+01
   0.1003234696040668E+01
   0.1003095742705409E+01
   0.1002006376788317E+01
   0.1000844730185966E+01
   0.1001783020660491E+01
   0.1003575173384896E+01
   0.1095285655751431E+01
   0.9958083954718037E+00
   0.1001364140450760E+01
   0.1004770852063781E+01
   0.9961800221071880E+00
   0.1001581252025275E+01
   0.1003424648944850E+01
   0.1012067163053621E+01
   0.1012979800196243E+01
   0.9961615668435768E+00
   0.1003748004587018E+01
   0.1060743522302254E+01
   0.9932443206239632E+00
   0.9757292143924906E+00
   0.9954710269692154E+00
   0.9990869023945123E+00
   0.9943269302852504E+00
   0.1002820858382540E+01
   0.1001081115551643E+01
   0.1001222905052230E+01
   0.1005296470092563E+01
   0.1000169500250727E+01
   0.9730054157364599E+00
   0.1001509387773577E+01
   0.1001418376346318E+01
   0.1003717471168051E+01
   0.9945071007267496E+00
   0.1010649537723847E+01
   0.9932359847047053E+00
   0.1002806219563710E+01
   0.1002167095665242E+01
   0.1009602320091826E+01
   0.1022145942360716E+01
   0.9845307995420882E+00
   0.8133691826573562E+00
   0.9770207679223674E+00
   0.9850027674504617E+00
   0.9743896706458522E+00
   0.9245933269951807E+00
   0.1511723188412678E+01
   0.1006092909263692E+01
   0.1040560526916301E+01
   0.1003598559440235E+01
   0.1006827003103234E+01
   0.1002465933141027E+01
   0.1004358843218802E+01
   0.1005025102542463E+01
   0.1004538483534567E+01
   0.1003091515187905E+01
   0.1003511681521177E+01
   0.1004777036352769E+01
   0.1108794653464235E+01
   0.9991031344449742E+00
   0.1002994593483566E+01
   0.1006684932605921E+01
   0.9981230423869827E+00
   0.1004083634872228E+01
   0.1005358040687376E+01
   0.1015582401966040E+01
   0.1015870173476390E+01
   0.9993560619721560E+00
   0.1005685775310579E+01
   0.1068772759597463E+01
   0.9956423738805995E+00
   0.9786342835445159E+00
   0.9982026387713330E+00
   0.1003711381954767E+01
   0.9974876819341760E+00
   0.1004987012943393E+01
   0.1003492264611328E+01
   0.1003929350154967E+01
   0.1008576792543162E+01
   0.1002710258640552E+01
   0.9761197372458963E+00
   0.1003907757368548E+01
   0.1003743803198255E+01
   0.1006769334596141E+01
   0.9969320822297589E+00
   0.1013945261072748E+01
   0.9954738168989397E+00
   0.1000901429588960E+01
   0.1000659683456581E+01
   0.1006016764544825E+01
   0.1014890062678656E+01
   0.9783224802210686E+00
   0.8132142437373688E+00
   0.9743151212338603E+00
   0.9805054229206592E+00
   0.9749382929913454E+00
   0.9246447969325741E+00
   0.1500247351638313E+01
   0.9986531309901904E+00
   0.1029510475365160E+01
   0.1000113027694964E+01
   0.1004756055999808E+01
   0.1001449435079742E+01
   0.1002662714221437E+01
   0.1002752192303582E+01
   0.1001581362852308E+01
   0.1000064652471565E+01
   0.1000808600740907E+01
   0.1002902703313149E+01
   0.1062047339789132E+01
   0.9905960377299474E+00
   0.9994503451112986E+00
   0.1002525983333822E+01
   0.9953756797649463E+00
   0.1000977670215595E+01
   0.1002910544346679E+01
   0.1010158403870860E+01
   0.1005200279915583E+01
   0.9930511652076865E+00
   0.1002464707851500E+01
   0.1057663561482411E+01
   0.9885091577236190E+00
   0.9747551331451995E+00
   0.9942709809737410E+00
   0.9938842637553318E+00
   0.9927305967296409E+00
   0.1001087219721712E+01
   0.1000182716734188E+01
   0.9967677369137163E+00
   0.1000083351035328E+01
   0.9987595304369667E+00
   0.9724654569039639E+00
   0.1000742869685548E+01
   0.1000781225694080E+01
   0.1002622189516415E+01
   0.9880244648181553E+00
   0.1009065421194126E+01
   0.9919728597588533E+00
   0.1004041867666337E+01
   0.1001998753230636E+01
   0.1012456108364995E+01
   0.1029201834281316E+01
   0.9935826916303931E+00
   0.8113876088131983E+00
   0.9798390664109944E+00
   0.9975723085055228E+00
   0.9850724398185396E+00
   0.9069641199163645E+00
   0.1536241333466293E+01
   0.9814086257489398E+00
   0.1047815608449180E+01
   0.9999292511915039E+00
   0.1005393756691016E+01
   0.1001305329125024E+01
   0.1004193487630086E+01
   0.1005705682688759E+01
   0.1006476117510882E+01
   0.1005573900262727E+01
   0.1005484446350395E+01
   0.1004474946909350E+01
   0.1208835712417759E+01
   0.1010636452875583E+01
   0.1003669544506514E+01
   0.1014877098188616E+01
   0.1002703682322156E+01
   0.1006471057951718E+01
   0.1005993603611636E+01
   0.1021189721339095E+01
   0.1027965786221524E+01
   0.1011417502106011E+01
   0.1005517252447798E+01
   0.1104450784153090E+01
   0.1009530771066457E+01
   0.9942406224042236E+00
   0.1003373723332395E+01
   0.1031608799943820E+01
   0.1003225812130207E+01
   0.1007019574749241E+01
   0.1005881222222402E+01
   0.1020144589580555E+01
   0.1027588414981515E+01
   0.1005350604765199E+01
   0.9863215690786399E+00
   0.1006034136950215E+01
   0.1005501655353282E+01
   0.1011466975162927E+01
   0.9879935869389291E+00
   0.1018085396633142E+01
   0.9985222484457554E+00
SCALARS u double 1
LOOKUP_TABLE default
   0.4947300692069956E+00
   0.4988594564818951E+00
   0.5147343207081746E+00
   0.5145733117347792E+00
   0.4673905943646980E+00
   0.0000000000000000E+00
   0.0000000000000000E+00
   0.0000000000000000E+00
   0.0000000000000000E+00
   0.0000000000000000E+00
   0.0000000000000000E+00
   0.4678142276107612E+00
   0.4700870260210812E+00
   0.4969984748058288E+00
   0.4963176628793354E+00
   0.4981275523064538E+00
   0.4938116491009127E+00
   0.4923082505181227E+00
   0.4910688220148787E+00
   0.4910266579618009E+00
   0.4874075267170055E+00
   0.4949380357542568E+00
   0.4164918172663040E+00
   0.3946797015684507E+00
   0.5033234972578563E+00
   0.5480448880543447E+00
   0.5303707032741819E+00
   0.4871241174081679E+00
   0.4913333117752710E+00
   0.4802710096366778E+00
   0.4135026230806287E+00
   0.3132779391203507E+00
   0.4883983124015138E+00
   0.5089367992038890E+00
   0.5371119641535712E+00
   0.4571083422953165E+00
   0.5240534838318895E+00
   0.5640033580390883E+00
   0.5046273162144089E+00
   0.4912711658051301E+00
   0.4865652468080414E+00
   0.5622427013600533E+00
   0.5558753577178047E+00
   0.4908517357026554E+00
   0.3798481597812566E+00
   0.4842352848255683E+00
   0.4869362378937989E+00
   0.4866693544131226E+00
   0.4677502194957332E+00
   0.4803166214496012E+00
   0.5166901855328651E+00
   0.4991136806484888E+00
   0.4982811718902636E+00
   0.5114162115104137E+00
   0.5199934674797325E+00
   0.4744175830804457E+00
   0.0000000000000000E+00
   0.0000000000000000E+00
   0.0000000000000000E+00
   0.0000000000000000E+00
   0.0000000000000000E+00
   0.0000000000000000E+00
   0.4977823150176177E+00
   0.4784291845611612E+00
   0.4990583712648377E+00
   0.4965198585948872E+00
   0.4980789851338248E+00
   0.4967151928358627E+00
   0.4981933033299015E+00
   0.5009970680356431E+00
   0.5024517628994170E+00
   0.4975199840788307E+00
   0.4975774325257900E+00
   0.4621096714960448E+00
   0.4035088559622610E+00
   0.5065894441092492E+00
   0.5458006375900269E+00
   0.5349236269820228E+00
   0.4989135894445172E+00
   0.4973722989186553E+00
   0.4919267479324462E+00
   0.4285465003696260E+00
   0.3176879782801251E+00
   0.4954824801834508E+00
   0.5317616865022425E+00
   0.5511269954795454E+00
   0.4735698689197984E+00
   0.5369375007356018E+00
   0.5861195221900054E+00
   0.5304215729155982E+00
   0.5001293581228420E+00
   0.4989945221486112E+00
   0.5726898504763743E+00
   0.5727361837615148E+00
   0.5020016356566132E+00
   0.3862964798641605E+00
   0.4964482556397158E+00
   0.4974500712567252E+00
   0.5008081405292949E+00
   0.5034581284704209E+00
   0.4943610287271797E+00
   0.5264459546938954E+00
   0.4974230383897433E+00
   0.4987538782516253E+00
   0.5144063750511773E+00
   0.5224647266955250E+00
   0.4756631826383222E+00
   0.0000000000000000E+00
   0.0000000000000000E+00
   0.0000000000000000E+00
   0.0000000000000000E+00
   0.0000000000000000E+00
   0.0000000000000000E+00
   0.4806582020415559E+00
   0.4680878451665930E+00
   0.4952890944918849E+00
   0.4945976510709488E+00
   0.4969932071738099E+00
   0.4942928669209080E+00
   0.4947800862418534E+00
   0.4961780602648165E+00
   0.4972196715293479E+00
   0.4933699794373155E+00
   0.4953799681673342E+00
   0.4500246665219311E+00
   0.4024637612490864E+00
   0.5058078997270216E+00
   0.5515094138605880E+00
   0.5374649291269873E+00
   0.4940920449646169E+00
   0.4942273740368229E+00
   0.4866004625131791E+00
   0.4284266179385244E+00
   0.3212507882010202E+00
   0.4917886218138644E+00
   0.5371308838899648E+00
   0.5550115959692615E+00
   0.4771935483023185E+00
   0.5376145804315479E+00
   0.5895392042730604E+00
   0.5290886865082532E+00
   0.4965214784675353E+00
   0.4937478355206831E+00
   0.5787839832600978E+00
   0.5771808709591859E+00
   0.4980260530187601E+00
   0.3909221584513330E+00
   0.4922305630771386E+00
   0.4933127351631513E+00
   0.4964341577258892E+00
   0.4916362486842403E+00
   0.4900718052834833E+00
   0.5262002129447726E+00
   0.4981986979996476E+00
   0.4983714160923486E+00
   0.5135889259703545E+00
   0.5218154845205811E+00
   0.4751716411335875E+00
   0.0000000000000000E+00
   0.0000000000000000E+00
   0.0000000000000000E+00
   0.0000000000000000E+00
   0.0000000000000000E+00
   0.0000000000000000E+00
   0.4845559074934658E+00
   0.4706909279116033E+00
   0.4969305786629041E+00
   0.4954251445397717E+00
   0.4974459720325586E+00
   0.4962643136901668E+00
   0.4984057166051219E+00
   0.5010050058748654E+00
   0.5015489211013563E+00
   0.4959185586063906E+00
   0.4970720827021492E+00
   0.4571732378555255E+00
   0.4021800505247782E+00
   0.5064568722609830E+00
   0.5509473160105112E+00
   0.5384300975461245E+00
   0.4985806520821727E+00
   0.4972854670237187E+00
   0.4902742146075975E+00
   0.4281553334430445E+00
   0.3203202729631611E+00
   0.4949172520005606E+00
   0.5427344349947666E+00
   0.5541534548829532E+00
   0.4766412348023526E+00
   0.5406365755139747E+00
   0.5918757962812087E+00
   0.5340288735228144E+00
   0.4990232897841951E+00
   0.4979562050848513E+00
   0.5785353931052628E+00
   0.5780279455917180E+00
   0.5013667352415604E+00
   0.3911185682582073E+00
   0.4964613820231853E+00
   0.4975116996249453E+00
   0.5006129531740291E+00
   0.4977459529376503E+00
   0.4941949958400977E+00
   0.5285155421640814E+00
   0.4974230337564432E+00
   0.4987538908492105E+00
   0.5144063980140452E+00
   0.5224647356108499E+00
   0.4756634798651383E+00
   0.0000000000000000E+00
   0.0000000000000000E+00
   0.0000000000000000E+00
   0.0000000000000000E+00
   0.0000000000000000E+00
   0.0000000000000000E+00
   0.4806586618588163E+00
   0.4680882203228332E+00
   0.4952892511872308E+00
   0.4945977485971413E+00
   0.4969932507960148E+00
   0.4942930155624591E+00
   0.4947803249346258E+00
   0.4961783913015449E+00
   0.4972199071494439E+00
   0.4933703194399154E+00
   0.4953801045281724E+00
   0.4500243092552044E+00
   0.4024636920582997E+00
   0.5058081922600070E+00
   0.5515098165673427E+00
   0.5374654939586089E+00
   0.4940924597964108E+00
   0.4942276115546645E+00
   0.4866007004059370E+00
   0.4284259266994944E+00
   0.3212498961688524E+00
   0.4917888959819292E+00
   0.5371312396925246E+00
   0.5550114084789631E+00
   0.4771929293045159E+00
   0.5376152474660313E+00
   0.5895392397599202E+00
   0.5290893028310483E+00
   0.4965218681074104E+00
   0.4937483377826962E+00
   0.5787841961009443E+00
   0.5771810687229955E+00
   0.4980264195848257E+00
   0.3909215799682958E+00
   0.4922309724052186E+00
   0.4933131533866769E+00
   0.4964345424330303E+00
   0.4916371310120261E+00
   0.4900721961700532E+00
   0.5262008733891358E+00
   0.4991136626673328E+00
   0.4982812361672052E+00
   0.5114154355411735E+00
   0.5199925049297727E+00
   0.4744188446263845E+00
   0.0000000000000000E+00
   0.0000000000000000E+00
   0.0000000000000000E+00
   0.0000000000000000E+00
   0.0000000000000000E+00
   0.0000000000000000E+00
   0.4977796242647213E+00
   0.4784296853492748E+00
   0.4990579949826711E+00
   0.4965198924218175E+00
   0.4980790114488340E+00
   0.4967151997799071E+00
   0.4981933079485329E+00
   0.5009967465965681E+00
   0.5024514287404103E+00
   0.4975197961004611E+00
   0.4975773941276329E+00
   0.4621078588921639E+00
   0.4035109749156742E+00
   0.5065888857347848E+00
   0.5457980895749411E+00
   0.5349214499944653E+00
   0.4989131289155465E+00
   0.4973722088748022E+00
   0.4919273478410043E+00
   0.4285461669627130E+00
   0.3176892355681351E+00
   0.4954820744118567E+00
   0.5317602725750326E+00
   0.5511260086852559E+00
   0.4735703324329087E+00
   0.5369354424789331E+00
   0.5861158970799600E+00
   0.5304200742017189E+00
   0.5001290750660441E+00
   0.4989940012033848E+00
   0.5726865244950818E+00
   0.5727327234889475E+00
   0.5020015623333167E+00
   0.3862961199273521E+00
   0.4964477974604410E+00
   0.4974496327692222E+00
   0.5008081434952245E+00
   0.5034571677520620E+00
   0.4943612986487015E+00
   0.5264438696215142E+00
   0.4947313246646759E+00
   0.4988599349444652E+00
   0.5147345849378613E+00
   0.5145759861567404E+00
   0.4673958847879728E+00
   0.0000000000000000E+00
   0.0000000000000000E+00
   0.0000000000000000E+00
   0.0000000000000000E+00
   0.0000000000000000E+00
   0.0000000000000000E+00
   0.4678164655861736E+00
   0.4700902764308078E+00
   0.4969983424686137E+00
   0.4963179111366970E+00
   0.4981277138882017E+00
   0.4938120860155160E+00
   0.4923093479547700E+00
   0.4910701142483394E+00
   0.4910289117242638E+00
   0.4874099850853088E+00
   0.4949383461142399E+00
   0.4164930753379299E+00
   0.3946865174485222E+00
   0.5033261213326954E+00
   0.5480457306734501E+00
   0.5303730993785313E+00
   0.4871258034069686E+00
   0.4913341985576049E+00
   0.4802749120731922E+00
   0.4135077650913720E+00
   0.3132841461676475E+00
   0.4883986214290198E+00
   0.5089380983634219E+00
   0.5371165740861836E+00
   0.4571147111047817E+00
   0.5240561578104693E+00
   0.5640036594971988E+00
   0.5046304047789507E+00
   0.4912745696730161E+00
   0.4865671550461499E+00
   0.5622438302340578E+00
   0.5558768836048493E+00
   0.4908561534274376E+00
   0.3798510045291916E+00
   0.4842364490149738E+00
   0.4869372946060909E+00
   0.4866736541929583E+00
   0.4677544346855732E+00
   0.4803207433649675E+00
   0.5166935207468284E+00
SCALARS v double 1
LOOKUP_TABLE default
  -0.1385511293209152E-02
   0.1979680228175230E-02
   0.4243382183260585E-02
   0.1416298553441758E-01
   0.4769284727948413E-02
   0.0000000000000000E+00
   0.0000000000000000E+00
   0.0000000000000000E+00
   0.0000000000000000E+00
   0.0000000000000000E+00
   0.0000000000000000E+00
   0.3629993148604903E-01
  -0.6894827754553437E-02
   0.3574948312128099E-02
   0.8058190869102121E-03
   0.6998218340540026E-03
   0.1367215738648650E-02
   0.1441528039560888E-02
   0.7735988872489214E-04
  -0.1036770257978792E-02
  -0.1329231987777248E-02
   0.1060163444874850E-02
   0.1481358073584768E+00
   0.8721974395368690E-02
   0.3553055794159973E-02
   0.6365012592356051E-02
   0.1038771855464254E-02
   0.5188118530466031E-03
   0.1859316109185602E-02
  -0.3376975772566210E-02
   0.2685499417823237E-01
   0.1268155934420990E-01
   0.4378164041802531E-02
   0.2307291519045947E-01
   0.1484381871163305E-01
   0.4783924735643413E-03
   0.8291283176552205E-02
   0.2656504454103527E-01
   0.2269805171518399E-01
  -0.3148755265028846E-03
  -0.6253125869145795E-03
   0.2258751086324808E-01
   0.2824312742752709E-01
  -0.1608217425639658E-02
  -0.6205382923256102E-02
   0.3003517431843560E-02
   0.3686168586455562E-02
  -0.3917003264154615E-02
   0.4541943153682253E-01