# vtk DataFile Version 2.0
FUN3D:global_image_vtk
ASCII
DATASET UNSTRUCTURED_GRID
POINTS 357 double
    0.5000000000000000E+01    0.0000000000000000E+00    0.2500000000000000E+01
    0.5000000000000000E+01    0.0000000000000000E+00    0.1500000000000000E+01
    0.5000000000000000E+01    0.0000000000000000E+00    0.5000000000000000E+00
    0.5000000000000000E+01    0.0000000000000000E+00   -0.5000000000000000E+00
    0.5000000000000000E+01    0.0000000000000000E+00   -0.1500000000000000E+01
    0.5000000000000000E+01    0.0000000000000000E+00   -0.2500000000000000E+01
    0.4000000000000000E+01    0.0000000000000000E+00   -0.2500000000000000E+01
    0.3000000000000000E+01    0.0000000000000000E+00   -0.2500000000000000E+01
    0.2000000000000000E+01    0.0000000000000000E+00   -0.2500000000000000E+01
    0.9999999999999998E+00    0.0000000000000000E+00   -0.2500000000000000E+01
    0.0000000000000000E+00    0.0000000000000000E+00   -0.2500000000000000E+01
    0.0000000000000000E+00    0.0000000000000000E+00   -0.1500000000000000E+01
    0.0000000000000000E+00    0.0000000000000000E+00   -0.5000000000000000E+00
    0.0000000000000000E+00    0.0000000000000000E+00    0.5000000000000000E+00
    0.0000000000000000E+00    0.0000000000000000E+00    0.1500000000000000E+01
    0.0000000000000000E+00    0.0000000000000000E+00    0.2500000000000000E+01
    0.1000000000000000E+01    0.0000000000000000E+00    0.2500000000000000E+01
    0.2000000000000000E+01    0.0000000000000000E+00    0.2500000000000000E+01
    0.3000000000000000E+01    0.0000000000000000E+00    0.2500000000000000E+01
    0.4000000000000000E+01    0.0000000000000000E+00    0.2500000000000000E+01
    0.4251722454414101E+01    0.0000000000000000E+00    0.1683881519811194E+01
    0.6137332127746504E+00    0.0000000000000000E+00    0.1857879939968904E+01
    0.5055778377301318E+00    0.0000000000000000E+00   -0.1984051145810370E+01
    0.4417350419147004E+01    0.0000000000000000E+00   -0.1798049780917599E+01
    0.4277413896341787E+01    0.0000000000000000E+00    0.7849806286986014E+00
    0.4308949446070184E+01    0.0000000000000000E+00   -0.1030628045339280E+00
    0.3520446556869569E+01    0.0000000000000000E+00    0.1794049766750259E+00
    0.2591686382569276E+01    0.0000000000000000E+00    0.1667295362171870E+01
    0.1306794966956192E+01    0.0000000000000000E+00    0.1758138528035871E+01
    0.7010346092308208E+00    0.0000000000000000E+00    0.3961722714940701E-01
    0.2308484603929350E+01    0.0000000000000000E+00   -0.1644203313594280E+01
    0.2985842179142563E+01    0.0000000000000000E+00   -0.1902408850608312E+01
    0.7941286090671454E+00    0.0000000000000000E+00    0.1001771779085911E+01
    0.1020081380390785E+01    0.0000000000000000E+00   -0.1456956300840256E+01
    0.4356436167904402E+01    0.0000000000000000E+00   -0.1022551130153989E+01
    0.3730315927830617E+01    0.0000000000000000E+00   -0.1467697774434008E+01
    0.2084566650673803E+01    0.0000000000000000E+00   -0.2237556063676878E+00
    0.1900542590153839E+01    0.0000000000000000E+00   -0.1088755785946356E+01
    0.1324761360056765E+01    0.0000000000000000E+00   -0.5267852841860601E+00
    0.3681169751640886E+01    0.0000000000000000E+00    0.1040160628527462E+01
    0.3418876656618056E+01    0.0000000000000000E+00    0.1726168461930342E+01
    0.3751175205920376E+01    0.0000000000000000E+00   -0.6691259304140329E+00
    0.2889801815813465E+01    0.0000000000000000E+00   -0.8562661438192326E+00
    0.3017983410224082E+01    0.0000000000000000E+00    0.9231712184526961E+00
    0.1645821714894795E+01    0.0000000000000000E+00   -0.1837983080076178E+01
    0.1513509181197389E+01    0.0000000000000000E+00    0.1108836692078749E+01
    0.1919398798697967E+01    0.0000000000000000E+00    0.1580342757081665E+01
    0.2193859429875553E+01    0.0000000000000000E+00    0.7740897355665203E+00
    0.6091754699356742E+00    0.0000000000000000E+00   -0.7888248715753817E+00
    0.1441359832811715E+01    0.0000000000000000E+00    0.3490936567660688E+00
    0.2716632372076206E+01    0.0000000000000000E+00    0.1359772398136161E+00
    0.5000000000000000E+01   -0.8333333333333334E+00    0.2500000000000000E+01
    0.5000000000000000E+01   -0.8333333333333334E+00    0.1500000000000000E+01
    0.5000000000000000E+01   -0.8333333333333334E+00    0.5000000000000000E+00
    0.5000000000000000E+01   -0.8333333333333334E+00   -0.5000000000000000E+00
    0.5000000000000000E+01   -0.8333333333333334E+00   -0.1500000000000000E+01
    0.5000000000000000E+01   -0.8333333333333334E+00   -0.2500000000000000E+01
    0.4000000000000000E+01   -0.8333333333333334E+00   -0.2500000000000000E+01
    0.3000000000000000E+01   -0.8333333333333334E+00   -0.2500000000000000E+01
    0.2000000000000000E+01   -0.8333333333333334E+00   -0.2500000000000000E+01
    0.9999999999999998E+00   -0.8333333333333334E+00   -0.2500000000000000E+01
    0.0000000000000000E+00   -0.8333333333333334E+00   -0.2500000000000000E+01
    0.0000000000000000E+00   -0.8333333333333334E+00   -0.1500000000000000E+01
    0.0000000000000000E+00   -0.8333333333333334E+00   -0.5000000000000000E+00
    0.0000000000000000E+00   -0.8333333333333334E+00    0.5000000000000000E+00
    0.0000000000000000E+00   -0.8333333333333334E+00    0.1500000000000000E+01
    0.0000000000000000E+00   -0.8333333333333334E+00    0.2500000000000000E+01
    0.1000000000000000E+01   -0.8333333333333334E+00    0.2500000000000000E+01
    0.2000000000000000E+01   -0.8333333333333334E+00    0.2500000000000000E+01
    0.3000000000000000E+01   -0.8333333333333334E+00    0.2500000000000000E+01
    0.4000000000000000E+01   -0.8333333333333334E+00    0.2500000000000000E+01
    0.4251722454414101E+01   -0.8333333333333334E+00    0.1683881519811194E+01
    0.6137332127746504E+00   -0.8333333333333334E+00    0.1857879939968904E+01
    0.5055778377301318E+00   -0.8333333333333334E+00   -0.1984051145810370E+01
    0.4417350419147004E+01   -0.8333333333333334E+00   -0.1798049780917599E+01
    0.4277413896341787E+01   -0.8333333333333334E+00    0.7849806286986014E+00
    0.4308949446070184E+01   -0.8333333333333334E+00   -0.1030628045339280E+00
    0.3520446556869569E+01   -0.8333333333333334E+00    0.1794049766750259E+00
    0.2591686382569276E+01   -0.8333333333333334E+00    0.1667295362171870E+01
    0.1306794966956192E+01   -0.8333333333333334E+00    0.1758138528035871E+01
    0.7010346092308208E+00   -0.8333333333333334E+00    0.3961722714940701E-01
    0.2308484603929350E+01   -0.8333333333333334E+00   -0.1644203313594280E+01
    0.2985842179142563E+01   -0.8333333333333334E+00   -0.1902408850608312E+01
    0.7941286090671454E+00   -0.8333333333333334E+00    0.1001771779085911E+01
    0.1020081380390785E+01   -0.8333333333333334E+00   -0.1456956300840256E+01
    0.4356436167904402E+01   -0.8333333333333334E+00   -0.1022551130153989E+01
    0.3730315927830617E+01   -0.8333333333333334E+00   -0.1467697774434008E+01
    0.2084566650673803E+01   -0.8333333333333334E+00   -0.2237556063676878E+00
    0.1900542590153839E+01   -0.8333333333333334E+00   -0.1088755785946356E+01
    0.1324761360056765E+01   -0.8333333333333334E+00   -0.5267852841860601E+00
    0.3681169751640886E+01   -0.8333333333333334E+00    0.1040160628527462E+01
    0.3418876656618056E+01   -0.8333333333333334E+00    0.1726168461930342E+01
    0.3751175205920376E+01   -0.8333333333333334E+00   -0.6691259304140329E+00
    0.2889801815813465E+01   -0.8333333333333334E+00   -0.8562661438192326E+00
    0.3017983410224082E+01   -0.8333333333333334E+00    0.9231712184526961E+00
    0.1645821714894795E+01   -0.8333333333333334E+00   -0.1837983080076178E+01
    0.1513509181197389E+01   -0.8333333333333334E+00    0.1108836692078749E+01
    0.1919398798697967E+01   -0.8333333333333334E+00    0.1580342757081665E+01
    0.2193859429875553E+01   -0.8333333333333334E+00    0.7740897355665203E+00
    0.6091754699356742E+00   -0.8333333333333334E+00   -0.7888248715753817E+00
    0.1441359832811715E+01   -0.8333333333333334E+00    0.3490936567660688E+00
    0.2716632372076206E+01   -0.8333333333333334E+00    0.1359772398136161E+00
    0.5000000000000000E+01   -0.1666666666666667E+01    0.2500000000000000E+01
    0.5000000000000000E+01   -0.1666666666666667E+01    0.1500000000000000E+01
    0.5000000000000000E+01   -0.1666666666666667E+01    0.5000000000000000E+00
    0.5000000000000000E+01   -0.1666666666666667E+01   -0.5000000000000000E+00
    0.5000000000000000E+01   -0.1666666666666667E+01   -0.1500000000000000E+01
    0.5000000000000000E+01   -0.1666666666666667E+01   -0.2500000000000000E+01
    0.4000000000000000E+01   -0.1666666666666667E+01   -0.2500000000000000E+01
    0.3000000000000000E+01   -0.1666666666666667E+01   -0.2500000000000000E+01
    0.2000000000000000E+01   -0.1666666666666667E+01   -0.2500000000000000E+01
    0.9999999999999998E+00   -0.1666666666666667E+01   -0.2500000000000000E+01
    0.0000000000000000E+00   -0.1666666666666667E+01   -0.2500000000000000E+01
    0.0000000000000000E+00   -0.1666666666666667E+01   -0.1500000000000000E+01
    0.0000000000000000E+00   -0.1666666666666667E+01   -0.5000000000000000E+00
    0.0000000000000000E+00   -0.1666666666666667E+01    0.5000000000000000E+00
    0.0000000000000000E+00   -0.1666666666666667E+01    0.1500000000000000E+01
    0.0000000000000000E+00   -0.1666666666666667E+01    0.2500000000000000E+01
    0.1000000000000000E+01   -0.1666666666666667E+01    0.2500000000000000E+01
    0.2000000000000000E+01   -0.1666666666666667E+01    0.2500000000000000E+01
    0.3000000000000000E+01   -0.1666666666666667E+01    0.2500000000000000E+01
    0.4000000000000000E+01   -0.1666666666666667E+01    0.2500000000000000E+01
    0.4251722454414101E+01   -0.1666666666666667E+01    0.1683881519811194E+01
    0.6137332127746504E+00   -0.1666666666666667E+01    0.1857879939968904E+01
    0.5055778377301318E+00   -0.1666666666666667E+01   -0.1984051145810370E+01
[...]
POINT_DATA 357
SCALARS rho double 1
LOOKUP_TABLE default
   0.1003896614134340E+01
   0.1002027721936762E+01
   0.1012273654248988E+01
   0.1028934256832679E+01
   0.9938732467139273E+00
   0.8112109975226081E+00
   0.9796889389432267E+00
   0.9976009550733280E+00
   0.9852471786949147E+00
   0.9070392195090213E+00
   0.1536301938025935E+01
   0.9814128760148182E+00
   0.1047848222870055E+01
   0.9999471282212941E+00
   0.1005475187160760E+01
   0.1001277841419575E+01
   0.1004161078507205E+01
   0.1005914495513801E+01
   0.1006566446607605E+01
   0.1005311026610854E+01
   0.1005450590058756E+01
   0.1004496383641860E+01
   0.1208913878039791E+01
   0.1011069446883420E+01
   0.1003769039280498E+01
   0.1014647054894106E+01
   0.1002743234420093E+01
   0.1006427859329913E+01
   0.1006092008330374E+01
   0.1021253813981121E+01
   0.1027955423083920E+01
   0.1011791990654718E+01
   0.1005471865030975E+01
   0.1104505213386709E+01
   0.1009518716228872E+01
   0.9944852390861081E+00
   0.1003461000641994E+01
   0.1031763351448380E+01
   0.1003189555106678E+01
   0.1007156808436863E+01
   0.1005821362915144E+01
   0.1020077720999752E+01
   0.1027552416316694E+01
   0.1005431292438020E+01
   0.9864902890108445E+00
   0.1005945164479881E+01
   0.1005432650101951E+01
   0.1011515721384858E+01
   0.9879986972882757E+00
   0.1018188647551107E+01
   0.9986066927405229E+00
   0.1000961002844287E+01
   0.1000634488746307E+01
   0.1006146530774961E+01
   0.1015192027285110E+01
   0.9781321890150273E+00
   0.8132763607550371E+00
   0.9743678313598975E+00
   0.9805137994926660E+00
   0.9748864822983283E+00
   0.9245923424330679E+00
   0.1500247338352597E+01
   0.9986221467700821E+00
   0.1029482122017880E+01
   0.1000096033625986E+01
   0.1004710774100516E+01
   0.1001465928413076E+01
   0.1002607123435017E+01
   0.1002633020247405E+01
   0.1001532561904740E+01
   0.1000233078417103E+01
   0.1000798080924626E+01
   0.1002873378435981E+01
   0.1062005253609879E+01
   0.9902580172462676E+00
   0.9994561770514050E+00
   0.1002662336874280E+01
   0.9953167643764501E+00
   0.1001002194234589E+01
   0.1002879360064861E+01
   0.1010128095945065E+01
   0.1005203331915624E+01
   0.9928122220916251E+00
   0.1002450174715114E+01
   0.1057653481879034E+01
   0.9885890485754631E+00
   0.9746004564186053E+00
   0.9942236984796492E+00
   0.9938165055940023E+00
   0.9927208732479705E+00
   0.1001076772699356E+01
   0.1000217643023917E+01
   0.9968560661866666E+00
   0.1000147682445881E+01
   0.9987448084941312E+00
   0.9723440756391061E+00
   0.1000743219861713E+01
   0.1000789201509396E+01
   0.1002597630510319E+01
   0.9880025359880121E+00
   0.1009035325924542E+01
   0.9918948920078220E+00
   0.1002728285142966E+01
   0.1002106169581349E+01
   0.1009447216507919E+01
   0.1021933765799381E+01
   0.9846717683633522E+00
   0.8133182170153913E+00
   0.9770807503289024E+00
   0.9850636683100595E+00
   0.9744509525092748E+00
   0.9246116950176637E+00
   0.1511738271861649E+01
   0.1006095338179793E+01
   0.1040580039235825E+01
   0.1003608215214609E+01
   0.1006858637173221E+01
   0.1002453439358209E+01
   0.1004353286844412E+01
   0.1005079421077261E+01
   0.1004534728103668E+01
   0.1003026808359381E+01
   0.1003464303642057E+01
   0.1004782289561425E+01
   0.1108829413985947E+01
   0.9993078812670284E+00
   0.1003019883575298E+01
   0.1006551224594675E+01
   0.9981399563867651E+00
   0.1004085124240930E+01
   0.1005405250147028E+01
   0.1015615314348209E+01
   0.1015877721636536E+01
   0.9995350876422381E+00
   0.1005662807607937E+01
   0.1068800623909887E+01
   0.9956099363493695E+00
   0.9787401264070411E+00
   0.9982518112926865E+00
   0.1003757450482950E+01
   0.9974783140226321E+00
   0.1005067407617781E+01
   0.1003493140328980E+01
   0.1003883291717024E+01
   0.1008558792109385E+01
   0.1002770459124940E+01
   0.9761838084043968E+00
   0.1003870346854339E+01
   0.1003717934407775E+01
   0.1006796655563720E+01
   0.9969307273935922E+00
   0.1013992451585975E+01
   0.9955142935424240E+00
   0.1001756746844504E+01
   0.1001566208342852E+01
   0.1008472455790872E+01
   0.1020242988087209E+01
   0.9816760718633614E+00
   0.8116069078819491E+00
   0.9754551070845763E+00
   0.9829220107367322E+00
   0.9715961317176907E+00
   0.9235448413009264E+00
   0.1508808227027462E+01
   0.1006991456908616E+01
   0.1036471882875742E+01
   0.1002516724003071E+01
   0.1005844087648375E+01
   0.1002016500264462E+01
   0.1003135584420904E+01
   0.1003083923209825E+01
   0.1002049568115593E+01
   0.1000908819656962E+01
   0.1001754864200597E+01
   0.1003542291757640E+01
   0.1095256337343991E+01
   0.9956625139610910E+00
   0.1001490770312058E+01
   0.1004907748115783E+01
   0.9961662262700945E+00
   0.1001571963421361E+01
   0.1003420594441814E+01
   0.1012050811877939E+01
   0.1012936570250897E+01
   0.9960481221181309E+00
   0.1003715857684486E+01
   0.1060717824246269E+01
   0.9932320081908873E+00
   0.9756337940929664E+00
   0.9954434290438540E+00
   0.9990548022010526E+00
   0.9942890846285237E+00
   0.1002819275618792E+01
   0.1001074663707476E+01
   0.1001266014027261E+01
   0.1005303543762397E+01
   0.1000135270106402E+01
   0.9729520916614143E+00
   0.1001471580623551E+01
   0.1001406972730361E+01
   0.1003660562920812E+01
   0.9944918572711772E+00
   0.1010629481271326E+01
   0.9931796113979515E+00
   0.1002728189769631E+01
   0.1002106147071417E+01
   0.1009447227055445E+01
   0.1021933496235259E+01
   0.9846708795335360E+00
   0.8133158946940502E+00
   0.9770793979881220E+00
   0.9850623633748596E+00
   0.9744495182663730E+00
   0.9246112093434392E+00
   0.1511732818245327E+01
   0.1006096130618002E+01
   0.1040579206829650E+01
   0.1003608144852846E+01
   0.1006858474563284E+01
   0.1002453408957513E+01
   0.1004353178200255E+01
   0.1005079253455248E+01
   0.1004534532738479E+01
   0.1003026642086591E+01
   0.1003464140067439E+01
   0.1004782168214374E+01
   0.1108826541486191E+01
   0.9993070480449421E+00
   0.1003019742322864E+01
   0.1006551082249973E+01
   0.9981396826001384E+00
   0.1004084926918164E+01
   0.1005405069991236E+01
   0.1015614884834846E+01
   0.1015876667139527E+01
   0.9995339279202570E+00
   0.1005662654125389E+01
   0.1068798975428797E+01
   0.9956093100160637E+00
   0.9787392078963709E+00
   0.9982515619065644E+00
   0.1003756803098459E+01
   0.9974781637096725E+00
   0.1005067160541489E+01
   0.1003492922254477E+01
   0.1003882963785267E+01
   0.1008558267289878E+01
   0.1002770171358578E+01
   0.9761829278091892E+00
   0.1003870162484306E+01
   0.1003717757912937E+01
   0.1006796311565193E+01
   0.9969307586888992E+00
   0.1013992038957674E+01
   0.9955141057881151E+00
   0.1000961263519389E+01
   0.1000634666324155E+01
   0.1006146415173313E+01
   0.1015191772408334E+01
   0.9781320052429443E+00
   0.8132726875763040E+00
   0.9743656797767415E+00
   0.9805125613429541E+00
   0.9748839111100215E+00
   0.9245904601247273E+00
   0.1500237082404471E+01
   0.9986239788059951E+00
   0.1029481585432272E+01
   0.1000096258429866E+01
   0.1004710757475867E+01
   0.1001465955482137E+01
   0.1002607127558779E+01
   0.1002633075045041E+01
   0.1001532736547256E+01
   0.1000233299656582E+01
   0.1000798279193228E+01
   0.1002873390170944E+01
   0.1062003783290406E+01
   0.9902581010819258E+00
   0.9994564420896700E+00
   0.1002662484689070E+01
   0.9953171555085659E+00
   0.1001002406990558E+01
   0.1002879399107969E+01
   0.1010128003246337E+01
   0.1005204047718680E+01
   0.9928126657649519E+00
   0.1002450323862026E+01
   0.1057652109611417E+01
   0.9885891702240023E+00
   0.9746004967726991E+00
   0.9942242056320205E+00
   0.9938174773897555E+00
   0.9927215137282398E+00
   0.1001077192873219E+01
   0.1000217935197244E+01
   0.9968568436535894E+00
   0.1000148584506269E+01
   0.9987452848724137E+00
   0.9723445222219397E+00
   0.1000743348432988E+01
   0.1000789333071458E+01
   0.1002597842914505E+01
   0.9880033860145000E+00
   0.1009035391391138E+01
   0.9918955225606214E+00
   0.1003896590087753E+01
   0.1002028208340879E+01
   0.1012272583271189E+01
   0.1028930369094520E+01
   0.9938697152106973E+00
   0.8112031065430212E+00
   0.9796776692179006E+00
   0.9975907733052753E+00
   0.9852329095773950E+00
   0.9070271875304016E+00
   0.1536276655772172E+01
   0.9814149726233213E+00
   0.1047844162251322E+01
   0.9999468820299611E+00
   0.1005474907759553E+01
   0.1001277833823291E+01
   0.1004160769485721E+01
   0.1005913970088937E+01
   0.1006565738170644E+01
   0.1005310302373917E+01
   0.1005450059314291E+01
   0.1004496133192935E+01
   0.1208898588100548E+01
   0.1011064758312632E+01
   0.1003768633888201E+01
   0.1014644128920695E+01
   0.1002741874803664E+01
   0.1006427136880063E+01
   0.1006091507943746E+01
   0.1021252222377452E+01
   0.1027949178591391E+01
   0.1011785915115447E+01
   0.1005471506014757E+01
   0.1104496330763999E+01
   0.1009513666996667E+01
   0.9944804317243312E+00
   0.1003459481759901E+01
   0.1031756981403701E+01
   0.1003188670797004E+01
   0.1007156208460142E+01
   0.1005820710915281E+01
   0.1020073261942846E+01
   0.1027547313553888E+01
   0.1005430664531623E+01
   0.9864842276141432E+00
   0.1005944432183639E+01
   0.1005431928626727E+01
   0.1011514440512638E+01
   0.9879997657857451E+00
   0.1018187476251808E+01
   0.9986056033086549E+00
SCALARS u double 1
LOOKUP_TABLE default
   0.4947058018921492E+00
   0.4987890876696768E+00
   0.5149250652284135E+00
   0.5145452170801781E+00
   0.4667586168599739E+00
   0.0000000000000000E+00
   0.0000000000000000E+00
   0.0000000000000000E+00
   0.0000000000000000E+00
   0.0000000000000000E+00
   0.0000000000000000E+00
   0.4678258817073090E+00
   0.4700460578009024E+00
   0.4970185376977927E+00
   0.4962753386542332E+00
   0.4981956197501772E+00
   0.4937165897457192E+00
   0.4920819199783428E+00
   0.4909163627748677E+00
   0.4909546456284019E+00
   0.4873792814291920E+00
   0.4949090595486386E+00
   0.4164620653157255E+00
   0.3942207512308579E+00
   0.5033073980445617E+00
   0.5481174009655440E+00
   0.5303379845698113E+00
   0.4870422499489345E+00
   0.4912244534858646E+00
   0.4802545829543739E+00
   0.4131771577670657E+00
   0.3128358885631782E+00
   0.4883613800145910E+00
   0.5088360459569260E+00
   0.5366260493161065E+00
   0.4565837938379874E+00
   0.5239706016463316E+00
   0.5638916825358328E+00
   0.5045381320405619E+00
   0.4913204168786562E+00
   0.4865267845302699E+00
   0.5620279378780212E+00
   0.5556640343017180E+00
   0.4907889654659008E+00
   0.3796672826085218E+00
   0.4841421914848445E+00
   0.4868375714331064E+00
   0.4865484577258959E+00
   0.4677299122384528E+00
   0.4802466021482449E+00
   0.5165907109788357E+00
   0.4989168530404194E+00
   0.4984489068448206E+00
   0.5113936365822856E+00
   0.5199125222462767E+00
   0.4748724215592924E+00
   0.0000000000000000E+00
   0.0000000000000000E+00
   0.0000000000000000E+00
   0.0000000000000000E+00
   0.0000000000000000E+00
   0.0000000000000000E+00
   0.4977969204785115E+00
   0.4784705377978450E+00
   0.4990787588571644E+00
   0.4965797136273403E+00
   0.4980622802825003E+00
   0.4967703548585184E+00
   0.4982732266085964E+00
   0.5008897078865243E+00
   0.5020259194213391E+00
   0.4975796284180182E+00
   0.4976310346304167E+00
   0.4621323639089203E+00
   0.4038156068735649E+00
   0.5067945461254099E+00
   0.5458276771982481E+00
   0.5349080134902363E+00
   0.4990942519977616E+00
   0.4975337424819960E+00
   0.4919393579826657E+00
   0.4287663605700170E+00
   0.3180202368740737E+00
   0.4955486198493178E+00
   0.5318163770826912E+00
   0.5515367910882731E+00
   0.4739651855332290E+00
   0.5369506216399055E+00
   0.5861990102524357E+00
   0.5305184015174728E+00
   0.5002143817781115E+00
   0.4990775784050671E+00
   0.5728673595870608E+00
   0.5728725036743678E+00
   0.5020473539958819E+00
   0.3863973789823796E+00
   0.4965334732128742E+00
   0.4976666977567278E+00
   0.5007890264687115E+00
   0.5035157954728601E+00
   0.4943208125477504E+00
   0.5264045709845897E+00
   0.4972548706035007E+00
   0.4987203508268762E+00
   0.5144350588403065E+00
   0.5224849700036771E+00
   0.4753883943053955E+00
   0.0000000000000000E+00
   0.0000000000000000E+00
   0.0000000000000000E+00
   0.0000000000000000E+00
   0.0000000000000000E+00
   0.0000000000000000E+00
   0.4806669860509775E+00
   0.4680661586237650E+00
   0.4952940597282765E+00
   0.4945870894205280E+00
   0.4970328973227029E+00
   0.4942825801901797E+00
   0.4946177664325216E+00
   0.4958763969661244E+00
   0.4968179799773899E+00
   0.4932807723017045E+00
   0.4953721695251763E+00
   0.4500067177437220E+00
   0.4022982638769693E+00
   0.5056760910948838E+00
   0.5513386448528362E+00
   0.5372802708277670E+00
   0.4941144467205547E+00
   0.4942083025896809E+00
   0.4865960983264190E+00
   0.4283120860312701E+00
   0.3211398012542018E+00
   0.4917522017150786E+00
   0.5370837712089686E+00
   0.5548208748657552E+00
   0.4769914221069644E+00
   0.5375456389639668E+00
   0.5894504010283615E+00
   0.5290606650187418E+00
   0.4965284134188864E+00
   0.4937133192686406E+00
   0.5785467375157644E+00
   0.5770025491981711E+00
   0.4980133050048086E+00
   0.3908550331753984E+00
   0.4921928903379060E+00
   0.4933241434115440E+00
   0.4964068710906051E+00
   0.4916057681046628E+00
   0.4900494615616024E+00
   0.5260890698090769E+00
   0.4981625966608298E+00
   0.4984979731677309E+00
   0.5135927579988053E+00
   0.5218019404793751E+00
   0.4752403104525790E+00
   0.0000000000000000E+00
   0.0000000000000000E+00
   0.0000000000000000E+00
   0.0000000000000000E+00
   0.0000000000000000E+00
   0.0000000000000000E+00
   0.4845661319900633E+00
   0.4707254367224766E+00
   0.4969511945415186E+00
   0.4954503593107943E+00
   0.4974664999716354E+00
   0.4963669282338444E+00
   0.4983307386974070E+00
   0.5006995187206792E+00
   0.5012059315651177E+00
   0.4960551582788352E+00
   0.4971423497680033E+00
   0.4571916056383780E+00
   0.4021053781685673E+00
   0.5067744526489383E+00
   0.5512064370833816E+00
   0.5386770728901253E+00
   0.4987119508461900E+00
   0.4974151787662168E+00
   0.4902887078779931E+00
   0.4282293997561946E+00
   0.3202937293171527E+00
   0.4949585456897718E+00
   0.5427727964877734E+00
   0.5541744369657161E+00
   0.4766063335721762E+00
   0.5406988099032290E+00
   0.5919760332929902E+00
   0.5340694059313488E+00
   0.4992731056678269E+00
   0.4980085954342930E+00
   0.5787792552186515E+00
   0.5781968072663940E+00
   0.5015412442086076E+00
   0.3911755068690578E+00
   0.4965093180365562E+00
   0.4976538361621250E+00
   0.5006529076165989E+00
   0.4977773531964642E+00
   0.4941810968214198E+00
   0.5286085612303417E+00
   0.4972548604341249E+00
   0.4987203701065419E+00
   0.5144350909062358E+00
   0.5224849945162338E+00
   0.4753886961421814E+00
   0.0000000000000000E+00
   0.0000000000000000E+00
   0.0000000000000000E+00
   0.0000000000000000E+00
   0.0000000000000000E+00
   0.0000000000000000E+00
   0.4806674456304120E+00
   0.4680665394369559E+00
   0.4952942130268141E+00
   0.4945871885856128E+00
   0.4970329365225592E+00
   0.4942827418608194E+00
   0.4946179902590957E+00
   0.4958766823493951E+00
   0.4968181649145816E+00
   0.4932811086262501E+00
   0.4953723093143232E+00
   0.4500063582800941E+00
   0.4022981495467050E+00
   0.5056763887178198E+00
   0.5513391041676312E+00
   0.5372808518711085E+00
   0.4941148632028214E+00
   0.4942085553255920E+00
   0.4865963404925939E+00
   0.4283113813766698E+00
   0.3211388818059482E+00
   0.4917524772177813E+00
   0.5370841258621337E+00
   0.5548207182530029E+00
   0.4769907789849636E+00
   0.5375463015369049E+00
   0.5894504237320783E+00
   0.5290612801321880E+00
   0.4965288027622102E+00
   0.4937138024055880E+00
   0.5785469763544647E+00
   0.5770027516822277E+00
   0.4980136768727783E+00
   0.3908544502094990E+00
   0.4921933077138138E+00
   0.4933245763728474E+00
   0.4964072650485633E+00
   0.4916066544443877E+00
   0.4900498582944541E+00
   0.5260897316499099E+00
   0.4989168686460924E+00
   0.4984489528036419E+00
   0.5113928432221251E+00
   0.5199115468705159E+00
   0.4748736576026636E+00
   0.0000000000000000E+00
   0.0000000000000000E+00
   0.0000000000000000E+00
   0.0000000000000000E+00
   0.0000000000000000E+00
   0.0000000000000000E+00
   0.4977942211847303E+00
   0.4784710365593192E+00
   0.4990783811469671E+00
   0.4965797392752702E+00
   0.4980623104522593E+00
   0.4967703566870039E+00
   0.4982732319404942E+00
   0.5008894065823493E+00
   0.5020256773578322E+00
   0.4975794285939156E+00
   0.4976309940694142E+00
   0.4621305340033889E+00
   0.4038177454326511E+00
   0.5067939331701530E+00
   0.5458250875029266E+00
   0.5349058252846597E+00
   0.4990937794313670E+00
   0.4975336328299897E+00
   0.4919399568674253E+00
   0.4287659965278722E+00
   0.3180214613376606E+00
   0.4955482018757210E+00
   0.5318149520856947E+00
   0.5515357308057107E+00
   0.4739656212810590E+00
   0.5369485627021745E+00
   0.5861953717534166E+00
   0.5305169016122598E+00
   0.5002140751759445E+00
   0.4990770540155954E+00
   0.5728639971985111E+00
   0.5728690226416191E+00
   0.5020472640874337E+00
   0.3863969901311948E+00
   0.4965330005316080E+00
   0.4976662362389891E+00
   0.5007890254248788E+00
   0.5035148356332148E+00
   0.4943210837230564E+00
   0.5264024875525861E+00
   0.4947071066648971E+00
   0.4987895718185769E+00
   0.5149252938442846E+00
   0.5145479563880592E+00
   0.4667639800568504E+00
   0.0000000000000000E+00
   0.0000000000000000E+00
   0.0000000000000000E+00
   0.0000000000000000E+00
   0.0000000000000000E+00
   0.0000000000000000E+00
   0.4678281383486691E+00
   0.4700493223117363E+00
   0.4970184113862050E+00
   0.4962755900721615E+00
   0.4981957789152872E+00
   0.4937170204532514E+00
   0.4920831051471745E+00
   0.4909177670780584E+00
   0.4909570867334379E+00
   0.4873817380626719E+00
   0.4949093818487894E+00
   0.4164633344574968E+00
   0.3942276575127218E+00
   0.5033100235469411E+00
   0.5481183055703370E+00
   0.5303404072906834E+00
   0.4870439570638532E+00
   0.4912253563943392E+00
   0.4802584879215305E+00
   0.4131823710794288E+00
   0.3128421884186103E+00
   0.4883617010961416E+00
   0.5088373797115128E+00
   0.5366307529651546E+00
   0.4565902524941476E+00
   0.5239733004385505E+00
   0.5638920164349533E+00
   0.5045412452400238E+00
   0.4913237924300912E+00
   0.4865287135939201E+00
   0.5620291520455175E+00
   0.5556656216794251E+00
   0.4907933734066852E+00
   0.3796701693618727E+00
   0.4841433776816231E+00
   0.4868386445619985E+00
   0.4865527690448341E+00
   0.4677341534687814E+00
   0.4802507460174349E+00
   0.5165940767653336E+00
SCALARS v double 1
LOOKUP_TABLE default
  -0.1212548840898612E-02
   0.1924306956683673E-02
   0.4393987879726909E-02
   0.1426398531636682E-01
   0.5247144974245326E-02
   0.0000000000000000E+00
   0.0000000000000000E+00
   0.0000000000000000E+00
   0.0000000000000000E+00
   0.0000000000000000E+00
   0.0000000000000000E+00
   0.3627921270092643E-01
  -0.6933327202451335E-02
   0.3539451570417052E-02
   0.7249185800602790E-03
   0.7519584734274166E-03
   0.1382976381392266E-02
   0.1167760965025285E-02
  -0.4276264920524893E-04
  -0.6423637137581120E-03
  -0.1275905630926454E-02
   0.9891661237826507E-03
   0.1481688989868468E+00
   0.9242622080257163E-02
   0.3357103306521503E-02
   0.6207671181848205E-02
   0.9343476813458126E-03
   0.5804527567302496E-03
   0.1696345663686731E-02
  -0.3393350640151989E-02
   0.2667040517700840E-01
   0.1303865331820856E-01
   0.4436538135342736E-02
   0.2304940057900538E-01
   0.1491170532869348E-01
   0.7341352263574520E-03
   0.8227830043488305E-02
   0.2661166174572977E-01
   0.2275655312769856E-01
  -0.5560616214808735E-03
  -0.4930507577508358E-03
   0.2228622678386526E-01
   0.2803237172151044E-01
  -0.1739356426325753E-02
  -0.6153220529416300E-02
   0.3172619020951389E-02
   0.3772526806783319E-02
  -0.3955591851781908E-02
   0.4541543692077975E-01