# vtk DataFile Version 2.0
FUN3D:global_image_vtk
ASCII
DATASET UNSTRUCTURED_GRID
POINTS 357 double
    0.5000000000000000E+01    0.0000000000000000E+00    0.2500000000000000E+01
    0.5000000000000000E+01    0.0000000000000000E+00    0.1500000000000000E+01
    0.5000000000000000E+01    0.0000000000000000E+00    0.5000000000000000E+00
    0.5000000000000000E+01    0.0000000000000000E+00   -0.5000000000000000E+00
    0.5000000000000000E+01    0.0000000000000000E+00   -0.1500000000000000E+01
    0.5000000000000000E+01    0.0000000000000000E+00   -0.2500000000000000E+01
    0.4000000000000000E+01    0.0000000000000000E+00   -0.2500000000000000E+01
    0.3000000000000000E+01    0.0000000000000000E+00   -0.2500000000000000E+01
    0.2000000000000000E+01    0.0000000000000000E+00   -0.2500000000000000E+01
    0.9999999999999998E+00    0.0000000000000000E+00   -0.2500000000000000E+01
    0.0000000000000000E+00    0.0000000000000000E+00   -0.2500000000000000E+01
    0.0000000000000000E+00    0.0000000000000000E+00   -0.1500000000000000E+01
    0.0000000000000000E+00    0.0000000000000000E+00   -0.5000000000000000E+00
    0.0000000000000000E+00    0.0000000000000000E+00    0.5000000000000000E+00
    0.0000000000000000E+00    0.0000000000000000E+00    0.1500000000000000E+01
    0.0000000000000000E+00    0.0000000000000000E+00    0.2500000000000000E+01
    0.1000000000000000E+01    0.0000000000000000E+00    0.2500000000000000E+01
    0.2000000000000000E+01    0.0000000000000000E+00    0.2500000000000000E+01
    0.3000000000000000E+01    0.0000000000000000E+00    0.2500000000000000E+01
    0.4000000000000000E+01    0.0000000000000000E+00    0.2500000000000000E+01
    0.4251722454414101E+01    0.0000000000000000E+00    0.1683881519811194E+01
    0.6137332127746504E+00    0.0000000000000000E+00    0.1857879939968904E+01
    0.5055778377301318E+00    0.0000000000000000E+00   -0.1984051145810370E+01
    0.4417350419147004E+01    0.0000000000000000E+00   -0.1798049780917599E+01
    0.4277413896341787E+01    0.0000000000000000E+00    0.7849806286986014E+00
    0.4308949446070184E+01    0.0000000000000000E+00   -0.1030628045339280E+00
    0.3520446556869569E+01    0.0000000000000000E+00    0.1794049766750259E+00
    0.2591686382569276E+01    0.0000000000000000E+00    0.1667295362171870E+01
    0.1306794966956192E+01    0.0000000000000000E+00    0.1758138528035871E+01
    0.7010346092308208E+00    0.0000000000000000E+00    0.3961722714940701E-01
    0.2308484603929350E+01    0.0000000000000000E+00   -0.1644203313594280E+01
    0.2985842179142563E+01    0.0000000000000000E+00   -0.1902408850608312E+01
    0.7941286090671454E+00    0.0000000000000000E+00    0.1001771779085911E+01
    0.1020081380390785E+01    0.0000000000000000E+00   -0.1456956300840256E+01
    0.4356436167904402E+01    0.0000000000000000E+00   -0.1022551130153989E+01
    0.3730315927830617E+01    0.0000000000000000E+00   -0.1467697774434008E+01
    0.2084566650673803E+01    0.0000000000000000E+00   -0.2237556063676878E+00
    0.1900542590153839E+01    0.0000000000000000E+00   -0.1088755785946356E+01
    0.1324761360056765E+01    0.0000000000000000E+00   -0.5267852841860601E+00
    0.3681169751640886E+01    0.0000000000000000E+00    0.1040160628527462E+01
    0.3418876656618056E+01    0.0000000000000000E+00    0.1726168461930342E+01
    0.3751175205920376E+01    0.0000000000000000E+00   -0.6691259304140329E+00
    0.2889801815813465E+01    0.0000000000000000E+00   -0.8562661438192326E+00
    0.3017983410224082E+01    0.0000000000000000E+00    0.9231712184526961E+00
    0.1645821714894795E+01    0.0000000000000000E+00   -0.1837983080076178E+01
    0.1513509181197389E+01    0.0000000000000000E+00    0.1108836692078749E+01
    0.1919398798697967E+01    0.0000000000000000E+00    0.1580342757081665E+01
    0.2193859429875553E+01    0.0000000000000000E+00    0.7740897355665203E+00
    0.6091754699356742E+00    0.0000000000000000E+00   -0.7888248715753817E+00
    0.1441359832811715E+01    0.0000000000000000E+00    0.3490936567660688E+00
    0.2716632372076206E+01    0.0000000000000000E+00    0.1359772398136161E+00
    0.5000000000000000E+01   -0.8333333333333334E+00    0.2500000000000000E+01
    0.5000000000000000E+01   -0.8333333333333334E+00    0.1500000000000000E+01
    0.5000000000000000E+01   -0.8333333333333334E+00    0.5000000000000000E+00
    0.5000000000000000E+01   -0.8333333333333334E+00   -0.5000000000000000E+00
    0.5000000000000000E+01   -0.8333333333333334E+00   -0.1500000000000000E+01
    0.5000000000000000E+01   -0.8333333333333334E+00   -0.2500000000000000E+01
    0.4000000000000000E+01   -0.8333333333333334E+00   -0.2500000000000000E+01
    0.3000000000000000E+01   -0.8333333333333334E+00   -0.2500000000000000E+01
    0.2000000000000000E+01   -0.8333333333333334E+00   -0.2500000000000000E+01
    0.9999999999999998E+00   -0.8333333333333334E+00   -0.2500000000000000E+01
    0.0000000000000000E+00   -0.8333333333333334E+00   -0.2500000000000000E+01
    0.0000000000000000E+00   -0.8333333333333334E+00   -0.1500000000000000E+01
    0.0000000000000000E+00   -0.8333333333333334E+00   -0.5000000000000000E+00
    0.0000000000000000E+00   -0.8333333333333334E+00    0.5000000000000000E+00
    0.0000000000000000E+00   -0.8333333333333334E+00    0.1500000000000000E+01
    0.0000000000000000E+00   -0.8333333333333334E+00    0.2500000000000000E+01
    0.1000000000000000E+01   -0.8333333333333334E+00    0.2500000000000000E+01
    0.2000000000000000E+01   -0.8333333333333334E+00    0.2500000000000000E+01
    0.3000000000000000E+01   -0.8333333333333334E+00    0.2500000000000000E+01
    0.4000000000000000E+01   -0.8333333333333334E+00    0.2500000000000000E+01
    0.4251722454414101E+01   -0.8333333333333334E+00    0.1683881519811194E+01
    0.6137332127746504E+00   -0.8333333333333334E+00    0.1857879939968904E+01
    0.5055778377301318E+00   -0.8333333333333334E+00   -0.1984051145810370E+01
    0.4417350419147004E+01   -0.8333333333333334E+00   -0.1798049780917599E+01
    0.4277413896341787E+01   -0.8333333333333334E+00    0.7849806286986014E+00
    0.4308949446070184E+01   -0.8333333333333334E+00   -0.1030628045339280E+00
    0.3520446556869569E+01   -0.8333333333333334E+00    0.1794049766750259E+00
    0.2591686382569276E+01   -0.8333333333333334E+00    0.1667295362171870E+01
    0.1306794966956192E+01   -0.8333333333333334E+00    0.1758138528035871E+01
    0.7010346092308208E+00   -0.8333333333333334E+00    0.3961722714940701E-01
    0.2308484603929350E+01   -0.8333333333333334E+00   -0.1644203313594280E+01
    0.2985842179142563E+01   -0.8333333333333334E+00   -0.1902408850608312E+01
    0.7941286090671454E+00   -0.8333333333333334E+00    0.1001771779085911E+01
    0.1020081380390785E+01   -0.8333333333333334E+00   -0.1456956300840256E+01
    0.4356436167904402E+01   -0.8333333333333334E+00   -0.1022551130153989E+01
    0.3730315927830617E+01   -0.8333333333333334E+00   -0.1467697774434008E+01
    0.2084566650673803E+01   -0.8333333333333334E+00   -0.2237556063676878E+00
    0.1900542590153839E+01   -0.8333333333333334E+00   -0.1088755785946356E+01
    0.1324761360056765E+01   -0.8333333333333334E+00   -0.5267852841860601E+00
    0.3681169751640886E+01   -0.8333333333333334E+00    0.1040160628527462E+01
    0.3418876656618056E+01   -0.8333333333333334E+00    0.1726168461930342E+01
    0.3751175205920376E+01   -0.8333333333333334E+00   -0.6691259304140329E+00
    0.2889801815813465E+01   -0.8333333333333334E+00   -0.8562661438192326E+00
    0.3017983410224082E+01   -0.8333333333333334E+00    0.9231712184526961E+00
    0.1645821714894795E+01   -0.8333333333333334E+00   -0.1837983080076178E+01
    0.1513509181197389E+01   -0.8333333333333334E+00    0.1108836692078749E+01
    0.1919398798697967E+01   -0.8333333333333334E+00    0.1580342757081665E+01
    0.2193859429875553E+01   -0.8333333333333334E+00    0.7740897355665203E+00
    0.6091754699356742E+00   -0.8333333333333334E+00   -0.7888248715753817E+00
    0.1441359832811715E+01   -0.8333333333333334E+00    0.3490936567660688E+00
    0.2716632372076206E+01   -0.8333333333333334E+00    0.1359772398136161E+00
    0.5000000000000000E+01   -0.1666666666666667E+01    0.2500000000000000E+01
    0.5000000000000000E+01   -0.1666666666666667E+01    0.1500000000000000E+01
    0.5000000000000000E+01   -0.1666666666666667E+01    0.5000000000000000E+00
    0.5000000000000000E+01   -0.1666666666666667E+01   -0.5000000000000000E+00
    0.5000000000000000E+01   -0.1666666666666667E+01   -0.1500000000000000E+01
    0.5000000000000000E+01   -0.1666666666666667E+01   -0.2500000000000000E+01
    0.4000000000000000E+01   -0.1666666666666667E+01   -0.2500000000000000E+01
    0.3000000000000000E+01   -0.1666666666666667E+01   -0.2500000000000000E+01
    0.2000000000000000E+01   -0.1666666666666667E+01   -0.2500000000000000E+01
    0.9999999999999998E+00   -0.1666666666666667E+01   -0.2500000000000000E+01
    0.0000000000000000E+00   -0.1666666666666667E+01   -0.2500000000000000E+01
    0.0000000000000000E+00   -0.1666666666666667E+01   -0.1500000000000000E+01
    0.0000000000000000E+00   -0.1666666666666667E+01   -0.5000000000000000E+00
    0.0000000000000000E+00   -0.1666666666666667E+01    0.5000000000000000E+00
    0.0000000000000000E+00   -0.1666666666666667E+01    0.1500000000000000E+01
    0.0000000000000000E+00   -0.1666666666666667E+01    0.2500000000000000E+01
    0.1000000000000000E+01   -0.1666666666666667E+01    0.2500000000000000E+01
    0.2000000000000000E+01   -0.1666666666666667E+01    0.2500000000000000E+01
    0.3000000000000000E+01   -0.1666666666666667E+01    0.2500000000000000E+01
    0.4000000000000000E+01   -0.1666666666666667E+01    0.2500000000000000E+01
    0.4251722454414101E+01   -0.1666666666666667E+01    0.1683881519811194E+01
    0.6137332127746504E+00   -0.1666666666666667E+01    0.1857879939968904E+01
    0.5055778377301318E+00   -0.1666666666666667E+01   -0.1984051145810370E+01
[...]
POINT_DATA 357
SCALARS rho double 1
LOOKUP_TABLE default
   0.1002616561362742E+01
   0.1002316945122409E+01
   0.1009861348245250E+01
   0.1020737560335810E+01
   0.9775273682429524E+00
   0.8139130020474780E+00
   0.9782831248612367E+00
   0.9823013777509869E+00
   0.9726781634415950E+00
   0.9251976782915494E+00
   0.1509539040024556E+01
   0.1010831977135708E+01
   0.1039702802422230E+01
   0.1005508095643795E+01
   0.1007053935994649E+01
   0.1003252594536107E+01
   0.1004967655662767E+01
   0.1004831087583064E+01
   0.1003618915588115E+01
   0.1002401326159869E+01
   0.1002865905967204E+01
   0.1005067509063831E+01
   0.1102010881618910E+01
   0.9921373144158041E+00
   0.1003054434096050E+01
   0.1005853640252255E+01
   0.9966192322932185E+00
   0.1003467686975993E+01
   0.1004967046639820E+01
   0.1012766194501489E+01
   0.1011264793178677E+01
   0.9937006196249591E+00
   0.1006725140296916E+01
   0.1060484840091465E+01
   0.9928991712576681E+00
   0.9730284077401441E+00
   0.9968099939087245E+00
   0.9985052195982662E+00
   0.9966232864991706E+00
   0.1004188465646768E+01
   0.1002776118277913E+01
   0.1001755007018391E+01
   0.1005816877781067E+01
   0.1001485151804638E+01
   0.9688107186352293E+00
   0.1003902029794343E+01
   0.1003681859784401E+01
   0.1004718011400929E+01
   0.9993118393685905E+00
   0.1011792071042840E+01
   0.9945177623443713E+00
   0.1002559827216725E+01
   0.1002222341831248E+01
   0.1009777721951083E+01
   0.1022529760610827E+01
   0.9835286626787728E+00
   0.8149709671714962E+00
   0.9786652021306714E+00
   0.9831677851630882E+00
   0.9723285969358725E+00
   0.9227892227956315E+00
   0.1511100672554430E+01
   0.1007738697263840E+01
   0.1039414812022575E+01
   0.1005191397694292E+01
   0.1007002628734999E+01
   0.1003214879140218E+01
   0.1004900085759815E+01
   0.1004743636787835E+01
   0.1003494704894984E+01
   0.1002280203223272E+01
   0.1002802196397982E+01
   0.1004998343709782E+01
   0.1102685218953113E+01
   0.9960799372136933E+00
   0.1003038056235229E+01
   0.1006090613830336E+01
   0.9966550226397392E+00
   0.1003320207717588E+01
   0.1004854288443317E+01
   0.1012537260891086E+01
   0.1012847495327227E+01
   0.9960246953375074E+00
   0.1006521535171907E+01
   0.1060681617796905E+01
   0.9949636501704636E+00
   0.9749487897925322E+00
   0.9963105469051371E+00
   0.9984588398941167E+00
   0.9959779017552680E+00
   0.1004160189348376E+01
   0.1002644822257417E+01
   0.1002382715946970E+01
   0.1005992931863847E+01
   0.1001375480213141E+01
   0.9695777884274456E+00
   0.1003675980443377E+01
   0.1003504495663333E+01
   0.1004643463030399E+01
   0.9980959671389640E+00
   0.1011695612584924E+01
   0.9941746792884760E+00
   0.1002594738973984E+01
   0.1002243305364403E+01
   0.1009792699308698E+01
   0.1022543005566625E+01
   0.9834947225190850E+00
   0.8151950978268252E+00
   0.9788122185016713E+00
   0.9834863832995050E+00
   0.9725410790753434E+00
   0.9225059964836202E+00
   0.1511613072797302E+01
   0.1007726282427432E+01
   0.1039555386406769E+01
   0.1005262054538346E+01
   0.1007042335827282E+01
   0.1003238326395889E+01
   0.1004952694250614E+01
   0.1004818045353190E+01
   0.1003577169218802E+01
   0.1002351468978905E+01
   0.1002849705729370E+01
   0.1005050385692275E+01
   0.1103226615464987E+01
   0.9960006189511309E+00
   0.1003064022371847E+01
   0.1006099961321070E+01
   0.9967048441193554E+00
   0.1003410064517710E+01
   0.1004929596352111E+01
   0.1012681742827375E+01
   0.1013077771426693E+01
   0.9961224859790285E+00
   0.1006620388950938E+01
   0.1061099888989851E+01
   0.9950748879393813E+00
   0.9750435165306039E+00
   0.9964523524128595E+00
   0.9986751084170380E+00
   0.9961360878870407E+00
   0.1004216529208550E+01
   0.1002726034937611E+01
   0.1002426275003800E+01
   0.1006159013207506E+01
   0.1001459477793243E+01
   0.9698865092161573E+00
   0.1003786313693194E+01
   0.1003601369356693E+01
   0.1004747935350385E+01
   0.9983043743060926E+00
   0.1011836937610086E+01
   0.9942670110546805E+00
   0.1002582957598674E+01
   0.1002226384569774E+01
   0.1009784913857902E+01
   0.1022589020398046E+01
   0.9837253776723750E+00
   0.8151887137017066E+00
   0.9789586476389927E+00
   0.9835420553623163E+00
   0.9725972125052338E+00
   0.9224740894184711E+00
   0.1511504276846280E+01
   0.1007539321978182E+01
   0.1039441121284209E+01
   0.1005189128727119E+01
   0.1007006237488820E+01
   0.1003216908642550E+01
   0.1004910082759610E+01
   0.1004764178653525E+01
   0.1003526528975399E+01
   0.1002317700114091E+01
   0.1002834569982960E+01
   0.1005005600675494E+01
   0.1102949179463844E+01
   0.9962054621107665E+00
   0.1003069077880208E+01
   0.1006168310470827E+01
   0.9967491796189258E+00
   0.1003359085633677E+01
   0.1004872077656254E+01
   0.1012571956541216E+01
   0.1013116859967664E+01
   0.9961378073514385E+00
   0.1006550059671454E+01
   0.1061002710506800E+01
   0.9951743495736103E+00
   0.9751087466447210E+00
   0.9964188370278488E+00
   0.9986503782641782E+00
   0.9960699276013539E+00
   0.1004210456434990E+01
   0.1002689092586318E+01
   0.1002540148507824E+01
   0.1006201753752953E+01
   0.1001432923681122E+01
   0.9697903571934777E+00
   0.1003717626520082E+01
   0.1003544169986819E+01
   0.1004700142981420E+01
   0.9981688972978823E+00
   0.1011763213145997E+01
   0.9942546179074163E+00
   0.1002594738093141E+01
   0.1002243306772965E+01
   0.1009792698354891E+01
   0.1022542993965850E+01
   0.9834947114101844E+00
   0.8151951106571083E+00
   0.9788122178480140E+00
   0.9834863714910029E+00
   0.9725410752046491E+00
   0.9225059996419174E+00
   0.1511613077248028E+01
   0.1007726298005093E+01
   0.1039555384922932E+01
   0.1005262052534627E+01
   0.1007042334820608E+01
   0.1003238325519668E+01
   0.1004952693636443E+01
   0.1004818044562048E+01
   0.1003577170644230E+01
   0.1002351469369021E+01
   0.1002849706016468E+01
   0.1005050384842191E+01
   0.1103226609812299E+01
   0.9960006080347422E+00
   0.1003064019811677E+01
   0.1006099957117121E+01
   0.9967048500294917E+00
   0.1003410065503931E+01
   0.1004929595150748E+01
   0.1012681742392236E+01
   0.1013077760835316E+01
   0.9961224813304370E+00
   0.1006620387200393E+01
   0.1061099877736656E+01
   0.9950748819690881E+00
   0.9750435036248114E+00
   0.9964523521446257E+00
   0.9986751049313559E+00
   0.9961360838367355E+00
   0.1004216527537068E+01
   0.1002726036236078E+01
   0.1002426266333836E+01
   0.1006159010192264E+01
   0.1001459481478257E+01
   0.9698865083370137E+00
   0.1003786312976076E+01
   0.1003601368087180E+01
   0.1004747933702566E+01
   0.9983043754587332E+00
   0.1011836937331666E+01
   0.9942670150512922E+00
   0.1002559829352644E+01
   0.1002222343026580E+01
   0.1009777715745299E+01
   0.1022529724674018E+01
   0.9835285984503696E+00
   0.8149710812659928E+00
   0.9786652766631133E+00
   0.9831678009142751E+00
   0.9723286568643638E+00
   0.9227892657572314E+00
   0.1511100729665421E+01
   0.1007738777060057E+01
   0.1039414826768315E+01
   0.1005191397959815E+01
   0.1007002628515363E+01
   0.1003214876663224E+01
   0.1004900084405285E+01
   0.1004743631383501E+01
   0.1003494705940304E+01
   0.1002280201645338E+01
   0.1002802199329629E+01
   0.1004998342219076E+01
   0.1102685121486880E+01
   0.9960799041203378E+00
   0.1003038046273976E+01
   0.1006090601967767E+01
   0.9966550227085217E+00
   0.1003320207907518E+01
   0.1004854286128488E+01
   0.1012537255992211E+01
   0.1012847485503208E+01
   0.9960246938927640E+00
   0.1006521534441953E+01
   0.1060681582791229E+01
   0.9949636049326597E+00
   0.9749487256344240E+00
   0.9963105338250946E+00
   0.9984588189104553E+00
   0.9959778920355685E+00
   0.1004160189865165E+01
   0.1002644824603184E+01
   0.1002382668180662E+01
   0.1005992895115810E+01
   0.1001375489638215E+01
   0.9695777795542738E+00
   0.1003675979640663E+01
   0.1003504492970013E+01
   0.1004643453652997E+01
   0.9980959810323037E+00
   0.1011695606799732E+01
   0.9941746732620924E+00
   0.1002616571891102E+01
   0.1002316952870852E+01
   0.1009861337777250E+01
   0.1020737457381970E+01
   0.9775272223143354E+00
   0.8139132834769571E+00
   0.9782832810996214E+00
   0.9823014250187522E+00
   0.9726782938116194E+00
   0.9251977518260461E+00
   0.1509539217576434E+01
   0.1010832130438058E+01
   0.1039702804791152E+01
   0.1005508094452351E+01
   0.1007053936174107E+01
   0.1003252592983978E+01
   0.1004967653544787E+01
   0.1004831078175631E+01
   0.1003618920259926E+01
   0.1002401328708719E+01
   0.1002865915644644E+01
   0.1005067507524488E+01
   0.1102010727940775E+01
   0.9921372915506910E+00
   0.1003054414291094E+01
   0.1005853594594833E+01
   0.9966192237395430E+00
   0.1003467690477440E+01
   0.1004967040454761E+01
   0.1012766185284212E+01
   0.1011264778415799E+01
   0.9937006061754882E+00
   0.1006725139163407E+01
   0.1060484770213999E+01
   0.9928990418008324E+00
   0.9730282946600596E+00
   0.9968099649132756E+00
   0.9985051602418433E+00
   0.9966232683227435E+00
   0.1004188471057218E+01
   0.1002776128267994E+01
   0.1001754914781021E+01
   0.1005816805666979E+01
   0.1001485174914913E+01
   0.9688106951908783E+00
   0.1003902025717412E+01
   0.1003681854567370E+01
   0.1004717992368011E+01
   0.9993118651845191E+00
   0.1011792056575804E+01
   0.9945177493685941E+00
SCALARS u double 1
LOOKUP_TABLE default
   0.4977032602778529E+00
   0.4991932054685031E+00
   0.5148093232256938E+00
   0.5220046848130933E+00
   0.4738822389450048E+00
   0.0000000000000000E+00
   0.0000000000000000E+00
   0.0000000000000000E+00
   0.0000000000000000E+00
   0.0000000000000000E+00
   0.0000000000000000E+00
   0.4793506140943143E+00
   0.4667673406523631E+00
   0.4942477115906124E+00
   0.4935718135921392E+00
   0.4961740341354891E+00
   0.4941044340885926E+00
   0.4954054698271407E+00
   0.4976818304851380E+00
   0.4986142351540130E+00
   0.4952785820496188E+00
   0.4948285492760682E+00
   0.4518265059855152E+00
   0.3969579767359013E+00
   0.5074377775854121E+00
   0.5527303292528708E+00
   0.5406448536394254E+00
   0.4966247844369779E+00
   0.4948242957913324E+00
   0.4884963475517887E+00
   0.4237268225092772E+00
   0.3186747543957917E+00
   0.4921853636477206E+00
   0.5409690535441305E+00
   0.5516561922307934E+00
   0.4724946823320645E+00
   0.5415322940267498E+00
   0.5917033815345742E+00
   0.5333953275109573E+00
   0.4992027065257659E+00
   0.4964209249077241E+00
   0.5788401041897104E+00
   0.5773686631353480E+00
   0.5014322296289752E+00
   0.3900568406746479E+00
   0.4947101248993646E+00
   0.4951998174515574E+00
   0.5000037158915437E+00
   0.4930692060216658E+00
   0.4929403812552658E+00
   0.5301073908193202E+00
   0.4978811143164155E+00
   0.4988762093319632E+00
   0.5143951411340402E+00
   0.5235823879228390E+00
   0.4771942212685704E+00
   0.0000000000000000E+00
   0.0000000000000000E+00
   0.0000000000000000E+00
   0.0000000000000000E+00
   0.0000000000000000E+00
   0.0000000000000000E+00
   0.4807088249463223E+00
   0.4673202697711345E+00
   0.4946061146898858E+00
   0.4936275217245716E+00
   0.4962108713729883E+00
   0.4941929861170793E+00
   0.4955596935283422E+00
   0.4980446757809024E+00
   0.4990612674285359E+00
   0.4952156202165580E+00
   0.4949296003507838E+00
   0.4554240263309278E+00
   0.4048659427925493E+00
   0.5064337092143837E+00
   0.5528328368290149E+00
   0.5400958987883802E+00
   0.4969032063511012E+00
   0.4950181227428406E+00
   0.4887499107708412E+00
   0.4334612818701210E+00
   0.3253280399897682E+00
   0.4924537462938213E+00
   0.5463252396446647E+00
   0.5582383422836787E+00
   0.4829640210702007E+00
   0.5412667688196884E+00
   0.5970124298777013E+00
   0.5336663918626073E+00
   0.4985845008945849E+00
   0.4965274351207618E+00
   0.5826630547543067E+00
   0.5826605698711810E+00
   0.5008679047794951E+00
   0.3974799445305449E+00
   0.4949853770587894E+00
   0.4954647901400856E+00
   0.4999406693376361E+00
   0.4931323748112075E+00
   0.4928659445898910E+00
   0.5292129318822100E+00
   0.4978490204580550E+00
   0.4988905154629091E+00
   0.5144725655898850E+00
   0.5237711652580855E+00
   0.4773600175489678E+00
   0.0000000000000000E+00
   0.0000000000000000E+00
   0.0000000000000000E+00
   0.0000000000000000E+00
   0.0000000000000000E+00
   0.0000000000000000E+00
   0.4805186284526279E+00
   0.4671729137053747E+00
   0.4945338400074177E+00
   0.4935861076016880E+00
   0.4961884436125389E+00
   0.4941125901555098E+00
   0.4954278702058583E+00
   0.4978864567954495E+00
   0.4989264302722081E+00
   0.4951450193520195E+00
   0.4948531728350562E+00
   0.4553970512945515E+00
   0.4051654498884810E+00
   0.5064659448436216E+00
   0.5530077817230521E+00
   0.5401370544684270E+00
   0.4967552238641036E+00
   0.4948916053235042E+00
   0.4885435461005538E+00
   0.4336755374790430E+00
   0.3256648752640049E+00
   0.4923144474444325E+00
   0.5461346173954141E+00
   0.5586014574605229E+00
   0.4833117878870974E+00
   0.5411039570346069E+00
   0.5969553552756233E+00
   0.5334300080220117E+00
   0.4985318515652164E+00
   0.4964001506482382E+00
   0.5828594422873902E+00
   0.5827395507289057E+00
   0.5007552472151029E+00
   0.3974041765785835E+00
   0.4948222982228973E+00
   0.4953139171760134E+00
   0.4997852179182833E+00
   0.4927293240698551E+00
   0.4926612574848163E+00
   0.5291171589919731E+00
   0.4978556711940224E+00
   0.4988788802607642E+00
   0.5144189520052868E+00
   0.5235648620345136E+00
   0.4770670318533509E+00
   0.0000000000000000E+00
   0.0000000000000000E+00
   0.0000000000000000E+00
   0.0000000000000000E+00
   0.0000000000000000E+00
   0.0000000000000000E+00
   0.4806943724388705E+00
   0.4673229312886876E+00
   0.4946144414916953E+00
   0.4936261039282279E+00
   0.4962107184359917E+00
   0.4941804952631514E+00
   0.4955250269048436E+00
   0.4979848676938649E+00
   0.4989897397792317E+00
   0.4951437179777544E+00
   0.4949159393576478E+00
   0.4554018732759231E+00
   0.4047328561660355E+00
   0.5063823346031942E+00
   0.5527596317722466E+00
   0.5399529134986932E+00
   0.4968252711105430E+00
   0.4949764358223647E+00
   0.4886651804790069E+00
   0.4332784473446455E+00
   0.3253223611518068E+00
   0.4924046131140638E+00
   0.5460615808877834E+00
   0.5580210981836733E+00
   0.4828152543842297E+00
   0.5410466745237007E+00
   0.5967599300816971E+00
   0.5334273712368375E+00
   0.4984849597587944E+00
   0.4964363413995968E+00
   0.5824828670356965E+00
   0.5824290043206768E+00
   0.5007411483419739E+00
   0.3971707614329178E+00
   0.4949047136010015E+00
   0.4953940894112425E+00
   0.4998208503967951E+00
   0.4928382884266487E+00
   0.4927251906068842E+00
   0.5290304569995590E+00
   0.4978490162346003E+00
   0.4988905145356362E+00
   0.5144725752370733E+00
   0.5237711846296135E+00
   0.4773600178215986E+00
   0.0000000000000000E+00
   0.0000000000000000E+00
   0.0000000000000000E+00
   0.0000000000000000E+00
   0.0000000000000000E+00
   0.0000000000000000E+00
   0.4805186255285623E+00
   0.4671729099267533E+00
   0.4945338414486861E+00
   0.4935861084327222E+00
   0.4961884439556670E+00
   0.4941125912794086E+00
   0.4954278694034690E+00
   0.4978864519498900E+00
   0.4989264228890490E+00
   0.4951450181085540E+00
   0.4948531734542339E+00
   0.4553970512909110E+00
   0.4051654374779828E+00
   0.5064659534093920E+00
   0.5530078041197536E+00
   0.5401370625413391E+00
   0.4967552219495771E+00
   0.4948916066623232E+00
   0.4885435468725809E+00
   0.4336755314296076E+00
   0.3256648681560477E+00
   0.4923144494217692E+00
   0.5461346290189345E+00
   0.5586014669231963E+00
   0.4833117962116164E+00
   0.5411039718417743E+00
   0.5969553707854149E+00
   0.5334300277507957E+00
   0.4985318542435312E+00
   0.4964001496719921E+00
   0.5828594605657273E+00
   0.5827395651727512E+00
   0.5007552400559171E+00
   0.3974041735602180E+00
   0.4948223027390651E+00
   0.4953139215170833E+00
   0.4997852192009912E+00
   0.4927293459146428E+00
   0.4926612600297235E+00
   0.5291171647091557E+00
   0.4978811147741782E+00
   0.4988762083352530E+00
   0.5143951460504630E+00
   0.5235823577968747E+00
   0.4771942967026607E+00
   0.0000000000000000E+00
   0.0000000000000000E+00
   0.0000000000000000E+00
   0.0000000000000000E+00
   0.0000000000000000E+00
   0.0000000000000000E+00
   0.4807087489342271E+00
   0.4673202645357066E+00
   0.4946061087863398E+00
   0.4936275249131651E+00
   0.4962108732170092E+00
   0.4941929897385544E+00
   0.4955596994370439E+00
   0.4980446743071298E+00
   0.4990612670429553E+00
   0.4952156214601492E+00
   0.4949296023349269E+00
   0.4554240348211569E+00
   0.4048660149347254E+00
   0.5064337140486653E+00
   0.5528328188671072E+00
   0.5400958825118394E+00
   0.4969032059319345E+00
   0.4950181264496326E+00
   0.4887499322677225E+00
   0.4334612479323514E+00
   0.3253280080644338E+00
   0.4924537429131951E+00
   0.5463252261539878E+00
   0.5582382880434457E+00
   0.4829640026129565E+00
   0.5412667664486163E+00
   0.5970124287225196E+00
   0.5336664133836307E+00
   0.4985845082370833E+00
   0.4965274264175330E+00
   0.5826631143674712E+00
   0.5826605462657621E+00
   0.5008679115509835E+00
   0.3974798277640592E+00
   0.4949853789450643E+00
   0.4954647952903715E+00
   0.4999406793859470E+00
   0.4931323421940564E+00
   0.4928659643500694E+00
   0.5292129535687773E+00
   0.4977032598161600E+00
   0.4991932244303080E+00
   0.5148094105768813E+00
   0.5220046973813113E+00
   0.4738823346830094E+00
   0.0000000000000000E+00
   0.0000000000000000E+00
   0.0000000000000000E+00
   0.0000000000000000E+00
   0.0000000000000000E+00
   0.0000000000000000E+00
   0.4793504754557540E+00
   0.4667673674347080E+00
   0.4942476878593136E+00
   0.4935718188996497E+00
   0.4961740367476409E+00
   0.4941044410928593E+00
   0.4954054880540447E+00
   0.4976818222645656E+00
   0.4986142237217789E+00
   0.4952786020227120E+00
   0.4948285534329143E+00
   0.4518264122051801E+00
   0.3969579539056832E+00
   0.5074378763461296E+00
   0.5527304257471931E+00
   0.5406449559204904E+00
   0.4966247884363149E+00
   0.4948243094787288E+00
   0.4884964248907512E+00
   0.4237266041536630E+00
   0.3186745549159585E+00
   0.4921853541883833E+00
   0.5409689319788065E+00
   0.5516560457977261E+00
   0.4724945029276426E+00
   0.5415324350821917E+00
   0.5917033626861004E+00
   0.5333954498930956E+00
   0.4992027817285522E+00
   0.4964209113143961E+00
   0.5788402344242272E+00
   0.5773686222313739E+00
   0.5014323128270917E+00
   0.3900565006967965E+00
   0.4947101340035706E+00
   0.4951998328826552E+00
   0.5000037874280631E+00
   0.4930692119272264E+00
   0.4929404733093937E+00
   0.5301075955692667E+00
SCALARS v double 1
LOOKUP_TABLE default
   0.0000000000000000E+00
   0.0000000000000000E+00
   0.0000000000000000E+00
   0.0000000000000000E+00
   0.0000000000000000E+00
   0.0000000000000000E+00
   0.0000000000000000E+00
   0.0000000000000000E+00
   0.0000000000000000E+00
   0.0000000000000000E+00
   0.0000000000000000E+00
   0.0000000000000000E+00
   0.0000000000000000E+00
   0.0000000000000000E+00
   0.0000000000000000E+00
   0.0000000000000000E+00
   0.0000000000000000E+00
   0.0000000000000000E+00
   0.0000000000000000E+00
   0.0000000000000000E+00
   0.0000000000000000E+00
   0.0000000000000000E+00
   0.0000000000000000E+00
   0.0000000000000000E+00
   0.0000000000000000E+00
   0.0000000000000000E+00
   0.0000000000000000E+00
   0.0000000000000000E+00
   0.0000000000000000E+00
   0.0000000000000000E+00
   0.0000000000000000E+00
   0.0000000000000000E+00
   0.0000000000000000E+00
   0.0000000000000000E+00
   0.0000000000000000E+00
   0.0000000000000000E+00
   0.0000000000000000E+00
   0.0000000000000000E+00
   0.0000000000000000E+00
   0.0000000000000000E+00
   0.0000000000000000E+00
   0.0000000000000000E+00
   0.0000000000000000E+00
   0.0000000000000000E+00
   0.0000000000000000E+00
   0.0000000000000000E+00
   0.0000000000000000E+00
   0.0000000000000000E+00
   0.0000000000000000E+00