title="tecplot geometry and solution file"
variables = x y z rho u v w p mach temperature
zone t="boundary 1 bc-1", solutiontime= 0.5000000E+02, strandid=1001, i=42, j=30, f=feblock
  0.000000000000E+00  0.000000000000E+00  0.000000000000E+00  0.000000000000E+00  0.000000000000E+00  0.000000000000E+00  0.000000000000E+00
  0.000000000000E+00  0.000000000000E+00  0.000000000000E+00  0.000000000000E+00  0.000000000000E+00  0.000000000000E+00  0.000000000000E+00
  0.000000000000E+00  0.000000000000E+00  0.000000000000E+00  0.000000000000E+00  0.000000000000E+00  0.000000000000E+00  0.000000000000E+00
  0.000000000000E+00  0.000000000000E+00  0.000000000000E+00  0.000000000000E+00  0.000000000000E+00  0.000000000000E+00  0.000000000000E+00
  0.000000000000E+00  0.000000000000E+00  0.000000000000E+00  0.000000000000E+00  0.000000000000E+00  0.000000000000E+00  0.000000000000E+00
  0.000000000000E+00  0.000000000000E+00  0.000000000000E+00  0.000000000000E+00  0.000000000000E+00  0.000000000000E+00  0.000000000000E+00
  0.000000000000E+00 -0.833333333333E+00  0.000000000000E+00  0.000000000000E+00  0.000000000000E+00 -0.166666666667E+01 -0.833333333333E+00
 -0.833333333333E+00 -0.833333333333E+00  0.000000000000E+00 -0.250000000000E+01 -0.166666666667E+01 -0.166666666667E+01 -0.166666666667E+01
 -0.833333333333E+00  0.000000000000E+00 -0.333333333333E+01 -0.250000000000E+01 -0.250000000000E+01 -0.250000000000E+01 -0.166666666667E+01
 -0.833333333333E+00 -0.416666666667E+01 -0.333333333333E+01 -0.333333333333E+01 -0.333333333333E+01 -0.250000000000E+01 -0.166666666667E+01
 -0.500000000000E+01 -0.416666666667E+01 -0.416666666667E+01 -0.416666666667E+01 -0.333333333333E+01 -0.250000000000E+01 -0.500000000000E+01
 -0.500000000000E+01 -0.500000000000E+01 -0.416666666667E+01 -0.333333333333E+01 -0.500000000000E+01 -0.416666666667E+01 -0.500000000000E+01
  0.500000000000E+01  0.500000000000E+01  0.400000000000E+01  0.200000000000E+01  0.300000000000E+01  0.500000000000E+01  0.400000000000E+01
  0.200000000000E+01  0.300000000000E+01  0.100000000000E+01  0.500000000000E+01  0.400000000000E+01  0.200000000000E+01  0.300000000000E+01
  0.100000000000E+01  0.000000000000E+00  0.500000000000E+01  0.400000000000E+01  0.200000000000E+01  0.300000000000E+01  0.100000000000E+01
  0.000000000000E+00  0.500000000000E+01  0.400000000000E+01  0.200000000000E+01  0.300000000000E+01  0.100000000000E+01  0.000000000000E+00
  0.500000000000E+01  0.400000000000E+01  0.200000000000E+01  0.300000000000E+01  0.100000000000E+01  0.000000000000E+00  0.400000000000E+01
  0.200000000000E+01  0.300000000000E+01  0.100000000000E+01  0.000000000000E+00  0.100000000000E+01  0.000000000000E+00  0.000000000000E+00
  0.100379921945E+01  0.100377220100E+01  0.100552861762E+01  0.103485202924E+01  0.100776955973E+01  0.100379387100E+01  0.100543350700E+01
  0.103452995667E+01  0.100752882662E+01  0.100724020007E+01  0.100377398329E+01  0.100547523827E+01  0.103466748379E+01  0.100759169660E+01
  0.100406068526E+01  0.150297374970E+01  0.100379387095E+01  0.100543750514E+01  0.103455237740E+01  0.100752335928E+01  0.100402284572E+01
  0.150469408657E+01  0.100377220167E+01  0.100547523824E+01  0.103466748279E+01  0.100759169628E+01  0.100383892905E+01  0.150523446191E+01
  0.100379922063E+01  0.100543350783E+01  0.103452996999E+01  0.100752882698E+01  0.100402284333E+01  0.150512261869E+01  0.100552861801E+01
  0.103485203727E+01  0.100776955805E+01  0.100406068054E+01  0.150523445726E+01  0.100724014168E+01  0.150469400138E+01  0.150297352699E+01
  0.495822893903E+00  0.495860095918E+00  0.494915811165E+00  0.468456959164E+00  0.491963246488E+00  0.495835798645E+00  0.494982290246E+00
  0.468940893754E+00  0.492166839455E+00  0.483647135262E+00  0.495857606186E+00  0.494947566780E+00  0.468788701811E+00  0.492103918258E+00
  0.485198451418E+00  0.000000000000E+00  0.495835798712E+00  0.494985530424E+00  0.468931017201E+00  0.492170715027E+00  0.485008663249E+00
  0.000000000000E+00  0.495860095265E+00  0.494947566889E+00  0.468788700172E+00  0.492103918805E+00  0.485187475167E+00  0.000000000000E+00
  0.495822891922E+00  0.494982289392E+00  0.468940905586E+00  0.492166836910E+00  0.485008668204E+00  0.000000000000E+00  0.494915806900E+00
  0.468457018716E+00  0.491963240146E+00  0.485198437088E+00  0.000000000000E+00  0.483647168969E+00  0.000000000000E+00  0.000000000000E+00
  0.000000000000E+00  0.739678939553E-05  0.000000000000E+00  0.000000000000E+00  0.000000000000E+00  0.259721955612E-05 -0.185766811469E-04
  0.128579667319E-04 -0.343194323282E-04  0.000000000000E+00 -0.276388595612E-09 -0.435332792972E-05  0.646747515381E-04 -0.828352175409E-05
 -0.108402226391E-02  0.000000000000E+00 -0.259717210806E-05  0.917253915232E-09 -0.394850132278E-08  0.128474484150E-08 -0.138969465766E-03
  0.000000000000E+00 -0.739627374923E-05  0.435496593105E-05 -0.646768987074E-04  0.828461422827E-05  0.276110481524E-09  0.000000000000E+00
  0.000000000000E+00  0.185773212606E-04 -0.128698809564E-04  0.343199105386E-04  0.138970334678E-03  0.000000000000E+00  0.000000000000E+00
  0.000000000000E+00  0.000000000000E+00  0.108401854100E-02  0.000000000000E+00  0.000000000000E+00  0.000000000000E+00  0.000000000000E+00
  0.177022007594E-02  0.174872332110E-02 -0.839322916141E-03 -0.500672233970E-02  0.363929788587E-02  0.176203287038E-02 -0.827926885059E-03
 -0.522785854462E-02  0.368568567674E-02  0.352738027815E-01  0.174957336191E-02 -0.835526897411E-03 -0.525005754263E-02  0.368278667433E-02
  0.339323931391E-01  0.000000000000E+00  0.176203289879E-02 -0.832014300687E-03 -0.527607992858E-02  0.368983370615E-02  0.340561850774E-01
  0.000000000000E+00  0.174872431504E-02 -0.835527368161E-03 -0.525006242030E-02  0.368278632166E-02  0.340204496652E-01  0.000000000000E+00
  0.177021986186E-02 -0.827925129561E-03 -0.522787788330E-02  0.368568888692E-02  0.340561899967E-01  0.000000000000E+00 -0.839323476990E-03
 -0.500672364902E-02  0.363929814539E-02  0.339324042010E-01  0.000000000000E+00  0.352738622221E-01  0.000000000000E+00  0.000000000000E+00
  0.717938355384E+00  0.717911660267E+00  0.720348670874E+00  0.741923117035E+00  0.723055172854E+00  0.717932682112E+00  0.720254931919E+00
  0.741395499904E+00  0.722829660486E+00  0.744874892704E+00  0.717912944261E+00  0.720299446037E+00  0.741518302739E+00  0.722896190466E+00
  0.742490421216E+00  0.107355267835E+01  0.717932682058E+00  0.720260673534E+00  0.741408241549E+00  0.722826342221E+00  0.742508588613E+00
  0.107478149041E+01  0.717911661296E+00  0.720299445981E+00  0.741518301685E+00  0.722896189934E+00  0.742297545292E+00  0.107516747279E+01
  0.717938357249E+00  0.720254932262E+00  0.741395514554E+00  0.722829659080E+00  0.742508585810E+00  0.107508758478E+01  0.720348670502E+00
  0.741923128484E+00  0.723055167633E+00  0.742490420512E+00  0.107516746947E+01  0.744874838382E+00  0.107478142956E+01  0.107355251928E+01
  0.495501729612E+00  0.495541374780E+00  0.494189795272E+00  0.467616854244E+00  0.490880096005E+00  0.495515234418E+00  0.494264942389E+00
  0.468195934034E+00  0.491101507750E+00  0.476586186384E+00  0.495538886419E+00  0.494225266222E+00  0.468036603230E+00  0.491031426708E+00
  0.478024857240E+00  0.000000000000E+00  0.495515234491E+00  0.494267197037E+00  0.468187663575E+00  0.491105199295E+00  0.477831274574E+00
  0.000000000000E+00  0.495541373943E+00  0.494225266345E+00  0.468036601754E+00  0.491031427354E+00  0.478028256346E+00  0.000000000000E+00
  0.495501727281E+00  0.494264941620E+00  0.468195944451E+00  0.491101505803E+00  0.477831280104E+00  0.000000000000E+00  0.494189791238E+00
  0.467616911901E+00  0.490880091043E+00  0.478024843042E+00  0.000000000000E+00  0.476586227239E+00  0.000000000000E+00  0.000000000000E+00
  0.100130950300E+01  0.100129922245E+01  0.100294324950E+01  0.100371099877E+01  0.100447292957E+01  0.100130692565E+01  0.100290759922E+01
  0.100330946743E+01  0.100439957443E+01  0.103532886169E+01  0.100129923538E+01  0.100292795494E+01  0.100334227188E+01  0.100442934382E+01
  0.103528263277E+01  0.100000000000E+01  0.100130692563E+01  0.100291160593E+01  0.100330496633E+01  0.100440041394E+01  0.103534698288E+01
  0.100000000000E+01  0.100129922321E+01  0.100292795488E+01  0.100334227143E+01  0.100442934340E+01  0.103524234151E+01  0.100000000000E+01
  0.100130950442E+01  0.100290759887E+01  0.100330947433E+01  0.100439957211E+01  0.103534698143E+01  0.100000000000E+01  0.100294324859E+01
  0.100371100648E+01  0.100447292399E+01  0.103528263666E+01  0.100000000000E+01  0.103532884620E+01  0.100000000000E+01  0.100000000000E+01
         2         7         3         1
         7         9         5         3
         9         8         4         5
         8        15        10         4
        15        22        16        10
         6        12         7         2
        12        14         9         7
        14        13         8         9
        13        21        15         8
        21        28        22        15
        11        18        12         6
        18        20        14        12
        20        19        13        14
        19        27        21        13
        27        34        28        21
        17        24        18        11
        24        26        20        18
        26        25        19        20
        25        33        27        19
        33        39        34        27
        23        30        24        17
        30        32        26        24
        32        31        25        26
        31        38        33        25
        38        41        39        33
        29        35        30        23
        35        37        32        30
        37        36        31        32
        36        40        38        31
        40        42        41        38
zone t="boundary 2 bc-2", solutiontime= 0.5000000E+02, strandid=1002, i=50, j=78, f=feblock
  0.500000000000E+01  0.400000000000E+01  0.500000000000E+01  0.432205072469E+01  0.300000000000E+01  0.339985167428E+01  0.500000000000E+01
  0.414352482062E+01  0.200000000000E+01  0.238772260472E+01  0.328766614337E+01  0.253053942594E+01  0.500000000000E+01  0.437470683547E+01
  0.355186041251E+01  0.100000000000E+01  0.148474164412E+01  0.182006405350E+01  0.265208498144E+01  0.158439218620E+01  0.500000000000E+01
  0.421824364393E+01  0.356601661300E+01  0.279151482472E+01  0.000000000000E+00  0.691584087487E+00  0.102677755985E+01  0.203910647352E+01
  0.786163368796E+00  0.130062434092E+01  0.579883387792E+00  0.500000000000E+01  0.439593351493E+01  0.365358382485E+01  0.222719085292E+01
  0.294979435250E+01  0.181898636514E+01  0.000000000000E+00  0.000000000000E+00  0.608717331133E+00  0.956798945949E+00  0.000000000000E+00
  0.400000000000E+01  0.200000000000E+01  0.160059523280E+01  0.300000000000E+01  0.000000000000E+00  0.482256655205E+00  0.100000000000E+01
  0.000000000000E+00
 -0.500000000000E+01 -0.500000000000E+01 -0.500000000000E+01 -0.500000000000E+01 -0.500000000000E+01 -0.500000000000E+01 -0.500000000000E+01
 -0.500000000000E+01 -0.500000000000E+01 -0.500000000000E+01 -0.500000000000E+01 -0.500000000000E+01 -0.500000000000E+01 -0.500000000000E+01
 -0.500000000000E+01 -0.500000000000E+01 -0.500000000000E+01 -0.500000000000E+01 -0.500000000000E+01 -0.500000000000E+01 -0.500000000000E+01
 -0.500000000000E+01 -0.500000000000E+01 -0.500000000000E+01 -0.500000000000E+01 -0.500000000000E+01 -0.500000000000E+01 -0.500000000000E+01
 -0.500000000000E+01 -0.500000000000E+01 -0.500000000000E+01 -0.500000000000E+01 -0.500000000000E+01 -0.500000000000E+01 -0.500000000000E+01
 -0.500000000000E+01 -0.500000000000E+01 -0.500000000000E+01 -0.500000000000E+01 -0.500000000000E+01 -0.500000000000E+01 -0.500000000000E+01
 -0.500000000000E+01 -0.500000000000E+01 -0.500000000000E+01 -0.500000000000E+01 -0.500000000000E+01 -0.500000000000E+01 -0.500000000000E+01
 -0.500000000000E+01
  0.500000000000E+01  0.500000000000E+01  0.400000000000E+01  0.427284776458E+01  0.500000000000E+01  0.409791606955E+01  0.300000000000E+01
  0.334954216394E+01  0.500000000000E+01  0.428961258157E+01  0.317389756208E+01  0.342579600005E+01  0.200000000000E+01  0.245604909385E+01
  0.233993022181E+01  0.500000000000E+01  0.436396516571E+01  0.369973104758E+01  0.256908373316E+01  0.279597472668E+01  0.100000000000E+01
  0.157729503259E+01  0.159701071514E+01  0.152167522831E+01  0.500000000000E+01  0.441213888848E+01  0.370665089386E+01  0.199896920986E+01
  0.224835513052E+01  0.181406525358E+01  0.296809553468E+01  0.000000000000E+00  0.696815730569E+00  0.990157383601E+00  0.787866207738E+00
  0.548147595005E+00  0.128672970530E+01  0.400000000000E+01  0.200000000000E+01  0.160443740745E+01  0.959766653149E+00  0.300000000000E+01
  0.000000000000E+00  0.000000000000E+00  0.606872513237E+00  0.000000000000E+00  0.100000000000E+01  0.486991412371E+00  0.000000000000E+00
  0.000000000000E+00
  0.100230091708E+01  0.100191136384E+01  0.100208669561E+01  0.100305032046E+01  0.100199633474E+01  0.100313062616E+01  0.100511528879E+01
  0.100369646506E+01  0.100548307032E+01  0.100303725881E+01  0.100096333465E+01  0.100461425616E+01  0.101903091957E+01  0.100460667217E+01
  0.996427840655E+00  0.100461536747E+01  0.100463229520E+01  0.100385786702E+01  0.996054012176E+00  0.101002536260E+01  0.983186384030E+00
  0.999200592359E+00  0.100338820261E+01  0.100830585635E+01  0.100379922063E+01  0.100495201688E+01  0.100724265381E+01  0.997528810512E+00
  0.101249153510E+01  0.993492660567E+00  0.100751130023E+01  0.820303668123E+00  0.996139689935E+00  0.984670500185E+00  0.101949669113E+01
  0.100280375249E+01  0.100187252403E+01  0.100552861801E+01  0.103485203727E+01  0.100265247566E+01  0.106810506146E+01  0.100776955805E+01
  0.980064268839E+00  0.984130766072E+00  0.975525730276E+00  0.986241021119E+00  0.100724014168E+01  0.109839934366E+01  0.922325162445E+00
  0.150297352699E+01
  0.500080915132E+00  0.499200681928E+00  0.499428212179E+00  0.497829915924E+00  0.499696231448E+00  0.497946983793E+00  0.512030213602E+00
  0.500204507011E+00  0.494201268675E+00  0.498607512454E+00  0.501681276089E+00  0.498591676085E+00  0.523958955849E+00  0.537338928155E+00
  0.549692876526E+00  0.493153704824E+00  0.495428613039E+00  0.497561978866E+00  0.522247750995E+00  0.493537681784E+00  0.477417389640E+00
  0.570416253428E+00  0.584150310331E+00  0.571388803645E+00  0.495822891922E+00  0.494727466379E+00  0.493738017935E+00  0.547549773511E+00
  0.488844483249E+00  0.537948164235E+00  0.492249072031E+00  0.000000000000E+00  0.397689911780E+00  0.465942021216E+00  0.413354930222E+00
  0.307148235112E+00  0.585767928116E+00  0.494915806900E+00  0.468457018716E+00  0.493116919049E+00  0.532068123441E+00  0.491963240146E+00
  0.000000000000E+00  0.000000000000E+00  0.377546246085E+00  0.000000000000E+00  0.483647168969E+00  0.446821496176E+00  0.000000000000E+00
  0.000000000000E+00
  0.000000000000E+00  0.000000000000E+00  0.000000000000E+00  0.000000000000E+00  0.000000000000E+00  0.000000000000E+00  0.000000000000E+00
  0.000000000000E+00  0.000000000000E+00  0.000000000000E+00  0.000000000000E+00  0.000000000000E+00  0.000000000000E+00  0.000000000000E+00
  0.000000000000E+00  0.000000000000E+00  0.000000000000E+00  0.000000000000E+00  0.000000000000E+00  0.000000000000E+00  0.000000000000E+00
  0.000000000000E+00  0.000000000000E+00  0.000000000000E+00  0.000000000000E+00  0.000000000000E+00  0.000000000000E+00  0.000000000000E+00
  0.000000000000E+00  0.000000000000E+00  0.000000000000E+00  0.000000000000E+00  0.000000000000E+00  0.000000000000E+00  0.000000000000E+00
  0.000000000000E+00  0.000000000000E+00  0.000000000000E+00  0.000000000000E+00  0.000000000000E+00  0.000000000000E+00  0.000000000000E+00
  0.000000000000E+00  0.000000000000E+00  0.000000000000E+00  0.000000000000E+00  0.000000000000E+00  0.000000000000E+00  0.000000000000E+00
  0.000000000000E+00
  0.326652204127E-02  0.433112034478E-02  0.733537504979E-02  0.466529484034E-02  0.461647612244E-02  0.429252047161E-02  0.121343418992E-01
  0.421217621332E-02  0.342535547887E-02  0.532019594299E-02  0.321302540887E-02  0.656299599604E-02 -0.228649297454E-01  0.630494394168E-02
  0.934021208553E-02  0.482040900454E-02  0.603763864913E-02  0.734565087045E-02  0.127815378781E-01  0.106211253159E-01 -0.872611346966E-01
 -0.932887540357E-02  0.727624185091E-02  0.219474093323E-01  0.177021986186E-02  0.391514587347E-02  0.536473127865E-02  0.250612209814E-01
  0.861743511941E-02  0.445507399441E-01  0.601783380080E-02  0.000000000000E+00 -0.437734383896E-01  0.126978839126E-01  0.560153263936E-02
  0.453799929936E-02  0.380555443832E-01 -0.839323476990E-03 -0.500672364902E-02  0.258315001340E-01  0.733035614356E-01  0.363929814539E-02
  0.000000000000E+00  0.000000000000E+00 -0.110059015254E-01  0.000000000000E+00  0.352738622221E-01  0.179012084164E+00  0.000000000000E+00
  0.000000000000E+00
  0.716678890604E+00  0.716863494178E+00  0.716426731795E+00  0.717007616635E+00  0.716859085031E+00  0.716848225639E+00  0.720760963067E+00
  0.718674268418E+00  0.719248176054E+00  0.718219085666E+00  0.715863109736E+00  0.716773906091E+00  0.730501912200E+00  0.720079954205E+00
  0.711996125326E+00  0.719027179196E+00  0.719199843421E+00  0.718603101757E+00  0.714412082991E+00  0.721663865116E+00  0.687383189389E+00
  0.705378761953E+00  0.708076318752E+00  0.712750268323E+00  0.717938357249E+00  0.719437911105E+00  0.721992948063E+00  0.718921618855E+00
  0.723520664156E+00  0.717705576730E+00  0.720782057621E+00  0.585931191516E+00  0.694220189826E+00  0.690305416564E+00  0.715889433956E+00
  0.707671152943E+00  0.698077482905E+00  0.720348670502E+00  0.741923128484E+00  0.738946574256E+00  0.749085391259E+00  0.723055167633E+00
  0.700045906313E+00  0.702950547195E+00  0.681417502759E+00  0.704457872228E+00  0.744874838382E+00  0.724804001399E+00  0.658803687460E+00
  0.107355251928E+01
  0.499829960848E+00  0.498797095677E+00  0.499255260439E+00  0.497663189065E+00  0.499317467249E+00  0.497852121236E+00  0.511170522121E+00
  0.499613459835E+00  0.493853648185E+00  0.498023209604E+00  0.501379848485E+00  0.498915736095E+00  0.523515304052E+00  0.536440859721E+00
  0.549671080016E+00  0.492681532338E+00  0.494912120838E+00  0.497075160414E+00  0.521326303363E+00  0.493577668549E+00  0.490555913523E+00
  0.573853583780E+00  0.587744729053E+00  0.574798063553E+00  0.495501727281E+00  0.494187329972E+00  0.492899937155E+00  0.545677387800E+00
  0.488814859951E+00  0.536747219024E+00  0.491899429536E+00  0.000000000000E+00  0.405048512660E+00  0.470493788730E+00  0.416935535212E+00
  0.309046358752E+00  0.594333999389E+00  0.494189791238E+00  0.467616911901E+00  0.486126882530E+00  0.542035282739E+00  0.490880091043E+00
  0.000000000000E+00  0.000000000000E+00  0.381947183280E+00  0.000000000000E+00  0.476586227239E+00  0.500799566278E+00  0.000000000000E+00
  0.000000000000E+00
  0.100104712042E+01  0.100169428961E+01  0.100090883244E+01  0.100075803060E+01  0.100160318382E+01  0.100045546384E+01  0.100392995664E+01
  0.100243849691E+01  0.100145639066E+01  0.100246198344E+01  0.100124382077E+01  0.998874406149E+00  0.100360318557E+01  0.100348919016E+01
  0.100036804953E+01  0.100201339086E+01  0.100223712258E+01  0.100217807272E+01  0.100413923739E+01  0.100030103062E+01  0.978793523564E+00
  0.988320337565E+00  0.987959439499E+00  0.989630645666E+00  0.100130950442E+01  0.100224991704E+01  0.100352196511E+01  0.100898365620E+01
  0.100043199839E+01  0.101136912964E+01  0.100157177437E+01  0.100000000000E+01  0.975674672516E+00  0.981473074504E+00  0.983078431010E+00
  0.987969591916E+00  0.975481862837E+00  0.100294324859E+01  0.100371100648E+01  0.103178841031E+01  0.981850555350E+00  0.100447292399E+01
  0.100000000000E+01  0.100000000000E+01  0.977918341111E+00  0.100000000000E+01  0.103532884620E+01  0.923822112436E+00  0.100000000000E+01
  0.100000000000E+01
        44        35        36        36
        24        34        36        36
        38        27        31        31
        20        29        31        31
        24        23        34        34
        15        22        23        23
        24        35        37        37
        41        30        37        37
        27        18        20        20
        17        18        27        27
        15        19        11        11
        12         6        11        11
         8         7        14        14
        13        14         7         7
        41        40        30        30
        47        39        40        40
        17         9        10        10
         5        10         9         9
        44        45        35        35
        49        41        45        45
        19        15        24        24
        36        35        24        24
        37        45        41        41
        40        39        29        29
        30        29        20        20
        12        18        10        10
        20        12        19        19
        11         8        15        15
        20        18        12        12
        27        20        31        31
        28        20        19        19
        23        24        15        15
        23        22        34        34
        28        24        37        37
        11        19        12        12
        11         6         8         8
        28        19        24        24
        40        41        47        47
        30        40        29        29
        45        44        49        49
        37        35        45        45
        16        26        25        25
        27        38        26        26
        47        48        50        50
        43        33        32        32
        22        21        33        33
         3         4         1         1
         6         2         4         4
        10         5         6         6
        14        13        22        22
         4         3         8         8
         7         8         3         3
        42        38        31        31
         9        17        16        16
        33        43        34        34
        36        34        43        43
        41        48        47        47
        15         8        14        14
        28        30        20        20
        18        17        10        10
        42        31        39        39
        26        16        17        17
         8         6         4         4
        34        22        33        33
        37        30        28        28
        27        26        17        17
        49        48        41        41
        46        36        43        43
        31        29        39        39
        36        46        44        44
        22        13        21        21
        15        14        22        22
         6         5         2         2
        12        10         6         6
        26        38        25        25
        48        49        50        50
        33        21        32        32
         4         2         1         1
zone t="boundary 3 bc-3", solutiontime= 0.5000000E+02, strandid=1003, i=50, j=78, f=feblock
  0.500000000000E+01  0.400000000000E+01  0.500000000000E+01  0.432205072469E+01  0.300000000000E+01  0.339985167428E+01  0.500000000000E+01
  0.414352482062E+01  0.200000000000E+01  0.238772260472E+01  0.328766614337E+01  0.253053942594E+01  0.500000000000E+01  0.437470683547E+01
  0.355186041251E+01  0.100000000000E+01  0.148474164412E+01  0.182006405350E+01  0.265208498144E+01  0.158439218620E+01  0.500000000000E+01
  0.421824364393E+01  0.356601661300E+01  0.279151482472E+01  0.000000000000E+00  0.691584087487E+00  0.102677755985E+01  0.203910647352E+01
  0.786163368796E+00  0.130062434092E+01  0.579883387792E+00  0.500000000000E+01  0.439593351493E+01  0.365358382485E+01  0.222719085292E+01
  0.294979435250E+01  0.181898636514E+01  0.000000000000E+00  0.000000000000E+00  0.608717331133E+00  0.956798945949E+00  0.000000000000E+00
  0.400000000000E+01  0.200000000000E+01  0.160059523280E+01  0.300000000000E+01  0.000000000000E+00  0.482256655205E+00  0.100000000000E+01
  0.000000000000E+00
  0.000000000000E+00  0.000000000000E+00  0.000000000000E+00  0.000000000000E+00  0.000000000000E+00  0.000000000000E+00  0.000000000000E+00
  0.000000000000E+00  0.000000000000E+00  0.000000000000E+00  0.000000000000E+00  0.000000000000E+00  0.000000000000E+00  0.000000000000E+00
  0.000000000000E+00  0.000000000000E+00  0.000000000000E+00  0.000000000000E+00  0.000000000000E+00  0.000000000000E+00  0.000000000000E+00
  0.000000000000E+00  0.000000000000E+00  0.000000000000E+00  0.000000000000E+00  0.000000000000E+00  0.000000000000E+00  0.000000000000E+00
  0.000000000000E+00  0.000000000000E+00  0.000000000000E+00  0.000000000000E+00  0.000000000000E+00  0.000000000000E+00  0.000000000000E+00
  0.000000000000E+00  0.000000000000E+00  0.000000000000E+00  0.000000000000E+00  0.000000000000E+00  0.000000000000E+00  0.000000000000E+00
  0.000000000000E+00  0.000000000000E+00  0.000000000000E+00  0.000000000000E+00  0.000000000000E+00  0.000000000000E+00  0.000000000000E+00
  0.000000000000E+00
  0.500000000000E+01  0.500000000000E+01  0.400000000000E+01  0.427284776458E+01  0.500000000000E+01  0.409791606955E+01  0.300000000000E+01
  0.334954216394E+01  0.500000000000E+01  0.428961258157E+01  0.317389756208E+01  0.342579600005E+01  0.200000000000E+01  0.245604909385E+01
  0.233993022181E+01  0.500000000000E+01  0.436396516571E+01  0.369973104758E+01  0.256908373316E+01  0.279597472668E+01  0.100000000000E+01
  0.157729503259E+01  0.159701071514E+01  0.152167522831E+01  0.500000000000E+01  0.441213888848E+01  0.370665089386E+01  0.199896920986E+01
  0.224835513052E+01  0.181406525358E+01  0.296809553468E+01  0.000000000000E+00  0.696815730569E+00  0.990157383601E+00  0.787866207738E+00
  0.548147595005E+00  0.128672970530E+01  0.400000000000E+01  0.200000000000E+01  0.160443740745E+01  0.959766653149E+00  0.300000000000E+01
  0.000000000000E+00  0.000000000000E+00  0.606872513237E+00  0.000000000000E+00  0.100000000000E+01  0.486991412371E+00  0.000000000000E+00
  0.000000000000E+00
  0.100230091354E+01  0.100191136398E+01  0.100208670561E+01  0.100305031485E+01  0.100199634755E+01  0.100313062885E+01  0.100511531393E+01
  0.100369647256E+01  0.100548306961E+01  0.100303726526E+01  0.100096332893E+01  0.100461425904E+01  0.101903096936E+01  0.100460669868E+01
  0.996427853140E+00  0.100461536785E+01  0.100463229690E+01  0.100385786640E+01  0.996054026435E+00  0.101002536576E+01  0.983186190620E+00
  0.999200607791E+00  0.100338823666E+01  0.100830592203E+01  0.100379921945E+01  0.100495201555E+01  0.100724265291E+01  0.997528799205E+00
  0.101249150864E+01  0.993492714190E+00  0.100751129579E+01  0.820303090013E+00  0.996139420177E+00  0.984670380682E+00  0.101949667556E+01
  0.100280351726E+01  0.100187252737E+01  0.100552861762E+01  0.103485202924E+01  0.100265250155E+01  0.106810507944E+01  0.100776955973E+01
  0.980063968899E+00  0.984130736820E+00  0.975525680165E+00  0.986241244343E+00  0.100724020007E+01  0.109839931093E+01  0.922325056790E+00
  0.150297374970E+01
  0.500080906576E+00  0.499200654521E+00  0.499428171928E+00  0.497829891006E+00  0.499696189987E+00  0.497946956504E+00  0.512030168982E+00
  0.500204465207E+00  0.494201244959E+00  0.498607508440E+00  0.501681251450E+00  0.498591645627E+00  0.523958924748E+00  0.537338953065E+00
  0.549692839268E+00  0.493153703447E+00  0.495428610911E+00  0.497561970047E+00  0.522247730001E+00  0.493537643663E+00  0.477417386615E+00
  0.570416272838E+00  0.584150159017E+00  0.571388724162E+00  0.495822893903E+00  0.494727471464E+00  0.493738019771E+00  0.547549676893E+00
  0.488844471812E+00  0.537948094028E+00  0.492249064884E+00  0.000000000000E+00  0.397689785743E+00  0.465942031687E+00  0.413355040699E+00
  0.307148343583E+00  0.585767908109E+00  0.494915811165E+00  0.468456959164E+00  0.493116920303E+00  0.532068135149E+00  0.491963246488E+00
  0.000000000000E+00  0.000000000000E+00  0.377546225425E+00  0.000000000000E+00  0.483647135262E+00  0.446821391538E+00  0.000000000000E+00
  0.000000000000E+00
  0.000000000000E+00  0.000000000000E+00  0.000000000000E+00  0.000000000000E+00  0.000000000000E+00  0.000000000000E+00  0.000000000000E+00
  0.000000000000E+00  0.000000000000E+00  0.000000000000E+00  0.000000000000E+00  0.000000000000E+00  0.000000000000E+00  0.000000000000E+00
  0.000000000000E+00  0.000000000000E+00  0.000000000000E+00  0.000000000000E+00  0.000000000000E+00  0.000000000000E+00  0.000000000000E+00
  0.000000000000E+00  0.000000000000E+00  0.000000000000E+00  0.000000000000E+00  0.000000000000E+00  0.000000000000E+00  0.000000000000E+00
  0.000000000000E+00  0.000000000000E+00  0.000000000000E+00  0.000000000000E+00  0.000000000000E+00  0.000000000000E+00  0.000000000000E+00
  0.000000000000E+00  0.000000000000E+00  0.000000000000E+00  0.000000000000E+00  0.000000000000E+00  0.000000000000E+00  0.000000000000E+00
  0.000000000000E+00  0.000000000000E+00  0.000000000000E+00  0.000000000000E+00  0.000000000000E+00  0.000000000000E+00  0.000000000000E+00
  0.000000000000E+00
  0.326651591817E-02  0.433112927364E-02  0.733540798353E-02  0.466530315485E-02  0.461647258168E-02  0.429255883277E-02  0.121344148583E-01
  0.421217274006E-02  0.342535803553E-02  0.532017573444E-02  0.321306887527E-02  0.656297613283E-02 -0.228649853218E-01  0.630499888822E-02
  0.934025509073E-02  0.482040730376E-02  0.603763197890E-02  0.734564721649E-02  0.127815380304E-01  0.106211008243E-01 -0.872612048314E-01
 -0.932876879660E-02  0.727617638400E-02  0.219475000847E-01  0.177022007594E-02  0.391513974710E-02  0.536472176280E-02  0.250612634767E-01