title="tecplot geometry and solution file"
variables = x y z rho u v w p mach temperature
zone t="boundary 1 bc-1", solutiontime= 0.1000000E+02, strandid=1001, i=42, j=30, f=feblock
  0.000000000000E+00  0.000000000000E+00  0.000000000000E+00  0.000000000000E+00  0.000000000000E+00  0.000000000000E+00  0.000000000000E+00
  0.000000000000E+00  0.000000000000E+00  0.000000000000E+00  0.000000000000E+00  0.000000000000E+00  0.000000000000E+00  0.000000000000E+00
  0.000000000000E+00  0.000000000000E+00  0.000000000000E+00  0.000000000000E+00  0.000000000000E+00  0.000000000000E+00  0.000000000000E+00
  0.000000000000E+00  0.000000000000E+00  0.000000000000E+00  0.000000000000E+00  0.000000000000E+00  0.000000000000E+00  0.000000000000E+00
  0.000000000000E+00  0.000000000000E+00  0.000000000000E+00  0.000000000000E+00  0.000000000000E+00  0.000000000000E+00  0.000000000000E+00
  0.000000000000E+00  0.000000000000E+00  0.000000000000E+00  0.000000000000E+00  0.000000000000E+00  0.000000000000E+00  0.000000000000E+00
  0.000000000000E+00  0.000000000000E+00 -0.833333333333E+00  0.000000000000E+00  0.000000000000E+00 -0.833333333333E+00 -0.166666666667E+01
  0.000000000000E+00 -0.833333333333E+00 -0.833333333333E+00  0.000000000000E+00 -0.166666666667E+01 -0.250000000000E+01 -0.833333333333E+00
 -0.166666666667E+01 -0.166666666667E+01 -0.833333333333E+00 -0.250000000000E+01 -0.333333333333E+01 -0.166666666667E+01 -0.250000000000E+01
 -0.250000000000E+01 -0.166666666667E+01 -0.333333333333E+01 -0.416666666667E+01 -0.250000000000E+01 -0.333333333333E+01 -0.333333333333E+01
 -0.250000000000E+01 -0.416666666667E+01 -0.500000000000E+01 -0.333333333333E+01 -0.416666666667E+01 -0.416666666667E+01 -0.333333333333E+01
 -0.500000000000E+01 -0.416666666667E+01 -0.500000000000E+01 -0.500000000000E+01 -0.416666666667E+01 -0.500000000000E+01 -0.500000000000E+01
  0.250000000000E+01  0.150000000000E+01  0.250000000000E+01  0.500000000000E+00 -0.150000000000E+01  0.150000000000E+01  0.250000000000E+01
 -0.500000000000E+00  0.500000000000E+00 -0.150000000000E+01 -0.250000000000E+01  0.150000000000E+01  0.250000000000E+01 -0.500000000000E+00
  0.500000000000E+00 -0.150000000000E+01 -0.250000000000E+01  0.150000000000E+01  0.250000000000E+01 -0.500000000000E+00  0.500000000000E+00
 -0.150000000000E+01 -0.250000000000E+01  0.150000000000E+01  0.250000000000E+01 -0.500000000000E+00  0.500000000000E+00 -0.150000000000E+01
 -0.250000000000E+01  0.150000000000E+01  0.250000000000E+01 -0.500000000000E+00  0.500000000000E+00 -0.150000000000E+01 -0.250000000000E+01
  0.150000000000E+01 -0.500000000000E+00  0.500000000000E+00 -0.150000000000E+01 -0.250000000000E+01 -0.500000000000E+00 -0.250000000000E+01
  0.100203125449E+01  0.100338206243E+01  0.100239461787E+01  0.100287077063E+01  0.988774696064E+00  0.100336497423E+01  0.100315332252E+01
  0.104198012108E+01  0.100220198767E+01  0.100042524735E+01  0.153081940882E+01  0.100473827084E+01  0.100296753627E+01  0.103044882605E+01
  0.100500643129E+01  0.100919158043E+01  0.149756904600E+01  0.100437959686E+01  0.100315328058E+01  0.103675498242E+01  0.100450464846E+01
  0.100948795497E+01  0.150514736154E+01  0.100473819256E+01  0.100239460717E+01  0.103450356172E+01  0.100500631173E+01  0.100919206414E+01
  0.150324757217E+01  0.100336498532E+01  0.100203122742E+01  0.103675434910E+01  0.100220200641E+01  0.100042709657E+01  0.150514239339E+01
  0.100338194371E+01  0.103044805455E+01  0.100287030645E+01  0.988776293537E+00  0.149755965370E+01  0.104197695279E+01  0.153079724537E+01
  0.498176975276E+00  0.497733986082E+00  0.497789280418E+00  0.495494327773E+00  0.461420124740E+00  0.497684914144E+00  0.496891363402E+00
  0.473391655143E+00  0.497291216169E+00  0.493511626463E+00  0.000000000000E+00  0.496182365382E+00  0.497235675169E+00  0.477679630225E+00
  0.494196725126E+00  0.478140108705E+00  0.000000000000E+00  0.496696228320E+00  0.496891422680E+00  0.470551672307E+00  0.495233419186E+00
  0.481236073235E+00  0.000000000000E+00  0.496182434422E+00  0.497789296531E+00  0.472016632492E+00  0.494196862371E+00  0.478140655364E+00
  0.000000000000E+00  0.497684872831E+00  0.498177035777E+00  0.470551980538E+00  0.497291000286E+00  0.493509106088E+00  0.000000000000E+00
  0.497734062540E+00  0.477680301489E+00  0.495494447867E+00  0.461422572394E+00  0.000000000000E+00  0.473394555362E+00  0.000000000000E+00
  0.331123319825E-03  0.166308197030E-02 -0.230878585854E-04  0.316739583881E-02  0.338411769376E-01  0.812710428688E-03 -0.112945810458E-03
 -0.649661312312E-02  0.252251698284E-02  0.125708517384E-01  0.000000000000E+00  0.331268139350E-03 -0.125928305548E-08 -0.612469038477E-02
  0.144861424774E-02  0.330550558092E-02  0.000000000000E+00 -0.162483033917E-07  0.112980313792E-03 -0.716441439461E-03 -0.399166076523E-07
  0.309404070291E-06  0.000000000000E+00 -0.331224435556E-03  0.231113298436E-04 -0.203859980594E-06 -0.144861587926E-02 -0.330457415396E-02
  0.000000000000E+00 -0.812726341173E-03 -0.331095103685E-03  0.716108600036E-03 -0.252259846126E-02 -0.125702012746E-01  0.000000000000E+00
 -0.166302523614E-02  0.612391314843E-02 -0.316741463442E-02 -0.338403632229E-01  0.000000000000E+00  0.649596632455E-02  0.000000000000E+00
  0.412499581780E-03  0.104539772623E-02  0.536069290597E-03  0.630379933504E-02  0.748525846681E-01  0.167813725829E-02  0.916300142599E-03
 -0.135737761487E-01  0.605433931410E-02  0.370341226401E-01  0.000000000000E+00  0.142679819539E-02  0.776230859160E-03 -0.749954073933E-02
  0.580473541991E-02  0.451807933507E-01  0.000000000000E+00  0.132897967995E-02  0.916264445118E-03 -0.584103877138E-02  0.526255056369E-02
  0.427318353330E-01  0.000000000000E+00  0.142677465540E-02  0.536051989077E-03 -0.560397193370E-02  0.580453392323E-02  0.451804911190E-01
  0.000000000000E+00  0.167807353397E-02  0.412481973996E-03 -0.584113501424E-02  0.605399925021E-02  0.370342465396E-01  0.000000000000E+00
  0.104533804248E-02 -0.749866923427E-02  0.630313829965E-02  0.748502310833E-01  0.000000000000E+00 -0.135720125871E-01  0.000000000000E+00
  0.716136457063E+00  0.717898733008E+00  0.716473679704E+00  0.718235458768E+00  0.730515156524E+00  0.717893889033E+00  0.717239381807E+00
  0.748044187845E+00  0.717677090183E+00  0.736710087120E+00  0.109341966157E+01  0.719275394353E+00  0.717034387047E+00  0.737101809298E+00
  0.720481784684E+00  0.746734587807E+00  0.106967094610E+01  0.718899616555E+00  0.717239336092E+00  0.743451841160E+00  0.719924912137E+00
  0.746855330999E+00  0.107508483771E+01  0.719275304878E+00  0.716473663608E+00  0.741189859166E+00  0.720481648585E+00  0.746734674278E+00
  0.107372876368E+01  0.717893884368E+00  0.716136418731E+00  0.743451336172E+00  0.717677087060E+00  0.736711259740E+00  0.107508267739E+01
  0.717898597693E+00  0.737101325094E+00  0.718234985487E+00  0.730515020194E+00  0.106966688294E+01  0.748041440960E+00  0.109340770631E+01
  0.498038160853E+00  0.497322643448E+00  0.497623655531E+00  0.494888942594E+00  0.460831579583E+00  0.497270672523E+00  0.496649238830E+00
  0.472434916367E+00  0.496703967231E+00  0.487569842923E+00  0.000000000000E+00  0.495630552693E+00  0.497018137937E+00  0.477431845985E+00
  0.493333474539E+00  0.471884158518E+00  0.000000000000E+00  0.496184523217E+00  0.496649303467E+00  0.469665769242E+00  0.494427729167E+00
  0.474713865695E+00  0.000000000000E+00  0.495630633080E+00  0.497623674555E+00  0.471330073101E+00  0.493333626417E+00  0.471884744760E+00
  0.000000000000E+00  0.497270635421E+00  0.498038227907E+00  0.469666093589E+00  0.496703753643E+00  0.487567423883E+00  0.000000000000E+00
  0.497322736977E+00  0.477432471086E+00  0.494889102764E+00  0.460833936915E+00  0.000000000000E+00  0.472437897703E+00  0.000000000000E+00
  0.100055865064E+01  0.100167051400E+01  0.100066693666E+01  0.100265126049E+01  0.103433190918E+01  0.100168081452E+01  0.100097872577E+01
  0.100506894690E+01  0.100254034478E+01  0.103095571079E+01  0.999979172843E+00  0.100223668325E+01  0.100087800010E+01  0.100144956928E+01
  0.100364979482E+01  0.103590680224E+01  0.999980153532E+00  0.100207079706E+01  0.100097870382E+01  0.100393303651E+01  0.100337502523E+01
  0.103577012312E+01  0.999981006014E+00  0.100223663665E+01  0.100066692486E+01  0.100305677161E+01  0.100364972463E+01  0.103590642568E+01
  0.999981837307E+00  0.100168079694E+01  0.100055862411E+01  0.100393296787E+01  0.100254032167E+01  0.103095544610E+01  0.999982297334E+00
  0.100167044371E+01  0.100144966122E+01  0.100265106386E+01  0.103433004508E+01  0.999982626683E+00  0.100506831225E+01  0.999982717152E+00
         3         6         2         1
         6         9         4         2
         9        14         8         4
        14        10         5         8
        10        17        11         5
         7        12         6         3
        12        15         9         6
        15        20        14         9
        20        16        10        14
        16        23        17        10
        13        18        12         7
        18        21        15        12
        21        26        20        15
        26        22        16        20
        22        29        23        16
        19        24        18        13
        24        27        21        18
        27        32        26        21
        32        28        22        26
        28        35        29        22
        25        30        24        19
        30        33        27        24
        33        37        32        27
        37        34        28        32
        34        40        35        28
        31        36        30        25
        36        38        33        30
        38        41        37        33
        41        39        34        37
        39        42        40        34
zone t="boundary 2 bc-2", solutiontime= 0.1000000E+02, strandid=1002, i=51, j=80, f=feblock
  0.500000000000E+01  0.500000000000E+01  0.400000000000E+01  0.425172245441E+01  0.500000000000E+01  0.427741389634E+01  0.300000000000E+01
  0.341887665662E+01  0.368116975164E+01  0.500000000000E+01  0.430894944607E+01  0.352044655687E+01  0.200000000000E+01  0.259168638257E+01
  0.301798341022E+01  0.500000000000E+01  0.435643616790E+01  0.375117520592E+01  0.271663237208E+01  0.288980181581E+01  0.100000000000E+01
  0.191939879870E+01  0.130679496696E+01  0.219385942988E+01  0.500000000000E+01  0.441735041915E+01  0.373031592783E+01  0.208456665067E+01
  0.230848460393E+01  0.190054259015E+01  0.298584217914E+01  0.000000000000E+00  0.613733212775E+00  0.151350918120E+01  0.794128609067E+00
  0.144135983281E+01  0.400000000000E+01  0.132476136006E+01  0.200000000000E+01  0.164582171489E+01  0.102008138039E+01  0.300000000000E+01
  0.000000000000E+00  0.000000000000E+00  0.701034609231E+00  0.609175469936E+00  0.100000000000E+01  0.505577837730E+00  0.000000000000E+00
  0.000000000000E+00  0.000000000000E+00
 -0.500000000000E+01 -0.500000000000E+01 -0.500000000000E+01 -0.500000000000E+01 -0.500000000000E+01 -0.500000000000E+01 -0.500000000000E+01
 -0.500000000000E+01 -0.500000000000E+01 -0.500000000000E+01 -0.500000000000E+01 -0.500000000000E+01 -0.500000000000E+01 -0.500000000000E+01
 -0.500000000000E+01 -0.500000000000E+01 -0.500000000000E+01 -0.500000000000E+01 -0.500000000000E+01 -0.500000000000E+01 -0.500000000000E+01
 -0.500000000000E+01 -0.500000000000E+01 -0.500000000000E+01 -0.500000000000E+01 -0.500000000000E+01 -0.500000000000E+01 -0.500000000000E+01
 -0.500000000000E+01 -0.500000000000E+01 -0.500000000000E+01 -0.500000000000E+01 -0.500000000000E+01 -0.500000000000E+01 -0.500000000000E+01
 -0.500000000000E+01 -0.500000000000E+01 -0.500000000000E+01 -0.500000000000E+01 -0.500000000000E+01 -0.500000000000E+01 -0.500000000000E+01
 -0.500000000000E+01 -0.500000000000E+01 -0.500000000000E+01 -0.500000000000E+01 -0.500000000000E+01 -0.500000000000E+01 -0.500000000000E+01
 -0.500000000000E+01 -0.500000000000E+01
  0.250000000000E+01  0.150000000000E+01  0.250000000000E+01  0.168388151981E+01  0.500000000000E+00  0.784980628699E+00  0.250000000000E+01
  0.172616846193E+01  0.104016062853E+01 -0.500000000000E+00 -0.103062804534E+00  0.179404976675E+00  0.250000000000E+01  0.166729536217E+01
  0.923171218453E+00 -0.150000000000E+01 -0.102255113015E+01 -0.669125930414E+00  0.135977239814E+00 -0.856266143819E+00  0.250000000000E+01
  0.158034275708E+01  0.175813852804E+01  0.774089735567E+00 -0.250000000000E+01 -0.179804978092E+01 -0.146769777443E+01 -0.223755606368E+00
 -0.164420331359E+01 -0.108875578595E+01 -0.190240885061E+01  0.250000000000E+01  0.185787993997E+01  0.110883669208E+01  0.100177177909E+01
  0.349093656766E+00 -0.250000000000E+01 -0.526785284186E+00 -0.250000000000E+01 -0.183798308008E+01 -0.145695630084E+01 -0.250000000000E+01
  0.150000000000E+01  0.500000000000E+00  0.396172271494E-01 -0.788824871575E+00 -0.250000000000E+01 -0.198405114581E+01 -0.150000000000E+01
 -0.500000000000E+00 -0.250000000000E+01
  0.100301548280E+01  0.100348834812E+01  0.100530362619E+01  0.100447883536E+01  0.101237224158E+01  0.100485748976E+01  0.100502611226E+01
  0.100548026227E+01  0.100550527426E+01  0.101975102976E+01  0.101192982749E+01  0.100327116409E+01  0.100381202666E+01  0.100595165505E+01
  0.100442096267E+01  0.986436637996E+00  0.100248856374E+01  0.101641909908E+01  0.999346392392E+00  0.102250301272E+01  0.100336350095E+01
  0.100575740717E+01  0.100454058603E+01  0.100903797551E+01  0.813031328950E+00  0.100720598007E+01  0.989396387895E+00  0.100390371912E+01
  0.102331815419E+01  0.102701177309E+01  0.100632483454E+01  0.100203122742E+01  0.100328116253E+01  0.100697780861E+01  0.100602940280E+01
  0.101395120125E+01  0.982611569755E+00  0.100484204558E+01  0.977201332528E+00  0.982279821705E+00  0.109665110311E+01  0.999310660416E+00
  0.100338194371E+01  0.100287030645E+01  0.101664214583E+01  0.991353945938E+00  0.907263509682E+00  0.120024671814E+01  0.988776293537E+00
  0.104197695279E+01  0.153079724537E+01
  0.492480191514E+00  0.500106286700E+00  0.485725030072E+00  0.490118798128E+00  0.515808152913E+00  0.511093246155E+00  0.488036904556E+00
  0.487990140034E+00  0.497933918609E+00  0.520476878999E+00  0.546450886485E+00  0.535140100248E+00  0.493631097749E+00  0.488341221721E+00
  0.496441593561E+00  0.478655785043E+00  0.540955682338E+00  0.560062870530E+00  0.522067315273E+00  0.557674343667E+00  0.496961947578E+00
  0.488555224896E+00  0.493812275827E+00  0.490064424302E+00  0.000000000000E+00  0.407807140457E+00  0.468507054287E+00  0.528567765619E+00
  0.425410917908E+00  0.567118918438E+00  0.324957375684E+00  0.498177035777E+00  0.496697373007E+00  0.485580819723E+00  0.489375246120E+00
  0.482780086959E+00  0.000000000000E+00  0.509737357637E+00  0.000000000000E+00  0.388876451993E+00  0.513400285256E+00  0.000000000000E+00
  0.497734062540E+00  0.495494447867E+00  0.481043954217E+00  0.472766722057E+00  0.000000000000E+00  0.420353479682E+00  0.461422572394E+00
  0.473394555362E+00  0.000000000000E+00
  0.217127960057E-03 -0.159620599054E-02  0.976907194593E-04 -0.475787427504E-05 -0.451105800414E-02 -0.313202873219E-02 -0.220934004761E-02
 -0.848228563505E-03 -0.180153911296E-02 -0.126248465317E-02 -0.444554715720E-02 -0.143669410135E-03 -0.394105976338E-02 -0.699361987090E-03
 -0.698976659628E-03  0.304022642990E-02 -0.368428894974E-02 -0.136569500618E-01 -0.326922625611E-02 -0.197577803595E-01 -0.236550278947E-02
 -0.149479912944E-02 -0.284107344480E-02  0.456844061816E-03  0.000000000000E+00 -0.553699733731E-02  0.616705504600E-02 -0.619701302219E-02
 -0.201470738969E-01 -0.209974025127E-01 -0.731427246726E-02 -0.331095103685E-03 -0.188457682997E-02 -0.894220048192E-03 -0.202408525822E-02
 -0.186760882993E-02  0.000000000000E+00 -0.171335722055E-01  0.000000000000E+00  0.931511048365E-02 -0.194102657344E-01  0.000000000000E+00
 -0.166302523614E-02 -0.316741463442E-02  0.338851430077E-02 -0.383779184738E-01  0.000000000000E+00 -0.136246485341E+00 -0.338403632229E-01
  0.649596632455E-02  0.000000000000E+00
  0.352981254444E-02  0.199411874814E-01  0.303211916090E-02  0.108328659170E-01  0.316614690490E-01  0.276928578605E-01  0.587467839457E-02
  0.931150205855E-02  0.190849035027E-01  0.269743028911E-03  0.320035988690E-01  0.405520849665E-01  0.678758212870E-02  0.983014162507E-02
  0.193563350321E-01 -0.652229216484E-01  0.515889660259E-02  0.299612729989E-01  0.447551070624E-01  0.488470116891E-01  0.383326608672E-02
  0.833008245858E-02  0.624643686375E-02  0.194157486379E-01  0.000000000000E+00 -0.430716624089E-01  0.166636548486E-01  0.628035294919E-01
  0.483778264033E-02  0.771196693547E-01  0.211663994399E-02  0.412481973996E-03  0.316026866748E-02  0.812592492531E-02  0.501788160787E-02
  0.162954489747E-01  0.000000000000E+00  0.751195361195E-01  0.000000000000E+00 -0.588898632162E-02  0.120561709975E+00  0.000000000000E+00
  0.104533804248E-02  0.630313829965E-02  0.588519519411E-03  0.354763707416E-01  0.000000000000E+00  0.179816050121E+00  0.748502310833E-01
 -0.135720125871E-01  0.000000000000E+00
  0.716656664990E+00  0.718330457444E+00  0.719006978763E+00  0.718692883355E+00  0.726020599346E+00  0.720458255651E+00  0.719534367071E+00
  0.719722338027E+00  0.720643266110E+00  0.728473527535E+00  0.722057615349E+00  0.717477118601E+00  0.718887308596E+00  0.719856252155E+00
  0.719625833124E+00  0.692586097373E+00  0.707987469074E+00  0.719915114246E+00  0.716836959464E+00  0.722740703283E+00  0.717753409610E+00
  0.719880449839E+00  0.719067691672E+00  0.722733514759E+00  0.580727272341E+00  0.706653465007E+00  0.696505341397E+00  0.721047757513E+00
  0.720168044171E+00  0.719854009582E+00  0.713877250509E+00  0.716136418731E+00  0.717601996981E+00  0.720764613301E+00  0.720225637571E+00
  0.727707658182E+00  0.701854082863E+00  0.726120366951E+00  0.697989439283E+00  0.687390869775E+00  0.772205398709E+00  0.713781721681E+00
  0.717898597693E+00  0.718234985487E+00  0.727610437348E+00  0.727009008276E+00  0.648034437657E+00  0.803463393259E+00  0.730515020194E+00
  0.748041440960E+00  0.109340770631E+01
  0.492418309394E+00  0.499964888177E+00  0.485419264809E+00  0.489826323214E+00  0.515766343732E+00  0.510891480330E+00  0.487514412402E+00
  0.487563310519E+00  0.497463598873E+00  0.520449923416E+00  0.547689296914E+00  0.536354593709E+00  0.493047968077E+00  0.487992837712E+00
  0.496065413030E+00  0.487259728208E+00  0.544069545353E+00  0.563401234414E+00  0.522888106608E+00  0.563102723373E+00  0.496613446070E+00
  0.488125196580E+00  0.493331275572E+00  0.489772710146E+00  0.000000000000E+00  0.413804475962E+00  0.472266515398E+00  0.530853034774E+00
  0.429089154784E+00  0.578157919690E+00  0.326166158133E+00  0.498038227907E+00  0.496374281327E+00  0.485145788630E+00  0.488849946441E+00
  0.481909939359E+00  0.000000000000E+00  0.512545553569E+00  0.000000000000E+00  0.393040844640E+00  0.531508191818E+00  0.000000000000E+00
  0.497322736977E+00  0.494889102764E+00  0.480580823334E+00  0.469423654897E+00  0.000000000000E+00  0.492797582822E+00  0.460833936915E+00
  0.472437897703E+00  0.000000000000E+00
  0.100030293469E+01  0.100216673398E+01  0.100129925333E+01  0.100168366050E+01  0.100400702166E+01  0.100376577594E+01  0.100231038936E+01
  0.100211939612E+01  0.100337670859E+01  0.100010974129E+01  0.998963202806E+00  0.100119289978E+01  0.100262021703E+01  0.100183616971E+01
  0.100304175621E+01  0.982952679345E+00  0.988721959085E+00  0.991599981602E+00  0.100422811439E+01  0.989568707387E+00  0.100148627342E+01
  0.100206334310E+01  0.100214444528E+01  0.100276396451E+01  0.999983828824E+00  0.982236871693E+00  0.985557952188E+00  0.100554150891E+01
  0.985260798620E+00  0.981289250832E+00  0.993146662396E+00  0.100055862411E+01  0.100135718011E+01  0.100207814908E+01  0.100227278626E+01
  0.100477293207E+01  0.999983865703E+00  0.101166996166E+01  0.999983506437E+00  0.979707814841E+00  0.985808116300E+00  0.999983738728E+00
  0.100167044371E+01  0.100265106386E+01  0.100197952294E+01  0.102668942385E+01  0.999983139450E+00  0.937181275785E+00  0.103433004508E+01
  0.100506831225E+01  0.999982717152E+00
        28        24        19        19
        19        24        15        15
        19        15        12        12
        22        13        14        14
        13        22        23        23
        31        27        37        37
        31        29        20        20
        35        34        36        36
        34        23        22        22
         8         9        15        15
         9         6        12        12
        20        18        27        27
        27        18        17        17
        38        45        36        36
        38        30        41        41
        28        19        20        20
        30        40        41        41
        40        39        47        47
        11        10        17        17
        10        11         5         5
         8        14         7         7
        14        24        22        22
        45        46        50        50
        46        41        49        49
        41        46        38        38
        29        39        40        40
        36        24        28        28
        36        45        35        35
        20        29        30        30
        11        18        12        12
        15        24        14        14
        12        20        19        19
        12        18        20        20
        31        20        27        27
         9        12        15        15
         9         4         6         6
        24        36        34        34
        35        23        34        34
        38        36        28        28
        41        47        48        48
        29        40        30        30
        49        50        46        46
        46        45        38        38
        25        26        16        16
        26        37        27        27
        32        33        43        43
        33        21        23        23
        51        48        47        47
         1         4         3         3
         4         2         6         6
         6         5        11        11
        35        43        33        33
        43        35        44        44
         8         3         4         4
         3         8         7         7
        31        37        42        42
        17        16        26        26
        16        17        10        10
        34        22        24        24
        47        41        40        40
        15        14         8         8
        20        30        28        28
        11        17        18        18
        39        31        42        42
         4         9         8         8
        33        23        35        35
        28        30        38        38
        17        26        27        27
        41        48        49        49
        35        45        44        44
        39        29        31        31
        45        50        44        44
        21        13        23        23
        13         7        14        14
         2         5         6         6
         6        11        12        12
        25        37        26        26
        51        49        48        48
        32        21        33        33
         1         2         4         4
zone t="boundary 3 bc-3", solutiontime= 0.1000000E+02, strandid=1003, i=51, j=80, f=feblock
  0.500000000000E+01  0.500000000000E+01  0.400000000000E+01  0.425172245441E+01  0.500000000000E+01  0.427741389634E+01  0.300000000000E+01
  0.341887665662E+01  0.368116975164E+01  0.500000000000E+01  0.430894944607E+01  0.352044655687E+01  0.200000000000E+01  0.259168638257E+01
  0.301798341022E+01  0.500000000000E+01  0.435643616790E+01  0.375117520592E+01  0.271663237208E+01  0.288980181581E+01  0.100000000000E+01
  0.191939879870E+01  0.130679496696E+01  0.219385942988E+01  0.500000000000E+01  0.441735041915E+01  0.373031592783E+01  0.208456665067E+01
  0.230848460393E+01  0.190054259015E+01  0.298584217914E+01  0.000000000000E+00  0.613733212775E+00  0.151350918120E+01  0.794128609067E+00
  0.144135983281E+01  0.400000000000E+01  0.132476136006E+01  0.200000000000E+01  0.164582171489E+01  0.102008138039E+01  0.300000000000E+01
  0.000000000000E+00  0.000000000000E+00  0.701034609231E+00  0.609175469936E+00  0.100000000000E+01  0.505577837730E+00  0.000000000000E+00
  0.000000000000E+00  0.000000000000E+00
  0.000000000000E+00  0.000000000000E+00  0.000000000000E+00  0.000000000000E+00  0.000000000000E+00  0.000000000000E+00  0.000000000000E+00
  0.000000000000E+00  0.000000000000E+00  0.000000000000E+00  0.000000000000E+00  0.000000000000E+00  0.000000000000E+00  0.000000000000E+00
  0.000000000000E+00  0.000000000000E+00  0.000000000000E+00  0.000000000000E+00  0.000000000000E+00  0.000000000000E+00  0.000000000000E+00
  0.000000000000E+00  0.000000000000E+00  0.000000000000E+00  0.000000000000E+00  0.000000000000E+00  0.000000000000E+00  0.000000000000E+00
  0.000000000000E+00  0.000000000000E+00  0.000000000000E+00  0.000000000000E+00  0.000000000000E+00  0.000000000000E+00  0.000000000000E+00
  0.000000000000E+00  0.000000000000E+00  0.000000000000E+00  0.000000000000E+00  0.000000000000E+00  0.000000000000E+00  0.000000000000E+00
  0.000000000000E+00  0.000000000000E+00  0.000000000000E+00  0.000000000000E+00  0.000000000000E+00  0.000000000000E+00  0.000000000000E+00
  0.000000000000E+00  0.000000000000E+00
  0.250000000000E+01  0.150000000000E+01  0.250000000000E+01  0.168388151981E+01  0.500000000000E+00  0.784980628699E+00  0.250000000000E+01
  0.172616846193E+01  0.104016062853E+01 -0.500000000000E+00 -0.103062804534E+00  0.179404976675E+00  0.250000000000E+01  0.166729536217E+01
  0.923171218453E+00 -0.150000000000E+01 -0.102255113015E+01 -0.669125930414E+00  0.135977239814E+00 -0.856266143819E+00  0.250000000000E+01
  0.158034275708E+01  0.175813852804E+01  0.774089735567E+00 -0.250000000000E+01 -0.179804978092E+01 -0.146769777443E+01 -0.223755606368E+00
 -0.164420331359E+01 -0.108875578595E+01 -0.190240885061E+01  0.250000000000E+01  0.185787993997E+01  0.110883669208E+01  0.100177177909E+01
  0.349093656766E+00 -0.250000000000E+01 -0.526785284186E+00 -0.250000000000E+01 -0.183798308008E+01 -0.145695630084E+01 -0.250000000000E+01
  0.150000000000E+01  0.500000000000E+00  0.396172271494E-01 -0.788824871575E+00 -0.250000000000E+01 -0.198405114581E+01 -0.150000000000E+01
 -0.500000000000E+00 -0.250000000000E+01
  0.100301559821E+01  0.100348848402E+01  0.100530414817E+01  0.100447925978E+01  0.101237314433E+01  0.100485821031E+01  0.100502658938E+01
  0.100548070953E+01  0.100550580659E+01  0.101975296952E+01  0.101193142614E+01  0.100327226959E+01  0.100381237807E+01  0.100595215376E+01
  0.100442148583E+01  0.986438841530E+00  0.100249178315E+01  0.101642181552E+01  0.999347336003E+00  0.102250666859E+01  0.100336365789E+01
  0.100575793355E+01  0.100454092352E+01  0.100903888179E+01  0.813039188394E+00  0.100720908542E+01  0.989399769087E+00  0.100390521169E+01
  0.102332315343E+01  0.102701694328E+01  0.100632931375E+01  0.100203125449E+01  0.100328128498E+01  0.100697844055E+01  0.100602972990E+01
  0.101395191276E+01  0.982621504036E+00  0.100484309163E+01  0.977213190299E+00  0.982284998382E+00  0.109665871708E+01  0.999318999984E+00
  0.100338206243E+01  0.100287077063E+01  0.101664312402E+01  0.991353443632E+00  0.907274636164E+00  0.120026099336E+01  0.988774696064E+00
  0.104198012108E+01  0.153081940882E+01
  0.492479264050E+00  0.500106190682E+00  0.485723143714E+00  0.490117589346E+00  0.515808598667E+00  0.511092911384E+00  0.488035618772E+00
  0.487988885353E+00  0.497932798410E+00  0.520476355097E+00  0.546451218962E+00  0.535139870059E+00  0.493630302847E+00  0.488339791520E+00
  0.496439559469E+00  0.478652721744E+00  0.540953404790E+00  0.560062784949E+00  0.522066117458E+00  0.557673936454E+00  0.496961790406E+00
  0.488554101922E+00  0.493811648136E+00  0.490061856868E+00  0.000000000000E+00  0.407802992449E+00  0.468503248246E+00  0.528566590203E+00
  0.425407818932E+00  0.567119085357E+00  0.324953317744E+00  0.498176975276E+00  0.496697254818E+00  0.485579603878E+00  0.489374819192E+00
  0.482777211017E+00  0.000000000000E+00  0.509735515723E+00  0.000000000000E+00  0.388874443135E+00  0.513399364888E+00  0.000000000000E+00
  0.497733986082E+00  0.495494327773E+00  0.481040602442E+00  0.472763424115E+00  0.000000000000E+00  0.420352267001E+00  0.461420124740E+00
  0.473391655143E+00  0.000000000000E+00
 -0.217366821646E-03  0.159604328075E-02 -0.980372585215E-04  0.450828955792E-05  0.451061633540E-02  0.313171175023E-02  0.220911264842E-02
  0.848031553245E-03  0.180134694519E-02  0.126185285635E-02  0.444550413511E-02  0.142928610593E-03  0.394103946030E-02  0.699172166837E-03
  0.698838761129E-03 -0.303716315911E-02  0.368637463346E-02  0.136579788193E-01  0.326879768933E-02  0.197592237845E-01  0.236556437203E-02
  0.149470095548E-02  0.284106807285E-02 -0.457058401161E-03  0.000000000000E+00  0.554103398221E-02 -0.616398175660E-02  0.619633184875E-02
  0.201506209066E-01  0.209991449896E-01  0.731857922177E-02  0.331123319825E-03  0.188462446211E-02  0.894039467948E-03  0.202393070716E-02
  0.186759397719E-02  0.000000000000E+00  0.171336091286E-01  0.000000000000E+00 -0.931166201307E-02  0.194094434782E-01  0.000000000000E+00
  0.166308197030E-02  0.316739583881E-02 -0.338880162398E-02  0.383794652673E-01  0.000000000000E+00  0.136253479761E+00  0.338411769376E-01
 -0.649661312312E-02  0.000000000000E+00
  0.353025581986E-02  0.199436495377E-01  0.303231422718E-02  0.108343128617E-01  0.316668466210E-01  0.276969621236E-01  0.587492878212E-02