# vtk DataFile Version 2.0
FUN3D:global_image_vtk
ASCII
DATASET UNSTRUCTURED_GRID
POINTS 357 double
    0.5000000000000000E+01    0.0000000000000000E+00    0.2500000000000000E+01
    0.5000000000000000E+01    0.0000000000000000E+00    0.1500000000000000E+01
    0.5000000000000000E+01    0.0000000000000000E+00    0.5000000000000000E+00
    0.5000000000000000E+01    0.0000000000000000E+00   -0.5000000000000000E+00
    0.5000000000000000E+01    0.0000000000000000E+00   -0.1500000000000000E+01
    0.5000000000000000E+01    0.0000000000000000E+00   -0.2500000000000000E+01
    0.4000000000000000E+01    0.0000000000000000E+00   -0.2500000000000000E+01
    0.3000000000000000E+01    0.0000000000000000E+00   -0.2500000000000000E+01
    0.2000000000000000E+01    0.0000000000000000E+00   -0.2500000000000000E+01
    0.9999999999999998E+00    0.0000000000000000E+00   -0.2500000000000000E+01
    0.0000000000000000E+00    0.0000000000000000E+00   -0.2500000000000000E+01
    0.0000000000000000E+00    0.0000000000000000E+00   -0.1500000000000000E+01
    0.0000000000000000E+00    0.0000000000000000E+00   -0.5000000000000000E+00
    0.0000000000000000E+00    0.0000000000000000E+00    0.5000000000000000E+00
    0.0000000000000000E+00    0.0000000000000000E+00    0.1500000000000000E+01
    0.0000000000000000E+00    0.0000000000000000E+00    0.2500000000000000E+01
    0.1000000000000000E+01    0.0000000000000000E+00    0.2500000000000000E+01
    0.2000000000000000E+01    0.0000000000000000E+00    0.2500000000000000E+01
    0.3000000000000000E+01    0.0000000000000000E+00    0.2500000000000000E+01
    0.4000000000000000E+01    0.0000000000000000E+00    0.2500000000000000E+01
    0.4251722454414101E+01    0.0000000000000000E+00    0.1683881519811194E+01
    0.6137332127746504E+00    0.0000000000000000E+00    0.1857879939968904E+01
    0.5055778377301318E+00    0.0000000000000000E+00   -0.1984051145810370E+01
    0.4417350419147004E+01    0.0000000000000000E+00   -0.1798049780917599E+01
    0.4277413896341787E+01    0.0000000000000000E+00    0.7849806286986014E+00
    0.4308949446070184E+01    0.0000000000000000E+00   -0.1030628045339280E+00
    0.3520446556869569E+01    0.0000000000000000E+00    0.1794049766750259E+00
    0.2591686382569276E+01    0.0000000000000000E+00    0.1667295362171870E+01
    0.1306794966956192E+01    0.0000000000000000E+00    0.1758138528035871E+01
    0.7010346092308208E+00    0.0000000000000000E+00    0.3961722714940701E-01
    0.2308484603929350E+01    0.0000000000000000E+00   -0.1644203313594280E+01
    0.2985842179142563E+01    0.0000000000000000E+00   -0.1902408850608312E+01
    0.7941286090671454E+00    0.0000000000000000E+00    0.1001771779085911E+01
    0.1020081380390785E+01    0.0000000000000000E+00   -0.1456956300840256E+01
    0.4356436167904402E+01    0.0000000000000000E+00   -0.1022551130153989E+01
    0.3730315927830617E+01    0.0000000000000000E+00   -0.1467697774434008E+01
    0.2084566650673803E+01    0.0000000000000000E+00   -0.2237556063676878E+00
    0.1900542590153839E+01    0.0000000000000000E+00   -0.1088755785946356E+01
    0.1324761360056765E+01    0.0000000000000000E+00   -0.5267852841860601E+00
    0.3681169751640886E+01    0.0000000000000000E+00    0.1040160628527462E+01
    0.3418876656618056E+01    0.0000000000000000E+00    0.1726168461930342E+01
    0.3751175205920376E+01    0.0000000000000000E+00   -0.6691259304140329E+00
    0.2889801815813465E+01    0.0000000000000000E+00   -0.8562661438192326E+00
    0.3017983410224082E+01    0.0000000000000000E+00    0.9231712184526961E+00
    0.1645821714894795E+01    0.0000000000000000E+00   -0.1837983080076178E+01
    0.1513509181197389E+01    0.0000000000000000E+00    0.1108836692078749E+01
    0.1919398798697967E+01    0.0000000000000000E+00    0.1580342757081665E+01
    0.2193859429875553E+01    0.0000000000000000E+00    0.7740897355665203E+00
    0.6091754699356742E+00    0.0000000000000000E+00   -0.7888248715753817E+00
    0.1441359832811715E+01    0.0000000000000000E+00    0.3490936567660688E+00
    0.2716632372076206E+01    0.0000000000000000E+00    0.1359772398136161E+00
    0.5000000000000000E+01   -0.8333333333333334E+00    0.2500000000000000E+01
    0.5000000000000000E+01   -0.8333333333333334E+00    0.1500000000000000E+01
    0.5000000000000000E+01   -0.8333333333333334E+00    0.5000000000000000E+00
    0.5000000000000000E+01   -0.8333333333333334E+00   -0.5000000000000000E+00
    0.5000000000000000E+01   -0.8333333333333334E+00   -0.1500000000000000E+01
    0.5000000000000000E+01   -0.8333333333333334E+00   -0.2500000000000000E+01
    0.4000000000000000E+01   -0.8333333333333334E+00   -0.2500000000000000E+01
    0.3000000000000000E+01   -0.8333333333333334E+00   -0.2500000000000000E+01
    0.2000000000000000E+01   -0.8333333333333334E+00   -0.2500000000000000E+01
    0.9999999999999998E+00   -0.8333333333333334E+00   -0.2500000000000000E+01
    0.0000000000000000E+00   -0.8333333333333334E+00   -0.2500000000000000E+01
    0.0000000000000000E+00   -0.8333333333333334E+00   -0.1500000000000000E+01
    0.0000000000000000E+00   -0.8333333333333334E+00   -0.5000000000000000E+00
    0.0000000000000000E+00   -0.8333333333333334E+00    0.5000000000000000E+00
    0.0000000000000000E+00   -0.8333333333333334E+00    0.1500000000000000E+01
    0.0000000000000000E+00   -0.8333333333333334E+00    0.2500000000000000E+01
    0.1000000000000000E+01   -0.8333333333333334E+00    0.2500000000000000E+01
    0.2000000000000000E+01   -0.8333333333333334E+00    0.2500000000000000E+01
    0.3000000000000000E+01   -0.8333333333333334E+00    0.2500000000000000E+01
    0.4000000000000000E+01   -0.8333333333333334E+00    0.2500000000000000E+01
    0.4251722454414101E+01   -0.8333333333333334E+00    0.1683881519811194E+01
    0.6137332127746504E+00   -0.8333333333333334E+00    0.1857879939968904E+01
    0.5055778377301318E+00   -0.8333333333333334E+00   -0.1984051145810370E+01
    0.4417350419147004E+01   -0.8333333333333334E+00   -0.1798049780917599E+01
    0.4277413896341787E+01   -0.8333333333333334E+00    0.7849806286986014E+00
    0.4308949446070184E+01   -0.8333333333333334E+00   -0.1030628045339280E+00
    0.3520446556869569E+01   -0.8333333333333334E+00    0.1794049766750259E+00
    0.2591686382569276E+01   -0.8333333333333334E+00    0.1667295362171870E+01
    0.1306794966956192E+01   -0.8333333333333334E+00    0.1758138528035871E+01
    0.7010346092308208E+00   -0.8333333333333334E+00    0.3961722714940701E-01
    0.2308484603929350E+01   -0.8333333333333334E+00   -0.1644203313594280E+01
    0.2985842179142563E+01   -0.8333333333333334E+00   -0.1902408850608312E+01
    0.7941286090671454E+00   -0.8333333333333334E+00    0.1001771779085911E+01
    0.1020081380390785E+01   -0.8333333333333334E+00   -0.1456956300840256E+01
    0.4356436167904402E+01   -0.8333333333333334E+00   -0.1022551130153989E+01
    0.3730315927830617E+01   -0.8333333333333334E+00   -0.1467697774434008E+01
    0.2084566650673803E+01   -0.8333333333333334E+00   -0.2237556063676878E+00
    0.1900542590153839E+01   -0.8333333333333334E+00   -0.1088755785946356E+01
    0.1324761360056765E+01   -0.8333333333333334E+00   -0.5267852841860601E+00
    0.3681169751640886E+01   -0.8333333333333334E+00    0.1040160628527462E+01
    0.3418876656618056E+01   -0.8333333333333334E+00    0.1726168461930342E+01
    0.3751175205920376E+01   -0.8333333333333334E+00   -0.6691259304140329E+00
    0.2889801815813465E+01   -0.8333333333333334E+00   -0.8562661438192326E+00
    0.3017983410224082E+01   -0.8333333333333334E+00    0.9231712184526961E+00
    0.1645821714894795E+01   -0.8333333333333334E+00   -0.1837983080076178E+01
    0.1513509181197389E+01   -0.8333333333333334E+00    0.1108836692078749E+01
    0.1919398798697967E+01   -0.8333333333333334E+00    0.1580342757081665E+01
    0.2193859429875553E+01   -0.8333333333333334E+00    0.7740897355665203E+00
    0.6091754699356742E+00   -0.8333333333333334E+00   -0.7888248715753817E+00
    0.1441359832811715E+01   -0.8333333333333334E+00    0.3490936567660688E+00
    0.2716632372076206E+01   -0.8333333333333334E+00    0.1359772398136161E+00
    0.5000000000000000E+01   -0.1666666666666667E+01    0.2500000000000000E+01
    0.5000000000000000E+01   -0.1666666666666667E+01    0.1500000000000000E+01
    0.5000000000000000E+01   -0.1666666666666667E+01    0.5000000000000000E+00
    0.5000000000000000E+01   -0.1666666666666667E+01   -0.5000000000000000E+00
    0.5000000000000000E+01   -0.1666666666666667E+01   -0.1500000000000000E+01
    0.5000000000000000E+01   -0.1666666666666667E+01   -0.2500000000000000E+01
    0.4000000000000000E+01   -0.1666666666666667E+01   -0.2500000000000000E+01
    0.3000000000000000E+01   -0.1666666666666667E+01   -0.2500000000000000E+01
    0.2000000000000000E+01   -0.1666666666666667E+01   -0.2500000000000000E+01
    0.9999999999999998E+00   -0.1666666666666667E+01   -0.2500000000000000E+01
    0.0000000000000000E+00   -0.1666666666666667E+01   -0.2500000000000000E+01
    0.0000000000000000E+00   -0.1666666666666667E+01   -0.1500000000000000E+01
    0.0000000000000000E+00   -0.1666666666666667E+01   -0.5000000000000000E+00
    0.0000000000000000E+00   -0.1666666666666667E+01    0.5000000000000000E+00
    0.0000000000000000E+00   -0.1666666666666667E+01    0.1500000000000000E+01
    0.0000000000000000E+00   -0.1666666666666667E+01    0.2500000000000000E+01
    0.1000000000000000E+01   -0.1666666666666667E+01    0.2500000000000000E+01
    0.2000000000000000E+01   -0.1666666666666667E+01    0.2500000000000000E+01
    0.3000000000000000E+01   -0.1666666666666667E+01    0.2500000000000000E+01
    0.4000000000000000E+01   -0.1666666666666667E+01    0.2500000000000000E+01
    0.4251722454414101E+01   -0.1666666666666667E+01    0.1683881519811194E+01
    0.6137332127746504E+00   -0.1666666666666667E+01    0.1857879939968904E+01
    0.5055778377301318E+00   -0.1666666666666667E+01   -0.1984051145810370E+01
[...]
POINT_DATA 357
SCALARS rho double 1
LOOKUP_TABLE default
   0.1003903735109755E+01
   0.1002033978830546E+01
   0.1012277916473894E+01
   0.1028938106853669E+01
   0.9938698826756104E+00
   0.8112048135566603E+00
   0.9796735153342988E+00
   0.9975775973048241E+00
   0.9852202185202231E+00
   0.9070179102148389E+00
   0.1536308417269721E+01
   0.9813520460320919E+00
   0.1047703209759325E+01
   0.9999108639155709E+00
   0.1005475717205830E+01
   0.1001284840721198E+01
   0.1004170189653894E+01
   0.1005919451669088E+01
   0.1006571451806219E+01
   0.1005315920920735E+01
   0.1005453946906404E+01
   0.1004500029530370E+01
   0.1208890052225263E+01
   0.1011058461999969E+01
   0.1003769287094010E+01
   0.1014646145668256E+01
   0.1002733195329064E+01
   0.1006423199330908E+01
   0.1006088071653044E+01
   0.1021082477082562E+01
   0.1027922649811426E+01
   0.1011771163210851E+01
   0.1005436576602696E+01
   0.1104422741270092E+01
   0.1009515787588707E+01
   0.9944709393550000E+00
   0.1003391377066612E+01
   0.1031694011696400E+01
   0.1003037087592520E+01
   0.1007152587403845E+01
   0.1005821262393219E+01
   0.1020067632584492E+01
   0.1027523618015825E+01
   0.1005419184264928E+01
   0.9864512090215733E+00
   0.1005913011379638E+01
   0.1005423916074059E+01
   0.1011481969023191E+01
   0.9877628141959088E+00
   0.1018096095999773E+01
   0.9985766741889459E+00
   0.1000970896347410E+01
   0.1000645068367945E+01
   0.1006158918884616E+01
   0.1015201334257053E+01
   0.9781354682550449E+00
   0.8132735123147451E+00
   0.9743635844825916E+00
   0.9805089024763369E+00
   0.9749054085089848E+00
   0.9246454341233999E+00
   0.1500315725886083E+01
   0.9986995901873356E+00
   0.1030397130001408E+01
   0.1000165828858141E+01
   0.1004715559450924E+01
   0.1001476483672734E+01
   0.1002620455570248E+01
   0.1002643067899421E+01
   0.1001542850630646E+01
   0.1000242631165633E+01
   0.1000804577757764E+01
   0.1002879647445888E+01
   0.1062059180861411E+01
   0.9902570472084313E+00
   0.9994626811724724E+00
   0.1002668737549870E+01
   0.9953165974989107E+00
   0.1001004286454717E+01
   0.1002881576820520E+01
   0.1010264304838399E+01
   0.1005205509521491E+01
   0.9928106681207375E+00
   0.1002456214233883E+01
   0.1057676869345323E+01
   0.9885910031801315E+00
   0.9745978137754444E+00
   0.9942100060596097E+00
   0.9938060418023693E+00
   0.9927316824648847E+00
   0.1001080421431535E+01
   0.1000222773725573E+01
   0.9968583297834218E+00
   0.1000143043583807E+01
   0.9987440257727388E+00
   0.9723638085357325E+00
   0.1000733853535972E+01
   0.1000786395890096E+01
   0.1002589078757003E+01
   0.9882203732301976E+00
   0.1009033721658147E+01
   0.9918883049361741E+00
   0.1002742311089821E+01
   0.1002120473006208E+01
   0.1009461961301759E+01
   0.1021949091865655E+01
   0.9846784353840102E+00
   0.8133213690352262E+00
   0.9770823015243837E+00
   0.9850655003096866E+00
   0.9744802941232520E+00
   0.9246706042824392E+00
   0.1511810594491623E+01
   0.1006141271338914E+01
   0.1040874857798470E+01
   0.1003644311295368E+01
   0.1006858667171161E+01
   0.1002461555693255E+01
   0.1004363620035409E+01
   0.1005086278704683E+01
   0.1004546160693798E+01
   0.1003037684266763E+01
   0.1003471143431142E+01
   0.1004782691609985E+01
   0.1108882756481117E+01
   0.9993062834835509E+00
   0.1003026361772695E+01
   0.1006558846681561E+01
   0.9981397674701133E+00
   0.1004082641368804E+01
   0.1005399901771328E+01
   0.1015721735019251E+01
   0.1015886411397087E+01
   0.9995364894883130E+00
   0.1005664192324964E+01
   0.1068840168594747E+01
   0.9956154818694892E+00
   0.9787379221497876E+00
   0.9982415189815449E+00
   0.1003753329509148E+01
   0.9975070795975682E+00
   0.1005068679206996E+01
   0.1003496022609933E+01
   0.1003886293250038E+01
   0.1008554464249047E+01
   0.1002767017871269E+01
   0.9762131973822883E+00
   0.1003855325935738E+01
   0.1003708915657656E+01
   0.1006784364118638E+01
   0.9970910483212011E+00
   0.1013993375791375E+01
   0.9955071298481908E+00
   0.1001770024972538E+01
   0.1001579011927060E+01
   0.1008488843146985E+01
   0.1020257821055446E+01
   0.9816824084240964E+00
   0.8116093690442024E+00
   0.9754562853715198E+00
   0.9829244814018028E+00
   0.9716257226412582E+00
   0.9235984486827157E+00
   0.1508877060275255E+01
   0.1007021354526643E+01
   0.1036631092878423E+01
   0.1002537858372494E+01
   0.1005842048693683E+01
   0.1002023305218817E+01
   0.1003142841788328E+01
   0.1003088159682272E+01
   0.1002059379438931E+01
   0.1000920418143991E+01
   0.1001760364510744E+01
   0.1003539465258612E+01
   0.1095302077554214E+01
   0.9956621560762918E+00
   0.1001497018389615E+01
   0.1004915111576266E+01
   0.9961636083341651E+00
   0.1001567216205540E+01
   0.1003411303628478E+01
   0.1012133945530981E+01
   0.1012942932217179E+01
   0.9960503782675394E+00
   0.1003712614170235E+01
   0.1060752921064480E+01
   0.9932360041447285E+00
   0.9756313798447888E+00
   0.9954306004875934E+00
   0.9990482994018103E+00
   0.9943130232480351E+00
   0.1002820225786920E+01
   0.1001076455576732E+01
   0.1001267689283715E+01
   0.1005296581000966E+01
   0.1000129175033893E+01
   0.9729794684309918E+00
   0.1001452652793836E+01
   0.1001394150849978E+01
   0.1003644053259724E+01
   0.9946146047735110E+00
   0.1010626053796872E+01
   0.9931692422428925E+00
   0.1002742215679350E+01
   0.1002120450466581E+01
   0.1009461971915727E+01
   0.1021948822451945E+01
   0.9846775474515851E+00
   0.8133190498502213E+00
   0.9770809507873764E+00
   0.9850641971020787E+00
   0.9744788610415199E+00
   0.9246701175231863E+00
   0.1511805147345746E+01
   0.1006142062056712E+01
   0.1040874010864879E+01
   0.1003644237852422E+01
   0.1006858504418195E+01
   0.1002461524929918E+01
   0.1004363510969666E+01
   0.1005086111003638E+01
   0.1004545965438651E+01
   0.1003037518177056E+01
   0.1003470980041581E+01
   0.1004782569988506E+01
   0.1108879886262517E+01
   0.9993054511518793E+00
   0.1003026220737196E+01
   0.1006558704349273E+01
   0.9981394938945922E+00
   0.1004082444369919E+01
   0.1005399721680331E+01
   0.1015721302968964E+01
   0.1015885358051225E+01
   0.9995353311600117E+00
   0.1005664038953742E+01
   0.1068838521808344E+01
   0.9956148562213115E+00
   0.9787370047459399E+00
   0.9982412704991851E+00
   0.1003752683408783E+01
   0.9975069291403643E+00
   0.1005068432496968E+01
   0.1003495804830434E+01
   0.1003885965552098E+01
   0.1008553940123587E+01
   0.1002766730510052E+01
   0.9762123176502604E+00
   0.1003855142216942E+01
   0.1003708739416116E+01
   0.1006784020880076E+01
   0.9970910736640969E+00
   0.1013992964324009E+01
   0.9955069425269187E+00
   0.1000971157194142E+01
   0.1000645245622217E+01
   0.1006158802812216E+01
   0.1015201079094719E+01
   0.9781352850218648E+00
   0.8132698461781442E+00
   0.9743614373110699E+00
   0.9805076664761759E+00
   0.9749028402456944E+00
   0.9246435508055706E+00
   0.1500305480862357E+01
   0.9987014173824466E+00
   0.1030396534366516E+01
   0.1000166046222225E+01
   0.1004715541989827E+01
   0.1001476510124707E+01
   0.1002620459051459E+01
   0.1002643122315565E+01
   0.1001543025220333E+01
   0.1000242852471741E+01
   0.1000804775688530E+01
   0.1002879658394677E+01
   0.1062057708191415E+01
   0.9902571310660360E+00
   0.9994629455559682E+00
   0.1002668884513669E+01
   0.9953169882764709E+00
   0.1001004498864063E+01
   0.1002881615411774E+01
   0.1010264206566305E+01
   0.1005206224846697E+01
   0.9928111116547672E+00
   0.1002456363179731E+01
   0.1057675498480308E+01
   0.9885911245980377E+00
   0.9745978542650896E+00
   0.9942105136749241E+00
   0.9938070131522623E+00
   0.9927323226818574E+00
   0.1001080841041243E+01
   0.1000223065450880E+01
   0.9968591059554665E+00
   0.1000143944466716E+01
   0.9987445018779949E+00
   0.9723642535191303E+00
   0.1000733982395969E+01
   0.1000786527156826E+01
   0.1002589291396865E+01
   0.9882212108290476E+00
   0.1009033788548320E+01
   0.9918889352451369E+00
   0.1003903712063708E+01
   0.1002034465594854E+01
   0.1012276848022166E+01
   0.1028934224355167E+01
   0.9938663553167065E+00
   0.8111969343753439E+00
   0.9796622629510804E+00
   0.9975674311893598E+00
   0.9852059719917911E+00
   0.9070058951488760E+00
   0.1536283165920217E+01
   0.9813541345587523E+00
   0.1047699152761456E+01
   0.9999106276147093E+00
   0.1005475440065669E+01
   0.1001284833405289E+01
   0.1004169881036216E+01
   0.1005918926680953E+01
   0.1006570744781548E+01
   0.1005315198165183E+01
   0.1005453417331759E+01
   0.1004499779223929E+01
   0.1208874786214951E+01
   0.1011053779589771E+01
   0.1003768883050169E+01
   0.1014643224497011E+01
   0.1002731839245085E+01
   0.1006422478372658E+01
   0.1006087571830053E+01
   0.1021080900733408E+01
   0.1027916416696819E+01
   0.1011765097636502E+01
   0.1005436220837228E+01
   0.1104413877565844E+01
   0.1009510745115165E+01
   0.9944661392244032E+00
   0.1003389867260624E+01
   0.1031687657357535E+01
   0.1003036219252963E+01
   0.1007151989364732E+01
   0.1005820611769899E+01
   0.1020063181083383E+01
   0.1027518525700713E+01
   0.1005418558947683E+01
   0.9864451586660093E+00
   0.1005912282055784E+01
   0.1005423195746596E+01
   0.1011480692594314E+01
   0.9877638955906357E+00
   0.1018094934152336E+01
   0.9985755896108496E+00
SCALARS u double 1
LOOKUP_TABLE default
   0.4947243279135836E+00
   0.4988026791603685E+00
   0.5149375424201884E+00
   0.5145552732860440E+00
   0.4667672199522283E+00
   0.0000000000000000E+00
   0.0000000000000000E+00
   0.0000000000000000E+00
   0.0000000000000000E+00
   0.0000000000000000E+00
   0.0000000000000000E+00
   0.4678626132489126E+00
   0.4700967729424168E+00
   0.4970596393177197E+00
   0.4962876362237397E+00
   0.4981957226617865E+00
   0.4937201497095454E+00
   0.4920912839128454E+00
   0.4909309327814417E+00
   0.4909781569186605E+00
   0.4873955172261528E+00
   0.4949165131858158E+00
   0.4164750984378244E+00
   0.3942297145213778E+00
   0.5033221400094178E+00
   0.5481323611703404E+00
   0.5303564838675311E+00
   0.4870568832067300E+00
   0.4912376098761305E+00
   0.4802972605174882E+00
   0.4131935293969873E+00
   0.3128474248730446E+00
   0.4883883728100029E+00
   0.5088660444432500E+00
   0.5366398453394005E+00
   0.4565981610594224E+00
   0.5239940228923229E+00
   0.5639190036166588E+00
   0.5045718684985635E+00
   0.4913358019073344E+00
   0.4865417266348296E+00
   0.5620443273862331E+00
   0.5556834111017421E+00
   0.4908064873775314E+00
   0.3796834093192645E+00
   0.4841647168857682E+00
   0.4868533507916005E+00
   0.4865683637513794E+00
   0.4677705639487525E+00
   0.4802745557127061E+00
   0.5166096025939957E+00
   0.4989367628150012E+00
   0.4984711912453218E+00
   0.5114155627855057E+00
   0.5199316583550078E+00
   0.4748834376503570E+00
   0.0000000000000000E+00
   0.0000000000000000E+00
   0.0000000000000000E+00
   0.0000000000000000E+00
   0.0000000000000000E+00
   0.0000000000000000E+00
   0.4977581635262287E+00
   0.4781365726235839E+00
   0.4990295287437339E+00
   0.4965672117381987E+00
   0.4980485214531983E+00
   0.4967709266772627E+00
   0.4982941132742978E+00
   0.5009138107489137E+00
   0.5020470782851405E+00
   0.4976045640528147E+00
   0.4976282942022081E+00
   0.4621300295380937E+00
   0.4038272932447936E+00
   0.5068242383482504E+00
   0.5458577775036736E+00
   0.5349512986297311E+00
   0.4991289000149534E+00
   0.4975535695548073E+00
   0.4920122540107500E+00
   0.4288199425879619E+00
   0.3180489589093201E+00
   0.4955746402163375E+00
   0.5318787124006427E+00
   0.5515588847876257E+00
   0.4739930095963671E+00
   0.5370453675147699E+00
   0.5862889517634517E+00
   0.5306516401990178E+00
   0.5002496856285601E+00
   0.4991079888088391E+00
   0.5729047258477711E+00
   0.5729295124114095E+00
   0.5020920279171595E+00
   0.3864500433595570E+00
   0.4965811352423092E+00
   0.4977005446285023E+00
   0.5008499090911525E+00
   0.5035903817830296E+00
   0.4944183550125364E+00
   0.5264663755254037E+00
   0.4972829849094635E+00
   0.4987460846041873E+00
   0.5144616697308020E+00
   0.5225085332026728E+00
   0.4754067935677280E+00
   0.0000000000000000E+00
   0.0000000000000000E+00
   0.0000000000000000E+00
   0.0000000000000000E+00
   0.0000000000000000E+00
   0.0000000000000000E+00
   0.4806113139421885E+00
   0.4678912830025490E+00
   0.4952364529165711E+00
   0.4945654403503040E+00
   0.4970119382285059E+00
   0.4942756434848583E+00
   0.4946368536459170E+00
   0.4959078196555224E+00
   0.4968534397866690E+00
   0.4933142895722067E+00
   0.4953607435780661E+00
   0.4499880378532438E+00
   0.4023191240440587E+00
   0.5057125412788435E+00
   0.5513763174011513E+00
   0.5373366770290351E+00
   0.4941525234186899E+00
   0.4942226322252167E+00
   0.4866086659509810E+00
   0.4283743792190527E+00
   0.3211787294006727E+00
   0.4917604034928305E+00
   0.5371200014580109E+00
   0.5548548173296357E+00
   0.4770335891202861E+00
   0.5376458897934415E+00
   0.5895417296955239E+00
   0.5291612105694511E+00
   0.4965705818497335E+00
   0.4937505824301802E+00
   0.5785974926050510E+00
   0.5770743650785716E+00
   0.4980678330959100E+00
   0.3909059477247092E+00
   0.4922377994298442E+00
   0.4933590591141803E+00
   0.4964754190400631E+00
   0.4916068236517006E+00
   0.4901309581130675E+00
   0.5261663608063956E+00
   0.4981875309676739E+00
   0.4985256666761017E+00
   0.5136204318929628E+00
   0.5218267147584680E+00
   0.4752575392874053E+00
   0.0000000000000000E+00
   0.0000000000000000E+00
   0.0000000000000000E+00
   0.0000000000000000E+00
   0.0000000000000000E+00
   0.0000000000000000E+00
   0.4845100907380561E+00
   0.4705939520891981E+00
   0.4968956012735389E+00
   0.4954273213667584E+00
   0.4974440422748382E+00
   0.4963586251516940E+00
   0.4983499770394040E+00
   0.5007288655208456E+00
   0.5012341635414073E+00
   0.4960878628721777E+00
   0.4971287316034338E+00
   0.4571680600826336E+00
   0.4021244134024110E+00
   0.5068137835104636E+00
   0.5512470008793867E+00
   0.5387359799357430E+00
   0.4987517103459023E+00
   0.4974270372089095E+00
   0.4902825680237443E+00
   0.4282907099951383E+00
   0.3203321280824742E+00
   0.4949606622391431E+00
   0.5427975926837130E+00
   0.5542073453104168E+00
   0.4766471800831792E+00
   0.5407945048399141E+00
   0.5920624557911612E+00
   0.5341522104880371E+00
   0.4993189412037587E+00
   0.4980468988166363E+00
   0.5788309266720313E+00
   0.5782683760157555E+00
   0.5015976217501739E+00
   0.3912211383664833E+00
   0.4965497855720017E+00
   0.4976876745273364E+00
   0.5007185030507517E+00
   0.4977565931694536E+00
   0.4942513855549349E+00
   0.5286851825780013E+00
   0.4972829737790890E+00
   0.4987461035929308E+00
   0.5144617017421216E+00
   0.5225085576624181E+00
   0.4754070945853300E+00
   0.0000000000000000E+00
   0.0000000000000000E+00
   0.0000000000000000E+00
   0.0000000000000000E+00
   0.0000000000000000E+00
   0.0000000000000000E+00
   0.4806117722728251E+00
   0.4678916683499331E+00
   0.4952366092896657E+00
   0.4945655396346898E+00
   0.4970119773888754E+00
   0.4942758042851074E+00
   0.4946370759756957E+00
   0.4959081029888869E+00
   0.4968536225148123E+00
   0.4933146248740350E+00
   0.4953608828288867E+00
   0.4499876780547391E+00
   0.4023190092261910E+00
   0.5057128385173384E+00
   0.5513767764305066E+00
   0.5373372569304214E+00
   0.4941529385151120E+00
   0.4942228835220224E+00
   0.4866089054807737E+00
   0.4283736733453753E+00
   0.3211778098618173E+00
   0.4917606777855482E+00
   0.5371203524250924E+00
   0.5548546604943748E+00
   0.4770329458666226E+00
   0.5376465487589968E+00
   0.5895417492393376E+00
   0.5291618199004231E+00
   0.4965709705464006E+00
   0.4937510643723901E+00
   0.5785977308402755E+00
   0.5770745660810844E+00
   0.4980682034964585E+00
   0.3909053628723308E+00
   0.4922382144910342E+00
   0.4933594902754645E+00
   0.4964758104548503E+00
   0.4916077040547337E+00
   0.4901313510475070E+00
   0.5261670203284537E+00
   0.4989367787574208E+00
   0.4984712368683751E+00
   0.5114147690957198E+00
   0.5199306832141025E+00
   0.4748846728206891E+00
   0.0000000000000000E+00
   0.0000000000000000E+00
   0.0000000000000000E+00
   0.0000000000000000E+00
   0.0000000000000000E+00
   0.0000000000000000E+00
   0.4977554594790231E+00
   0.4781370892326409E+00
   0.4990291593661995E+00
   0.4965672372555180E+00
   0.4980485512653292E+00
   0.4967709266915853E+00
   0.4982941163275124E+00
   0.5009135083476514E+00
   0.5020468371676444E+00
   0.4976043643278003E+00
   0.4976282526742670E+00
   0.4621282002998133E+00
   0.4038294312131313E+00
   0.5068236254097430E+00
   0.5458551881547856E+00
   0.5349491107470821E+00
   0.4991284261465415E+00
   0.4975534578057297E+00
   0.4920128500013942E+00
   0.4288195794172649E+00
   0.3180501840920298E+00
   0.4955742202399634E+00
   0.5318772817894285E+00
   0.5515578258774934E+00
   0.4739934463786991E+00
   0.5370433050281789E+00
   0.5862853113048015E+00
   0.5306501312596505E+00
   0.5002493787785196E+00
   0.4991074637730429E+00
   0.5729013650125143E+00
   0.5729260323281204E+00
   0.5020919376534462E+00
   0.3864496542866888E+00
   0.4965806600714944E+00
   0.4977000812450559E+00
   0.5008499067091613E+00
   0.5035894056434892E+00
   0.4944186216539901E+00
   0.5264642913351061E+00
   0.4947256319235697E+00
   0.4988031642114275E+00
   0.5149377722592779E+00
   0.5145580081962383E+00
   0.4667725738770552E+00
   0.0000000000000000E+00
   0.0000000000000000E+00
   0.0000000000000000E+00
   0.0000000000000000E+00
   0.0000000000000000E+00
   0.0000000000000000E+00
   0.4678648835431802E+00
   0.4701000450900936E+00
   0.4970594876346575E+00
   0.4962878826204423E+00
   0.4981958797419735E+00
   0.4937205773188968E+00
   0.4920924671665793E+00
   0.4909323366008638E+00
   0.4909805968431439E+00
   0.4873979722382646E+00
   0.4949168321167965E+00
   0.4164763657925872E+00
   0.3942366086101882E+00
   0.5033247658504751E+00
   0.5481332655727907E+00
   0.5303589067377303E+00
   0.4870585867687193E+00
   0.4912385083462769E+00
   0.4803011567453893E+00
   0.4131987312589829E+00
   0.3128537118522997E+00
   0.4883886851410013E+00
   0.5088673743555114E+00
   0.5366445390728529E+00
   0.4566046061803283E+00
   0.5239967208781504E+00
   0.5639193328084969E+00
   0.5045749800429608E+00
   0.4913391759220332E+00
   0.4865436535197608E+00
   0.5620455372029244E+00
   0.5556849931854243E+00
   0.4908108930894755E+00
   0.3796862897054311E+00
   0.4841658977284701E+00
   0.4868544196193655E+00
   0.4865726725168292E+00
   0.4677748214060688E+00
   0.4802786948842117E+00
   0.5166129682435346E+00
SCALARS v double 1
LOOKUP_TABLE default
  -0.1194953455256706E-02
   0.1940495764159079E-02
   0.4408563394348536E-02
   0.1427343447477679E-01
   0.5250512199096886E-02
   0.0000000000000000E+00
   0.0000000000000000E+00
   0.0000000000000000E+00
   0.0000000000000000E+00
   0.0000000000000000E+00
   0.0000000000000000E+00
   0.3624620336541474E-01
  -0.1029795088897392E-01
   0.3574452269028989E-02
   0.7666381777915640E-03
   0.7752263657467063E-03
   0.1415393624802166E-02
   0.1197479707355759E-02
  -0.1972609784878623E-04
  -0.6222287480960440E-03
  -0.1257664540238993E-02
   0.1025472255466763E-02
   0.1482198819613068E+00
   0.9242510233995705E-02
   0.3373553558236652E-02
   0.6216592107164711E-02
   0.9494430910554575E-03
   0.6052315350049858E-03
   0.1730607762799187E-02
  -0.3675506708444656E-02
   0.2668565482496668E-01
   0.1304645604294087E-01
   0.4483764788793647E-02
   0.2308528349701336E-01
   0.1491853093503710E-01
   0.7388432171113479E-03
   0.8242772368123420E-02
   0.2661754385978855E-01
   0.2271337618323801E-01
  -0.5360592389431644E-03
  -0.4714560165545615E-03
   0.2229403665103984E-01
   0.2803996322605294E-01
  -0.1717470936978134E-02
  -0.6125171410555779E-02
   0.3206790889113250E-02
   0.3800859441751903E-02
  -0.3930741775682397E-02
   0.4495200238483847E-01