title="tecplot geometry and solution file"
variables = x y z rho u v w p mach temperature
zone t="boundary 1 bc-1", solutiontime= 0.2000000E+02, strandid=1001, i=32, j=46, f=feblock
  0.000000000000E+00  0.000000000000E+00  0.000000000000E+00  0.000000000000E+00  0.000000000000E+00  0.000000000000E+00  0.000000000000E+00
  0.000000000000E+00  0.000000000000E+00  0.000000000000E+00  0.000000000000E+00  0.000000000000E+00  0.000000000000E+00  0.000000000000E+00
  0.000000000000E+00  0.000000000000E+00  0.000000000000E+00  0.000000000000E+00  0.000000000000E+00  0.000000000000E+00  0.000000000000E+00
  0.000000000000E+00  0.000000000000E+00  0.000000000000E+00  0.000000000000E+00  0.000000000000E+00  0.000000000000E+00  0.000000000000E+00
  0.000000000000E+00  0.000000000000E+00  0.000000000000E+00  0.000000000000E+00
  0.250000000000E+01  0.250000000000E+01  0.125000000000E+01  0.146289271009E+01  0.157686156160E+01  0.308372018325E+00  0.000000000000E+00
 -0.125000000000E+01 -0.600232012419E+00  0.250000000000E+01  0.477386199275E+00  0.742988685424E+00 -0.739814786992E+00  0.177790177481E+01
  0.155830813274E+01  0.250000000000E+01 -0.250000000000E+01 -0.154800130438E+01 -0.487811078581E+00  0.250000000000E+01  0.627766083140E+00
 -0.345533899378E+00 -0.178862290564E+01 -0.158811787973E+01  0.125000000000E+01 -0.250000000000E+01 -0.144524380962E+01  0.000000000000E+00
 -0.125000000000E+01 -0.250000000000E+01 -0.250000000000E+01 -0.250000000000E+01
  0.000000000000E+00  0.125000000000E+01  0.000000000000E+00  0.103724302461E+01  0.219251206392E+01  0.922061490191E+00  0.000000000000E+00
  0.000000000000E+00  0.715990576545E+00  0.250000000000E+01  0.202479342020E+01  0.324151231464E+01  0.175434191980E+01  0.310152362409E+01
  0.404200324774E+01  0.375000000000E+01  0.000000000000E+00  0.930412228790E+00  0.299062775774E+01  0.500000000000E+01  0.429310310915E+01
  0.409252726285E+01  0.187029682677E+01  0.284428995242E+01  0.500000000000E+01  0.125000000000E+01  0.394624082883E+01  0.500000000000E+01
  0.500000000000E+01  0.250000000000E+01  0.375000000000E+01  0.500000000000E+01
  0.134426701086E+01  0.106353722388E+01  0.142583324222E+01  0.108608895659E+01  0.103227520326E+01  0.120094108406E+01  0.164465757724E+01
  0.149408225516E+01  0.123519710498E+01  0.102388234805E+01  0.102808040210E+01  0.101300795105E+01  0.103252519834E+01  0.101471103439E+01
  0.100663023311E+01  0.100829261477E+01  0.144945814559E+01  0.116391595134E+01  0.101461495277E+01  0.100425912424E+01  0.100678946558E+01
  0.100722906743E+01  0.104666365102E+01  0.101936973929E+01  0.100424222878E+01  0.106441589232E+01  0.100787570350E+01  0.100286957438E+01
  0.100332752096E+01  0.102846330332E+01  0.100957053797E+01  0.100398659635E+01
  0.000000000000E+00  0.445502159384E+00  0.000000000000E+00  0.468722502180E+00  0.462215739347E+00  0.443631072075E+00  0.000000000000E+00
  0.000000000000E+00  0.379281440236E+00  0.471751766576E+00  0.466599108017E+00  0.479368099700E+00  0.490162122075E+00  0.484523872557E+00
  0.488507933568E+00  0.489833049337E+00  0.000000000000E+00  0.450681529929E+00  0.474830915768E+00  0.495838299522E+00  0.490907355833E+00
  0.486837988501E+00  0.448686223168E+00  0.465828908914E+00  0.496553145517E+00  0.444694304585E+00  0.487708064171E+00  0.497546478195E+00
  0.496392567089E+00  0.470013357229E+00  0.489214224289E+00  0.495539796497E+00
  0.000000000000E+00  0.000000000000E+00  0.000000000000E+00  0.186087596490E-01 -0.276741572576E-02  0.332958744868E-01  0.000000000000E+00
  0.000000000000E+00 -0.594964430065E-02  0.000000000000E+00  0.356387034984E-02 -0.567709589648E-02 -0.416507807335E-02  0.271711896150E-04
 -0.106254703433E-02  0.000000000000E+00  0.000000000000E+00 -0.764324679518E-02  0.350752809097E-03  0.000000000000E+00 -0.204372340094E-02
 -0.139250783078E-02  0.156590236777E-02 -0.159340346437E-02 -0.667808467093E-04  0.000000000000E+00 -0.286087468478E-04 -0.196204523164E-03
  0.818388060152E-03  0.000000000000E+00  0.000000000000E+00  0.000000000000E+00
  0.000000000000E+00  0.452273375940E-01  0.000000000000E+00  0.123915592021E+00  0.247677977832E-01  0.165640432885E+00  0.000000000000E+00
  0.000000000000E+00  0.155764356973E+00  0.351559791913E-02  0.259798603206E-01 -0.651569437183E-02  0.748921458882E-01  0.371198840666E-02
 -0.161272200379E-03  0.449477750114E-03  0.000000000000E+00  0.140948591870E+00 -0.808864090852E-02  0.234307651367E-02 -0.316762066441E-03
 -0.438254547538E-02  0.254933344900E-01 -0.195692397292E-02  0.306193564106E-02  0.837381838488E-01 -0.119849965555E-02  0.269104742581E-02
  0.265391788795E-02  0.278336963123E-02 -0.838486961961E-03  0.344745644986E-02
  0.960181406264E+00  0.782328436166E+00  0.101844290623E+01  0.808716094643E+00  0.746112592328E+00  0.879437111709E+00  0.117474533063E+01
  0.106719325568E+01  0.916611473652E+00  0.737382530383E+00  0.743541114399E+00  0.725748324313E+00  0.757445017305E+00  0.729178264770E+00
  0.720770365531E+00  0.722769165380E+00  0.103531971193E+01  0.858306074617E+00  0.728052468383E+00  0.718607414401E+00  0.720999730494E+00
  0.721136176298E+00  0.760004405385E+00  0.732614153511E+00  0.718521710256E+00  0.791033213058E+00  0.722091268752E+00  0.717182284695E+00
  0.717623086519E+00  0.741787294601E+00  0.724041022417E+00  0.718394372884E+00
  0.000000000000E+00  0.441259545767E+00  0.000000000000E+00  0.475199357569E+00  0.460157651320E+00  0.468842501754E+00  0.000000000000E+00
  0.000000000000E+00  0.402311950262E+00  0.469829391781E+00  0.464435826367E+00  0.478728276548E+00  0.489301841528E+00  0.483079091869E+00
  0.487916132775E+00  0.488964955200E+00  0.000000000000E+00  0.464799739664E+00  0.473813446613E+00  0.495402218079E+00  0.490276589038E+00
  0.486289954276E+00  0.445735010186E+00  0.464405129665E+00  0.496145746562E+00  0.443631397562E+00  0.486972763818E+00  0.497259942865E+00
  0.496067997515E+00  0.467744298327E+00  0.488227731284E+00  0.495116644427E+00
  0.999990297993E+00  0.102982743438E+01  0.999990760848E+00  0.104245837842E+01  0.101189840264E+01  0.102520595951E+01  0.999991418058E+00
  0.999992170967E+00  0.103890792646E+01  0.100825602131E+01  0.101252543870E+01  0.100300067041E+01  0.102701902668E+01  0.100604954127E+01
  0.100243215289E+01  0.100355473868E+01  0.999992722187E+00  0.103240144022E+01  0.100459139987E+01  0.100178365909E+01  0.100259255505E+01
  0.100234462990E+01  0.101656933104E+01  0.100617055361E+01  0.100168103425E+01  0.104042649708E+01  0.100302822337E+01  0.100118223170E+01
  0.100134034016E+01  0.100976107663E+01  0.100404815044E+01  0.100175851520E+01
        12        19        11        11
        11         5        12        12
        10        14         5         5
        19        13        11        11
        19        24        13        13
        30        23        24        24
        19        12        22        22
        28        22        21        21
        11        13         6         6
         7         6         9         9
        15        12        14        14
        18        13        23        23
        15        25        21        21
        27        19        22        22
        18         8         9         9
        27        31        24        24
         4        11         6         6
         5        14        12        12
         4         2         5         5
        21        12        15        15
        14        16        15        15
        24        19        27        27
        22        29        27        27
        23        26        18        18
        17         8        18        18
         5        11         4         4
         6         3         4         4
        26        23        30        30
         5         2        10        10
        16        14        10        10
         3         6         7         7
        21        25        28        28
        29        22        28        28
         6        13         9         9
         2         4         1         1
        31        27        32        32
        25        15        20        20
        24        23        13        13
         8         7         9         9
        13        18         9         9
        31        30        24        24
        12        21        22        22
        29        32        27        27
         3         1         4         4
        26        17        18        18
        16        20        15        15
zone t="boundary 2 bc-2", solutiontime= 0.2000000E+02, strandid=1002, i=33, j=48, f=feblock
  0.500000000000E+01  0.375000000000E+01  0.250000000000E+01  0.288078410721E+01  0.125000000000E+01  0.190974100652E+01  0.326683758169E+01
  0.201431602454E+01  0.000000000000E+00  0.963108083381E+00  0.500000000000E+01  0.403552511878E+01  0.423153924130E+01  0.500000000000E+01
  0.385533350601E+01  0.500000000000E+01  0.398173246726E+01  0.315249557942E+01  0.267000324704E+01  0.154774304040E+01  0.218329375016E+01
  0.893127759452E+00  0.000000000000E+00  0.698517061619E+00  0.964171764089E+00  0.310324758057E+01  0.000000000000E+00  0.000000000000E+00
  0.125000000000E+01  0.500000000000E+01  0.375000000000E+01  0.250000000000E+01  0.000000000000E+00
 -0.250000000000E+01 -0.250000000000E+01 -0.250000000000E+01 -0.250000000000E+01 -0.250000000000E+01 -0.250000000000E+01 -0.250000000000E+01
 -0.250000000000E+01 -0.250000000000E+01 -0.250000000000E+01 -0.250000000000E+01 -0.250000000000E+01 -0.250000000000E+01 -0.250000000000E+01
 -0.250000000000E+01 -0.250000000000E+01 -0.250000000000E+01 -0.250000000000E+01 -0.250000000000E+01 -0.250000000000E+01 -0.250000000000E+01
 -0.250000000000E+01 -0.250000000000E+01 -0.250000000000E+01 -0.250000000000E+01 -0.250000000000E+01 -0.250000000000E+01 -0.250000000000E+01
 -0.250000000000E+01 -0.250000000000E+01 -0.250000000000E+01 -0.250000000000E+01 -0.250000000000E+01
  0.000000000000E+00  0.000000000000E+00  0.000000000000E+00  0.904659890645E+00  0.000000000000E+00  0.717002441913E+00  0.188609243358E+01
  0.176246431481E+01  0.000000000000E+00  0.961328577125E+00  0.125000000000E+01  0.101201586758E+01  0.191586535653E+01  0.250000000000E+01
  0.293121848150E+01  0.375000000000E+01  0.406975391361E+01  0.363585050272E+01  0.285047954584E+01  0.292817774674E+01  0.395907379566E+01
  0.205246550326E+01  0.125000000000E+01  0.306828197606E+01  0.397245519226E+01  0.433168271247E+01  0.250000000000E+01  0.375000000000E+01
  0.500000000000E+01  0.500000000000E+01  0.500000000000E+01  0.500000000000E+01  0.500000000000E+01
  0.830779577206E+00  0.935292127384E+00  0.934197594688E+00  0.968077637138E+00  0.961706368454E+00  0.964847090399E+00  0.984107331131E+00
  0.991409208983E+00  0.144945814559E+01  0.102920880271E+01  0.955851858767E+00  0.960703236802E+00  0.981461648544E+00  0.100642093535E+01
  0.997904288842E+00  0.100979441736E+01  0.100198705859E+01  0.998056252700E+00  0.991073072839E+00  0.100131016835E+01  0.100093454228E+01
  0.101223643937E+01  0.106441589232E+01  0.101080727372E+01  0.100683968608E+01  0.100116893419E+01  0.102846330332E+01  0.100957053797E+01
  0.100508730189E+01  0.100172928846E+01  0.100263232853E+01  0.100320019673E+01  0.100398659635E+01
  0.000000000000E+00  0.000000000000E+00  0.000000000000E+00  0.378965707876E+00  0.000000000000E+00  0.340647528676E+00  0.582144046237E+00
  0.575193919025E+00  0.000000000000E+00  0.489464423668E+00  0.494721027768E+00  0.431487015076E+00  0.568932985172E+00  0.536179562684E+00
  0.568935577422E+00  0.516295004734E+00  0.508655053913E+00  0.527482739455E+00  0.566664286810E+00  0.531844435874E+00  0.506166675261E+00
  0.520712567294E+00  0.444694304585E+00  0.491349463329E+00  0.492748995886E+00  0.501553582858E+00  0.470013357229E+00  0.489214224289E+00
  0.490452708329E+00  0.491388555773E+00  0.486045591653E+00  0.490248818455E+00  0.495539796497E+00
  0.000000000000E+00  0.000000000000E+00  0.000000000000E+00  0.000000000000E+00  0.000000000000E+00  0.000000000000E+00  0.000000000000E+00
  0.000000000000E+00  0.000000000000E+00  0.000000000000E+00  0.000000000000E+00  0.000000000000E+00  0.000000000000E+00  0.000000000000E+00
  0.000000000000E+00  0.000000000000E+00  0.000000000000E+00  0.000000000000E+00  0.000000000000E+00  0.000000000000E+00  0.000000000000E+00
  0.000000000000E+00  0.000000000000E+00  0.000000000000E+00  0.000000000000E+00  0.000000000000E+00  0.000000000000E+00  0.000000000000E+00
  0.000000000000E+00  0.000000000000E+00  0.000000000000E+00  0.000000000000E+00  0.000000000000E+00
  0.000000000000E+00  0.000000000000E+00  0.000000000000E+00 -0.228646922045E-02  0.000000000000E+00  0.183642480386E-01  0.121355154066E-01
  0.455238606714E-01  0.000000000000E+00  0.870800463365E-01 -0.995468611171E-01 -0.212082487999E-01 -0.306597957077E-01 -0.414703146871E-01
 -0.139027481133E-02  0.261893423836E-02  0.595508710051E-03  0.496382505533E-03  0.151295844413E-01  0.284403335923E-01  0.564511909278E-02
  0.553424894349E-01  0.837381838488E-01  0.110562412242E-01  0.680842988251E-02 -0.786332673032E-03  0.278336963123E-02 -0.838486961961E-03
  0.400065909096E-02  0.607035990517E-02 -0.141985673851E-03  0.120294336471E-02  0.344745644986E-02
  0.593410120122E+00  0.668061591593E+00  0.667279688901E+00  0.684247937242E+00  0.686928406857E+00  0.679190350965E+00  0.695799618784E+00
  0.702332103263E+00  0.103531971193E+01  0.723688263919E+00  0.672573124557E+00  0.675691576640E+00  0.694082166187E+00  0.720956470030E+00
  0.712682244887E+00  0.724783544561E+00  0.716575124452E+00  0.713285597574E+00  0.706419899809E+00  0.717724689529E+00  0.715362376735E+00
  0.730926620225E+00  0.791033213058E+00  0.724358577143E+00  0.720997124467E+00  0.715435221257E+00  0.741787294601E+00  0.724041022417E+00
  0.719303249757E+00  0.715838527277E+00  0.716585935411E+00  0.717364985640E+00  0.718394372884E+00
  0.000000000000E+00  0.000000000000E+00  0.000000000000E+00  0.380971199444E+00  0.000000000000E+00  0.343640933255E+00  0.585247984728E+00
  0.579377257290E+00  0.000000000000E+00  0.501071397391E+00  0.508441026933E+00  0.435359529476E+00  0.572608815872E+00  0.537002955147E+00
  0.568979797315E+00  0.515052871803E+00  0.508346497952E+00  0.527339386826E+00  0.567463510703E+00  0.531674747059E+00  0.506053379503E+00
  0.520807537870E+00  0.443631397562E+00  0.490674811553E+00  0.492171633683E+00  0.501443928471E+00  0.467744298327E+00  0.488227731284E+00
  0.489997031720E+00  0.491317018060E+00  0.485903157395E+00  0.489979107175E+00  0.495116644427E+00
  0.999993489206E+00  0.999993692714E+00  0.999993545021E+00  0.989535420909E+00  0.999993138389E+00  0.985510036578E+00  0.989850837894E+00
  0.991785163642E+00  0.999992722187E+00  0.984410128267E+00  0.985092371526E+00  0.984662246423E+00  0.990069285034E+00  0.100289950515E+01
  0.999850540777E+00  0.100485499320E+01  0.100121569998E+01  0.100054464255E+01  0.997896004681E+00  0.100349981165E+01  0.100057225036E+01
  0.101092711990E+01  0.104042649708E+01  0.100325950789E+01  0.100253892274E+01  0.100043986140E+01  0.100976107663E+01  0.100404815044E+01
  0.100192744229E+01  0.100044388213E+01  0.100058643735E+01  0.100110723978E+01  0.100175851520E+01
        15         7        19        19
         8        20        19        19
        18        19        21        21
         7         4         8         8
         3         6         4         4
        19         7         8         8
        19        18        15        15
        14        13        15        15
         8        22        20        20
        27        24        22        22
        19        20        21        21
        32        26        21        21
        17        18        26        26
        17        16        15        15
        25        29        21        21
        12         7        13        13
        10         8         6         6
        25        20        24        24
         4         6         8         8
        12         2         4         4
        10        23        22        22
        26        31        17        17
        30        16        17        17
         4         7        12        12
        13        11        12        12
        21        20        25        25
        24        28        25        25
        22         8        10        10
         6         5        10        10
        31        26        32        32
         4         2         3         3
         5         6         3         3
        11        13        14        14
        22        23        27        27
        28        24        27        27
        15        13         7         7
         2        12         1         1
        29        25        33        33
        23        10         9         9
        21        26        18        18
        16        14        15        15
        18        17        15        15
        29        32        21        21
        22        24        20        20
        28        33        25        25
        11         1        12        12
        31        30        17        17
         5         9        10        10
zone t="boundary 3 bc-3", solutiontime= 0.2000000E+02, strandid=1003, i=33, j=48, f=feblock
  0.375000000000E+01  0.250000000000E+01  0.500000000000E+01  0.403552511878E+01  0.288078410721E+01  0.125000000000E+01  0.190974100652E+01
  0.500000000000E+01  0.326683758169E+01  0.423153924130E+01  0.201431602454E+01  0.000000000000E+00  0.963108083381E+00  0.500000000000E+01
  0.267000324704E+01  0.385533350601E+01  0.893127759452E+00  0.154774304040E+01  0.000000000000E+00  0.500000000000E+01  0.315249557942E+01
  0.218329375016E+01  0.398173246726E+01  0.000000000000E+00  0.698517061619E+00  0.964171764089E+00  0.125000000000E+01  0.000000000000E+00
  0.500000000000E+01  0.310324758057E+01  0.250000000000E+01  0.375000000000E+01  0.000000000000E+00
  0.250000000000E+01  0.250000000000E+01  0.250000000000E+01  0.250000000000E+01  0.250000000000E+01  0.250000000000E+01  0.250000000000E+01
  0.250000000000E+01  0.250000000000E+01  0.250000000000E+01  0.250000000000E+01  0.250000000000E+01  0.250000000000E+01  0.250000000000E+01
  0.250000000000E+01  0.250000000000E+01  0.250000000000E+01  0.250000000000E+01  0.250000000000E+01  0.250000000000E+01  0.250000000000E+01
  0.250000000000E+01  0.250000000000E+01  0.250000000000E+01  0.250000000000E+01  0.250000000000E+01  0.250000000000E+01  0.250000000000E+01
  0.250000000000E+01  0.250000000000E+01  0.250000000000E+01  0.250000000000E+01  0.250000000000E+01
  0.000000000000E+00  0.000000000000E+00  0.000000000000E+00  0.101201586758E+01  0.904659890645E+00  0.000000000000E+00  0.717002441913E+00
  0.125000000000E+01  0.188609243358E+01  0.191586535653E+01  0.176246431481E+01  0.000000000000E+00  0.961328577125E+00  0.250000000000E+01
  0.285047954584E+01  0.293121848150E+01  0.205246550326E+01  0.292817774674E+01  0.125000000000E+01  0.375000000000E+01  0.363585050272E+01
  0.395907379566E+01  0.406975391361E+01  0.250000000000E+01  0.306828197606E+01  0.397245519226E+01  0.500000000000E+01  0.375000000000E+01
  0.500000000000E+01  0.433168271247E+01  0.500000000000E+01  0.500000000000E+01  0.500000000000E+01
  0.941868386912E+00  0.946282681500E+00  0.843728826177E+00  0.964401017353E+00  0.978854166266E+00  0.956962033398E+00  0.983321856594E+00
  0.963537821209E+00  0.982672031621E+00  0.984234056012E+00  0.990249465825E+00  0.134426701086E+01  0.101917346666E+01  0.100830881642E+01
  0.993441986944E+00  0.998000140987E+00  0.100806074969E+01  0.100070006650E+01  0.106353722388E+01  0.100676919219E+01  0.100058010165E+01
  0.100233614162E+01  0.100177153508E+01  0.102388234805E+01  0.100872421642E+01  0.100526518664E+01  0.100522297003E+01  0.100829261477E+01
  0.100185747761E+01  0.100160319746E+01  0.100409380297E+01  0.100312445945E+01  0.100425912424E+01
  0.000000000000E+00  0.000000000000E+00  0.000000000000E+00  0.439021993907E+00  0.399808553936E+00  0.000000000000E+00  0.373781814807E+00
  0.494927883301E+00  0.573032115865E+00  0.569564489014E+00  0.559935349598E+00  0.000000000000E+00  0.483396774451E+00  0.533811257291E+00
  0.556500196572E+00  0.564763857402E+00  0.522634609387E+00  0.522556625601E+00  0.445502159384E+00  0.518380732937E+00  0.524843787790E+00
  0.503953520148E+00  0.509945499899E+00  0.471751766576E+00  0.496257374529E+00  0.494963506019E+00  0.489129682793E+00  0.489833049337E+00
  0.493003484188E+00  0.499229138134E+00  0.486735849492E+00  0.484535963996E+00  0.495838299522E+00
  0.000000000000E+00  0.000000000000E+00  0.000000000000E+00  0.000000000000E+00  0.000000000000E+00  0.000000000000E+00  0.000000000000E+00
  0.000000000000E+00  0.000000000000E+00  0.000000000000E+00  0.000000000000E+00  0.000000000000E+00  0.000000000000E+00  0.000000000000E+00
  0.000000000000E+00  0.000000000000E+00  0.000000000000E+00  0.000000000000E+00  0.000000000000E+00  0.000000000000E+00  0.000000000000E+00
  0.000000000000E+00  0.000000000000E+00  0.000000000000E+00  0.000000000000E+00  0.000000000000E+00  0.000000000000E+00  0.000000000000E+00
  0.000000000000E+00  0.000000000000E+00  0.000000000000E+00  0.000000000000E+00  0.000000000000E+00
  0.000000000000E+00  0.000000000000E+00  0.000000000000E+00 -0.226393386656E-01  0.112003262886E-01  0.000000000000E+00  0.179825688442E-01
 -0.100768222663E+00  0.390762134103E-02 -0.389581046896E-01  0.340488031464E-01  0.000000000000E+00  0.652254541082E-01 -0.425016355907E-01
  0.845628889703E-02 -0.650707472062E-02  0.490101374324E-01  0.136107651220E-01  0.452273375940E-01  0.800397726921E-03 -0.696527449459E-03
  0.244022329229E-02  0.926077310987E-03  0.351559791913E-02  0.103959313802E-01  0.431218054671E-02  0.333955880805E-02  0.449477750114E-03
  0.583862675672E-02  0.339967682162E-03  0.163636609063E-02  0.684397850327E-03  0.234307651367E-02
  0.672755961518E+00  0.675909044221E+00  0.602657196934E+00  0.676087291163E+00  0.691292296017E+00  0.683537357409E+00  0.690058705232E+00
  0.677283316004E+00  0.695189973108E+00  0.696240548104E+00  0.703330042147E+00  0.960181406264E+00  0.719710324578E+00  0.722872246821E+00
  0.709435440528E+00  0.713693424036E+00  0.726050861784E+00  0.716587406953E+00  0.782328436166E+00  0.722305401159E+00  0.716113221832E+00
  0.716528086631E+00  0.716535039441E+00  0.737382530383E+00  0.722665401039E+00  0.719417937095E+00  0.719559248039E+00  0.722769165380E+00
  0.715957653582E+00  0.715824042069E+00  0.718133026387E+00  0.717024289265E+00  0.718607414401E+00
  0.000000000000E+00  0.000000000000E+00  0.000000000000E+00  0.443737753674E+00  0.402241200100E+00  0.000000000000E+00  0.377538282040E+00
  0.509151565183E+00  0.575807862140E+00  0.573669797786E+00  0.562558964986E+00  0.000000000000E+00  0.490572108929E+00  0.534517485122E+00
  0.556629544346E+00  0.564470378216E+00  0.522751364881E+00  0.522076309179E+00  0.441259545767E+00  0.517237350901E+00  0.524326140908E+00
  0.503757636069E+00  0.509596092405E+00  0.469829391781E+00  0.495627986307E+00  0.494510289978E+00  0.488616406552E+00  0.488964955200E+00
  0.492919192973E+00  0.499092127117E+00  0.486425645893E+00  0.484365173291E+00  0.495402218079E+00
  0.999989339501E+00  0.999989411631E+00  0.999989628812E+00  0.981461228884E+00  0.988716448043E+00  0.999989829246E+00  0.982467928326E+00
  0.984078280617E+00  0.990428068605E+00  0.990350579104E+00  0.994357576539E+00  0.999990297993E+00  0.988638820939E+00  0.100368173824E+01
  0.999766095848E+00  0.100117299850E+01  0.100834320433E+01  0.100252053869E+01  0.102982743438E+01  0.100442839279E+01  0.100197726190E+01
  0.100080130770E+01  0.100137508413E+01  0.100825602131E+01  0.100298133522E+01  0.100190986948E+01  0.100214875435E+01  0.100355473868E+01
  0.100048234147E+01  0.100054958035E+01  0.100128716457E+01  0.100070733548E+01  0.100178365909E+01
        15         9        16        16
        15        18        11        11
        22        15        21        21
        11         5         9         9
         5         7         2         2
        11         9        15        15
        16        21        15        15
        16        10        14        14
        18        17        11        11
        17        25        24        24
        22        18        15        15
        22        30        31        31
        30        21        23        23
        16        20        23        23
        22        27        26        26
        10         9         4         4
         7        11        13        13
        25        18        26        26
        11         7         5         5
         5         1         4         4
        17        19        13        13
        23        32        30        30
        23        20        29        29
         4         9         5         5
         4         8        10        10
        26        18        22        22
        26        28        25        25
        13        11        17        17
        13         6         7         7
        31        30        32        32
         2         1         5         5
         2         7         6         6
        14        10         8         8
        24        19        17        17
        24        25        28        28
         9        10        16        16
         3         4         1         1
        33        26        27        27
        12        13        19        19
        21        30        22        22
        16        14        20        20
        16        23        21        21
        22        31        27        27
        18        25        17        17
        26        33        28        28
         4         3         8         8
        23        29        32        32
        13        12         6         6
zone t="boundary 4 bc-4", solutiontime= 0.2000000E+02, strandid=1004, i=32, j=46, f=feblock
  0.125000000000E+01  0.219251206392E+01  0.103724302461E+01  0.500000000000E+01  0.250000000000E+01  0.375000000000E+01  0.404200324774E+01
  0.500000000000E+01  0.000000000000E+00  0.310152362409E+01  0.202479342020E+01  0.324151231464E+01  0.922061490191E+00  0.000000000000E+00
  0.299062775774E+01  0.394624082883E+01  0.500000000000E+01  0.409252726285E+01  0.500000000000E+01  0.429310310915E+01  0.175434191980E+01
  0.284428995242E+01  0.000000000000E+00  0.000000000000E+00  0.715990576545E+00  0.930412228790E+00  0.125000000000E+01  0.187029682677E+01
  0.500000000000E+01  0.375000000000E+01  0.250000000000E+01  0.000000000000E+00
  0.250000000000E+01  0.157686156160E+01  0.146289271009E+01  0.250000000000E+01  0.250000000000E+01  0.250000000000E+01  0.155830813274E+01
  0.125000000000E+01  0.250000000000E+01  0.177790177481E+01  0.477386199275E+00  0.742988685424E+00  0.308372018325E+00  0.125000000000E+01
 -0.487811078581E+00 -0.144524380962E+01 -0.125000000000E+01 -0.345533899378E+00  0.000000000000E+00  0.627766083140E+00 -0.739814786992E+00
 -0.158811787973E+01  0.000000000000E+00 -0.125000000000E+01 -0.600232012419E+00 -0.154800130438E+01 -0.250000000000E+01 -0.178862290564E+01
 -0.250000000000E+01 -0.250000000000E+01 -0.250000000000E+01 -0.250000000000E+01
  0.500000000000E+01  0.500000000000E+01  0.500000000000E+01  0.500000000000E+01  0.500000000000E+01  0.500000000000E+01  0.500000000000E+01
  0.500000000000E+01  0.500000000000E+01  0.500000000000E+01  0.500000000000E+01  0.500000000000E+01  0.500000000000E+01  0.500000000000E+01
  0.500000000000E+01  0.500000000000E+01  0.500000000000E+01  0.500000000000E+01  0.500000000000E+01  0.500000000000E+01  0.500000000000E+01
  0.500000000000E+01  0.500000000000E+01  0.500000000000E+01  0.500000000000E+01  0.500000000000E+01  0.500000000000E+01  0.500000000000E+01
  0.500000000000E+01  0.500000000000E+01  0.500000000000E+01  0.500000000000E+01
  0.100522297003E+01  0.100430409993E+01  0.100429816981E+01  0.100185747761E+01  0.100409380297E+01  0.100312445945E+01  0.100249908522E+01
  0.100192639827E+01  0.100425912424E+01  0.100366028806E+01  0.100444678819E+01  0.100343727328E+01  0.100364959810E+01  0.100424222878E+01
  0.100359219737E+01  0.100160857729E+01  0.100223016628E+01  0.100221148387E+01  0.100205884647E+01  0.100246494266E+01  0.100441735451E+01
  0.100336325666E+01  0.100286957438E+01  0.100332752096E+01  0.100322043433E+01  0.100404930084E+01  0.100508730189E+01  0.100430731595E+01
  0.100172928846E+01  0.100263232853E+01  0.100320019673E+01  0.100398659635E+01
  0.489129682793E+00  0.489233965262E+00  0.491008143135E+00  0.493003484188E+00  0.486735849492E+00  0.484535963996E+00  0.485191095719E+00
  0.494181399231E+00  0.495838299522E+00  0.486687387206E+00  0.488138770347E+00  0.487155398362E+00  0.494443687777E+00  0.496553145517E+00
  0.487763145858E+00  0.483082163694E+00  0.492508804013E+00  0.487117009413E+00  0.494805212037E+00  0.487847758752E+00  0.490094423788E+00
  0.488157953405E+00  0.497546478195E+00  0.496392567089E+00  0.495268314072E+00  0.493225226200E+00  0.490452708329E+00  0.490379650184E+00
  0.491388555773E+00  0.486045591653E+00  0.490248818455E+00  0.495539796497E+00
  0.000000000000E+00 -0.103184851471E-03 -0.131129947629E-02  0.000000000000E+00  0.000000000000E+00  0.000000000000E+00  0.467103745080E-03
  0.848266303291E-03  0.000000000000E+00  0.267550584436E-03 -0.947956302491E-03 -0.833862627849E-03 -0.174496507211E-02 -0.667808467093E-04
 -0.110427318174E-02 -0.103579761726E-02 -0.134058217989E-02 -0.215505662982E-02 -0.130480917593E-02 -0.105192347097E-02 -0.594080067373E-03
 -0.749378737178E-03 -0.196204523164E-03  0.818388060152E-03  0.658751436916E-04  0.163944247803E-02  0.000000000000E+00  0.805152341436E-03
  0.000000000000E+00  0.000000000000E+00  0.000000000000E+00  0.000000000000E+00