# vtk DataFile Version 2.0
FUN3D:global_image_vtk
ASCII
DATASET UNSTRUCTURED_GRID
POINTS 213 double
    0.0000000000000000E+00    0.2500000000000000E+01    0.0000000000000000E+00
    0.1250000000000000E+01    0.2500000000000000E+01    0.0000000000000000E+00
    0.2500000000000000E+01    0.2500000000000000E+01    0.0000000000000000E+00
    0.3750000000000000E+01    0.2500000000000000E+01    0.0000000000000000E+00
    0.5000000000000000E+01    0.2500000000000000E+01    0.0000000000000000E+00
    0.5000000000000000E+01    0.1250000000000000E+01    0.0000000000000000E+00
    0.5000000000000000E+01    0.0000000000000000E+00    0.0000000000000000E+00
    0.5000000000000000E+01   -0.1250000000000000E+01    0.0000000000000000E+00
    0.5000000000000000E+01   -0.2500000000000000E+01    0.0000000000000000E+00
    0.3750000000000000E+01   -0.2500000000000000E+01    0.0000000000000000E+00
    0.2500000000000000E+01   -0.2500000000000000E+01    0.0000000000000000E+00
    0.1250000000000000E+01   -0.2500000000000000E+01    0.0000000000000000E+00
    0.0000000000000000E+00   -0.2500000000000000E+01    0.0000000000000000E+00
    0.0000000000000000E+00   -0.1250000000000000E+01    0.0000000000000000E+00
    0.0000000000000000E+00    0.0000000000000000E+00    0.0000000000000000E+00
    0.0000000000000000E+00    0.1250000000000000E+01    0.0000000000000000E+00
    0.9058375365086910E+00    0.1578994732800803E+01    0.0000000000000000E+00
    0.3982050490726493E+01   -0.1583989954232354E+01    0.0000000000000000E+00
    0.4033849428301197E+01    0.1453322699199022E+01    0.0000000000000000E+00
    0.1040505887381675E+01   -0.1479596339503735E+01    0.0000000000000000E+00
    0.1099454400140349E+01   -0.3227322616384110E+00    0.0000000000000000E+00
    0.7354504170366591E+00    0.6593508822075582E+00    0.0000000000000000E+00
    0.1622302608453282E+01    0.8256214013940779E+00    0.0000000000000000E+00
    0.2145871574390382E+01   -0.1650070333782557E+01    0.0000000000000000E+00
    0.4086422318222992E+01   -0.4612828702537229E+00    0.0000000000000000E+00
    0.2979540174134984E+01   -0.8579242121530853E+00    0.0000000000000000E+00
    0.3045064261640043E+01   -0.1836846154397680E+01    0.0000000000000000E+00
    0.3428197553792836E+01    0.3508002863614053E+00    0.0000000000000000E+00
    0.4309693860063405E+01    0.5185680230613409E+00    0.0000000000000000E+00
    0.1827272193562204E+01    0.1738996113203182E+01    0.0000000000000000E+00
    0.2808563282768077E+01    0.1325493893339706E+01    0.0000000000000000E+00
    0.1895995683864404E+01   -0.8731419609589618E+00    0.0000000000000000E+00
    0.2273179336307740E+01    0.4906150219227333E-01    0.0000000000000000E+00
    0.5000000000000000E+01    0.2500000000000000E+01    0.1250000000000000E+01
    0.5000000000000000E+01    0.2500000000000000E+01    0.2500000000000000E+01
    0.5000000000000000E+01    0.2500000000000000E+01    0.3750000000000000E+01
    0.5000000000000000E+01    0.2500000000000000E+01    0.5000000000000000E+01
    0.3750000000000000E+01    0.2500000000000000E+01    0.5000000000000000E+01
    0.2500000000000000E+01    0.2500000000000000E+01    0.5000000000000000E+01
    0.1250000000000000E+01    0.2500000000000000E+01    0.5000000000000000E+01
    0.0000000000000000E+00    0.2500000000000000E+01    0.5000000000000000E+01
    0.0000000000000000E+00    0.2500000000000000E+01    0.3750000000000000E+01
    0.0000000000000000E+00    0.2500000000000000E+01    0.2500000000000000E+01
    0.0000000000000000E+00    0.2500000000000000E+01    0.1250000000000000E+01
    0.9631080833812172E+00    0.2500000000000000E+01    0.9613285771248219E+00
    0.3981732467264904E+01    0.2500000000000000E+01    0.4069753913607991E+01
    0.4035525118777670E+01    0.2500000000000000E+01    0.1012015867579395E+01
    0.9641717640894248E+00    0.2500000000000000E+01    0.3972455192261839E+01
    0.1547743040396780E+01    0.2500000000000000E+01    0.2928177746738678E+01
    0.6985170616192014E+00    0.2500000000000000E+01    0.3068281976055466E+01
    0.8931277594515110E+00    0.2500000000000000E+01    0.2052465503257726E+01
    0.2183293750162785E+01    0.2500000000000000E+01    0.3959073795658649E+01
    0.3855333506014705E+01    0.2500000000000000E+01    0.2931218481500625E+01
    0.3152495579421047E+01    0.2500000000000000E+01    0.3635850502723324E+01
    0.3103247580566054E+01    0.2500000000000000E+01    0.4331682712472464E+01
    0.3266837581688852E+01    0.2500000000000000E+01    0.1886092433583972E+01
    0.4231539241296245E+01    0.2500000000000000E+01    0.1915865356532799E+01
    0.1909741006522088E+01    0.2500000000000000E+01    0.7170024419130505E+00
    0.2880784107213163E+01    0.2500000000000000E+01    0.9046598906449592E+00
    0.2014316024535771E+01    0.2500000000000000E+01    0.1762464314805728E+01
    0.2670003247036656E+01    0.2500000000000000E+01    0.2850479545835163E+01
    0.5000000000000000E+01    0.1250000000000000E+01    0.5000000000000000E+01
    0.5000000000000000E+01    0.0000000000000000E+00    0.5000000000000000E+01
    0.5000000000000000E+01   -0.1250000000000000E+01    0.5000000000000000E+01
    0.5000000000000000E+01   -0.2500000000000000E+01    0.5000000000000000E+01
    0.5000000000000000E+01   -0.2500000000000000E+01    0.3750000000000000E+01
    0.5000000000000000E+01   -0.2500000000000000E+01    0.2500000000000000E+01
    0.5000000000000000E+01   -0.2500000000000000E+01    0.1250000000000000E+01
    0.5000000000000000E+01    0.1578994732800803E+01    0.9058375365086910E+00
    0.5000000000000000E+01   -0.1583989954232354E+01    0.3982050490726493E+01
    0.5000000000000000E+01    0.1453322699199022E+01    0.4033849428301197E+01
    0.5000000000000000E+01   -0.1479596339503735E+01    0.1040505887381675E+01
    0.5000000000000000E+01   -0.3227322616384110E+00    0.1099454400140349E+01
    0.5000000000000000E+01    0.6593508822075582E+00    0.7354504170366591E+00
    0.5000000000000000E+01    0.8256214013940779E+00    0.1622302608453282E+01
    0.5000000000000000E+01   -0.1650070333782557E+01    0.2145871574390382E+01
    0.5000000000000000E+01   -0.4612828702537229E+00    0.4086422318222992E+01
    0.5000000000000000E+01   -0.8579242121530853E+00    0.2979540174134984E+01
    0.5000000000000000E+01   -0.1836846154397680E+01    0.3045064261640043E+01
    0.5000000000000000E+01    0.3508002863614053E+00    0.3428197553792836E+01
    0.5000000000000000E+01    0.5185680230613409E+00    0.4309693860063405E+01
    0.5000000000000000E+01    0.1738996113203182E+01    0.1827272193562204E+01
    0.5000000000000000E+01    0.1325493893339706E+01    0.2808563282768077E+01
    0.5000000000000000E+01   -0.8731419609589618E+00    0.1895995683864404E+01
    0.5000000000000000E+01    0.4906150219227333E-01    0.2273179336307740E+01
    0.0000000000000000E+00    0.1250000000000000E+01    0.5000000000000000E+01
    0.0000000000000000E+00    0.0000000000000000E+00    0.5000000000000000E+01
    0.0000000000000000E+00   -0.1250000000000000E+01    0.5000000000000000E+01
    0.0000000000000000E+00   -0.2500000000000000E+01    0.5000000000000000E+01
    0.1250000000000000E+01   -0.2500000000000000E+01    0.5000000000000000E+01
    0.2500000000000000E+01   -0.2500000000000000E+01    0.5000000000000000E+01
    0.3750000000000000E+01   -0.2500000000000000E+01    0.5000000000000000E+01
    0.4042003247744892E+01    0.1558308132739014E+01    0.5000000000000000E+01
    0.9304122287900499E+00   -0.1548001304379777E+01    0.5000000000000000E+01
    0.1037243024609388E+01    0.1462892710085612E+01    0.5000000000000000E+01
    0.3946240828834967E+01   -0.1445243809615570E+01    0.5000000000000000E+01
    0.4092527262848217E+01   -0.3455338993778935E+00    0.5000000000000000E+01
    0.4293103109154542E+01    0.6277660831404320E+00    0.5000000000000000E+01
    0.3241512314643519E+01    0.7429886854239611E+00    0.5000000000000000E+01
    0.2844289952419609E+01   -0.1588117879734118E+01    0.5000000000000000E+01
    0.7159905765450471E+00   -0.6002320124191652E+00    0.5000000000000000E+01
    0.1754341919796891E+01   -0.7398147869923652E+00    0.5000000000000000E+01
    0.1870296826774691E+01   -0.1788622905643739E+01    0.5000000000000000E+01
    0.9220614901912976E+00    0.3083720183248586E+00    0.5000000000000000E+01
    0.3101523624086016E+01    0.1777901774806180E+01    0.5000000000000000E+01
    0.2192512063922564E+01    0.1576861561598471E+01    0.5000000000000000E+01
    0.2024793420196460E+01    0.4773861992750707E+00    0.5000000000000000E+01
    0.2990627757741975E+01   -0.4878110785814084E+00    0.5000000000000000E+01
    0.0000000000000000E+00   -0.2500000000000000E+01    0.1250000000000000E+01
    0.0000000000000000E+00   -0.2500000000000000E+01    0.2500000000000000E+01
    0.0000000000000000E+00   -0.2500000000000000E+01    0.3750000000000000E+01
    0.0000000000000000E+00    0.1558308132739014E+01    0.4042003247744892E+01
    0.0000000000000000E+00   -0.1548001304379777E+01    0.9304122287900499E+00
    0.0000000000000000E+00    0.1462892710085612E+01    0.1037243024609388E+01
    0.0000000000000000E+00   -0.1445243809615570E+01    0.3946240828834967E+01
    0.0000000000000000E+00   -0.3455338993778935E+00    0.4092527262848217E+01
    0.0000000000000000E+00    0.6277660831404320E+00    0.4293103109154542E+01
    0.0000000000000000E+00    0.7429886854239611E+00    0.3241512314643519E+01
    0.0000000000000000E+00   -0.1588117879734118E+01    0.2844289952419609E+01
    0.0000000000000000E+00   -0.6002320124191652E+00    0.7159905765450471E+00
    0.0000000000000000E+00   -0.7398147869923652E+00    0.1754341919796891E+01
    0.0000000000000000E+00   -0.1788622905643739E+01    0.1870296826774691E+01
    0.0000000000000000E+00    0.3083720183248586E+00    0.9220614901912976E+00
    0.0000000000000000E+00    0.1777901774806180E+01    0.3101523624086016E+01
    0.0000000000000000E+00    0.1576861561598471E+01    0.2192512063922564E+01
[...]
POINT_DATA 213
SCALARS rho double 1
LOOKUP_TABLE default
   0.1344271444857604E+01
   0.9569758873418150E+00
   0.9462964123147273E+00
   0.9418612808954104E+00
   0.8437305298473169E+00
   0.7738004328027422E+00
   0.7629818868239613E+00
   0.7664577750610928E+00
   0.8307874069596213E+00
   0.9352972586310169E+00
   0.9342219780164430E+00
   0.9617195257899960E+00
   0.1449457452745385E+01
   0.1494090632445368E+01
   0.1644667269027445E+01
   0.1425832040461801E+01
   0.1009014430237038E+01
   0.9508810850447336E+00
   0.9436508641557161E+00
   0.9581561037667614E+00
   0.9415852424976322E+00
   0.1036377238726396E+01
   0.9256161094007378E+00
   0.9322349843310592E+00
   0.9537479544971728E+00
   0.9518769590803406E+00
   0.9348583133870668E+00
   0.9564028487677755E+00
   0.9376098393457266E+00
   0.9300661500772062E+00
   0.9445157475880920E+00
   0.8863506487612686E+00
   0.9423579992833996E+00
   0.9635005460351554E+00
   0.1008299016827475E+01
   0.1006735286474149E+01
   0.1001964668865164E+01
   0.1003219584999824E+01
   0.1004132031479562E+01
   0.1005228594906634E+01
   0.1004260407210873E+01
   0.1008308186453527E+01
   0.1023893136986229E+01
   0.1063553952622231E+01
   0.1019182515380954E+01
   0.1001780783782081E+01
   0.9643313003721951E+00
   0.1005283707074686E+01
   0.1000721160683626E+01
   0.1008742081880877E+01
   0.1008078082716304E+01
   0.1002349804108878E+01
   0.9979986750315403E+00
   0.1000583560310382E+01
   0.1001620111246434E+01
   0.9826892885650480E+00
   0.9842440069755144E+00
   0.9833313959201114E+00
   0.9788208191973791E+00
   0.9902638051799726E+00
   0.9934561521067313E+00
   0.1002011769381716E+01
   0.1002134460952683E+01
   0.1002276292758780E+01
   0.1001794750805345E+01
   0.1009778688287768E+01
   0.1006429089365484E+01
   0.9558787163347665E+00
   0.9249399088590993E+00
   0.1007036788052308E+01
   0.1004504965694805E+01
   0.9143642150501469E+00
   0.9089668060207476E+00
   0.8751688714957599E+00
   0.9767271633484860E+00
   0.1000452605062414E+01
   0.1005831127471497E+01
   0.1012882793301188E+01
   0.1011618941788506E+01
   0.1010438666780597E+01
   0.1005468345077810E+01
   0.9907612583703845E+00
   0.1005140303743842E+01
   0.9860567190550931E+00
   0.1005609722207041E+01
   0.1004248005343125E+01
   0.1002888442344896E+01
   0.1003345421796708E+01
   0.1003992738559297E+01
   0.1005101711762689E+01
   0.1003211644781349E+01
   0.1002663118892974E+01
   0.1002586215590060E+01
   0.1004060873218167E+01
   0.1004320335570147E+01
   0.1001641876340245E+01
   0.1002273078096304E+01
   0.1002543429273229E+01
   0.1003469485474067E+01
   0.1003372622075694E+01
   0.1003232226600973E+01
   0.1004423845939056E+01
   0.1004313062459845E+01
   0.1003659841490813E+01
   0.1003723114390657E+01
   0.1004329706068247E+01
   0.1004465014698576E+01
   0.1003623371481327E+01
   0.1064422810796808E+01
   0.1028473617783755E+01
   0.1009586655864084E+01
   0.1006638837158471E+01
   0.1163935516138125E+01
   0.1086087966058183E+01
   0.1007893416502219E+01
   0.1007245533608126E+01
   0.1006798075601361E+01
   0.1013018285452993E+01
   0.1019384604135969E+01
   0.1235203667863968E+01
   0.1032529467210822E+01
   0.1046681187159959E+01
   0.1200953643641296E+01
   0.1014718913640055E+01
   0.1032291149774277E+01
   0.1028095233007304E+01
   0.1014628636204356E+01
   0.1029216890752080E+01
   0.1001994848122545E+01
   0.9606929483840304E+00
   0.1006852577969096E+01
   0.1001327192837936E+01
   0.1010821899723136E+01
   0.1012246097288874E+01
   0.1000945999833174E+01
   0.9979121147871428E+00
   0.9980632190307479E+00
   0.1001184128319623E+01
   0.9841362055501742E+00
   0.9814879662797279E+00
   0.9648483393972008E+00
   0.9680877145688350E+00
   0.9914124472453342E+00
   0.9910858410058750E+00
   0.9925545071235155E+00
   0.1001727530943716E+01
   0.9993409361502641E+00
   0.9941410821269774E+00
   0.1007038749945824E+01
   0.1022539492889920E+01
   0.1001088101047402E+01
   0.1008798493152849E+01
   0.1004773844541158E+01
   0.1009050235052771E+01
   0.9966470333679242E+00
   0.1004988558502633E+01
   0.1003325530400600E+01
   0.9949431070842827E+00
   0.9832680871699688E+00
   0.9943957535227401E+00
   0.9973420622637140E+00
   0.9932190014732103E+00
   0.1001306475130977E+01
   0.1003001631710782E+01
   0.1002183570248439E+01
   0.9947078549907197E+00
   0.9937965460291959E+00
   0.1004867864096909E+01
   0.1020077605132331E+01
   0.1005364552166206E+01
   0.9816998155460810E+00
   0.1004973026172264E+01
   0.1012382317747994E+01
   0.9871424335830914E+00
   0.9551513527292139E+00
   0.9865075674353745E+00
   0.9864532955928480E+00
   0.9918946878802603E+00
   0.9933508215163005E+00
   0.9954406186305063E+00
   0.1037336787908800E+01
   0.1033536794905441E+01
   0.1001443350743592E+01
   0.1001930497956416E+01
   0.9912478440807098E+00
   0.9910920430922879E+00
   0.9648489942267620E+00
   0.9933282464996063E+00
   0.1006058642019708E+01
   0.1001954036644730E+01
   0.9908735742967792E+00
   0.9740945050057365E+00
   0.9418802246051640E+00
   0.9819379626615033E+00
   0.9794803511562962E+00
   0.9704172064658305E+00
   0.9720478934987834E+00
   0.9557351787902617E+00
   0.9496731306515874E+00
   0.9528673635968011E+00
   0.1002659530427925E+01
   0.1002471619840347E+01
   0.1000509328406788E+01
   0.1001677327726311E+01
   0.9607931284088101E+00
   0.9491625686620608E+00
   0.9584503129620011E+00
   0.1001121206850125E+01
   0.1000496132503101E+01
   0.1001156632626187E+01
   0.9807376175748656E+00
   0.9806000768180444E+00
   0.9628476239966689E+00
SCALARS u double 1
LOOKUP_TABLE default
   0.0000000000000000E+00
   0.0000000000000000E+00
   0.0000000000000000E+00
   0.0000000000000000E+00
   0.0000000000000000E+00
   0.0000000000000000E+00
   0.0000000000000000E+00
   0.0000000000000000E+00
   0.0000000000000000E+00
   0.0000000000000000E+00
   0.0000000000000000E+00
   0.0000000000000000E+00
   0.0000000000000000E+00
   0.0000000000000000E+00
   0.0000000000000000E+00
   0.0000000000000000E+00
   0.0000000000000000E+00
   0.0000000000000000E+00
   0.0000000000000000E+00
   0.0000000000000000E+00
   0.0000000000000000E+00
   0.0000000000000000E+00
   0.0000000000000000E+00
   0.0000000000000000E+00
   0.0000000000000000E+00
   0.0000000000000000E+00
   0.0000000000000000E+00
   0.0000000000000000E+00
   0.0000000000000000E+00
   0.0000000000000000E+00
   0.0000000000000000E+00
   0.0000000000000000E+00
   0.0000000000000000E+00
   0.4950174093836376E+00
   0.5338221514056862E+00
   0.5183268687613448E+00
   0.4930651173937334E+00
   0.4847581343850714E+00
   0.4867666872850731E+00
   0.4890763653927001E+00
   0.4957848761519325E+00
   0.4898302001732379E+00
   0.4717388491183671E+00
   0.4454814201929588E+00
   0.4833907025089459E+00
   0.5098396910259249E+00
   0.4390712198459003E+00
   0.4949403931334568E+00
   0.5225330435570935E+00
   0.4962454606921001E+00
   0.5226154991750567E+00
   0.5038881558691368E+00
   0.5646883476410389E+00
   0.5247508938269568E+00
   0.4991465784078429E+00
   0.5730561942449596E+00
   0.5696050847869029E+00
   0.3737941390657787E+00
   0.3998657965655711E+00
   0.5599326666905201E+00
   0.5564587687804771E+00
   0.4942629093585368E+00
   0.4948660559606083E+00
   0.4925736153488497E+00
   0.4914269656963030E+00
   0.5162356913140249E+00
   0.5361798407406509E+00
   0.4947413079323107E+00
   0.4524111502488575E+00
   0.5128777224945537E+00
   0.5117941107897015E+00
   0.4783517296161234E+00
   0.4931696409352672E+00
   0.4603173726681600E+00
   0.5244892894176219E+00
   0.5297434264485748E+00
   0.5129578805924976E+00
   0.5328358269694595E+00
   0.5308941195729552E+00
   0.5309855648269047E+00
   0.5063656232693683E+00
   0.5282462054567326E+00
   0.5410312778041120E+00
   0.5361261362423230E+00
   0.5374105321120841E+00
   0.4965364833329208E+00
   0.4975340865218243E+00
   0.4963842604003317E+00
   0.4955220297650770E+00
   0.4904581550063954E+00
   0.4903044300613598E+00
   0.4862182745132393E+00
   0.4854052740811289E+00
   0.4932164447069520E+00
   0.4909833508632435E+00
   0.4832195014383588E+00
   0.4872624310854928E+00
   0.4880127477364853E+00
   0.4872447328989752E+00
   0.4882696640908706E+00
   0.4952597658929742E+00
   0.4900967255125445E+00
   0.4903999939927491E+00
   0.4944233098563759E+00
   0.4868003735245304E+00
   0.4892386457363485E+00
   0.4881393746845079E+00
   0.4878458492336301E+00
   0.4446866339079862E+00
   0.4700028829780493E+00
   0.4891999082519905E+00
   0.4885247735345831E+00
   0.4506533225684383E+00
   0.4687378545625280E+00
   0.4877010372665397E+00
   0.4868353646331658E+00
   0.4908994603262861E+00
   0.4793551613877066E+00
   0.4658071868205175E+00
   0.3792725249209434E+00
   0.4901596483855702E+00
   0.4486686732628217E+00
   0.4436137404402901E+00
   0.4845147263997878E+00
   0.4621822676292527E+00
   0.4665749616410302E+00
   0.4748140373108455E+00
   0.4894494219387668E+00
   0.5085558191651888E+00
   0.4315073946339171E+00
   0.4927349402241636E+00
   0.5318289350873914E+00
   0.4913399288579862E+00
   0.5207019969072268E+00
   0.5060964759146245E+00
   0.5688797341429191E+00
   0.5273993143353023E+00
   0.5015045264337377E+00
   0.5821790081754085E+00
   0.5689618096094953E+00
   0.3406394464032803E+00
   0.3789869387548490E+00
   0.5751958223668671E+00
   0.5666485567243250E+00
   0.5704108804811922E+00
   0.5291056391595608E+00
   0.5451902760227152E+00
   0.5718804338395869E+00
   0.5389079157820447E+00
   0.5475507498841801E+00
   0.5821713867132365E+00
   0.4925601797625493E+00
   0.5042157454250586E+00
   0.4961735456360268E+00
   0.5565208005405492E+00
   0.4758845187753882E+00
   0.4950268544047116E+00
   0.5498525401022319E+00
   0.5891202263877515E+00
   0.5841957648164662E+00
   0.5469097473751574E+00
   0.5805417605206272E+00
   0.5106251391440074E+00
   0.5030200420492361E+00
   0.5033624843996859E+00
   0.5676445874822733E+00
   0.5563943065474227E+00
   0.4947255949403475E+00
   0.5505243856784948E+00
   0.5510857278321121E+00
   0.5657350957453317E+00
   0.4920070067842957E+00
   0.4927299125178524E+00
   0.3865140495391178E+00
   0.3687754553832618E+00
   0.5574921723800960E+00
   0.5763755601890596E+00
   0.4194304355043896E+00
   0.5824843246777298E+00
   0.4265209594482381E+00
   0.5392799878268676E+00
   0.5012032826146694E+00
   0.5119513280725828E+00
   0.5049119194083614E+00
   0.5751974748348677E+00
   0.5876371235875084E+00
   0.5379907687185796E+00
   0.5677472449356677E+00
   0.5351248843616417E+00
   0.5338056322618278E+00
   0.5580313663315553E+00
   0.5512707837993200E+00
   0.4261852364820003E+00
   0.5273356186384484E+00
   0.5795712436730220E+00
   0.3318687219673510E+00
   0.4760283350929483E+00
   0.5446196185426521E+00
   0.4798331732747106E+00
   0.3005293499345558E+00
   0.5031051259010059E+00
   0.5017116062635599E+00
   0.5129033583534138E+00
   0.5414839692005000E+00
   0.3437603659564968E+00
   0.3397710788151388E+00
   0.3189928579737284E+00
   0.5065936454078617E+00
   0.5123484361724184E+00
   0.5330313004584167E+00
   0.5879309992779554E+00
   0.4644180591760368E+00
   0.3531270535495440E+00
SCALARS v double 1
LOOKUP_TABLE default
   0.0000000000000000E+00
   0.0000000000000000E+00
   0.0000000000000000E+00
   0.0000000000000000E+00
   0.0000000000000000E+00
   0.0000000000000000E+00
   0.0000000000000000E+00
   0.0000000000000000E+00
   0.0000000000000000E+00
   0.0000000000000000E+00
   0.0000000000000000E+00
   0.0000000000000000E+00
   0.0000000000000000E+00
   0.0000000000000000E+00
   0.0000000000000000E+00
   0.0000000000000000E+00
   0.0000000000000000E+00
   0.0000000000000000E+00
   0.0000000000000000E+00
   0.0000000000000000E+00
   0.0000000000000000E+00
   0.0000000000000000E+00
   0.0000000000000000E+00
   0.0000000000000000E+00
   0.0000000000000000E+00
   0.0000000000000000E+00
   0.0000000000000000E+00
   0.0000000000000000E+00
   0.0000000000000000E+00
   0.0000000000000000E+00
   0.0000000000000000E+00
   0.0000000000000000E+00
   0.0000000000000000E+00
   0.0000000000000000E+00
   0.0000000000000000E+00
   0.0000000000000000E+00
   0.0000000000000000E+00
   0.0000000000000000E+00
   0.0000000000000000E+00
   0.0000000000000000E+00
   0.0000000000000000E+00
   0.0000000000000000E+00
   0.0000000000000000E+00
   0.0000000000000000E+00
   0.0000000000000000E+00
   0.0000000000000000E+00
   0.0000000000000000E+00
   0.0000000000000000E+00
   0.0000000000000000E+00
   0.0000000000000000E+00
   0.0000000000000000E+00
   0.0000000000000000E+00
   0.0000000000000000E+00
   0.0000000000000000E+00
   0.0000000000000000E+00
   0.0000000000000000E+00
   0.0000000000000000E+00
   0.0000000000000000E+00
   0.0000000000000000E+00
   0.0000000000000000E+00
   0.0000000000000000E+00
   0.7969876588004568E-03
  -0.1329212571738771E-02
  -0.1332494585348728E-02
   0.0000000000000000E+00
   0.0000000000000000E+00
   0.0000000000000000E+00
   0.0000000000000000E+00
  -0.1922571243203518E-01
   0.4770758654696525E-03
   0.2183360920101175E-02
   0.1427332948093898E-01
  -0.6488287838577642E-02
  -0.7821664565531999E-02
  -0.1327728277713403E-01
   0.4914471938127503E-02
   0.6907024781025166E-03
   0.3434391299506847E-02
   0.1920841693507579E-02
   0.3147944841573624E-02
   0.1704773453778519E-02
  -0.7316233340188803E-02
  -0.7701846064538409E-04
   0.4468726431615451E-02
  -0.4387271663970589E-03
  -0.6383959026913545E-04
  -0.1963415153408370E-03
   0.8071271132999519E-03
   0.0000000000000000E+00
   0.0000000000000000E+00
   0.0000000000000000E+00
   0.0000000000000000E+00
   0.4256504699246753E-03
   0.1616314246109603E-02
  -0.1297543491058777E-02
  -0.1022708567744335E-02
  -0.2134204936709298E-02
  -0.1063958965602110E-02
  -0.8199355639557541E-03
  -0.7616537487374617E-03
   0.5202283176745293E-04
  -0.6243832647312778E-03
   0.7916641474072800E-03
  -0.1745242277363207E-02
   0.2747218779292203E-03
  -0.8938440399765701E-04
  -0.9424091472261970E-03
  -0.1100151184356905E-02
   0.0000000000000000E+00
   0.0000000000000000E+00
   0.0000000000000000E+00
  -0.1061765172100289E-02
  -0.7641127228825068E-02
   0.1860855279969617E-01
  -0.2834509319823151E-04
  -0.1383132424736768E-02
  -0.2035128495170711E-02
  -0.5666379895823242E-02
  -0.1585213174632746E-02
  -0.5947018148683209E-02
  -0.4160603509182608E-02
   0.1565615614805464E-02
   0.3329524673894897E-01
   0.3055347125780785E-04
  -0.2766883001058485E-02
   0.3566485949153158E-02
   0.3596197517215583E-03
   0.0000000000000000E+00
   0.0000000000000000E+00
   0.0000000000000000E+00
   0.0000000000000000E+00
   0.0000000000000000E+00
   0.0000000000000000E+00
   0.0000000000000000E+00
   0.0000000000000000E+00
   0.0000000000000000E+00
   0.0000000000000000E+00
   0.0000000000000000E+00
   0.0000000000000000E+00
   0.0000000000000000E+00
   0.0000000000000000E+00
   0.0000000000000000E+00
   0.0000000000000000E+00
   0.0000000000000000E+00
   0.5047028254039919E-02
   0.3230790694685978E-02
   0.8149129441874264E-02
   0.6168366500009128E-02
   0.1122928712431243E-01
   0.1429277576591415E-01
  -0.2038825372136037E-03
   0.5118218917000472E-02
   0.2914945033924688E-02
   0.3373608472545372E-02
   0.3728336157866909E-02
  -0.1465719851323734E-01
  -0.6159685811177388E-03
   0.6651623932604192E-02
   0.1542020481737170E-02
   0.1969642198730625E-02
   0.4266263471310538E-02
  -0.2790959037422419E-02
   0.1226877141505584E-02
   0.2819168532806825E-02
   0.1497440082425051E-02
   0.2575325354399401E-02
   0.2030636246248656E-02
   0.2118039740070983E-02
   0.8700409816503510E-02
  -0.3733396218108022E-02
   0.6241190735628951E-02
   0.2516121981203902E-04
  -0.3854054574076129E-03
  -0.1674678960821984E-01
  -0.4881977509574315E-02
  -0.4720001322895617E-02
   0.3445219814624857E-02
  -0.6135724668674838E-02
   0.9934288533192108E-04
  -0.3291372947413195E-01
  -0.3046197601617497E-02
   0.4722742450017178E-02
   0.9228317894979753E-03
   0.2112172843719697E-02
   0.4518740672940738E-02
   0.2720453416575309E-02
   0.3212575336376744E-02
   0.5200792134961475E-02
   0.1941835672315418E-02
   0.7315696763181900E-03
  -0.2555940939976438E-04
  -0.5374645548833159E-02
  -0.6959620933703748E-02
  -0.9443746108026316E-03
   0.1105267574493019E-02
  -0.2080551230420139E-02
  -0.3200035280542173E-02
  -0.2527826924709160E-02
  -0.4115191954856841E-02
  -0.7593949194180253E-02
  -0.1985687126214713E-02
   0.6240226463911106E-03
  -0.2239115681158020E-03
   0.1216944812967375E-02
  -0.3483967112111884E-02
   0.5229133607190319E-02
  -0.8487626313378927E-02
   0.2313317210885303E-04
  -0.3395409249339089E-03
   0.2542660946558459E-02
   0.1663456209288844E-02
   0.2021437518061429E-02
  -0.5620782771349929E-02
SCALARS w double 1
LOOKUP_TABLE default
   0.0000000000000000E+00
   0.0000000000000000E+00
   0.0000000000000000E+00
   0.0000000000000000E+00
   0.0000000000000000E+00
   0.0000000000000000E+00
   0.0000000000000000E+00
   0.0000000000000000E+00
   0.0000000000000000E+00
   0.0000000000000000E+00
   0.0000000000000000E+00
   0.0000000000000000E+00
   0.0000000000000000E+00
   0.0000000000000000E+00
   0.0000000000000000E+00
   0.0000000000000000E+00
   0.0000000000000000E+00
   0.0000000000000000E+00
   0.0000000000000000E+00
   0.0000000000000000E+00
   0.0000000000000000E+00
   0.0000000000000000E+00
   0.0000000000000000E+00
   0.0000000000000000E+00
   0.0000000000000000E+00
   0.0000000000000000E+00
   0.0000000000000000E+00
   0.0000000000000000E+00
   0.0000000000000000E+00
   0.0000000000000000E+00
   0.0000000000000000E+00
   0.0000000000000000E+00
   0.0000000000000000E+00
  -0.1007611667404018E+00
  -0.4249292660782843E-01
   0.7371878127741207E-03
   0.5725812899123347E-02
   0.5698443218711055E-03
   0.1609788705546080E-02
   0.3375070915476900E-02
   0.2371768928544435E-02
   0.4590588627002062E-03
   0.3518226636927466E-02
   0.4521817948476960E-01
   0.6522938033810831E-01
   0.8689527849723623E-03
  -0.2261153916812505E-01
   0.4316551800002961E-02
   0.1358734011026303E-01
   0.1039452318135325E-01
   0.4900548618671052E-01
   0.2437441714920291E-02
  -0.6509925271516904E-02
  -0.7012094439472754E-03
   0.3411347738269939E-03
   0.3904109522158824E-02
  -0.3893251021558322E-01
   0.1798168108848866E-01
   0.1119637842476914E-01
   0.3403773468603419E-01
   0.8438806954883117E-02
   0.4937410416427340E-02
   0.4970463494128032E-02
   0.4871609705182853E-02
   0.6027254102415581E-02
   0.2599222969814532E-02
  -0.4144429689671858E-01
  -0.9954260375125412E-01
  -0.1121678263373642E+00
   0.5070924393778689E-02
   0.4230775258689728E-02
  -0.1004732186749862E+00
  -0.9895250393235387E-01
  -0.9875450352200163E-01
  -0.9462506559688746E-01
  -0.6807132511937677E-01
   0.5154957712995190E-02
  -0.1935331043682356E-01
  -0.1575800704188899E-01
  -0.6002876706755413E-02
   0.6819103504276838E-02
  -0.8010045049310463E-01
  -0.2781092963104255E-01
  -0.8096455341006198E-01
  -0.5873276341904547E-01
   0.3083622565508521E-02
   0.2685139188905553E-02
   0.2640431312434541E-02
   0.3450185536628812E-02
   0.4007074269940783E-02
   0.1201171188172967E-02
  -0.1438964908194876E-03
   0.2039892410395640E-02
   0.4895681796657719E-02
   0.3857384737354319E-02
   0.1114233229260357E-02
   0.1182713534362532E-02
   0.1465396436596655E-02
  -0.1653033397624431E-04
   0.8993999666676840E-04
   0.4386667802583737E-02
   0.2715726456516996E-02
   0.2322744824622153E-02
   0.5010598956551081E-02
   0.1071626547417494E-02
   0.2712225243116443E-02
   0.2013954278294549E-02
   0.2874450607350672E-04
   0.8374613503709720E-01
   0.2793869648460364E-02
  -0.8346650682496803E-03
  -0.1492920342691700E-03
   0.1409540830068394E+00
   0.1239332929086673E+00
  -0.1219092889967186E-02
  -0.4381936990175321E-02
  -0.3042988354692782E-03
  -0.6512248444331911E-02
  -0.1949571910719783E-02
   0.1557630958774959E+00
   0.7489978929521440E-01
   0.2550175044612378E-01
   0.1656445109249483E+00