title="tecplot geometry and solution file"
variables = x y z rho u v w p mach temperature
zone t="boundary 1 bc-1", solutiontime= 0.2000000E+02, strandid=1001, i=32, j=46, f=feblock
  0.000000000000E+00  0.000000000000E+00  0.000000000000E+00  0.000000000000E+00  0.000000000000E+00  0.000000000000E+00  0.000000000000E+00
  0.000000000000E+00  0.000000000000E+00  0.000000000000E+00  0.000000000000E+00  0.000000000000E+00  0.000000000000E+00  0.000000000000E+00
  0.000000000000E+00  0.000000000000E+00  0.000000000000E+00  0.000000000000E+00  0.000000000000E+00  0.000000000000E+00  0.000000000000E+00
  0.000000000000E+00  0.000000000000E+00  0.000000000000E+00  0.000000000000E+00  0.000000000000E+00  0.000000000000E+00  0.000000000000E+00
  0.000000000000E+00  0.000000000000E+00  0.000000000000E+00  0.000000000000E+00
  0.250000000000E+01  0.250000000000E+01  0.125000000000E+01  0.146289271009E+01  0.157686156160E+01  0.308372018325E+00  0.000000000000E+00
 -0.125000000000E+01 -0.600232012419E+00  0.250000000000E+01  0.477386199275E+00  0.742988685424E+00 -0.739814786992E+00  0.177790177481E+01
  0.155830813274E+01  0.250000000000E+01 -0.250000000000E+01 -0.154800130438E+01 -0.487811078581E+00  0.250000000000E+01  0.627766083140E+00
 -0.345533899378E+00 -0.178862290564E+01 -0.158811787973E+01  0.125000000000E+01 -0.250000000000E+01 -0.144524380962E+01  0.000000000000E+00
 -0.125000000000E+01 -0.250000000000E+01 -0.250000000000E+01 -0.250000000000E+01
  0.000000000000E+00  0.125000000000E+01  0.000000000000E+00  0.103724302461E+01  0.219251206392E+01  0.922061490191E+00  0.000000000000E+00
  0.000000000000E+00  0.715990576545E+00  0.250000000000E+01  0.202479342020E+01  0.324151231464E+01  0.175434191980E+01  0.310152362409E+01
  0.404200324774E+01  0.375000000000E+01  0.000000000000E+00  0.930412228790E+00  0.299062775774E+01  0.500000000000E+01  0.429310310915E+01
  0.409252726285E+01  0.187029682677E+01  0.284428995242E+01  0.500000000000E+01  0.125000000000E+01  0.394624082883E+01  0.500000000000E+01
  0.500000000000E+01  0.250000000000E+01  0.375000000000E+01  0.500000000000E+01
  0.788040402248E+00  0.103203024689E+01  0.771163638041E+00  0.107206399582E+01  0.992101027471E+00  0.110106034943E+01  0.653688057030E+00
  0.807211312064E+00  0.110279256737E+01  0.992423540432E+00  0.968881802348E+00  0.988384460202E+00  0.986647454381E+00  0.994737847898E+00
  0.995199556085E+00  0.995330381055E+00  0.717729172920E+00  0.110128727395E+01  0.987626554851E+00  0.993286176531E+00  0.995697724872E+00
  0.995305669352E+00  0.991419840117E+00  0.987957578785E+00  0.993372764795E+00  0.103563594254E+01  0.994187185694E+00  0.993979878306E+00
  0.994627089974E+00  0.993336665835E+00  0.994462905800E+00  0.994094651450E+00
  0.000000000000E+00  0.483854419889E+00  0.000000000000E+00  0.495742001468E+00  0.498677074509E+00  0.485148956022E+00  0.000000000000E+00
  0.000000000000E+00  0.447805969077E+00  0.502647733815E+00  0.508134714564E+00  0.503951293407E+00  0.512764092334E+00  0.505165247815E+00
  0.502720276610E+00  0.504568452369E+00  0.000000000000E+00  0.489690707908E+00  0.504403275662E+00  0.505126402879E+00  0.502677423157E+00
  0.501851237410E+00  0.495707353930E+00  0.499184239756E+00  0.505593716630E+00  0.492111032535E+00  0.503163517215E+00  0.506040288698E+00
  0.505549155444E+00  0.502388784337E+00  0.504918283611E+00  0.505168648684E+00
  0.000000000000E+00  0.000000000000E+00  0.000000000000E+00  0.100851017211E-01 -0.100270734123E-01  0.142141728543E-01  0.000000000000E+00
  0.000000000000E+00  0.828029608770E-02  0.000000000000E+00 -0.233972723621E-02 -0.413704783575E-02  0.316974292931E-02 -0.746995794546E-03
 -0.119911734920E-02  0.000000000000E+00  0.000000000000E+00 -0.245390562544E-01  0.299422248414E-02  0.000000000000E+00 -0.564204692479E-03
 -0.135277375272E-04  0.586603447341E-02  0.194752302607E-02  0.533231866669E-03  0.000000000000E+00  0.936891403681E-03  0.434881755070E-04
 -0.307996209854E-04  0.000000000000E+00  0.000000000000E+00  0.000000000000E+00
  0.000000000000E+00  0.101689342811E-01  0.000000000000E+00  0.207782252362E-01  0.134787045465E-01 -0.235330644958E-01  0.000000000000E+00
  0.000000000000E+00 -0.358193308429E-01  0.224268962253E-02  0.710209253297E-02 -0.962900986887E-02  0.289291452282E-01 -0.144958601281E-03
 -0.340786667954E-02 -0.350723221863E-03  0.000000000000E+00 -0.726384641036E-02 -0.108301383153E-01 -0.381620010105E-02 -0.267270732104E-02
 -0.477634374139E-02  0.122348623870E-01 -0.657036551757E-02 -0.370875522696E-02  0.882304297768E-02 -0.413974655205E-02 -0.284653150946E-02
 -0.265426484147E-02  0.783111768025E-03 -0.183134408772E-02 -0.273010802896E-02
  0.664946603497E+00  0.743221185433E+00  0.654200438234E+00  0.769223816398E+00  0.708738949907E+00  0.785620519235E+00  0.568188680162E+00
  0.686335788265E+00  0.799161931904E+00  0.707671985711E+00  0.692507895695E+00  0.703692878304E+00  0.703254661099E+00  0.708780975513E+00
  0.708770993311E+00  0.709160661764E+00  0.616311872726E+00  0.785611118511E+00  0.704363919751E+00  0.708790062054E+00  0.709561883702E+00
  0.709089224865E+00  0.709103667049E+00  0.705813073986E+00  0.708867516002E+00  0.746307980652E+00  0.708400926791E+00  0.708984338189E+00
  0.709352171898E+00  0.707883173976E+00  0.708623027166E+00  0.709221833049E+00
  0.000000000000E+00  0.481985262056E+00  0.000000000000E+00  0.495161099557E+00  0.498926392669E+00  0.486190477986E+00  0.000000000000E+00
  0.000000000000E+00  0.446081342563E+00  0.503079430442E+00  0.508024785956E+00  0.504881912232E+00  0.514134360706E+00  0.505787667891E+00
  0.503472457225E+00  0.505204827978E+00  0.000000000000E+00  0.490678020818E+00  0.504916358629E+00  0.505390217665E+00  0.503269246835E+00
  0.502525895638E+00  0.495561901751E+00  0.499185621487E+00  0.505851640347E+00  0.490019528797E+00  0.503796444068E+00  0.506405513096E+00
  0.505946444431E+00  0.502972086426E+00  0.505529611622E+00  0.505477157319E+00
  0.118131664600E+01  0.100821624438E+01  0.118766052800E+01  0.100452337468E+01  0.100013456533E+01  0.998917750054E+00  0.121688647004E+01
  0.119035757950E+01  0.101453957686E+01  0.998304392865E+00  0.100064946170E+01  0.996747793287E+00  0.997880774098E+00  0.997542586537E+00
  0.997065748842E+00  0.997482791007E+00  0.120217577099E+01  0.998699968603E+00  0.998463926277E+00  0.999013285719E+00  0.997678926414E+00
  0.997407073404E+00  0.100133676340E+01  0.100018292769E+01  0.999035364743E+00  0.100887882507E+01  0.997559928129E+00  0.998589705011E+00
  0.998457663850E+00  0.997684347766E+00  0.997596021175E+00  0.998808880845E+00
        12        19        11        11
        11         5        12        12
        10        14         5         5
        19        13        11        11
        19        24        13        13
        30        23        24        24
        19        12        22        22
        28        22        21        21
        11        13         6         6
         7         6         9         9
        15        12        14        14
        18        13        23        23
        15        25        21        21
        27        19        22        22
        18         8         9         9
        27        31        24        24
         4        11         6         6
         5        14        12        12
         4         2         5         5
        21        12        15        15
        14        16        15        15
        24        19        27        27
        22        29        27        27
        23        26        18        18
        17         8        18        18
         5        11         4         4
         6         3         4         4
        26        23        30        30
         5         2        10        10
        16        14        10        10
         3         6         7         7
        21        25        28        28
        29        22        28        28
         6        13         9         9
         2         4         1         1
        31        27        32        32
        25        15        20        20
        24        23        13        13
         8         7         9         9
        13        18         9         9
        31        30        24        24
        12        21        22        22
        29        32        27        27
         3         1         4         4
        26        17        18        18
        16        20        15        15
zone t="boundary 2 bc-2", solutiontime= 0.2000000E+02, strandid=1002, i=33, j=48, f=feblock
  0.500000000000E+01  0.375000000000E+01  0.250000000000E+01  0.288078410721E+01  0.125000000000E+01  0.190974100652E+01  0.326683758169E+01
  0.201431602454E+01  0.000000000000E+00  0.963108083381E+00  0.500000000000E+01  0.403552511878E+01  0.423153924130E+01  0.500000000000E+01
  0.385533350601E+01  0.500000000000E+01  0.398173246726E+01  0.315249557942E+01  0.267000324704E+01  0.154774304040E+01  0.218329375016E+01
  0.893127759452E+00  0.000000000000E+00  0.698517061619E+00  0.964171764089E+00  0.310324758057E+01  0.000000000000E+00  0.000000000000E+00
  0.125000000000E+01  0.500000000000E+01  0.375000000000E+01  0.250000000000E+01  0.000000000000E+00
 -0.250000000000E+01 -0.250000000000E+01 -0.250000000000E+01 -0.250000000000E+01 -0.250000000000E+01 -0.250000000000E+01 -0.250000000000E+01
 -0.250000000000E+01 -0.250000000000E+01 -0.250000000000E+01 -0.250000000000E+01 -0.250000000000E+01 -0.250000000000E+01 -0.250000000000E+01
 -0.250000000000E+01 -0.250000000000E+01 -0.250000000000E+01 -0.250000000000E+01 -0.250000000000E+01 -0.250000000000E+01 -0.250000000000E+01
 -0.250000000000E+01 -0.250000000000E+01 -0.250000000000E+01 -0.250000000000E+01 -0.250000000000E+01 -0.250000000000E+01 -0.250000000000E+01
 -0.250000000000E+01 -0.250000000000E+01 -0.250000000000E+01 -0.250000000000E+01 -0.250000000000E+01
  0.000000000000E+00  0.000000000000E+00  0.000000000000E+00  0.904659890645E+00  0.000000000000E+00  0.717002441913E+00  0.188609243358E+01
  0.176246431481E+01  0.000000000000E+00  0.961328577125E+00  0.125000000000E+01  0.101201586758E+01  0.191586535653E+01  0.250000000000E+01
  0.293121848150E+01  0.375000000000E+01  0.406975391361E+01  0.363585050272E+01  0.285047954584E+01  0.292817774674E+01  0.395907379566E+01
  0.205246550326E+01  0.125000000000E+01  0.306828197606E+01  0.397245519226E+01  0.433168271247E+01  0.250000000000E+01  0.375000000000E+01
  0.500000000000E+01  0.500000000000E+01  0.500000000000E+01  0.500000000000E+01  0.500000000000E+01
  0.575454492337E+00  0.795712451062E+00  0.818554485067E+00  0.921337732638E+00  0.824458654903E+00  0.923731037341E+00  0.986023163198E+00
  0.990551017335E+00  0.717729172920E+00  0.988110266552E+00  0.934470980074E+00  0.923435631909E+00  0.981976371799E+00  0.101405808688E+01
  0.100109182003E+01  0.100940325632E+01  0.996519227826E+00  0.991373107355E+00  0.989874870039E+00  0.991337718731E+00  0.989683792487E+00
  0.998443326186E+00  0.103563594254E+01  0.993592975950E+00  0.994183603629E+00  0.991797993871E+00  0.993336665835E+00  0.994462905800E+00
  0.994835263497E+00  0.994869954282E+00  0.996702836607E+00  0.993939844987E+00  0.994094651450E+00
  0.000000000000E+00  0.000000000000E+00  0.000000000000E+00  0.392359993135E+00  0.000000000000E+00  0.322216548653E+00  0.570680703377E+00
  0.544114585493E+00  0.000000000000E+00  0.430019476950E+00  0.510943043016E+00  0.465288713739E+00  0.563948628200E+00  0.510773545276E+00
  0.549929699418E+00  0.501621066145E+00  0.505908250386E+00  0.519005007823E+00  0.548099951053E+00  0.524918651175E+00  0.509260483031E+00
  0.523853797951E+00  0.492111032535E+00  0.505234801896E+00  0.505025078178E+00  0.506159908588E+00  0.502388784337E+00  0.504918283611E+00
  0.503417588880E+00  0.498066067140E+00  0.503175514925E+00  0.504721962537E+00  0.505168648684E+00
  0.000000000000E+00  0.000000000000E+00  0.000000000000E+00  0.000000000000E+00  0.000000000000E+00  0.000000000000E+00  0.000000000000E+00
  0.000000000000E+00  0.000000000000E+00  0.000000000000E+00  0.000000000000E+00  0.000000000000E+00  0.000000000000E+00  0.000000000000E+00
  0.000000000000E+00  0.000000000000E+00  0.000000000000E+00  0.000000000000E+00  0.000000000000E+00  0.000000000000E+00  0.000000000000E+00
  0.000000000000E+00  0.000000000000E+00  0.000000000000E+00  0.000000000000E+00  0.000000000000E+00  0.000000000000E+00  0.000000000000E+00
  0.000000000000E+00  0.000000000000E+00  0.000000000000E+00  0.000000000000E+00  0.000000000000E+00
  0.000000000000E+00  0.000000000000E+00  0.000000000000E+00  0.304416392386E-02  0.000000000000E+00  0.686105351560E-02  0.108719416528E-02
  0.196455602093E-01  0.000000000000E+00  0.471939497154E-02 -0.139760516242E+00 -0.381007504714E-01 -0.484355230436E-01 -0.589700168114E-01
 -0.151644450664E-01 -0.270167751455E-02 -0.888998139730E-02 -0.109530212381E-01 -0.186171289121E-02  0.504230419785E-02 -0.668275196595E-02
  0.214747986566E-01  0.882304297768E-02 -0.946220794198E-03 -0.387740118061E-02 -0.101734675173E-01  0.783111768025E-03 -0.183134408772E-02
 -0.526829649226E-02  0.691025739653E-02 -0.593589393504E-02 -0.577102477531E-02 -0.273010802896E-02
  0.524025747802E+00  0.653647193454E+00  0.688663103603E+00  0.681518207596E+00  0.694624877569E+00  0.699941943272E+00  0.691030036411E+00
  0.698601202126E+00  0.616311872726E+00  0.718563228143E+00  0.659179772422E+00  0.666824530816E+00  0.688915467931E+00  0.718994987754E+00
  0.708467754525E+00  0.720980446934E+00  0.710846409469E+00  0.706241586520E+00  0.700535111432E+00  0.705579780160E+00  0.705539747803E+00
  0.710012388148E+00  0.746307980652E+00  0.708643723780E+00  0.708547051353E+00  0.706353400977E+00  0.707883173976E+00  0.708623027166E+00
  0.708821177527E+00  0.711337901639E+00  0.709497465242E+00  0.707159302706E+00  0.709221833049E+00
  0.000000000000E+00  0.000000000000E+00  0.000000000000E+00  0.385571094921E+00  0.000000000000E+00  0.312913294826E+00  0.576136054715E+00
  0.547939994447E+00  0.000000000000E+00  0.426206897079E+00  0.533037219514E+00  0.464309126968E+00  0.571135269605E+00  0.516069451682E+00
  0.552694475802E+00  0.501635952763E+00  0.506325430054E+00  0.519811811996E+00  0.550647214343E+00  0.525878934375E+00  0.509801178899E+00
  0.525459725206E+00  0.490019528797E+00  0.505615391462E+00  0.505604204716E+00  0.507004744705E+00  0.502972086426E+00  0.505529611622E+00
  0.504075269343E+00  0.497863072318E+00  0.504072636296E+00  0.505752448237E+00  0.505477157319E+00
  0.127488108389E+01  0.115004618768E+01  0.117784260258E+01  0.103558712168E+01  0.117953134801E+01  0.106082688680E+01  0.981155501295E+00
  0.987371337630E+00  0.120217577099E+01  0.101809337829E+01  0.987565907416E+00  0.101095767900E+01  0.982184177544E+00  0.992638386179E+00
  0.990773110405E+00  0.999969654729E+00  0.998661084972E+00  0.997342185089E+00  0.990780941803E+00  0.996443163172E+00  0.998051755947E+00
  0.995567116667E+00  0.100887882507E+01  0.998498617952E+00  0.997769293593E+00  0.997072758242E+00  0.997684347766E+00  0.997596021175E+00
  0.997501480847E+00  0.100100828054E+01  0.996582346170E+00  0.996059297534E+00  0.998808880845E+00
        15         7        19        19
         8        20        19        19
        18        19        21        21
         7         4         8         8
         3         6         4         4
        19         7         8         8
        19        18        15        15
        14        13        15        15
         8        22        20        20
        27        24        22        22
        19        20        21        21
        32        26        21        21
        17        18        26        26
        17        16        15        15
        25        29        21        21
        12         7        13        13
        10         8         6         6
        25        20        24        24
         4         6         8         8
        12         2         4         4
        10        23        22        22
        26        31        17        17
        30        16        17        17
         4         7        12        12
        13        11        12        12
        21        20        25        25
        24        28        25        25
        22         8        10        10
         6         5        10        10
        31        26        32        32
         4         2         3         3
         5         6         3         3
        11        13        14        14
        22        23        27        27
        28        24        27        27
        15        13         7         7
         2        12         1         1
        29        25        33        33
        23        10         9         9
        21        26        18        18
        16        14        15        15
        18        17        15        15
        29        32        21        21
        22        24        20        20
        28        33        25        25
        11         1        12        12
        31        30        17        17
         5         9        10        10
zone t="boundary 3 bc-3", solutiontime= 0.2000000E+02, strandid=1003, i=33, j=48, f=feblock
  0.375000000000E+01  0.250000000000E+01  0.500000000000E+01  0.403552511878E+01  0.288078410721E+01  0.125000000000E+01  0.190974100652E+01
  0.500000000000E+01  0.326683758169E+01  0.423153924130E+01  0.201431602454E+01  0.000000000000E+00  0.963108083381E+00  0.500000000000E+01
  0.267000324704E+01  0.385533350601E+01  0.893127759452E+00  0.154774304040E+01  0.000000000000E+00  0.500000000000E+01  0.315249557942E+01
  0.218329375016E+01  0.398173246726E+01  0.000000000000E+00  0.698517061619E+00  0.964171764089E+00  0.125000000000E+01  0.000000000000E+00
  0.500000000000E+01  0.310324758057E+01  0.250000000000E+01  0.375000000000E+01  0.000000000000E+00
  0.250000000000E+01  0.250000000000E+01  0.250000000000E+01  0.250000000000E+01  0.250000000000E+01  0.250000000000E+01  0.250000000000E+01
  0.250000000000E+01  0.250000000000E+01  0.250000000000E+01  0.250000000000E+01  0.250000000000E+01  0.250000000000E+01  0.250000000000E+01
  0.250000000000E+01  0.250000000000E+01  0.250000000000E+01  0.250000000000E+01  0.250000000000E+01  0.250000000000E+01  0.250000000000E+01
  0.250000000000E+01  0.250000000000E+01  0.250000000000E+01  0.250000000000E+01  0.250000000000E+01  0.250000000000E+01  0.250000000000E+01
  0.250000000000E+01  0.250000000000E+01  0.250000000000E+01  0.250000000000E+01  0.250000000000E+01
  0.000000000000E+00  0.000000000000E+00  0.000000000000E+00  0.101201586758E+01  0.904659890645E+00  0.000000000000E+00  0.717002441913E+00
  0.125000000000E+01  0.188609243358E+01  0.191586535653E+01  0.176246431481E+01  0.000000000000E+00  0.961328577125E+00  0.250000000000E+01
  0.285047954584E+01  0.293121848150E+01  0.205246550326E+01  0.292817774674E+01  0.125000000000E+01  0.375000000000E+01  0.363585050272E+01
  0.395907379566E+01  0.406975391361E+01  0.250000000000E+01  0.306828197606E+01  0.397245519226E+01  0.500000000000E+01  0.375000000000E+01
  0.500000000000E+01  0.433168271247E+01  0.500000000000E+01  0.500000000000E+01  0.500000000000E+01
  0.789166706601E+00  0.812106375957E+00  0.596515823675E+00  0.912248682704E+00  0.919898829406E+00  0.819374267449E+00  0.927750517935E+00
  0.931583427894E+00  0.975791180529E+00  0.977022808716E+00  0.985513605709E+00  0.788040402248E+00  0.979791470050E+00  0.101189975813E+01
  0.990926686663E+00  0.999239004509E+00  0.997831881776E+00  0.991685221875E+00  0.103203024689E+01  0.100621413385E+01  0.993940747929E+00
  0.991589679606E+00  0.996724751141E+00  0.992423540432E+00  0.992644815490E+00  0.993189953422E+00  0.994478222242E+00  0.995330381055E+00
  0.996697771111E+00  0.991918148347E+00  0.996149530354E+00  0.997751335055E+00  0.993286176531E+00
  0.000000000000E+00  0.000000000000E+00  0.000000000000E+00  0.465857053119E+00  0.397727320486E+00  0.000000000000E+00  0.333342047996E+00
  0.513724083087E+00  0.555772459394E+00  0.560257219558E+00  0.529373347622E+00  0.000000000000E+00  0.423327392838E+00  0.508937067592E+00
  0.542542150517E+00  0.547732330356E+00  0.525628683931E+00  0.522048066560E+00  0.483854419889E+00  0.503163789784E+00  0.518621406784E+00
  0.509264501139E+00  0.506770183692E+00  0.502647733815E+00  0.508126704297E+00  0.506467526600E+00  0.501764185249E+00  0.504568452369E+00
  0.498764433053E+00  0.503526941698E+00  0.501481189187E+00  0.502727515500E+00  0.505126402879E+00
  0.000000000000E+00  0.000000000000E+00  0.000000000000E+00  0.000000000000E+00  0.000000000000E+00  0.000000000000E+00  0.000000000000E+00
  0.000000000000E+00  0.000000000000E+00  0.000000000000E+00  0.000000000000E+00  0.000000000000E+00  0.000000000000E+00  0.000000000000E+00
  0.000000000000E+00  0.000000000000E+00  0.000000000000E+00  0.000000000000E+00  0.000000000000E+00  0.000000000000E+00  0.000000000000E+00
  0.000000000000E+00  0.000000000000E+00  0.000000000000E+00  0.000000000000E+00  0.000000000000E+00  0.000000000000E+00  0.000000000000E+00
  0.000000000000E+00  0.000000000000E+00  0.000000000000E+00  0.000000000000E+00  0.000000000000E+00
  0.000000000000E+00  0.000000000000E+00  0.000000000000E+00 -0.394555168266E-01  0.178316447717E-01  0.000000000000E+00  0.918467162290E-02
 -0.143972727096E+00 -0.678204602619E-02 -0.592686104114E-01  0.145497225511E-01  0.000000000000E+00 -0.995930890669E-03 -0.634338913970E-01
 -0.363125025139E-02 -0.181599514965E-01  0.245063053410E-01  0.103035883129E-02  0.101689342811E-01 -0.528448372120E-02 -0.964320741720E-02
 -0.769508318896E-02 -0.779518081417E-02  0.224268962253E-02 -0.361280248461E-03 -0.533132644944E-02 -0.560494864738E-02 -0.350723221863E-03
  0.557319309862E-02 -0.734481301459E-02 -0.366985420119E-02 -0.598047806179E-02 -0.381620010105E-02
  0.659733140904E+00  0.697570370601E+00  0.537389576741E+00  0.662096374040E+00  0.686013087401E+00  0.706416265091E+00  0.700694672983E+00
  0.659248122668E+00  0.688164996416E+00  0.687495686905E+00  0.697980769823E+00  0.664946603497E+00  0.714554886619E+00  0.718325468527E+00
  0.701832252549E+00  0.707838544320E+00  0.708471724852E+00  0.705694288330E+00  0.743221185433E+00  0.717732380990E+00  0.708125286932E+00
  0.706303820560E+00  0.710320910737E+00  0.707671985711E+00  0.706990834366E+00  0.707461286751E+00  0.708450337253E+00  0.709160661764E+00
  0.712409745041E+00  0.706449281104E+00  0.708460036105E+00  0.710228814497E+00  0.708790062054E+00
  0.000000000000E+00  0.000000000000E+00  0.000000000000E+00  0.463806408964E+00  0.389637979798E+00  0.000000000000E+00  0.324296355855E+00
  0.536007437627E+00  0.559367838544E+00  0.567619667883E+00  0.531828506167E+00  0.000000000000E+00  0.418950377652E+00  0.514464784075E+00
  0.544857953785E+00  0.550313934138E+00  0.527781258644E+00  0.523029204338E+00  0.481985262056E+00  0.503539157490E+00  0.519381742874E+00
  0.510034061667E+00  0.507409660443E+00  0.503079430442E+00  0.508859818977E+00  0.507196754746E+00  0.502464829217E+00  0.505204827978E+00
  0.498626536032E+00  0.504315501416E+00  0.502581903329E+00  0.503629754708E+00  0.505390217665E+00
  0.117038185917E+01  0.120254999561E+01  0.126123294233E+01  0.101609894454E+01  0.104404777097E+01  0.120699759611E+01  0.105736674161E+01
  0.990729701817E+00  0.987333165341E+00  0.985129469938E+00  0.991536871831E+00  0.118131664600E+01  0.102100995145E+01  0.993829327324E+00
  0.991561905430E+00  0.991728663089E+00  0.994015558039E+00  0.996255648334E+00  0.100821624438E+01  0.998619776435E+00  0.997419014936E+00
  0.997212223081E+00  0.997717046651E+00  0.998304392865E+00  0.997121178358E+00  0.997237032088E+00  0.997337548447E+00  0.997482791007E+00
  0.100067811123E+01  0.997087305232E+00  0.995677877993E+00  0.996561272695E+00  0.999013285719E+00
        15         9        16        16
        15        18        11        11
        22        15        21        21
        11         5         9         9
         5         7         2         2
        11         9        15        15
        16        21        15        15
        16        10        14        14
        18        17        11        11
        17        25        24        24
        22        18        15        15
        22        30        31        31
        30        21        23        23
        16        20        23        23
        22        27        26        26
        10         9         4         4
         7        11        13        13
        25        18        26        26
        11         7         5         5
         5         1         4         4
        17        19        13        13
        23        32        30        30
        23        20        29        29
         4         9         5         5
         4         8        10        10
        26        18        22        22
        26        28        25        25
        13        11        17        17
        13         6         7         7
        31        30        32        32
         2         1         5         5
         2         7         6         6
        14        10         8         8
        24        19        17        17
        24        25        28        28
         9        10        16        16
         3         4         1         1
        33        26        27        27
        12        13        19        19
        21        30        22        22
        16        14        20        20
        16        23        21        21
        22        31        27        27
        18        25        17        17
        26        33        28        28
         4         3         8         8
        23        29        32        32
        13        12         6         6
zone t="boundary 4 bc-4", solutiontime= 0.2000000E+02, strandid=1004, i=32, j=46, f=feblock
  0.125000000000E+01  0.219251206392E+01  0.103724302461E+01  0.500000000000E+01  0.250000000000E+01  0.375000000000E+01  0.404200324774E+01
  0.500000000000E+01  0.000000000000E+00  0.310152362409E+01  0.202479342020E+01  0.324151231464E+01  0.922061490191E+00  0.000000000000E+00
  0.299062775774E+01  0.394624082883E+01  0.500000000000E+01  0.409252726285E+01  0.500000000000E+01  0.429310310915E+01  0.175434191980E+01
  0.284428995242E+01  0.000000000000E+00  0.000000000000E+00  0.715990576545E+00  0.930412228790E+00  0.125000000000E+01  0.187029682677E+01
  0.500000000000E+01  0.375000000000E+01  0.250000000000E+01  0.000000000000E+00
  0.250000000000E+01  0.157686156160E+01  0.146289271009E+01  0.250000000000E+01  0.250000000000E+01  0.250000000000E+01  0.155830813274E+01
  0.125000000000E+01  0.250000000000E+01  0.177790177481E+01  0.477386199275E+00  0.742988685424E+00  0.308372018325E+00  0.125000000000E+01
 -0.487811078581E+00 -0.144524380962E+01 -0.125000000000E+01 -0.345533899378E+00  0.000000000000E+00  0.627766083140E+00 -0.739814786992E+00
 -0.158811787973E+01  0.000000000000E+00 -0.125000000000E+01 -0.600232012419E+00 -0.154800130438E+01 -0.250000000000E+01 -0.178862290564E+01
 -0.250000000000E+01 -0.250000000000E+01 -0.250000000000E+01 -0.250000000000E+01
  0.500000000000E+01  0.500000000000E+01  0.500000000000E+01  0.500000000000E+01  0.500000000000E+01  0.500000000000E+01  0.500000000000E+01
  0.500000000000E+01  0.500000000000E+01  0.500000000000E+01  0.500000000000E+01  0.500000000000E+01  0.500000000000E+01  0.500000000000E+01
  0.500000000000E+01  0.500000000000E+01  0.500000000000E+01  0.500000000000E+01  0.500000000000E+01  0.500000000000E+01  0.500000000000E+01
  0.500000000000E+01  0.500000000000E+01  0.500000000000E+01  0.500000000000E+01  0.500000000000E+01  0.500000000000E+01  0.500000000000E+01
  0.500000000000E+01  0.500000000000E+01  0.500000000000E+01  0.500000000000E+01
  0.994478222242E+00  0.994475943425E+00  0.995064563624E+00  0.996697771111E+00  0.996149530354E+00  0.997751335055E+00  0.994249137170E+00
  0.996579654420E+00  0.993286176531E+00  0.996878394929E+00  0.992861573795E+00  0.993459598196E+00  0.995015807345E+00  0.993372764795E+00
  0.994599983661E+00  0.991040389679E+00  0.995235734981E+00  0.992801281664E+00  0.996676227458E+00  0.993258314698E+00  0.993832414974E+00
  0.994529063905E+00  0.993979878306E+00  0.994627089974E+00  0.993904064541E+00  0.994685677177E+00  0.994835263497E+00  0.993610825293E+00
  0.994869954282E+00  0.996702836607E+00  0.993939844987E+00  0.994094651450E+00
  0.501764185249E+00  0.503587810238E+00  0.503459942513E+00  0.498764433053E+00  0.501481189187E+00  0.502727515500E+00  0.504717636373E+00
  0.500072410579E+00  0.505126402879E+00  0.503574152067E+00  0.504005323211E+00  0.507010615002E+00  0.505296516256E+00  0.505593716630E+00
  0.506077848306E+00  0.500710434367E+00  0.497550155116E+00  0.506257463357E+00  0.500373231941E+00  0.506581186514E+00  0.504501510492E+00
  0.505149547059E+00  0.506040288698E+00  0.505549155444E+00  0.505205686072E+00  0.504746268333E+00  0.503417588880E+00  0.503701084467E+00
  0.498066067140E+00  0.503175514925E+00  0.504721962537E+00  0.505168648684E+00
  0.000000000000E+00 -0.140310763051E-02 -0.703668130942E-03  0.000000000000E+00  0.000000000000E+00  0.000000000000E+00 -0.167437273040E-02
 -0.512121128655E-03  0.000000000000E+00 -0.117643589066E-02 -0.665717259088E-03 -0.197938590363E-02 -0.102967584523E-02  0.533231866669E-03
 -0.572067484529E-03 -0.127051397800E-02 -0.202987159075E-02 -0.281852854772E-02 -0.267614456483E-02 -0.282964960729E-02  0.107077305874E-03
  0.270929983377E-04  0.434881755070E-04 -0.307996209854E-04 -0.470564186820E-03  0.515886192840E-03  0.000000000000E+00  0.987404725891E-03
  0.000000000000E+00  0.000000000000E+00  0.000000000000E+00  0.000000000000E+00