title="tecplot geometry and solution file"
variables = x y z rho u v w p mach temperature
zone t="boundary 1 bc-1", solutiontime= 0.1000000E+02, strandid=1001, i=32, j=46, f=feblock
  0.000000000000E+00  0.000000000000E+00  0.000000000000E+00  0.000000000000E+00  0.000000000000E+00  0.000000000000E+00  0.000000000000E+00
  0.000000000000E+00  0.000000000000E+00  0.000000000000E+00  0.000000000000E+00  0.000000000000E+00  0.000000000000E+00  0.000000000000E+00
  0.000000000000E+00  0.000000000000E+00  0.000000000000E+00  0.000000000000E+00  0.000000000000E+00  0.000000000000E+00  0.000000000000E+00
  0.000000000000E+00  0.000000000000E+00  0.000000000000E+00  0.000000000000E+00  0.000000000000E+00  0.000000000000E+00  0.000000000000E+00
  0.000000000000E+00  0.000000000000E+00  0.000000000000E+00  0.000000000000E+00
  0.250000000000E+01  0.250000000000E+01  0.125000000000E+01  0.146289271009E+01  0.157686156160E+01  0.308372018325E+00  0.000000000000E+00
 -0.125000000000E+01 -0.600232012419E+00  0.250000000000E+01  0.477386199275E+00  0.742988685424E+00 -0.739814786992E+00  0.177790177481E+01
  0.155830813274E+01  0.250000000000E+01 -0.250000000000E+01 -0.154800130438E+01 -0.487811078581E+00  0.250000000000E+01  0.627766083140E+00
 -0.345533899378E+00 -0.178862290564E+01 -0.158811787973E+01  0.125000000000E+01 -0.250000000000E+01 -0.144524380962E+01  0.000000000000E+00
 -0.125000000000E+01 -0.250000000000E+01 -0.250000000000E+01 -0.250000000000E+01
  0.000000000000E+00  0.125000000000E+01  0.000000000000E+00  0.103724302461E+01  0.219251206392E+01  0.922061490191E+00  0.000000000000E+00
  0.000000000000E+00  0.715990576545E+00  0.250000000000E+01  0.202479342020E+01  0.324151231464E+01  0.175434191980E+01  0.310152362409E+01
  0.404200324774E+01  0.375000000000E+01  0.000000000000E+00  0.930412228790E+00  0.299062775774E+01  0.500000000000E+01  0.429310310915E+01
  0.409252726285E+01  0.187029682677E+01  0.284428995242E+01  0.500000000000E+01  0.125000000000E+01  0.394624082883E+01  0.500000000000E+01
  0.500000000000E+01  0.250000000000E+01  0.375000000000E+01  0.500000000000E+01
  0.865191083530E+00  0.106193712452E+01  0.863659640228E+00  0.103274033089E+01  0.101115781642E+01  0.105921815290E+01  0.844661013406E+00
  0.916465816455E+00  0.106804241041E+01  0.996154942452E+00  0.101944960657E+01  0.999900329212E+00  0.104294618323E+01  0.996453832349E+00
  0.100035021511E+01  0.999188488165E+00  0.863397057593E+00  0.105304135523E+01  0.100685193580E+01  0.102296803366E+01  0.100234182880E+01
  0.999329996571E+00  0.102588499932E+01  0.101655524722E+01  0.101792044999E+01  0.103744296137E+01  0.100059596863E+01  0.101175848980E+01
  0.101413513341E+01  0.100900157500E+01  0.100019618983E+01  0.101907204529E+01
  0.000000000000E+00  0.497879969209E+00  0.000000000000E+00  0.542867791123E+00  0.502934367043E+00  0.522553025179E+00  0.000000000000E+00
  0.000000000000E+00  0.487767186989E+00  0.512751383796E+00  0.497481411415E+00  0.510228974109E+00  0.503803345700E+00  0.515602428344E+00
  0.510402670018E+00  0.512316471478E+00  0.000000000000E+00  0.533209040820E+00  0.505859361135E+00  0.503741894593E+00  0.508028303818E+00
  0.508023687016E+00  0.492901114164E+00  0.495834217277E+00  0.499676073060E+00  0.515339766338E+00  0.508804583668E+00  0.497786304576E+00
  0.499137696287E+00  0.504987703886E+00  0.508951798710E+00  0.501487324539E+00
  0.000000000000E+00  0.000000000000E+00  0.000000000000E+00  0.184604725320E-01 -0.772058966405E-02  0.232225898327E-01  0.000000000000E+00
  0.000000000000E+00 -0.407438806565E-02  0.000000000000E+00  0.173008481481E-02 -0.450687977336E-02 -0.534505128078E-03 -0.131798193141E-02
 -0.215619496208E-02  0.000000000000E+00  0.000000000000E+00 -0.199609409053E-01  0.877172490295E-03  0.000000000000E+00 -0.301602301291E-03
 -0.586647048375E-03  0.764284011821E-03  0.563005534619E-03  0.994751279739E-03  0.000000000000E+00  0.106581148277E-02 -0.957617354958E-03
 -0.209629229036E-02  0.000000000000E+00  0.000000000000E+00  0.000000000000E+00
  0.000000000000E+00 -0.392812973654E-02  0.000000000000E+00  0.280770161804E-03 -0.328830833830E-03  0.898005774989E-02  0.000000000000E+00
  0.000000000000E+00 -0.433319601655E-02 -0.139038418489E-02 -0.116261721130E-02 -0.102491036360E-01  0.135935822590E-01 -0.102792611687E-02
 -0.407341285974E-02 -0.148445257534E-02  0.000000000000E+00  0.283954770401E-02 -0.117923436152E-01  0.133524095033E-02 -0.262846033105E-02
 -0.446092338957E-02 -0.256429848848E-02 -0.107861842691E-01  0.135846390742E-02 -0.103876472315E-01 -0.480537710254E-02  0.744426064807E-03
 -0.105183919635E-02 -0.614227724031E-02 -0.311656095538E-02  0.118303017610E-02
  0.699077252637E+00  0.737341848558E+00  0.702256233634E+00  0.734237702411E+00  0.693266466256E+00  0.773346590903E+00  0.710371849525E+00
  0.744835981165E+00  0.784190398139E+00  0.695187893201E+00  0.694840138311E+00  0.696658794130E+00  0.709695982812E+00  0.698007620552E+00
  0.698432740101E+00  0.699834164597E+00  0.700301603018E+00  0.765123364038E+00  0.698464934555E+00  0.720064084309E+00  0.702279005667E+00
  0.699196155324E+00  0.709886132449E+00  0.699586552915E+00  0.720132062418E+00  0.726282748470E+00  0.698625988140E+00  0.717125985139E+00
  0.716723228621E+00  0.703493726469E+00  0.703205115788E+00  0.718598881717E+00
  0.000000000000E+00  0.504997365853E+00  0.000000000000E+00  0.544450375221E+00  0.513402440929E+00  0.517445241570E+00  0.000000000000E+00
  0.000000000000E+00  0.481132106377E+00  0.518748395975E+00  0.509280543105E+00  0.516742198743E+00  0.516357013959E+00  0.520657018434E+00
  0.516274132128E+00  0.517371218575E+00  0.000000000000E+00  0.529054872331E+00  0.513446145817E+00  0.507447404719E+00  0.512959248678E+00
  0.513324416667E+00  0.500791760461E+00  0.505266211277E+00  0.502085694460E+00  0.520651468293E+00  0.514652781215E+00  0.499713306565E+00
  0.501803078257E+00  0.511169245378E+00  0.513005906143E+00  0.504726754837E+00
  0.113120462326E+01  0.972071287598E+00  0.113836363458E+01  0.995344863208E+00  0.959863076761E+00  0.102215509081E+01  0.117741978563E+01
  0.113781698663E+01  0.102792412239E+01  0.977019747637E+00  0.954217047480E+00  0.975419532615E+00  0.952661212930E+00  0.980688354090E+00
  0.977463513648E+00  0.980563569377E+00  0.113554040473E+01  0.101721808392E+01  0.971196333453E+00  0.985455737483E+00  0.980893523236E+00
  0.979530906520E+00  0.968764126664E+00  0.963470678803E+00  0.990435831598E+00  0.980098073550E+00  0.977493827742E+00  0.992308331793E+00
  0.989426839693E+00  0.976104737054E+00  0.984294053624E+00  0.987210314572E+00
        12        19        11        11
        11         5        12        12
        10        14         5         5
        19        13        11        11
        19        24        13        13
        30        23        24        24
        19        12        22        22
        28        22        21        21
        11        13         6         6
         7         6         9         9
        15        12        14        14
        18        13        23        23
        15        25        21        21
        27        19        22        22
        18         8         9         9
        27        31        24        24
         4        11         6         6
         5        14        12        12
         4         2         5         5
        21        12        15        15
        14        16        15        15
        24        19        27        27
        22        29        27        27
        23        26        18        18
        17         8        18        18
         5        11         4         4
         6         3         4         4
        26        23        30        30
         5         2        10        10
        16        14        10        10
         3         6         7         7
        21        25        28        28
        29        22        28        28
         6        13         9         9
         2         4         1         1
        31        27        32        32
        25        15        20        20
        24        23        13        13
         8         7         9         9
        13        18         9         9
        31        30        24        24
        12        21        22        22
        29        32        27        27
         3         1         4         4
        26        17        18        18
        16        20        15        15
zone t="boundary 2 bc-2", solutiontime= 0.1000000E+02, strandid=1002, i=33, j=48, f=feblock
  0.500000000000E+01  0.375000000000E+01  0.250000000000E+01  0.288078410721E+01  0.125000000000E+01  0.190974100652E+01  0.326683758169E+01
  0.201431602454E+01  0.000000000000E+00  0.963108083381E+00  0.500000000000E+01  0.403552511878E+01  0.423153924130E+01  0.500000000000E+01
  0.385533350601E+01  0.500000000000E+01  0.398173246726E+01  0.315249557942E+01  0.267000324704E+01  0.154774304040E+01  0.218329375016E+01
  0.893127759452E+00  0.000000000000E+00  0.698517061619E+00  0.964171764089E+00  0.310324758057E+01  0.000000000000E+00  0.000000000000E+00
  0.125000000000E+01  0.500000000000E+01  0.375000000000E+01  0.250000000000E+01  0.000000000000E+00
 -0.250000000000E+01 -0.250000000000E+01 -0.250000000000E+01 -0.250000000000E+01 -0.250000000000E+01 -0.250000000000E+01 -0.250000000000E+01
 -0.250000000000E+01 -0.250000000000E+01 -0.250000000000E+01 -0.250000000000E+01 -0.250000000000E+01 -0.250000000000E+01 -0.250000000000E+01
 -0.250000000000E+01 -0.250000000000E+01 -0.250000000000E+01 -0.250000000000E+01 -0.250000000000E+01 -0.250000000000E+01 -0.250000000000E+01
 -0.250000000000E+01 -0.250000000000E+01 -0.250000000000E+01 -0.250000000000E+01 -0.250000000000E+01 -0.250000000000E+01 -0.250000000000E+01
 -0.250000000000E+01 -0.250000000000E+01 -0.250000000000E+01 -0.250000000000E+01 -0.250000000000E+01
  0.000000000000E+00  0.000000000000E+00  0.000000000000E+00  0.904659890645E+00  0.000000000000E+00  0.717002441913E+00  0.188609243358E+01
  0.176246431481E+01  0.000000000000E+00  0.961328577125E+00  0.125000000000E+01  0.101201586758E+01  0.191586535653E+01  0.250000000000E+01
  0.293121848150E+01  0.375000000000E+01  0.406975391361E+01  0.363585050272E+01  0.285047954584E+01  0.292817774674E+01  0.395907379566E+01
  0.205246550326E+01  0.125000000000E+01  0.306828197606E+01  0.397245519226E+01  0.433168271247E+01  0.250000000000E+01  0.375000000000E+01
  0.500000000000E+01  0.500000000000E+01  0.500000000000E+01  0.500000000000E+01  0.500000000000E+01
  0.511431762037E+00  0.656167294107E+00  0.695153989474E+00  0.754175967417E+00  0.735639272027E+00  0.777137558890E+00  0.847964437705E+00
  0.886577799403E+00  0.863397057593E+00  0.929842663137E+00  0.781281690240E+00  0.755044335706E+00  0.863161462984E+00  0.933875242725E+00
  0.944373696142E+00  0.986740451073E+00  0.994957958688E+00  0.966009022939E+00  0.933435649396E+00  0.977798672666E+00  0.987468264154E+00
  0.100040017155E+01  0.103744296137E+01  0.993270855704E+00  0.990631334229E+00  0.990186113669E+00  0.100900157500E+01  0.100019618983E+01
  0.102413713883E+01  0.978936390396E+00  0.927248348319E+00  0.101112800011E+01  0.101907204529E+01
  0.000000000000E+00  0.000000000000E+00  0.000000000000E+00  0.479488846392E+00  0.000000000000E+00  0.397786071619E+00  0.674421963724E+00
  0.615625966417E+00  0.000000000000E+00  0.458153665877E+00  0.662036449596E+00  0.577341680082E+00  0.677758431226E+00  0.613582030807E+00
  0.638982977210E+00  0.565878105681E+00  0.564228536341E+00  0.586741268121E+00  0.626517654674E+00  0.561058237340E+00  0.549171153264E+00
  0.540393737095E+00  0.515339766338E+00  0.520805618272E+00  0.523579360749E+00  0.558525877215E+00  0.504987703886E+00  0.508951798710E+00
  0.533047652702E+00  0.522178928812E+00  0.585062430171E+00  0.567255373932E+00  0.501487324539E+00
  0.000000000000E+00  0.000000000000E+00  0.000000000000E+00  0.000000000000E+00  0.000000000000E+00  0.000000000000E+00  0.000000000000E+00
  0.000000000000E+00  0.000000000000E+00  0.000000000000E+00  0.000000000000E+00  0.000000000000E+00  0.000000000000E+00  0.000000000000E+00
  0.000000000000E+00  0.000000000000E+00  0.000000000000E+00  0.000000000000E+00  0.000000000000E+00  0.000000000000E+00  0.000000000000E+00
  0.000000000000E+00  0.000000000000E+00  0.000000000000E+00  0.000000000000E+00  0.000000000000E+00  0.000000000000E+00  0.000000000000E+00
  0.000000000000E+00  0.000000000000E+00  0.000000000000E+00  0.000000000000E+00  0.000000000000E+00
  0.000000000000E+00  0.000000000000E+00  0.000000000000E+00  0.248285019308E-01  0.000000000000E+00  0.368399124063E-01  0.129877395525E-01
  0.496579116037E-01  0.000000000000E+00  0.325997254498E-01 -0.167784496341E+00 -0.310998034638E-01 -0.690103280632E-01 -0.118313675329E+00
 -0.403891857035E-01 -0.690067265989E-01 -0.401478800847E-01 -0.326633310977E-01 -0.441918553215E-03  0.116298504347E-01 -0.130472345284E-01
  0.267407315838E-01 -0.103876472315E-01 -0.388351167468E-03 -0.878226766704E-02 -0.260122539787E-01 -0.614227724031E-02 -0.311656095538E-02
 -0.862103104910E-02 -0.573165502440E-01 -0.872463624476E-01 -0.328219577617E-01  0.118303017610E-02
  0.472389445617E+00  0.590233044565E+00  0.631132927341E+00  0.604699189413E+00  0.678036231735E+00  0.638818924852E+00  0.630970453309E+00
  0.651826822882E+00  0.700301603018E+00  0.707419617627E+00  0.578536971431E+00  0.594936554015E+00  0.639160142929E+00  0.679935567072E+00
  0.677279283877E+00  0.708583484672E+00  0.697795170439E+00  0.666362136769E+00  0.659237836392E+00  0.667338155618E+00  0.676201024926E+00
  0.692062369505E+00  0.726282748470E+00  0.683730561032E+00  0.685547518938E+00  0.683293603292E+00  0.703493726469E+00  0.703205115788E+00
  0.712210715465E+00  0.689281360704E+00  0.648180497934E+00  0.702032946091E+00  0.718598881717E+00
  0.000000000000E+00  0.000000000000E+00  0.000000000000E+00  0.453171509800E+00  0.000000000000E+00  0.372391842043E+00  0.660895067796E+00
  0.608770363356E+00  0.000000000000E+00  0.445051192929E+00  0.670770500070E+00  0.550489415876E+00  0.669101179750E+00  0.618937086239E+00
  0.638968075238E+00  0.568552043827E+00  0.570855350153E+00  0.597984546560E+00  0.630072511237E+00  0.574101854183E+00  0.561034919310E+00
  0.549783392840E+00  0.520651468293E+00  0.530521652543E+00  0.532006373690E+00  0.568858841703E+00  0.511169245378E+00  0.513005906143E+00
  0.540298317294E+00  0.529096499419E+00  0.597949074333E+00  0.576321331359E+00  0.504726754837E+00
  0.129312505197E+01  0.125932253834E+01  0.127106527713E+01  0.112252166836E+01  0.129037527022E+01  0.115082135017E+01  0.104174019022E+01
  0.102930340986E+01  0.113554040473E+01  0.106511295291E+01  0.103669620077E+01  0.110312883129E+01  0.103668228770E+01  0.101931152080E+01
  0.100404215122E+01  0.100534733066E+01  0.981863836642E+00  0.965733206755E+00  0.988748363689E+00  0.955486486107E+00  0.958695554340E+00
  0.968499751256E+00  0.980098073550E+00  0.963707713709E+00  0.968843295533E+00  0.966092163284E+00  0.976104737054E+00  0.984294053624E+00
  0.973595199163E+00  0.985757516477E+00  0.978651187412E+00  0.972029381460E+00  0.987210314572E+00
        15         7        19        19
         8        20        19        19
        18        19        21        21
         7         4         8         8
         3         6         4         4
        19         7         8         8
        19        18        15        15
        14        13        15        15
         8        22        20        20
        27        24        22        22
        19        20        21        21
        32        26        21        21
        17        18        26        26
        17        16        15        15
        25        29        21        21
        12         7        13        13
        10         8         6         6
        25        20        24        24
         4         6         8         8
        12         2         4         4
        10        23        22        22
        26        31        17        17
        30        16        17        17
         4         7        12        12
        13        11        12        12
        21        20        25        25
        24        28        25        25
        22         8        10        10
         6         5        10        10
        31        26        32        32
         4         2         3         3
         5         6         3         3
        11        13        14        14
        22        23        27        27
        28        24        27        27
        15        13         7         7
         2        12         1         1
        29        25        33        33
        23        10         9         9
        21        26        18        18
        16        14        15        15
        18        17        15        15
        29        32        21        21
        22        24        20        20
        28        33        25        25
        11         1        12        12
        31        30        17        17
         5         9        10        10
zone t="boundary 3 bc-3", solutiontime= 0.1000000E+02, strandid=1003, i=33, j=48, f=feblock
  0.375000000000E+01  0.250000000000E+01  0.500000000000E+01  0.403552511878E+01  0.288078410721E+01  0.125000000000E+01  0.190974100652E+01
  0.500000000000E+01  0.326683758169E+01  0.423153924130E+01  0.201431602454E+01  0.000000000000E+00  0.963108083381E+00  0.500000000000E+01
  0.267000324704E+01  0.385533350601E+01  0.893127759452E+00  0.154774304040E+01  0.000000000000E+00  0.500000000000E+01  0.315249557942E+01
  0.218329375016E+01  0.398173246726E+01  0.000000000000E+00  0.698517061619E+00  0.964171764089E+00  0.125000000000E+01  0.000000000000E+00
  0.500000000000E+01  0.310324758057E+01  0.250000000000E+01  0.375000000000E+01  0.000000000000E+00
  0.250000000000E+01  0.250000000000E+01  0.250000000000E+01  0.250000000000E+01  0.250000000000E+01  0.250000000000E+01  0.250000000000E+01
  0.250000000000E+01  0.250000000000E+01  0.250000000000E+01  0.250000000000E+01  0.250000000000E+01  0.250000000000E+01  0.250000000000E+01
  0.250000000000E+01  0.250000000000E+01  0.250000000000E+01  0.250000000000E+01  0.250000000000E+01  0.250000000000E+01  0.250000000000E+01
  0.250000000000E+01  0.250000000000E+01  0.250000000000E+01  0.250000000000E+01  0.250000000000E+01  0.250000000000E+01  0.250000000000E+01
  0.250000000000E+01  0.250000000000E+01  0.250000000000E+01  0.250000000000E+01  0.250000000000E+01
  0.000000000000E+00  0.000000000000E+00  0.000000000000E+00  0.101201586758E+01  0.904659890645E+00  0.000000000000E+00  0.717002441913E+00
  0.125000000000E+01  0.188609243358E+01  0.191586535653E+01  0.176246431481E+01  0.000000000000E+00  0.961328577125E+00  0.250000000000E+01
  0.285047954584E+01  0.293121848150E+01  0.205246550326E+01  0.292817774674E+01  0.125000000000E+01  0.375000000000E+01  0.363585050272E+01
  0.395907379566E+01  0.406975391361E+01  0.250000000000E+01  0.306828197606E+01  0.397245519226E+01  0.500000000000E+01  0.375000000000E+01
  0.500000000000E+01  0.433168271247E+01  0.500000000000E+01  0.500000000000E+01  0.500000000000E+01
  0.665034337085E+00  0.699759747919E+00  0.524497230094E+00  0.748293138470E+00  0.765819045202E+00  0.743775455593E+00  0.809306629466E+00
  0.789923144389E+00  0.862078209284E+00  0.880074079500E+00  0.894575622264E+00  0.865191083530E+00  0.932891808405E+00  0.948973738952E+00
  0.941997549228E+00  0.951809100997E+00  0.100461202718E+01  0.984676475147E+00  0.106193712452E+01  0.987726425457E+00  0.968136315487E+00
  0.984559548766E+00  0.983357633408E+00  0.996154942452E+00  0.988071678874E+00  0.988798225096E+00  0.103177727771E+01  0.999188488165E+00
  0.975810550261E+00  0.989068591853E+00  0.991639449275E+00  0.935443934706E+00  0.102296803366E+01
  0.000000000000E+00  0.000000000000E+00  0.000000000000E+00  0.579849077748E+00  0.486082854478E+00  0.000000000000E+00  0.391868434824E+00
  0.657297033488E+00  0.653021375984E+00  0.666905454906E+00  0.596514155549E+00  0.000000000000E+00  0.438826568878E+00  0.601396758850E+00
  0.620538620276E+00  0.635496760315E+00  0.539211986352E+00  0.551493776157E+00  0.497879969209E+00  0.562233672496E+00  0.593133155959E+00
  0.550492263896E+00  0.581559456416E+00  0.512751383796E+00  0.524647868552E+00  0.524821645272E+00  0.531567415366E+00  0.512316471478E+00
  0.522688370734E+00  0.567460981000E+00  0.565269380289E+00  0.578905756086E+00  0.503741894593E+00
  0.000000000000E+00  0.000000000000E+00  0.000000000000E+00  0.000000000000E+00  0.000000000000E+00  0.000000000000E+00  0.000000000000E+00
  0.000000000000E+00  0.000000000000E+00  0.000000000000E+00  0.000000000000E+00  0.000000000000E+00  0.000000000000E+00  0.000000000000E+00
  0.000000000000E+00  0.000000000000E+00  0.000000000000E+00  0.000000000000E+00  0.000000000000E+00  0.000000000000E+00  0.000000000000E+00
  0.000000000000E+00  0.000000000000E+00  0.000000000000E+00  0.000000000000E+00  0.000000000000E+00  0.000000000000E+00  0.000000000000E+00
  0.000000000000E+00  0.000000000000E+00  0.000000000000E+00  0.000000000000E+00  0.000000000000E+00
  0.000000000000E+00  0.000000000000E+00  0.000000000000E+00 -0.306155295184E-01  0.394268080270E-01  0.000000000000E+00  0.357351576260E-01
 -0.176440211345E+00  0.279650273848E-04 -0.865062833800E-01  0.340624105467E-01  0.000000000000E+00  0.418935864306E-02 -0.120137624350E+00
 -0.727886722429E-02 -0.442849356115E-01  0.173819642092E-01 -0.321470350773E-02 -0.392812973654E-02 -0.553852946299E-01 -0.349607472750E-01
 -0.220577056739E-01 -0.329139491917E-01 -0.139038418489E-02 -0.512623455855E-02 -0.105018502961E-01 -0.978154328753E-02 -0.148445257534E-02
  0.797802594064E-02 -0.342751524960E-01 -0.519955579858E-01 -0.213010958798E-01  0.133524095033E-02
  0.602495236612E+00  0.648164280903E+00  0.484820659772E+00  0.589090866776E+00  0.619432795321E+00  0.700388149326E+00  0.658055567319E+00
  0.586082167438E+00  0.637248112654E+00  0.647483138580E+00  0.655270418404E+00  0.699077252637E+00  0.716098936190E+00  0.689772294438E+00
  0.663684911820E+00  0.678607778074E+00  0.689790607261E+00  0.669778715928E+00  0.737341848558E+00  0.705615921330E+00  0.670270206190E+00
  0.672810828062E+00  0.689954891071E+00  0.695187893201E+00  0.683096646165E+00  0.685329999320E+00  0.717152911190E+00  0.699834164597E+00
  0.691700384995E+00  0.681598645830E+00  0.688742988534E+00  0.657154211219E+00  0.720064084309E+00
  0.000000000000E+00  0.000000000000E+00  0.000000000000E+00  0.553095594595E+00  0.458285598956E+00  0.000000000000E+00  0.368807584628E+00
  0.667758786338E+00  0.641922258645E+00  0.662626560093E+00  0.590013409505E+00  0.000000000000E+00  0.423328796373E+00  0.607950594472E+00
  0.624854047803E+00  0.637627096087E+00  0.550251962185E+00  0.565151761831E+00  0.504997365853E+00  0.564916220444E+00  0.603510167292E+00
  0.563261499697E+00  0.587719278389E+00  0.518748395975E+00  0.533307601417E+00  0.532891286995E+00  0.538958028488E+00  0.517371218575E+00
  0.524750848184E+00  0.578777450617E+00  0.575664301905E+00  0.584134533220E+00  0.507447404719E+00
  0.126834553379E+01  0.129677363690E+01  0.129409439123E+01  0.110214456219E+01  0.113239011080E+01  0.131833257159E+01  0.113835443910E+01
  0.103872767907E+01  0.103487983817E+01  0.103000010468E+01  0.102549025810E+01  0.113120462326E+01  0.107465678403E+01  0.101760583310E+01
  0.986370800338E+00  0.998152768562E+00  0.961273430972E+00  0.952282527272E+00  0.972071287598E+00  0.100013755267E+01  0.969262565256E+00
  0.956707149372E+00  0.982284384320E+00  0.977019747637E+00  0.967880493974E+00  0.970331433347E+00  0.973091865226E+00  0.980563569377E+00
  0.992385805558E+00  0.964784557940E+00  0.972369730402E+00  0.983507254228E+00  0.985455737483E+00
        15         9        16        16
        15        18        11        11
        22        15        21        21
        11         5         9         9
         5         7         2         2
        11         9        15        15
        16        21        15        15
        16        10        14        14
        18        17        11        11
        17        25        24        24
        22        18        15        15
        22        30        31        31
        30        21        23        23
        16        20        23        23
        22        27        26        26
        10         9         4         4
         7        11        13        13
        25        18        26        26
        11         7         5         5
         5         1         4         4
        17        19        13        13
        23        32        30        30
        23        20        29        29
         4         9         5         5
         4         8        10        10
        26        18        22        22
        26        28        25        25
        13        11        17        17
        13         6         7         7
        31        30        32        32
         2         1         5         5
         2         7         6         6
        14        10         8         8
        24        19        17        17
        24        25        28        28
         9        10        16        16
         3         4         1         1
        33        26        27        27
        12        13        19        19
        21        30        22        22
        16        14        20        20
        16        23        21        21
        22        31        27        27
        18        25        17        17
        26        33        28        28
         4         3         8         8
        23        29        32        32
        13        12         6         6
zone t="boundary 4 bc-4", solutiontime= 0.1000000E+02, strandid=1004, i=32, j=46, f=feblock
  0.125000000000E+01  0.219251206392E+01  0.103724302461E+01  0.500000000000E+01  0.250000000000E+01  0.375000000000E+01  0.404200324774E+01
  0.500000000000E+01  0.000000000000E+00  0.310152362409E+01  0.202479342020E+01  0.324151231464E+01  0.922061490191E+00  0.000000000000E+00
  0.299062775774E+01  0.394624082883E+01  0.500000000000E+01  0.409252726285E+01  0.500000000000E+01  0.429310310915E+01  0.175434191980E+01
  0.284428995242E+01  0.000000000000E+00  0.000000000000E+00  0.715990576545E+00  0.930412228790E+00  0.125000000000E+01  0.187029682677E+01
  0.500000000000E+01  0.375000000000E+01  0.250000000000E+01  0.000000000000E+00
  0.250000000000E+01  0.157686156160E+01  0.146289271009E+01  0.250000000000E+01  0.250000000000E+01  0.250000000000E+01  0.155830813274E+01
  0.125000000000E+01  0.250000000000E+01  0.177790177481E+01  0.477386199275E+00  0.742988685424E+00  0.308372018325E+00  0.125000000000E+01
 -0.487811078581E+00 -0.144524380962E+01 -0.125000000000E+01 -0.345533899378E+00  0.000000000000E+00  0.627766083140E+00 -0.739814786992E+00
 -0.158811787973E+01  0.000000000000E+00 -0.125000000000E+01 -0.600232012419E+00 -0.154800130438E+01 -0.250000000000E+01 -0.178862290564E+01
 -0.250000000000E+01 -0.250000000000E+01 -0.250000000000E+01 -0.250000000000E+01
  0.500000000000E+01  0.500000000000E+01  0.500000000000E+01  0.500000000000E+01  0.500000000000E+01  0.500000000000E+01  0.500000000000E+01
  0.500000000000E+01  0.500000000000E+01  0.500000000000E+01  0.500000000000E+01  0.500000000000E+01  0.500000000000E+01  0.500000000000E+01
  0.500000000000E+01  0.500000000000E+01  0.500000000000E+01  0.500000000000E+01  0.500000000000E+01  0.500000000000E+01  0.500000000000E+01
  0.500000000000E+01  0.500000000000E+01  0.500000000000E+01  0.500000000000E+01  0.500000000000E+01  0.500000000000E+01  0.500000000000E+01
  0.500000000000E+01  0.500000000000E+01  0.500000000000E+01  0.500000000000E+01
  0.103177727771E+01  0.101685518100E+01  0.101798867282E+01  0.975810550261E+00  0.991639449275E+00  0.935443934706E+00  0.954021899686E+00
  0.972894248590E+00  0.102296803366E+01  0.958024493499E+00  0.101565584252E+01  0.955288419974E+00  0.102190885531E+01  0.101792044999E+01
  0.967722040616E+00  0.958694366372E+00  0.983253854488E+00  0.951723517348E+00  0.973724180409E+00  0.957262469150E+00  0.102875056504E+01
  0.989898610250E+00  0.101175848980E+01  0.101413513341E+01  0.102232547885E+01  0.101986349214E+01  0.102413713883E+01  0.102592531768E+01
  0.978936390396E+00  0.927248348319E+00  0.101112800011E+01  0.101907204529E+01
  0.531567415366E+00  0.552859225722E+00  0.525793909520E+00  0.522688370734E+00  0.565269380289E+00  0.578905756086E+00  0.552559311839E+00
  0.524516866495E+00  0.503741894593E+00  0.575225897798E+00  0.548754925414E+00  0.580866845333E+00  0.524886490440E+00  0.499676073060E+00
  0.578467605914E+00  0.552817355016E+00  0.517166183261E+00  0.555876201216E+00  0.518503725672E+00  0.546280372940E+00  0.548802486031E+00
  0.569125005674E+00  0.497786304576E+00  0.499137696287E+00  0.518762882698E+00  0.523829807814E+00  0.533047652702E+00  0.554710516895E+00
  0.522178928812E+00  0.585062430171E+00  0.567255373932E+00  0.501487324539E+00
  0.000000000000E+00  0.161421673150E-02  0.644932412892E-04  0.000000000000E+00  0.000000000000E+00  0.000000000000E+00  0.468481851086E-02
 -0.144182139574E-02  0.000000000000E+00  0.242048081857E-02 -0.156635023587E-03  0.412740039004E-03  0.389947627047E-03  0.994751279739E-03
  0.160386958486E-02 -0.462367969813E-03  0.165969747055E-02  0.243073967834E-02 -0.283206077350E-02 -0.621439958500E-02  0.558119041368E-03
 -0.367789989932E-02 -0.957617354958E-03 -0.209629229036E-02 -0.139680952150E-02 -0.192317391705E-03  0.000000000000E+00  0.144813604650E-02
  0.000000000000E+00  0.000000000000E+00  0.000000000000E+00  0.000000000000E+00