# vtk DataFile Version 2.0
FUN3D:global_image_vtk
ASCII
DATASET UNSTRUCTURED_GRID
POINTS 213 double
    0.0000000000000000E+00    0.2500000000000000E+01    0.0000000000000000E+00
    0.1250000000000000E+01    0.2500000000000000E+01    0.0000000000000000E+00
    0.2500000000000000E+01    0.2500000000000000E+01    0.0000000000000000E+00
    0.3750000000000000E+01    0.2500000000000000E+01    0.0000000000000000E+00
    0.5000000000000000E+01    0.2500000000000000E+01    0.0000000000000000E+00
    0.5000000000000000E+01    0.1250000000000000E+01    0.0000000000000000E+00
    0.5000000000000000E+01    0.0000000000000000E+00    0.0000000000000000E+00
    0.5000000000000000E+01   -0.1250000000000000E+01    0.0000000000000000E+00
    0.5000000000000000E+01   -0.2500000000000000E+01    0.0000000000000000E+00
    0.3750000000000000E+01   -0.2500000000000000E+01    0.0000000000000000E+00
    0.2500000000000000E+01   -0.2500000000000000E+01    0.0000000000000000E+00
    0.1250000000000000E+01   -0.2500000000000000E+01    0.0000000000000000E+00
    0.0000000000000000E+00   -0.2500000000000000E+01    0.0000000000000000E+00
    0.0000000000000000E+00   -0.1250000000000000E+01    0.0000000000000000E+00
    0.0000000000000000E+00    0.0000000000000000E+00    0.0000000000000000E+00
    0.0000000000000000E+00    0.1250000000000000E+01    0.0000000000000000E+00
    0.9058375365086910E+00    0.1578994732800803E+01    0.0000000000000000E+00
    0.3982050490726493E+01   -0.1583989954232354E+01    0.0000000000000000E+00
    0.4033849428301197E+01    0.1453322699199022E+01    0.0000000000000000E+00
    0.1040505887381675E+01   -0.1479596339503735E+01    0.0000000000000000E+00
    0.1099454400140349E+01   -0.3227322616384110E+00    0.0000000000000000E+00
    0.7354504170366591E+00    0.6593508822075582E+00    0.0000000000000000E+00
    0.1622302608453282E+01    0.8256214013940779E+00    0.0000000000000000E+00
    0.2145871574390382E+01   -0.1650070333782557E+01    0.0000000000000000E+00
    0.4086422318222992E+01   -0.4612828702537229E+00    0.0000000000000000E+00
    0.2979540174134984E+01   -0.8579242121530853E+00    0.0000000000000000E+00
    0.3045064261640043E+01   -0.1836846154397680E+01    0.0000000000000000E+00
    0.3428197553792836E+01    0.3508002863614053E+00    0.0000000000000000E+00
    0.4309693860063405E+01    0.5185680230613409E+00    0.0000000000000000E+00
    0.1827272193562204E+01    0.1738996113203182E+01    0.0000000000000000E+00
    0.2808563282768077E+01    0.1325493893339706E+01    0.0000000000000000E+00
    0.1895995683864404E+01   -0.8731419609589618E+00    0.0000000000000000E+00
    0.2273179336307740E+01    0.4906150219227333E-01    0.0000000000000000E+00
    0.5000000000000000E+01    0.2500000000000000E+01    0.1250000000000000E+01
    0.5000000000000000E+01    0.2500000000000000E+01    0.2500000000000000E+01
    0.5000000000000000E+01    0.2500000000000000E+01    0.3750000000000000E+01
    0.5000000000000000E+01    0.2500000000000000E+01    0.5000000000000000E+01
    0.3750000000000000E+01    0.2500000000000000E+01    0.5000000000000000E+01
    0.2500000000000000E+01    0.2500000000000000E+01    0.5000000000000000E+01
    0.1250000000000000E+01    0.2500000000000000E+01    0.5000000000000000E+01
    0.0000000000000000E+00    0.2500000000000000E+01    0.5000000000000000E+01
    0.0000000000000000E+00    0.2500000000000000E+01    0.3750000000000000E+01
    0.0000000000000000E+00    0.2500000000000000E+01    0.2500000000000000E+01
    0.0000000000000000E+00    0.2500000000000000E+01    0.1250000000000000E+01
    0.9631080833812172E+00    0.2500000000000000E+01    0.9613285771248219E+00
    0.3981732467264904E+01    0.2500000000000000E+01    0.4069753913607991E+01
    0.4035525118777670E+01    0.2500000000000000E+01    0.1012015867579395E+01
    0.9641717640894248E+00    0.2500000000000000E+01    0.3972455192261839E+01
    0.1547743040396780E+01    0.2500000000000000E+01    0.2928177746738678E+01
    0.6985170616192014E+00    0.2500000000000000E+01    0.3068281976055466E+01
    0.8931277594515110E+00    0.2500000000000000E+01    0.2052465503257726E+01
    0.2183293750162785E+01    0.2500000000000000E+01    0.3959073795658649E+01
    0.3855333506014705E+01    0.2500000000000000E+01    0.2931218481500625E+01
    0.3152495579421047E+01    0.2500000000000000E+01    0.3635850502723324E+01
    0.3103247580566054E+01    0.2500000000000000E+01    0.4331682712472464E+01
    0.3266837581688852E+01    0.2500000000000000E+01    0.1886092433583972E+01
    0.4231539241296245E+01    0.2500000000000000E+01    0.1915865356532799E+01
    0.1909741006522088E+01    0.2500000000000000E+01    0.7170024419130505E+00
    0.2880784107213163E+01    0.2500000000000000E+01    0.9046598906449592E+00
    0.2014316024535771E+01    0.2500000000000000E+01    0.1762464314805728E+01
    0.2670003247036656E+01    0.2500000000000000E+01    0.2850479545835163E+01
    0.5000000000000000E+01    0.1250000000000000E+01    0.5000000000000000E+01
    0.5000000000000000E+01    0.0000000000000000E+00    0.5000000000000000E+01
    0.5000000000000000E+01   -0.1250000000000000E+01    0.5000000000000000E+01
    0.5000000000000000E+01   -0.2500000000000000E+01    0.5000000000000000E+01
    0.5000000000000000E+01   -0.2500000000000000E+01    0.3750000000000000E+01
    0.5000000000000000E+01   -0.2500000000000000E+01    0.2500000000000000E+01
    0.5000000000000000E+01   -0.2500000000000000E+01    0.1250000000000000E+01
    0.5000000000000000E+01    0.1578994732800803E+01    0.9058375365086910E+00
    0.5000000000000000E+01   -0.1583989954232354E+01    0.3982050490726493E+01
    0.5000000000000000E+01    0.1453322699199022E+01    0.4033849428301197E+01
    0.5000000000000000E+01   -0.1479596339503735E+01    0.1040505887381675E+01
    0.5000000000000000E+01   -0.3227322616384110E+00    0.1099454400140349E+01
    0.5000000000000000E+01    0.6593508822075582E+00    0.7354504170366591E+00
    0.5000000000000000E+01    0.8256214013940779E+00    0.1622302608453282E+01
    0.5000000000000000E+01   -0.1650070333782557E+01    0.2145871574390382E+01
    0.5000000000000000E+01   -0.4612828702537229E+00    0.4086422318222992E+01
    0.5000000000000000E+01   -0.8579242121530853E+00    0.2979540174134984E+01
    0.5000000000000000E+01   -0.1836846154397680E+01    0.3045064261640043E+01
    0.5000000000000000E+01    0.3508002863614053E+00    0.3428197553792836E+01
    0.5000000000000000E+01    0.5185680230613409E+00    0.4309693860063405E+01
    0.5000000000000000E+01    0.1738996113203182E+01    0.1827272193562204E+01
    0.5000000000000000E+01    0.1325493893339706E+01    0.2808563282768077E+01
    0.5000000000000000E+01   -0.8731419609589618E+00    0.1895995683864404E+01
    0.5000000000000000E+01    0.4906150219227333E-01    0.2273179336307740E+01
    0.0000000000000000E+00    0.1250000000000000E+01    0.5000000000000000E+01
    0.0000000000000000E+00    0.0000000000000000E+00    0.5000000000000000E+01
    0.0000000000000000E+00   -0.1250000000000000E+01    0.5000000000000000E+01
    0.0000000000000000E+00   -0.2500000000000000E+01    0.5000000000000000E+01
    0.1250000000000000E+01   -0.2500000000000000E+01    0.5000000000000000E+01
    0.2500000000000000E+01   -0.2500000000000000E+01    0.5000000000000000E+01
    0.3750000000000000E+01   -0.2500000000000000E+01    0.5000000000000000E+01
    0.4042003247744892E+01    0.1558308132739014E+01    0.5000000000000000E+01
    0.9304122287900499E+00   -0.1548001304379777E+01    0.5000000000000000E+01
    0.1037243024609388E+01    0.1462892710085612E+01    0.5000000000000000E+01
    0.3946240828834967E+01   -0.1445243809615570E+01    0.5000000000000000E+01
    0.4092527262848217E+01   -0.3455338993778935E+00    0.5000000000000000E+01
    0.4293103109154542E+01    0.6277660831404320E+00    0.5000000000000000E+01
    0.3241512314643519E+01    0.7429886854239611E+00    0.5000000000000000E+01
    0.2844289952419609E+01   -0.1588117879734118E+01    0.5000000000000000E+01
    0.7159905765450471E+00   -0.6002320124191652E+00    0.5000000000000000E+01
    0.1754341919796891E+01   -0.7398147869923652E+00    0.5000000000000000E+01
    0.1870296826774691E+01   -0.1788622905643739E+01    0.5000000000000000E+01
    0.9220614901912976E+00    0.3083720183248586E+00    0.5000000000000000E+01
    0.3101523624086016E+01    0.1777901774806180E+01    0.5000000000000000E+01
    0.2192512063922564E+01    0.1576861561598471E+01    0.5000000000000000E+01
    0.2024793420196460E+01    0.4773861992750707E+00    0.5000000000000000E+01
    0.2990627757741975E+01   -0.4878110785814084E+00    0.5000000000000000E+01
    0.0000000000000000E+00   -0.2500000000000000E+01    0.1250000000000000E+01
    0.0000000000000000E+00   -0.2500000000000000E+01    0.2500000000000000E+01
    0.0000000000000000E+00   -0.2500000000000000E+01    0.3750000000000000E+01
    0.0000000000000000E+00    0.1558308132739014E+01    0.4042003247744892E+01
    0.0000000000000000E+00   -0.1548001304379777E+01    0.9304122287900499E+00
    0.0000000000000000E+00    0.1462892710085612E+01    0.1037243024609388E+01
    0.0000000000000000E+00   -0.1445243809615570E+01    0.3946240828834967E+01
    0.0000000000000000E+00   -0.3455338993778935E+00    0.4092527262848217E+01
    0.0000000000000000E+00    0.6277660831404320E+00    0.4293103109154542E+01
    0.0000000000000000E+00    0.7429886854239611E+00    0.3241512314643519E+01
    0.0000000000000000E+00   -0.1588117879734118E+01    0.2844289952419609E+01
    0.0000000000000000E+00   -0.6002320124191652E+00    0.7159905765450471E+00
    0.0000000000000000E+00   -0.7398147869923652E+00    0.1754341919796891E+01
    0.0000000000000000E+00   -0.1788622905643739E+01    0.1870296826774691E+01
    0.0000000000000000E+00    0.3083720183248586E+00    0.9220614901912976E+00
    0.0000000000000000E+00    0.1777901774806180E+01    0.3101523624086016E+01
    0.0000000000000000E+00    0.1576861561598471E+01    0.2192512063922564E+01
[...]
POINT_DATA 213
SCALARS rho double 1
LOOKUP_TABLE default
   0.7597296329425947E+00
   0.8473850753341249E+00
   0.8172210720706353E+00
   0.7867707558442447E+00
   0.5954341553471751E+00
   0.5273237372313848E+00
   0.5169202305123286E+00
   0.5239660269386941E+00
   0.5790259589068014E+00
   0.8008453268002973E+00
   0.8228411232822154E+00
   0.8572172352551927E+00
   0.6668444807420286E+00
   0.7626011461364792E+00
   0.6220789197229202E+00
   0.7447456161365119E+00
   0.8170499400200940E+00
   0.8049083501341433E+00
   0.7940305666334281E+00
   0.8531780760822095E+00
   0.8183309942417594E+00
   0.8488187641566090E+00
   0.8378372031584895E+00
   0.8316366115402479E+00
   0.8086459768726089E+00
   0.8209485779062194E+00
   0.8173014217186594E+00
   0.8151264264874144E+00
   0.8025186992313552E+00
   0.8413700670172207E+00
   0.8111251943856651E+00
   0.8330278968021347E+00
   0.8329944116862821E+00
   0.9323801347795120E+00
   0.1011626391387442E+01
   0.1005309604237648E+01
   0.9944169870691287E+00
   0.9937146876199945E+00
   0.9939429069720003E+00
   0.9954617035817214E+00
   0.9952368459693623E+00
   0.9951132800655673E+00
   0.9914646123742311E+00
   0.1031100621778421E+01
   0.9808308109571766E+00
   0.9957688411429844E+00
   0.9138223904732513E+00
   0.9932944612081641E+00
   0.9916191069201991E+00
   0.9924159836351779E+00
   0.9983227380499746E+00
   0.9920704370328759E+00
   0.9993111557270328E+00
   0.9943310505691766E+00
   0.9924546209840922E+00
   0.9761442035132495E+00
   0.9771469935562843E+00
   0.9332959452321304E+00
   0.9211287440576198E+00
   0.9860189723059573E+00
   0.9911415752975921E+00
   0.9946626465705749E+00
   0.9949510935175924E+00
   0.9944058064531770E+00
   0.9937232204969697E+00
   0.1006958173716466E+01
   0.1013043473021798E+01
   0.9394681861237224E+00
   0.8647512445052682E+00
   0.1004643338010362E+01
   0.1001548581832912E+01
   0.8764518091793168E+00
   0.8762762909990769E+00
   0.8020585831711844E+00
   0.9715573012807188E+00
   0.1008467767364584E+01
   0.1004127508484413E+01
   0.1022510750187465E+01
   0.1015799022772774E+01
   0.1017142599998520E+01
   0.1002160780074422E+01
   0.9851623872199238E+00
   0.1012226285053935E+01
   0.9962342755677652E+00
   0.1022235119582776E+01
   0.9951093233761580E+00
   0.9949167682287469E+00
   0.9955777628175291E+00
   0.9956938698473722E+00
   0.9955465151792868E+00
   0.9937555584634276E+00
   0.9947679129802881E+00
   0.9929272532748679E+00
   0.9956556759240526E+00
   0.9957023641171615E+00
   0.9915398360716352E+00
   0.9925728703826602E+00
   0.9928064082315954E+00
   0.9927976173454350E+00
   0.9940931370417845E+00
   0.9954152091603699E+00
   0.9944492812258561E+00
   0.9943669371715963E+00
   0.9958089149617397E+00
   0.9938242037816540E+00
   0.9942583124395350E+00
   0.9935352839812325E+00
   0.9937687171073867E+00
   0.1035047294535618E+01
   0.9902822192872694E+00
   0.9940891238139786E+00
   0.9946829477038155E+00
   0.1092883884406640E+01
   0.1072099285006541E+01
   0.9938530494303808E+00
   0.9950004403303350E+00
   0.9952472545107877E+00
   0.9871899143122043E+00
   0.9864774754500418E+00
   0.1092538803898325E+01
   0.9801072811914500E+00
   0.9872728826666705E+00
   0.1088311330715054E+01
   0.9944307042300704E+00
   0.9903950195897222E+00
   0.9659684655420299E+00
   0.9880057840261056E+00
   0.9899003693282005E+00
   0.9953575072225448E+00
   0.9302658736785183E+00
   0.9939860418111459E+00
   0.9909489830957906E+00
   0.9930873219049677E+00
   0.9987922796849369E+00
   0.9906699315519125E+00
   0.1000441524028430E+01
   0.9919914330713050E+00
   0.9926100801773681E+00
   0.9876829263906123E+00
   0.9835952756594079E+00
   0.9398306679456592E+00
   0.9276744507783639E+00
   0.9919898742919016E+00
   0.9903242645681651E+00
   0.9956362113914426E+00
   0.9935740038589919E+00
   0.9963311468116273E+00
   0.1002038375442349E+01
   0.1002242946704682E+01
   0.1029063299226585E+01
   0.1004382120200320E+01
   0.9931489249820077E+00
   0.9926451381434608E+00
   0.9920651737832733E+00
   0.9968829909970431E+00
   0.9545429180762928E+00
   0.9924222924209034E+00
   0.9925991157297231E+00
   0.9898318305625481E+00
   0.9991912555400708E+00
   0.9966017038811199E+00
   0.1001987906786296E+01
   0.9925136953715399E+00
   0.9927036502229610E+00
   0.9940658071682206E+00
   0.1002240711830693E+01
   0.9934992604949576E+00
   0.9923150525238461E+00
   0.1009135123671222E+01
   0.9969152941316881E+00
   0.9935252621037151E+00
   0.9936526283467311E+00
   0.9943223895234745E+00
   0.9509456831939483E+00
   0.9403875459201563E+00
   0.9964087205263145E+00
   0.9865851155101952E+00
   0.9516650141533386E+00
   0.9980341947149882E+00
   0.9650427835019740E+00
   0.1020395072977228E+01
   0.1017021116028959E+01
   0.9965083169118125E+00
   0.9927684036921991E+00
   0.1001242485180841E+01
   0.9957125853799789E+00
   0.9562409798394402E+00
   0.9985439573901701E+00
   0.1006378609119680E+01
   0.1001905653750300E+01
   0.9893623374292217E+00
   0.9558412495986759E+00
   0.8840540565334958E+00
   0.9643847031910653E+00
   0.9858030136934397E+00
   0.9445102320970903E+00
   0.9554015157049682E+00
   0.9481701008874930E+00
   0.9254017844539493E+00
   0.8911974835150038E+00
   0.9897338724010766E+00
   0.9920485447340965E+00
   0.9946030242311901E+00
   0.1002963094417548E+01
   0.9006081409046772E+00
   0.8823722059547301E+00
   0.9055732281159184E+00
   0.9920278979588133E+00
   0.9932658711069383E+00
   0.9987529079831065E+00
   0.9864312489734792E+00
   0.9775626489746431E+00
   0.9184805738269438E+00
SCALARS u double 1
LOOKUP_TABLE default
   0.0000000000000000E+00
   0.0000000000000000E+00
   0.0000000000000000E+00
   0.0000000000000000E+00
   0.0000000000000000E+00
   0.0000000000000000E+00
   0.0000000000000000E+00
   0.0000000000000000E+00
   0.0000000000000000E+00
   0.0000000000000000E+00
   0.0000000000000000E+00
   0.0000000000000000E+00
   0.0000000000000000E+00
   0.0000000000000000E+00
   0.0000000000000000E+00
   0.0000000000000000E+00
   0.0000000000000000E+00
   0.0000000000000000E+00
   0.0000000000000000E+00
   0.0000000000000000E+00
   0.0000000000000000E+00
   0.0000000000000000E+00
   0.0000000000000000E+00
   0.0000000000000000E+00
   0.0000000000000000E+00
   0.0000000000000000E+00
   0.0000000000000000E+00
   0.0000000000000000E+00
   0.0000000000000000E+00
   0.0000000000000000E+00
   0.0000000000000000E+00
   0.0000000000000000E+00
   0.0000000000000000E+00
   0.5101418215635597E+00
   0.5086678262067859E+00
   0.5049238234493368E+00
   0.4957018272736023E+00
   0.4968496518494568E+00
   0.5017158531513805E+00
   0.5036733523352415E+00
   0.5055927037038728E+00
   0.5048035047277305E+00
   0.5038508430352302E+00
   0.4859807685109837E+00
   0.4155721445171530E+00
   0.5075932966054185E+00
   0.4623384297765706E+00
   0.5061048783563433E+00
   0.5213928843651681E+00
   0.5075258402142513E+00
   0.5245296623415260E+00
   0.5097268895504402E+00
   0.5466381846449435E+00
   0.5199036759838054E+00
   0.5047931078453011E+00
   0.5520702443900118E+00
   0.5568982552707837E+00
   0.3281450150988370E+00
   0.3932649542200214E+00
   0.5249962016984077E+00
   0.5415896123768372E+00
   0.4963696457785560E+00
   0.4965171581602593E+00
   0.4947644168991150E+00
   0.4948827703557236E+00
   0.5033367211600004E+00
   0.5109320829479542E+00
   0.5051398066060410E+00
   0.4975413067170169E+00
   0.5019328584351286E+00
   0.5025582157167041E+00
   0.5130550524075099E+00
   0.5238969950620155E+00
   0.5278997616421653E+00
   0.5210649374779872E+00
   0.5071153622724766E+00
   0.5016392282347107E+00
   0.5048787070212640E+00
   0.5072737720738330E+00
   0.5070144738436735E+00
   0.4991103985094869E+00
   0.5134318198032282E+00
   0.5139124763501357E+00
   0.5204549648877965E+00
   0.5062534936340564E+00
   0.5050417167136348E+00
   0.5051793328294452E+00
   0.5047658230729053E+00
   0.5047927710593448E+00
   0.5051341695426919E+00
   0.5048444778111427E+00
   0.4982987576552216E+00
   0.4962588214778914E+00
   0.5053132325459003E+00
   0.5040535971952420E+00
   0.4947114056156471E+00
   0.4973045353847425E+00
   0.4971173995228216E+00
   0.5003155413856463E+00
   0.5029345051962362E+00
   0.5055187159285545E+00
   0.5054224651536356E+00
   0.5056143736177016E+00
   0.5056350560539613E+00
   0.5002385876064150E+00
   0.5038395978547815E+00
   0.5034815067907390E+00
   0.5017882154887301E+00
   0.4970285442410305E+00
   0.5051404995275195E+00
   0.5052833826492927E+00
   0.5031222827102294E+00
   0.4933516071373787E+00
   0.4979600521818096E+00
   0.5037335876842411E+00
   0.5018677111617046E+00
   0.5031259705856244E+00
   0.5051294574773300E+00
   0.5017734241032418E+00
   0.4525680501475874E+00
   0.5168890568779694E+00
   0.4991378787112732E+00
   0.4902054773658827E+00
   0.5057969327289866E+00
   0.5006344598706327E+00
   0.5101238785293086E+00
   0.5048739181673239E+00
   0.4203676178999782E+00
   0.5046062626134833E+00
   0.4619372314020723E+00
   0.5051598273470793E+00
   0.5231083580561871E+00
   0.5053591582715101E+00
   0.5224296698221682E+00
   0.5099151238083276E+00
   0.5475515627485024E+00
   0.5185386714729621E+00
   0.5056575946603566E+00
   0.5663208562038746E+00
   0.5602931873555494E+00
   0.3181517596849177E+00
   0.3904369537709731E+00
   0.5380101943251215E+00
   0.5448616465597026E+00
   0.5532652604970558E+00
   0.5230994103906913E+00
   0.5379554221530063E+00
   0.5507243156166883E+00
   0.5445446948389178E+00
   0.5427042609453866E+00
   0.5467367073989178E+00
   0.5038701262095170E+00
   0.5103851063433181E+00
   0.5085156564618138E+00
   0.5310767001193265E+00
   0.3588393709713247E+00
   0.5058277693212305E+00
   0.5386063386166035E+00
   0.5729824225011502E+00
   0.5637141740741924E+00
   0.5349847440389865E+00
   0.5595377608070531E+00
   0.5124210004372111E+00
   0.5094636886732495E+00
   0.5062198929115805E+00
   0.5456329274012585E+00
   0.5418065040092299E+00
   0.5048455842789135E+00
   0.5327688593290928E+00
   0.5279450056064257E+00
   0.5384347019647086E+00
   0.5045506482231058E+00
   0.5046450352506477E+00
   0.3852457729208070E+00
   0.3650188054103546E+00
   0.5413742974265170E+00
   0.5506367192412603E+00
   0.3906043970519818E+00
   0.5576909939871680E+00
   0.3539956395671760E+00
   0.5296058552759324E+00
   0.4671056985818826E+00
   0.5078961478996410E+00
   0.5094190560326302E+00
   0.5532806867241494E+00
   0.5643229461525847E+00
   0.5421165437007981E+00
   0.5459595604635786E+00
   0.5187795402685419E+00
   0.5187356271297154E+00
   0.5383952553964780E+00
   0.5461880546670705E+00
   0.4610047204463443E+00
   0.5094176798029597E+00
   0.5664356404460981E+00
   0.3512159370530993E+00
   0.4777433244795309E+00
   0.5490301799136668E+00
   0.5053867355745449E+00
   0.3289242763796740E+00
   0.5085572852989951E+00
   0.5084822183252584E+00
   0.5098721581339681E+00
   0.5258594526577038E+00
   0.3616692390707066E+00
   0.3847183718349231E+00
   0.3506042401056981E+00
   0.5094269531210753E+00
   0.5086775479178878E+00
   0.5224766576416175E+00
   0.5593880769391959E+00
   0.4376107082407396E+00
   0.3783024101625419E+00
SCALARS v double 1
LOOKUP_TABLE default
   0.0000000000000000E+00
   0.0000000000000000E+00
   0.0000000000000000E+00
   0.0000000000000000E+00
   0.0000000000000000E+00
   0.0000000000000000E+00
   0.0000000000000000E+00
   0.0000000000000000E+00
   0.0000000000000000E+00
   0.0000000000000000E+00
   0.0000000000000000E+00
   0.0000000000000000E+00
   0.0000000000000000E+00
   0.0000000000000000E+00
   0.0000000000000000E+00
   0.0000000000000000E+00
   0.0000000000000000E+00
   0.0000000000000000E+00
   0.0000000000000000E+00
   0.0000000000000000E+00
   0.0000000000000000E+00
   0.0000000000000000E+00
   0.0000000000000000E+00
   0.0000000000000000E+00
   0.0000000000000000E+00
   0.0000000000000000E+00
   0.0000000000000000E+00
   0.0000000000000000E+00
   0.0000000000000000E+00
   0.0000000000000000E+00
   0.0000000000000000E+00
   0.0000000000000000E+00
   0.0000000000000000E+00
   0.0000000000000000E+00
   0.0000000000000000E+00
   0.0000000000000000E+00
   0.0000000000000000E+00
   0.0000000000000000E+00
   0.0000000000000000E+00
   0.0000000000000000E+00
   0.0000000000000000E+00
   0.0000000000000000E+00
   0.0000000000000000E+00
   0.0000000000000000E+00
   0.0000000000000000E+00
   0.0000000000000000E+00
   0.0000000000000000E+00
   0.0000000000000000E+00
   0.0000000000000000E+00
   0.0000000000000000E+00
   0.0000000000000000E+00
   0.0000000000000000E+00
   0.0000000000000000E+00
   0.0000000000000000E+00
   0.0000000000000000E+00
   0.0000000000000000E+00
   0.0000000000000000E+00
   0.0000000000000000E+00
   0.0000000000000000E+00
   0.0000000000000000E+00
   0.0000000000000000E+00
  -0.1883991256694184E-03
  -0.1976666278824460E-02
  -0.1592568919659779E-02
   0.0000000000000000E+00
   0.0000000000000000E+00
   0.0000000000000000E+00
   0.0000000000000000E+00
  -0.1274746773251335E-01
  -0.4606028612161246E-03
   0.1874789896641906E-02
   0.1663425047804918E-01
   0.3744153269669732E-03
   0.1938794119662716E-02
  -0.3166795663928313E-02
   0.3840574511032701E-02
  -0.3871053931764177E-03
   0.1990071694289797E-02
   0.1096147748976730E-03
   0.3824010449551088E-02
   0.1046037052582575E-02
  -0.2226414168000630E-02
   0.3380706416506235E-02
   0.5714926211782830E-02
   0.4165789633235667E-02
   0.4137722347746526E-03
  -0.8143378054758314E-04
  -0.2361197500968931E-03
   0.0000000000000000E+00
   0.0000000000000000E+00
   0.0000000000000000E+00
   0.0000000000000000E+00
  -0.7331773150259285E-03
   0.4103554831381997E-03
  -0.2364605394677829E-03
  -0.6385275332805154E-03
  -0.1818698244960449E-02
  -0.1837313836682051E-02
  -0.1069899161281966E-02
  -0.2306757051772680E-03
  -0.3847738285868151E-03
  -0.2415940736013746E-03
   0.3982452736290715E-03
  -0.6786138114902814E-03
  -0.3428794159739380E-03
  -0.1888252849186025E-03
  -0.4943588931570608E-03
  -0.3382401738768912E-03
   0.0000000000000000E+00
   0.0000000000000000E+00
   0.0000000000000000E+00
  -0.1035076126272448E-02
  -0.2769008521954310E-01
   0.8640043312430713E-02
   0.8319669793475819E-03
   0.1245295721646874E-03
  -0.3130192644857831E-03
  -0.3437520661318337E-02
   0.2722376667749737E-02
   0.5274739932225315E-02
   0.3367272384965147E-02
   0.7191627029865878E-02
   0.1116135536227428E-01
  -0.8366932426391188E-03
  -0.1067821444120042E-01
  -0.2687038931188939E-02
   0.3601057381198405E-02
   0.0000000000000000E+00
   0.0000000000000000E+00
   0.0000000000000000E+00
   0.0000000000000000E+00
   0.0000000000000000E+00
   0.0000000000000000E+00
   0.0000000000000000E+00
   0.0000000000000000E+00
   0.0000000000000000E+00
   0.0000000000000000E+00
   0.0000000000000000E+00
   0.0000000000000000E+00
   0.0000000000000000E+00
   0.0000000000000000E+00
   0.0000000000000000E+00
   0.0000000000000000E+00
   0.0000000000000000E+00
   0.2597156996743201E-02
   0.9372839365663210E-03
   0.7423517141474958E-03
   0.2603262541867240E-02
  -0.3693123182921747E-02
   0.2929286764766656E-02
   0.2396402951062943E-02
   0.1139527272288174E-02
   0.1989310338513205E-03
  -0.2055343759767059E-02
  -0.4238763030981244E-03
   0.9290924657756633E-02
  -0.1268613197583766E-03
   0.2803934577803067E-02
   0.6232033728314156E-02
   0.2720787339120183E-02
   0.1748444109360200E-02
   0.8204330242603751E-03
  -0.3782354696225730E-03
   0.6712948950538814E-03
  -0.5326190049688846E-04
   0.2674347566971974E-02
   0.4395194805147200E-03
   0.6892537296542547E-03
   0.3989794718713462E-02
  -0.1112054944679749E-02
   0.1196877177991295E-02
   0.1639278398722562E-03
   0.1924647195704279E-02
   0.3421473237793228E-02
   0.3612371696509704E-02
   0.1663480046395282E-02
   0.4047503129313166E-02
   0.5955876681713789E-02
   0.3627953694504422E-02
   0.9867705826143046E-02
  -0.1804871052676849E-02
  -0.3392554728805061E-02
  -0.3288669857588461E-03
   0.4974014882896621E-03
   0.3837762461411592E-02
   0.7401230472323320E-03
   0.3757989263970234E-02
   0.3896865408595167E-02
   0.1101738398507648E-02
  -0.5051091058793671E-04
  -0.1490187498672801E-02
  -0.1433702268333378E-02
   0.1429215384102987E-02
   0.6442979451029230E-02
   0.4758229476376201E-03
   0.5512224176646112E-02
  -0.6193339448668877E-02
   0.3844210707989325E-02
  -0.1078576550154805E-02
  -0.3507975196551635E-02
  -0.8383631514038062E-03
   0.1641722756970078E-03
  -0.1009905741107603E-02
   0.5364704245131699E-03
   0.5784052211242638E-02
   0.1482134093075317E-01
  -0.1210390375773590E-01
  -0.1209260321663334E-03
  -0.4599879222197061E-03
   0.1506999060093786E-02
  -0.1301067473614222E-02
  -0.2884899130491047E-02
   0.4489748879638541E-02
SCALARS w double 1
LOOKUP_TABLE default
   0.0000000000000000E+00
   0.0000000000000000E+00
   0.0000000000000000E+00
   0.0000000000000000E+00
   0.0000000000000000E+00
   0.0000000000000000E+00
   0.0000000000000000E+00
   0.0000000000000000E+00
   0.0000000000000000E+00
   0.0000000000000000E+00
   0.0000000000000000E+00
   0.0000000000000000E+00
   0.0000000000000000E+00
   0.0000000000000000E+00
   0.0000000000000000E+00
   0.0000000000000000E+00
   0.0000000000000000E+00
   0.0000000000000000E+00
   0.0000000000000000E+00
   0.0000000000000000E+00
   0.0000000000000000E+00
   0.0000000000000000E+00
   0.0000000000000000E+00
   0.0000000000000000E+00
   0.0000000000000000E+00
   0.0000000000000000E+00
   0.0000000000000000E+00
   0.0000000000000000E+00
   0.0000000000000000E+00
   0.0000000000000000E+00
   0.0000000000000000E+00
   0.0000000000000000E+00
   0.0000000000000000E+00
  -0.1418645264690642E+00
  -0.6265442948321738E-01
  -0.7164656843206428E-02
   0.2239541049219419E-02
  -0.6524903209270577E-02
  -0.7205581855727072E-02
  -0.6201379761085334E-02
  -0.3062955972916622E-02
  -0.6722488037698511E-03
   0.1921099537429823E-02
   0.7498412756536401E-02
  -0.4535221363242720E-02
  -0.6984179398981838E-02
  -0.3937389008860873E-01
  -0.5096894114656283E-02
   0.2004198947561087E-02
  -0.6343023790659924E-03
   0.2415636059484174E-01
  -0.7729009867755124E-02
  -0.1769957833142322E-01
  -0.1010773605873613E-01
  -0.8068072801217810E-02
  -0.5460247160310777E-02
  -0.5814770141691091E-01
   0.9701825278108263E-02
   0.1873219184504058E-01
   0.1543789129276859E-01
  -0.2769569219943567E-02
   0.1358610644027974E-02
   0.1424099770667671E-02
   0.1342827846729910E-02
   0.3136330493376888E-02
  -0.4397697087704026E-02
  -0.5671432944237330E-01
  -0.1356171697197661E+00
  -0.1636613547837692E+00
  -0.1714364335560774E-02
  -0.3153939388948666E-02
  -0.1471610133801651E+00
  -0.1438937617845486E+00
  -0.1486516101168793E+00
  -0.1313354095428478E+00
  -0.9087548511056431E-01
  -0.1462542079676310E-02
  -0.3147189212784301E-01
  -0.2608486072063833E-01
  -0.1642962330471686E-01
   0.9505393110354180E-03
  -0.1113192294305448E+00
  -0.4388150961073556E-01
  -0.1089763690484793E+00
  -0.8208101284373606E-01
  -0.2820847652042508E-02
  -0.2382120584061460E-02
  -0.2135903325083776E-02
  -0.2114298942903548E-02
  -0.4818256328863247E-02
  -0.7133592470741457E-02
  -0.6287882115446392E-02
  -0.5243043946271620E-02
  -0.4687088794509723E-02
  -0.5462546428595705E-02
  -0.6209168440327662E-02
  -0.6417804389302541E-02
  -0.6025122728619292E-02
  -0.7850228767957710E-02
  -0.7276652054049512E-02
  -0.4406057022200830E-02
  -0.6265994119613618E-02
  -0.6464793547505242E-02
  -0.4426644822990566E-02
  -0.7281063311744329E-02
  -0.6952942774082378E-02
  -0.7176121846725391E-02
  -0.7479132736832622E-02
   0.1657413739682807E-02
   0.7317972788702333E-03
  -0.2335005877553823E-02
  -0.3697946240841462E-02
  -0.2520040809058907E-01
   0.1287621903894642E-01
  -0.3909413950832691E-02
  -0.4534929698825828E-02
  -0.2757210869525449E-02
  -0.1009795838108582E-01
  -0.6363311083733221E-02
  -0.4814715004596194E-01
   0.2689893184273478E-01
   0.1148141592129152E-01
  -0.3504760058710676E-01