# vtk DataFile Version 2.0
FUN3D:global_image_vtk
ASCII
DATASET UNSTRUCTURED_GRID
POINTS 213 double
    0.0000000000000000E+00    0.2500000000000000E+01    0.0000000000000000E+00
    0.1250000000000000E+01    0.2500000000000000E+01    0.0000000000000000E+00
    0.2500000000000000E+01    0.2500000000000000E+01    0.0000000000000000E+00
    0.3750000000000000E+01    0.2500000000000000E+01    0.0000000000000000E+00
    0.5000000000000000E+01    0.2500000000000000E+01    0.0000000000000000E+00
    0.5000000000000000E+01    0.1250000000000000E+01    0.0000000000000000E+00
    0.5000000000000000E+01    0.0000000000000000E+00    0.0000000000000000E+00
    0.5000000000000000E+01   -0.1250000000000000E+01    0.0000000000000000E+00
    0.5000000000000000E+01   -0.2500000000000000E+01    0.0000000000000000E+00
    0.3750000000000000E+01   -0.2500000000000000E+01    0.0000000000000000E+00
    0.2500000000000000E+01   -0.2500000000000000E+01    0.0000000000000000E+00
    0.1250000000000000E+01   -0.2500000000000000E+01    0.0000000000000000E+00
    0.0000000000000000E+00   -0.2500000000000000E+01    0.0000000000000000E+00
    0.0000000000000000E+00   -0.1250000000000000E+01    0.0000000000000000E+00
    0.0000000000000000E+00    0.0000000000000000E+00    0.0000000000000000E+00
    0.0000000000000000E+00    0.1250000000000000E+01    0.0000000000000000E+00
    0.9058375365086910E+00    0.1578994732800803E+01    0.0000000000000000E+00
    0.3982050490726493E+01   -0.1583989954232354E+01    0.0000000000000000E+00
    0.4033849428301197E+01    0.1453322699199022E+01    0.0000000000000000E+00
    0.1040505887381675E+01   -0.1479596339503735E+01    0.0000000000000000E+00
    0.1099454400140349E+01   -0.3227322616384110E+00    0.0000000000000000E+00
    0.7354504170366591E+00    0.6593508822075582E+00    0.0000000000000000E+00
    0.1622302608453282E+01    0.8256214013940779E+00    0.0000000000000000E+00
    0.2145871574390382E+01   -0.1650070333782557E+01    0.0000000000000000E+00
    0.4086422318222992E+01   -0.4612828702537229E+00    0.0000000000000000E+00
    0.2979540174134984E+01   -0.8579242121530853E+00    0.0000000000000000E+00
    0.3045064261640043E+01   -0.1836846154397680E+01    0.0000000000000000E+00
    0.3428197553792836E+01    0.3508002863614053E+00    0.0000000000000000E+00
    0.4309693860063405E+01    0.5185680230613409E+00    0.0000000000000000E+00
    0.1827272193562204E+01    0.1738996113203182E+01    0.0000000000000000E+00
    0.2808563282768077E+01    0.1325493893339706E+01    0.0000000000000000E+00
    0.1895995683864404E+01   -0.8731419609589618E+00    0.0000000000000000E+00
    0.2273179336307740E+01    0.4906150219227333E-01    0.0000000000000000E+00
    0.5000000000000000E+01    0.2500000000000000E+01    0.1250000000000000E+01
    0.5000000000000000E+01    0.2500000000000000E+01    0.2500000000000000E+01
    0.5000000000000000E+01    0.2500000000000000E+01    0.3750000000000000E+01
    0.5000000000000000E+01    0.2500000000000000E+01    0.5000000000000000E+01
    0.3750000000000000E+01    0.2500000000000000E+01    0.5000000000000000E+01
    0.2500000000000000E+01    0.2500000000000000E+01    0.5000000000000000E+01
    0.1250000000000000E+01    0.2500000000000000E+01    0.5000000000000000E+01
    0.0000000000000000E+00    0.2500000000000000E+01    0.5000000000000000E+01
    0.0000000000000000E+00    0.2500000000000000E+01    0.3750000000000000E+01
    0.0000000000000000E+00    0.2500000000000000E+01    0.2500000000000000E+01
    0.0000000000000000E+00    0.2500000000000000E+01    0.1250000000000000E+01
    0.9631080833812172E+00    0.2500000000000000E+01    0.9613285771248219E+00
    0.3981732467264904E+01    0.2500000000000000E+01    0.4069753913607991E+01
    0.4035525118777670E+01    0.2500000000000000E+01    0.1012015867579395E+01
    0.9641717640894248E+00    0.2500000000000000E+01    0.3972455192261839E+01
    0.1547743040396780E+01    0.2500000000000000E+01    0.2928177746738678E+01
    0.6985170616192014E+00    0.2500000000000000E+01    0.3068281976055466E+01
    0.8931277594515110E+00    0.2500000000000000E+01    0.2052465503257726E+01
    0.2183293750162785E+01    0.2500000000000000E+01    0.3959073795658649E+01
    0.3855333506014705E+01    0.2500000000000000E+01    0.2931218481500625E+01
    0.3152495579421047E+01    0.2500000000000000E+01    0.3635850502723324E+01
    0.3103247580566054E+01    0.2500000000000000E+01    0.4331682712472464E+01
    0.3266837581688852E+01    0.2500000000000000E+01    0.1886092433583972E+01
    0.4231539241296245E+01    0.2500000000000000E+01    0.1915865356532799E+01
    0.1909741006522088E+01    0.2500000000000000E+01    0.7170024419130505E+00
    0.2880784107213163E+01    0.2500000000000000E+01    0.9046598906449592E+00
    0.2014316024535771E+01    0.2500000000000000E+01    0.1762464314805728E+01
    0.2670003247036656E+01    0.2500000000000000E+01    0.2850479545835163E+01
    0.5000000000000000E+01    0.1250000000000000E+01    0.5000000000000000E+01
    0.5000000000000000E+01    0.0000000000000000E+00    0.5000000000000000E+01
    0.5000000000000000E+01   -0.1250000000000000E+01    0.5000000000000000E+01
    0.5000000000000000E+01   -0.2500000000000000E+01    0.5000000000000000E+01
    0.5000000000000000E+01   -0.2500000000000000E+01    0.3750000000000000E+01
    0.5000000000000000E+01   -0.2500000000000000E+01    0.2500000000000000E+01
    0.5000000000000000E+01   -0.2500000000000000E+01    0.1250000000000000E+01
    0.5000000000000000E+01    0.1578994732800803E+01    0.9058375365086910E+00
    0.5000000000000000E+01   -0.1583989954232354E+01    0.3982050490726493E+01
    0.5000000000000000E+01    0.1453322699199022E+01    0.4033849428301197E+01
    0.5000000000000000E+01   -0.1479596339503735E+01    0.1040505887381675E+01
    0.5000000000000000E+01   -0.3227322616384110E+00    0.1099454400140349E+01
    0.5000000000000000E+01    0.6593508822075582E+00    0.7354504170366591E+00
    0.5000000000000000E+01    0.8256214013940779E+00    0.1622302608453282E+01
    0.5000000000000000E+01   -0.1650070333782557E+01    0.2145871574390382E+01
    0.5000000000000000E+01   -0.4612828702537229E+00    0.4086422318222992E+01
    0.5000000000000000E+01   -0.8579242121530853E+00    0.2979540174134984E+01
    0.5000000000000000E+01   -0.1836846154397680E+01    0.3045064261640043E+01
    0.5000000000000000E+01    0.3508002863614053E+00    0.3428197553792836E+01
    0.5000000000000000E+01    0.5185680230613409E+00    0.4309693860063405E+01
    0.5000000000000000E+01    0.1738996113203182E+01    0.1827272193562204E+01
    0.5000000000000000E+01    0.1325493893339706E+01    0.2808563282768077E+01
    0.5000000000000000E+01   -0.8731419609589618E+00    0.1895995683864404E+01
    0.5000000000000000E+01    0.4906150219227333E-01    0.2273179336307740E+01
    0.0000000000000000E+00    0.1250000000000000E+01    0.5000000000000000E+01
    0.0000000000000000E+00    0.0000000000000000E+00    0.5000000000000000E+01
    0.0000000000000000E+00   -0.1250000000000000E+01    0.5000000000000000E+01
    0.0000000000000000E+00   -0.2500000000000000E+01    0.5000000000000000E+01
    0.1250000000000000E+01   -0.2500000000000000E+01    0.5000000000000000E+01
    0.2500000000000000E+01   -0.2500000000000000E+01    0.5000000000000000E+01
    0.3750000000000000E+01   -0.2500000000000000E+01    0.5000000000000000E+01
    0.4042003247744892E+01    0.1558308132739014E+01    0.5000000000000000E+01
    0.9304122287900499E+00   -0.1548001304379777E+01    0.5000000000000000E+01
    0.1037243024609388E+01    0.1462892710085612E+01    0.5000000000000000E+01
    0.3946240828834967E+01   -0.1445243809615570E+01    0.5000000000000000E+01
    0.4092527262848217E+01   -0.3455338993778935E+00    0.5000000000000000E+01
    0.4293103109154542E+01    0.6277660831404320E+00    0.5000000000000000E+01
    0.3241512314643519E+01    0.7429886854239611E+00    0.5000000000000000E+01
    0.2844289952419609E+01   -0.1588117879734118E+01    0.5000000000000000E+01
    0.7159905765450471E+00   -0.6002320124191652E+00    0.5000000000000000E+01
    0.1754341919796891E+01   -0.7398147869923652E+00    0.5000000000000000E+01
    0.1870296826774691E+01   -0.1788622905643739E+01    0.5000000000000000E+01
    0.9220614901912976E+00    0.3083720183248586E+00    0.5000000000000000E+01
    0.3101523624086016E+01    0.1777901774806180E+01    0.5000000000000000E+01
    0.2192512063922564E+01    0.1576861561598471E+01    0.5000000000000000E+01
    0.2024793420196460E+01    0.4773861992750707E+00    0.5000000000000000E+01
    0.2990627757741975E+01   -0.4878110785814084E+00    0.5000000000000000E+01
    0.0000000000000000E+00   -0.2500000000000000E+01    0.1250000000000000E+01
    0.0000000000000000E+00   -0.2500000000000000E+01    0.2500000000000000E+01
    0.0000000000000000E+00   -0.2500000000000000E+01    0.3750000000000000E+01
    0.0000000000000000E+00    0.1558308132739014E+01    0.4042003247744892E+01
    0.0000000000000000E+00   -0.1548001304379777E+01    0.9304122287900499E+00
    0.0000000000000000E+00    0.1462892710085612E+01    0.1037243024609388E+01
    0.0000000000000000E+00   -0.1445243809615570E+01    0.3946240828834967E+01
    0.0000000000000000E+00   -0.3455338993778935E+00    0.4092527262848217E+01
    0.0000000000000000E+00    0.6277660831404320E+00    0.4293103109154542E+01
    0.0000000000000000E+00    0.7429886854239611E+00    0.3241512314643519E+01
    0.0000000000000000E+00   -0.1588117879734118E+01    0.2844289952419609E+01
    0.0000000000000000E+00   -0.6002320124191652E+00    0.7159905765450471E+00
    0.0000000000000000E+00   -0.7398147869923652E+00    0.1754341919796891E+01
    0.0000000000000000E+00   -0.1788622905643739E+01    0.1870296826774691E+01
    0.0000000000000000E+00    0.3083720183248586E+00    0.9220614901912976E+00
    0.0000000000000000E+00    0.1777901774806180E+01    0.3101523624086016E+01
    0.0000000000000000E+00    0.1576861561598471E+01    0.2192512063922564E+01
[...]
POINT_DATA 213
SCALARS rho double 1
LOOKUP_TABLE default
   0.7427747377960642E+00
   0.8817729475218434E+00
   0.8373089677055082E+00
   0.7892480699447642E+00
   0.5992613964351519E+00
   0.5315290186430126E+00
   0.5221012287562390E+00
   0.5304303475595211E+00
   0.5844528697806002E+00
   0.8055198752426995E+00
   0.8310598908597497E+00
   0.8920450457215324E+00
   0.6432108134756612E+00
   0.7482332419356933E+00
   0.6206724223939865E+00
   0.7283276911537568E+00
   0.8514206547631700E+00
   0.8227378281577791E+00
   0.8009334428740656E+00
   0.8822775501498178E+00
   0.8403813102224011E+00
   0.8859947187966939E+00
   0.8564004869909153E+00
   0.8477359834384711E+00
   0.8234144000095904E+00
   0.8299159965616775E+00
   0.8246437324968822E+00
   0.8172361008468868E+00
   0.8124442472159839E+00
   0.8648467988551606E+00
   0.8196774756094137E+00
   0.8495800282575446E+00
   0.8414017142858731E+00
   0.9337490676931646E+00
   0.1010299987735293E+01
   0.1004831163023945E+01
   0.9945357530631154E+00
   0.9937825282623564E+00
   0.9939180833120683E+00
   0.9953506402523091E+00
   0.9952310937386873E+00
   0.9949030720570352E+00
   0.9906514600587440E+00
   0.1030129324456599E+01
   0.9807778955409047E+00
   0.9957026381352974E+00
   0.9171406604105136E+00
   0.9931350554773970E+00
   0.9917084622152151E+00
   0.9921975707984660E+00
   0.9983690216321049E+00
   0.9920124862284400E+00
   0.9985529545109424E+00
   0.9942047116578963E+00
   0.9924420378018390E+00
   0.9761744625980814E+00
   0.9769011555800217E+00
   0.9402649561851278E+00
   0.9266089221851292E+00
   0.9857069799209575E+00
   0.9908053653803622E+00
   0.9947913971886826E+00
   0.9951086662600824E+00
   0.9947241864629482E+00
   0.9941330474150160E+00
   0.1006483866267643E+01
   0.1011379167033682E+01
   0.9406152653173752E+00
   0.8668337680487419E+00
   0.1004333181481037E+01
   0.1001337813794833E+01
   0.8793767023291162E+00
   0.8782890427201673E+00
   0.8053346684997356E+00
   0.9705415463414081E+00
   0.1006773737423267E+01
   0.1003841271360924E+01
   0.1020766559257952E+01
   0.1014377353447232E+01
   0.1015967496318926E+01
   0.1002039936897117E+01
   0.9842952221526450E+00
   0.1010753122804401E+01
   0.9945281654905344E+00
   0.1019943024577427E+01
   0.9951138046668051E+00
   0.9949871454544819E+00
   0.9955306393725036E+00
   0.9957448387458719E+00
   0.9952963710218568E+00
   0.9935751215730378E+00
   0.9946570447031022E+00
   0.9930265665399549E+00
   0.9955582143798118E+00
   0.9955814512824306E+00
   0.9918275136051794E+00
   0.9926762990231343E+00
   0.9929212637337512E+00
   0.9928107776633575E+00
   0.9939268258096082E+00
   0.9953562379714125E+00
   0.9942812448200105E+00
   0.9941598198529952E+00
   0.9957002984342616E+00
   0.9938486244478585E+00
   0.9941563242948280E+00
   0.9934136468145760E+00
   0.9936660756909402E+00
   0.1035811071665457E+01
   0.9890034878904213E+00
   0.9938522199710041E+00
   0.9943665635881441E+00
   0.1081360371914842E+01
   0.1070708065922521E+01
   0.9935941993437070E+00
   0.9946752158906946E+00
   0.9949323427892736E+00
   0.9865996032509973E+00
   0.9861715688816795E+00
   0.1083651086281777E+01
   0.9793042202473489E+00
   0.9856073262725691E+00
   0.1074022685941161E+01
   0.9940127323208932E+00
   0.9894033847570807E+00
   0.9656798280485239E+00
   0.9880936396498036E+00
   0.9884126638047890E+00
   0.9954253524817017E+00
   0.9336284278239946E+00
   0.9937906592109678E+00
   0.9911860066119840E+00
   0.9928442052919669E+00
   0.9990332612919172E+00
   0.9908250286768457E+00
   0.9995616535823993E+00
   0.9920465231226112E+00
   0.9926661427108356E+00
   0.9872740894589582E+00
   0.9831256395616714E+00
   0.9520043418234521E+00
   0.9332638546709248E+00
   0.9910894725240844E+00
   0.9899655474791870E+00
   0.9950604414941659E+00
   0.9934689087475247E+00
   0.9962571357647205E+00
   0.1001336507429026E+01
   0.1002254341103407E+01
   0.1027416126444354E+01
   0.1001949680359337E+01
   0.9931684735823632E+00
   0.9925250205195122E+00
   0.9918653833841513E+00
   0.9967286874422858E+00
   0.9552956320108370E+00
   0.9924402462253269E+00
   0.9923722664603044E+00
   0.9886915301535701E+00
   0.9982762973146666E+00
   0.9961963824910145E+00
   0.1000540693972337E+01
   0.9925336998798763E+00
   0.9927433890852094E+00
   0.9940557295501755E+00
   0.1001032266433491E+01
   0.9930605343284169E+00
   0.9923384334812435E+00
   0.1007630799153790E+01
   0.9963749157398917E+00
   0.9931169828378931E+00
   0.9936055085325360E+00
   0.9942458064741749E+00
   0.9556252172218371E+00
   0.9458912703134396E+00
   0.9956046142158170E+00
   0.9861674729490681E+00
   0.9551325197204842E+00
   0.9970599822637711E+00
   0.9700033356162213E+00
   0.1018973959877320E+01
   0.1015801459130027E+01
   0.9963911100891084E+00
   0.9927474759649446E+00
   0.9996522300341187E+00
   0.9947820814210219E+00
   0.9567051450172277E+00
   0.9972854916418998E+00
   0.1005638139177902E+01
   0.1001361966521351E+01
   0.9892424786081538E+00
   0.9564586521141906E+00
   0.8863995455653194E+00
   0.9652890118551376E+00
   0.9849695805978073E+00
   0.9500829586892280E+00
   0.9572912276380430E+00
   0.9481891785586885E+00
   0.9272862494433025E+00
   0.8955198951954970E+00
   0.9899203422941923E+00
   0.9921058866299507E+00
   0.9945323687825551E+00
   0.1002313288280458E+01
   0.9033565397793999E+00
   0.8856854280698060E+00
   0.9106008590918372E+00
   0.9921038519438429E+00
   0.9933560533532565E+00
   0.9983888746024649E+00
   0.9857742663001380E+00
   0.9807114119795193E+00
   0.9219342370188173E+00
SCALARS u double 1
LOOKUP_TABLE default
   0.0000000000000000E+00
   0.0000000000000000E+00
   0.0000000000000000E+00
   0.0000000000000000E+00
   0.0000000000000000E+00
   0.0000000000000000E+00
   0.0000000000000000E+00
   0.0000000000000000E+00
   0.0000000000000000E+00
   0.0000000000000000E+00
   0.0000000000000000E+00
   0.0000000000000000E+00
   0.0000000000000000E+00
   0.0000000000000000E+00
   0.0000000000000000E+00
   0.0000000000000000E+00
   0.0000000000000000E+00
   0.0000000000000000E+00
   0.0000000000000000E+00
   0.0000000000000000E+00
   0.0000000000000000E+00
   0.0000000000000000E+00
   0.0000000000000000E+00
   0.0000000000000000E+00
   0.0000000000000000E+00
   0.0000000000000000E+00
   0.0000000000000000E+00
   0.0000000000000000E+00
   0.0000000000000000E+00
   0.0000000000000000E+00
   0.0000000000000000E+00
   0.0000000000000000E+00
   0.0000000000000000E+00
   0.5080442238302006E+00
   0.5091695753008614E+00
   0.5051677757581450E+00
   0.4957076772804228E+00
   0.4969841537544154E+00
   0.5018505042820877E+00
   0.5038197918298241E+00
   0.5056238268595629E+00
   0.5050521330602591E+00
   0.5047129422295266E+00
   0.4874247349530423E+00
   0.4118909548721950E+00
   0.5077392690914012E+00
   0.4603988227635303E+00
   0.5062272063812676E+00
   0.5210594846983408E+00
   0.5075362479146586E+00
   0.5240655324418197E+00
   0.5097414173066440E+00
   0.5462505442450661E+00
   0.5198218969269135E+00
   0.5049095904315851E+00
   0.5505953677944981E+00
   0.5558319862190423E+00
   0.3255892348188446E+00
   0.3915244313032842E+00
   0.5230642425352348E+00
   0.5409052438546543E+00
   0.4962022426909674E+00
   0.4962120854195791E+00
   0.4945415099271728E+00
   0.4946251618524398E+00
   0.5034614870741029E+00
   0.5118078949647815E+00
   0.5037163086696826E+00
   0.4951402724460809E+00
   0.5020135509629348E+00
   0.5026799087015178E+00
   0.5101410387848685E+00
   0.5218277328572277E+00
   0.5245202278521901E+00
   0.5213744845784953E+00
   0.5081626447523397E+00
   0.5017656847743996E+00
   0.5060138670546767E+00
   0.5080211706806183E+00
   0.5077213496555406E+00
   0.4991303189849030E+00
   0.5134428399354171E+00
   0.5146930199890754E+00
   0.5215062095599087E+00
   0.5078667269782139E+00
   0.5050687986331700E+00
   0.5051565424072642E+00
   0.5048300146045501E+00
   0.5048196372735690E+00
   0.5054145737420758E+00
   0.5050602532381417E+00
   0.4983927719090390E+00
   0.4962863404324633E+00
   0.5054802299581042E+00
   0.5042055909646207E+00
   0.4947222434931799E+00
   0.4971724854152765E+00
   0.4969176336632561E+00
   0.5004194880151195E+00
   0.5031256865132739E+00
   0.5056219876616421E+00
   0.5056700781816909E+00
   0.5058684970466524E+00
   0.5057415542574520E+00
   0.5004094377450431E+00
   0.5039797309507456E+00
   0.5036694708850999E+00
   0.5019333085271177E+00
   0.4975978566272399E+00
   0.5062621688608570E+00
   0.5055447720344545E+00
   0.5035421376173774E+00
   0.5001338490384211E+00
   0.4994953286833048E+00
   0.5040793849080268E+00
   0.5023028789289186E+00
   0.5034615507618401E+00
   0.5057254202355621E+00
   0.5024824295301380E+00
   0.4572112244601932E+00
   0.5168301255359541E+00
   0.5005522682371150E+00
   0.4982352239525712E+00
   0.5062411434758989E+00
   0.5016951354387912E+00
   0.5101449340863626E+00
   0.5051875213712471E+00
   0.4173054586798756E+00
   0.5046376223685938E+00
   0.4607530816468456E+00
   0.5053479943026911E+00
   0.5223914265238202E+00
   0.5055311057090732E+00
   0.5217353325566637E+00
   0.5098823953477507E+00
   0.5469151868872383E+00
   0.5182246391525697E+00
   0.5057416429538999E+00
   0.5652387839844151E+00
   0.5596215543656133E+00
   0.3174105313510296E+00
   0.3902856639905410E+00
   0.5361430357320781E+00
   0.5437292293515419E+00
   0.5525308818065232E+00
   0.5225068041974578E+00
   0.5373862005758584E+00
   0.5496778586568107E+00
   0.5443214808007928E+00
   0.5427036371086291E+00
   0.5454590280084516E+00
   0.5039269915385310E+00
   0.5103534720891469E+00
   0.5086359173461052E+00
   0.5296718015194349E+00
   0.3536015075561723E+00
   0.5059591558483563E+00
   0.5381120815246796E+00
   0.5723096969142530E+00
   0.5629215331971945E+00
   0.5347594213926706E+00
   0.5594989579038764E+00
   0.5124125521394108E+00
   0.5095287410836752E+00
   0.5063426200429350E+00
   0.5457128773763672E+00
   0.5411314475683622E+00
   0.5049560051870318E+00
   0.5315329849600994E+00
   0.5265744914515145E+00
   0.5373144113347760E+00
   0.5047117310547917E+00
   0.5047006320812073E+00
   0.3850552025420566E+00
   0.3656858630026446E+00
   0.5407899476100848E+00
   0.5493193962757486E+00
   0.3889140807347221E+00
   0.5564495273216175E+00
   0.3517085711325927E+00
   0.5290301734751096E+00
   0.4661157532830331E+00
   0.5080420525292512E+00
   0.5094628244472750E+00
   0.5535464067912470E+00
   0.5633132434058092E+00
   0.5414290221973024E+00
   0.5458728197084385E+00
   0.5188215781870757E+00
   0.5188086884117593E+00
   0.5373978253605423E+00
   0.5448283111266361E+00
   0.4594727950610740E+00
   0.5078773706146897E+00
   0.5659269303155118E+00
   0.3522572914956369E+00
   0.4773881805047848E+00
   0.5489783105583692E+00
   0.5044654307969808E+00
   0.3289066427294512E+00
   0.5085549170054011E+00
   0.5085080244885525E+00
   0.5098920169626423E+00
   0.5259858939985240E+00
   0.3609715729456530E+00
   0.3837381306828777E+00
   0.3499051933292666E+00
   0.5094133810609619E+00
   0.5086530655168390E+00
   0.5224862998126226E+00
   0.5579627209317051E+00
   0.4367118436909467E+00
   0.3786968242246836E+00
SCALARS v double 1
LOOKUP_TABLE default
   0.0000000000000000E+00
   0.0000000000000000E+00
   0.0000000000000000E+00
   0.0000000000000000E+00
   0.0000000000000000E+00
   0.0000000000000000E+00
   0.0000000000000000E+00
   0.0000000000000000E+00
   0.0000000000000000E+00
   0.0000000000000000E+00
   0.0000000000000000E+00
   0.0000000000000000E+00
   0.0000000000000000E+00
   0.0000000000000000E+00
   0.0000000000000000E+00
   0.0000000000000000E+00
   0.0000000000000000E+00
   0.0000000000000000E+00
   0.0000000000000000E+00
   0.0000000000000000E+00
   0.0000000000000000E+00
   0.0000000000000000E+00
   0.0000000000000000E+00
   0.0000000000000000E+00
   0.0000000000000000E+00
   0.0000000000000000E+00
   0.0000000000000000E+00
   0.0000000000000000E+00
   0.0000000000000000E+00
   0.0000000000000000E+00
   0.0000000000000000E+00
   0.0000000000000000E+00
   0.0000000000000000E+00
   0.0000000000000000E+00
   0.0000000000000000E+00
   0.0000000000000000E+00
   0.0000000000000000E+00
   0.0000000000000000E+00
   0.0000000000000000E+00
   0.0000000000000000E+00
   0.0000000000000000E+00
   0.0000000000000000E+00
   0.0000000000000000E+00
   0.0000000000000000E+00
   0.0000000000000000E+00
   0.0000000000000000E+00
   0.0000000000000000E+00
   0.0000000000000000E+00
   0.0000000000000000E+00
   0.0000000000000000E+00
   0.0000000000000000E+00
   0.0000000000000000E+00
   0.0000000000000000E+00
   0.0000000000000000E+00
   0.0000000000000000E+00
   0.0000000000000000E+00
   0.0000000000000000E+00
   0.0000000000000000E+00
   0.0000000000000000E+00
   0.0000000000000000E+00
   0.0000000000000000E+00
  -0.6290342152477417E-04
  -0.1734329748987417E-02
  -0.1388808728438911E-02
   0.0000000000000000E+00
   0.0000000000000000E+00
   0.0000000000000000E+00
   0.0000000000000000E+00
  -0.1223851188879848E-01
  -0.4232890687315974E-03
   0.1767190480354977E-02
   0.1670834328780775E-01
   0.8301612070585055E-03
   0.2786243192552236E-02
  -0.2823809430650963E-02
   0.3965548624530373E-02
  -0.3709748945001770E-03
   0.1954131212848898E-02
   0.1466720629863915E-03
   0.3637375863292071E-02
   0.1011254648741348E-02
  -0.2271941593364175E-02
   0.3221521908254047E-02
   0.5918688273010150E-02
   0.4187483078929305E-02
   0.3948379038347412E-03
  -0.8607234734020763E-04
  -0.2715438392127924E-03
   0.0000000000000000E+00
   0.0000000000000000E+00
   0.0000000000000000E+00
   0.0000000000000000E+00
  -0.6447888907258607E-03
   0.3275317758812768E-03
  -0.2102730265476865E-03
  -0.5572971204696742E-03
  -0.1644118978135886E-02
  -0.1654657773897907E-02
  -0.1000979919943286E-02
  -0.3050334484506254E-03
  -0.4043757589248505E-03
  -0.2713221057869344E-03
   0.3112684182616304E-03
  -0.6516787448102877E-03
  -0.3018199399560791E-03
  -0.1724637825699420E-03
  -0.4525252859720980E-03
  -0.2968831205545128E-03
   0.0000000000000000E+00
   0.0000000000000000E+00
   0.0000000000000000E+00
  -0.1006080282551321E-02
  -0.2856540575091665E-01
   0.7945035956183535E-02
   0.8189091931598953E-03
   0.2228526708760563E-03
  -0.2301446156506300E-03
  -0.3152812352931971E-02
   0.2754922540690534E-02
   0.4315930020118114E-02
   0.3286902646151489E-02
   0.7530079221538891E-02
   0.1040782414558500E-01
  -0.8623172431056684E-03
  -0.1084758403569340E-01
  -0.2649666201768477E-02
   0.3737047475291772E-02
   0.0000000000000000E+00
   0.0000000000000000E+00
   0.0000000000000000E+00
   0.0000000000000000E+00
   0.0000000000000000E+00
   0.0000000000000000E+00
   0.0000000000000000E+00
   0.0000000000000000E+00
   0.0000000000000000E+00
   0.0000000000000000E+00
   0.0000000000000000E+00
   0.0000000000000000E+00
   0.0000000000000000E+00
   0.0000000000000000E+00
   0.0000000000000000E+00
   0.0000000000000000E+00
   0.0000000000000000E+00
   0.2449632891751756E-02
   0.8414425366023562E-03
   0.4784640350187385E-03
   0.2336749478974859E-02
  -0.4124279836872565E-02
   0.2387733000955251E-02
   0.2481057542897557E-02
   0.1144701440919436E-02
   0.1494241230511354E-03
  -0.2184909466716395E-02
  -0.6120916512603555E-03
   0.1061624411560599E-01
  -0.1341790915273392E-03
   0.2663549520139697E-02
   0.6268167203059082E-02
   0.2694153812072718E-02
   0.1641252742400785E-02
   0.7989504077742297E-03
  -0.3780734283698758E-03
   0.6524246569390855E-03
  -0.6549865958802828E-04
   0.2592386949806399E-02
   0.3494651347681961E-03
   0.7146549759467578E-03
   0.3659886561474006E-02
  -0.1126417492447027E-02
   0.9314337886910947E-03
   0.1967430438388979E-03
   0.1956109007018772E-02
   0.4384895784164985E-02
   0.3922573881759181E-02
   0.1771978260112840E-02
   0.4073239163294365E-02
   0.6594876126924798E-02
   0.3753144301521204E-02
   0.1155918933564564E-01
  -0.2049797764508452E-02
  -0.3826434315670889E-02
  -0.3689338788625472E-03
   0.4754280564441433E-03
   0.3838372954262249E-02
   0.6958324974956585E-03
   0.3824276222759033E-02
   0.3870939686865655E-02
   0.1099720135861961E-02
  -0.6621888382146360E-04
  -0.1542764391978515E-02
  -0.1334047720848487E-02
   0.1892418765334164E-02
   0.6793203975354732E-02
   0.5033406971597006E-03
   0.5950735471700788E-02
  -0.6202694606785289E-02
   0.4098837052722334E-02
  -0.7333887530057372E-03
  -0.3204054701774610E-02
  -0.8067201903843433E-03
   0.1812668357179181E-03
  -0.9731467376175798E-03
   0.4263488579135296E-03
   0.6234286020260993E-02
   0.1515646162573661E-01
  -0.1193850222745093E-01
  -0.1112219314601039E-03
  -0.4521664094259262E-03
   0.1419389453050490E-02
  -0.1411754299575158E-02
  -0.3072802959137320E-02
   0.4991214508185777E-02
SCALARS w double 1
LOOKUP_TABLE default
   0.0000000000000000E+00
   0.0000000000000000E+00
   0.0000000000000000E+00
   0.0000000000000000E+00
   0.0000000000000000E+00
   0.0000000000000000E+00
   0.0000000000000000E+00
   0.0000000000000000E+00
   0.0000000000000000E+00
   0.0000000000000000E+00
   0.0000000000000000E+00
   0.0000000000000000E+00
   0.0000000000000000E+00
   0.0000000000000000E+00
   0.0000000000000000E+00
   0.0000000000000000E+00
   0.0000000000000000E+00
   0.0000000000000000E+00
   0.0000000000000000E+00
   0.0000000000000000E+00
   0.0000000000000000E+00
   0.0000000000000000E+00
   0.0000000000000000E+00
   0.0000000000000000E+00
   0.0000000000000000E+00
   0.0000000000000000E+00
   0.0000000000000000E+00
   0.0000000000000000E+00
   0.0000000000000000E+00
   0.0000000000000000E+00
   0.0000000000000000E+00
   0.0000000000000000E+00
   0.0000000000000000E+00
  -0.1401215943939256E+00
  -0.6206642076020962E-01
  -0.7700444810477600E-02
   0.1831164759594225E-02
  -0.6587159660566030E-02
  -0.7225826848924147E-02
  -0.6253230705816000E-02
  -0.3054097126525131E-02
  -0.6663712260192843E-03
   0.1850365380775545E-02
   0.5983221870337859E-02
  -0.7100712790476491E-02
  -0.7158443082699422E-02
  -0.3887469674381787E-01
  -0.5247802258094665E-02
   0.1873114382742884E-02
  -0.9063899384284994E-03
   0.2330252560499162E-01
  -0.7798315167797649E-02
  -0.1747190870144076E-01
  -0.1005606550824418E-01
  -0.8146554091146264E-02
  -0.5025828665850082E-02
  -0.5716839676900208E-01
   0.9457594339358260E-02
   0.1896074426031575E-01
   0.1513418290329842E-01
  -0.2673943357437289E-02
   0.9887395955799391E-03
   0.1045565811417963E-02
   0.8505680307235871E-03
   0.2526420371127280E-02
  -0.5106401582896143E-02
  -0.5596067191487372E-01
  -0.1332922091950245E+00
  -0.1619724642665595E+00
  -0.2364688397964185E-02
  -0.3704652285177097E-02
  -0.1448517704250753E+00
  -0.1416678483668637E+00
  -0.1469370858094254E+00
  -0.1295296336353990E+00
  -0.8923824561617696E-01
  -0.2101947649292132E-02
  -0.3142329606602731E-01
  -0.2623364279597785E-01
  -0.1686786079153771E-01
   0.3281577546086570E-03
  -0.1099110077051410E+00
  -0.4375360770715678E-01
  -0.1069384016806093E+00
  -0.8097242557152373E-01
  -0.2841186843788637E-02
  -0.2397843135031471E-02
  -0.2220887034319364E-02
  -0.2121408710271891E-02
  -0.5004033971972100E-02
  -0.7272646210591748E-02
  -0.6426165214585344E-02
  -0.5338700485266378E-02
  -0.4798385744841129E-02
  -0.5570732253529388E-02
  -0.6156583262426645E-02
  -0.6372825293414868E-02
  -0.5957322342306552E-02
  -0.7892552175685671E-02
  -0.7401020004806220E-02
  -0.4522859532172379E-02
  -0.6362911261962596E-02
  -0.6602711554646348E-02
  -0.4572128558756633E-02
  -0.7295645190065730E-02
  -0.7040865698480659E-02
  -0.7287175049676852E-02
  -0.7592033441286272E-02
  -0.2445193262799971E-02
   0.5652621982714084E-03
  -0.2324933270373919E-02
  -0.3796363275548986E-02
  -0.3179586797084978E-01
   0.8528667671858623E-02
  -0.3845400097356813E-02
  -0.4365393426618892E-02
  -0.2799382767843438E-02
  -0.1006462911250659E-01
  -0.6427623324640939E-02
  -0.5048375447788926E-01
   0.2498817954315879E-01
   0.1028180253385076E-01
  -0.3905368600064559E-01