TITLE="fun3d_case_title"
VARIABLES="Iteration" "R_1" "R_2" "R_3" "R_4" "R_5" "C_L" "C_D" "C_M_x" "C_M_y" "C_M_z" "Wall Time" "C_x" "C_y" "C_z" "C_Lp" "C_Dp" "C_Lv" "C_Dv" "C_M_xp" "C_M_yp" "C_M_zp" "C_M_xv" "C_M_yv" "C_M_zv" "C_xp" "C_yp" "C_zp" "C_xv" "C_yv" "C_zv"
ZONE  I=100 F=POINT
1  0.2160287136E-01  0.2804887047E-01  0.2161193411E-02  0.5316853910E-02  0.5302292613E-01 -0.4827319000E+01  0.4117804032E-02 -0.2090018925E+00 -0.3520877703E+00 -0.3609482574E-04  0.3263000000E+00  0.4117804032E-02  0.7182703188E-05 -0.4827319000E+01 -0.4827516630E+01  0.0000000000E+00  0.1976297389E-03  0.4117804032E-02 -0.2089972950E+00 -0.3519085436E+00  0.0000000000E+00 -0.4597491992E-05 -0.1792266777E-03 -0.3609482574E-04  0.0000000000E+00  0.0000000000E+00 -0.4827516630E+01  0.4117804032E-02  0.7182703188E-05  0.1976297389E-03
2  0.1278934504E-01  0.1580635947E-01  0.2338219237E-02  0.4999739238E-02  0.3795345287E-01  0.1387627729E+01  0.4156381580E-02 -0.5309648857E-01 -0.1746251703E+02 -0.6468888830E-04  0.3853000000E+00  0.4156381580E-02  0.1382567129E-06  0.1387627729E+01  0.1387446234E+01  0.0000000000E+00  0.1814955641E-03  0.4156381580E-02 -0.5308828281E-01 -0.1746251490E+02  0.0000000000E+00 -0.8205759782E-05 -0.2127016396E-05 -0.6468888830E-04  0.0000000000E+00  0.0000000000E+00  0.1387446234E+01  0.4156381580E-02  0.1382567129E-06  0.1814955641E-03
3  0.4616343233E-02  0.1070938196E-01  0.1468286660E-02  0.3448527728E-02  0.1138070717E-01  0.5389608594E+01  0.4122720387E-02 -0.9481932631E-01 -0.2521696673E+02 -0.8784987853E-04  0.4398000000E+00  0.4122720387E-02 -0.3691528663E-05  0.5389608594E+01  0.5389516407E+01  0.0000000000E+00  0.9218763813E-04  0.4122720387E-02 -0.9480718813E-01 -0.2521720961E+02  0.0000000000E+00 -0.1213817707E-04  0.2428792321E-03 -0.8784987853E-04  0.0000000000E+00  0.0000000000E+00  0.5389516407E+01  0.4122720387E-02 -0.3691528663E-05  0.9218763813E-04
4  0.3368629894E-02  0.7091773972E-02  0.8190498130E-03  0.3031048410E-02  0.8541404952E+40  0.6941183840E+01  0.5646177512E-02 -0.5060267975E+00 -0.2977213583E+02 -0.1843514772E-04  0.4942000000E+00  0.5646177512E-02  0.8826794075E-05  0.6941183840E+01  0.6940889001E+01  0.0000000000E+00  0.2948392430E-03  0.5646177512E-02 -0.5060397380E+00 -0.2977184548E+02  0.0000000000E+00  0.1294048684E-04 -0.2903511557E-03 -0.1843514772E-04  0.0000000000E+00  0.0000000000E+00  0.6940889001E+01  0.5646177512E-02  0.8826794075E-05  0.2948392430E-03
5  0.1804956571E-01  0.1289650228E-01  0.2650964993E-02  0.2252811772E-01  0.4370233136E-01  0.1239104261E+02  0.4934010599E-02 -0.3058263617E+00 -0.5123606052E+02 -0.2058907332E-04  0.5489000000E+00  0.4934010599E-02  0.3659520787E-06  0.1239104261E+02  0.1239076970E+02  0.0000000000E+00  0.2729089026E-03  0.4934010599E-02 -0.3058455082E+00 -0.5123589615E+02  0.0000000000E+00  0.1914652094E-04 -0.1643647905E-03 -0.2058907332E-04  0.0000000000E+00  0.0000000000E+00  0.1239076970E+02  0.4934010599E-02  0.3659520787E-06  0.2729089026E-03
6  0.1262386103E-01  0.8728155335E-02  0.2012885062E-02  0.9475834189E-02  0.2931824400E-01  0.1266967885E+02  0.4522778303E-02  0.1703607418E+00 -0.4988480559E+02 -0.6109930633E-04  0.6033000000E+00  0.4522778303E-02 -0.2543703440E-05  0.1266967885E+02  0.1266963173E+02  0.0000000000E+00  0.4711327693E-04  0.4522778303E-02  0.1703536534E+00 -0.4988528143E+02  0.0000000000E+00  0.7088372275E-05  0.4758453148E-03 -0.6109930633E-04  0.0000000000E+00  0.0000000000E+00  0.1266963173E+02  0.4522778303E-02 -0.2543703440E-05  0.4711327693E-04
7  0.5446859724E-02  0.6488206482E-02  0.1136890193E-02  0.8426219295E-02  0.1319553315E-01  0.1058842122E+02  0.4307893519E-02 -0.1217558759E-01 -0.4131543920E+02 -0.7573331514E-04  0.6577000000E+00  0.4307893519E-02 -0.3563675371E-05  0.1058842122E+02  0.1058848280E+02  0.0000000000E+00 -0.6157636495E-04  0.4307893519E-02 -0.1218092326E-01 -0.4131619901E+02  0.0000000000E+00  0.5335670328E-05  0.7598075082E-03 -0.7573331514E-04  0.0000000000E+00  0.0000000000E+00  0.1058848280E+02  0.4307893519E-02 -0.3563675371E-05 -0.6157636495E-04
8  0.3822366564E-02  0.4566656407E-02  0.9381683748E-03  0.5811023867E-02  0.9002547653E-02  0.9688470176E+01  0.4201405805E-02 -0.2130932091E+00 -0.3602342053E+02 -0.6587038850E-04  0.7122000000E+00  0.4201405805E-02 -0.1318993356E-05  0.9688470176E+01  0.9688561694E+01  0.0000000000E+00 -0.9151818877E-04  0.4201405805E-02 -0.2130981978E+00 -0.3602420307E+02  0.0000000000E+00  0.4988695185E-05  0.7825429144E-03 -0.6587038850E-04  0.0000000000E+00  0.0000000000E+00  0.9688561694E+01  0.4201405805E-02 -0.1318993356E-05 -0.9151818877E-04
9  0.3010034386E-02  0.3066484837E-02  0.7872020834E-03  0.4447764956E-02  0.6262995088+129  0.1048637271E+02  0.5747498359E-02 -0.5818489339E+00 -0.3837398385E+02  0.3342232726E-04  0.7669000000E+00  0.5747498359E-02  0.1834516741E-04  0.1048637271E+02  0.1048626131E+02  0.0000000000E+00  0.1113923268E-03  0.5747498359E-02 -0.5818866160E+00 -0.3837421701E+02  0.0000000000E+00  0.3768212287E-04  0.2331641943E-03  0.3342232726E-04  0.0000000000E+00  0.0000000000E+00  0.1048626131E+02  0.5747498359E-02  0.1834516741E-04  0.1113923268E-03
10  0.1531521321E-01  0.9858657101E-02  0.2676899042E-02  0.1645526006E-01  0.4111095540E-01  0.1579845379E+02  0.5038019612E-02 -0.5019145924E+00 -0.5791814360E+02  0.3379715277E-04  0.8325000000E+00  0.5038019612E-02  0.9848972681E-05  0.1579845379E+02  0.1579832729E+02  0.0000000000E+00  0.1264979165E-03  0.5038019612E-02 -0.5019453216E+00 -0.5791833131E+02  0.0000000000E+00  0.3072918487E-04  0.1877174311E-03  0.3379715277E-04  0.0000000000E+00  0.0000000000E+00  0.1579832729E+02  0.5038019612E-02  0.9848972681E-05  0.1264979165E-03
11  0.1235931561E-01  0.8097419283E-02  0.1937305884E-02  0.9350187255E-02  0.3253651236E-01  0.1332427348E+02  0.4605211431E-02 -0.5640268658E-01 -0.5213978499E+02 -0.1586920814E-04  0.1093400000E+01  0.4605211431E-02  0.2790514120E-05  0.1332427348E+02  0.1332429703E+02  0.0000000000E+00 -0.2354425817E-04  0.4605211431E-02 -0.5642725298E-01 -0.5214044771E+02  0.0000000000E+00  0.2456640360E-04  0.6627240453E-03 -0.1586920814E-04  0.0000000000E+00  0.0000000000E+00  0.1332429703E+02  0.4605211431E-02  0.2790514120E-05 -0.2354425817E-04
12  0.5539224895E-02  0.7011568033E-02  0.1487907980E-02  0.7390429774E-02  0.1447395179E-01  0.1107699098E+02  0.4394432097E-02 -0.5536658160E-01 -0.4347948121E+02 -0.4806697483E-04  0.1158600000E+01  0.4394432097E-02 -0.1229992724E-06  0.1107699098E+02  0.1107708829E+02  0.0000000000E+00 -0.9731111532E-04  0.4394432097E-02 -0.5538921081E-01 -0.4348036763E+02  0.0000000000E+00  0.2262920558E-04  0.8864198077E-03 -0.4806697483E-04  0.0000000000E+00  0.0000000000E+00  0.1107708829E+02  0.4394432097E-02 -0.1229992724E-06 -0.9731111532E-04
13  0.3718104382E-02  0.4516487204E-02  0.1028235196E-02  0.5382952318E-02  0.9036168143E-02  0.1039534881E+02  0.4294898479E-02 -0.1647214023E+00 -0.3854839366E+02 -0.5109554231E-04  0.1223800000E+01  0.4294898479E-02  0.1042147544E-05  0.1039534881E+02  0.1039546460E+02  0.0000000000E+00 -0.1157904185E-03  0.4294898479E-02 -0.1647396053E+00 -0.3854928246E+02  0.0000000000E+00  0.1820304484E-04  0.8888075424E-03 -0.5109554231E-04  0.0000000000E+00  0.0000000000E+00  0.1039546460E+02  0.4294898479E-02  0.1042147544E-05 -0.1157904185E-03
14  0.2847993380E-02  0.2454559393E-02  0.5902792299E-03  0.3377949842E-02  0.6513302405E-02  0.1067670318E+02  0.4242143831E-02 -0.3423457609E+00 -0.3731551616E+02 -0.4373500051E-04  0.1289000000E+01  0.4242143831E-02  0.2723024045E-05  0.1067670318E+02  0.1067682316E+02  0.0000000000E+00 -0.1199746082E-03  0.4242143831E-02 -0.3423583932E+00 -0.3731634209E+02  0.0000000000E+00  0.1263223064E-04  0.8259269641E-03 -0.4373500051E-04  0.0000000000E+00  0.0000000000E+00  0.1067682316E+02  0.4242143831E-02  0.2723024045E-05 -0.1199746082E-03
15  0.2102414082E-02  0.2037188632E-02  0.4373426367E-03  0.2497354233E-02  0.4312262555E-02  0.1083487041E+02  0.4197180122E-02 -0.4836565786E+00 -0.3675911695E+02 -0.3275576066E-04  0.1344800000E+01  0.4197180122E-02  0.5208391230E-05  0.1083487041E+02  0.1083499858E+02  0.0000000000E+00 -0.1281708969E-03  0.4197180122E-02 -0.4836666925E+00 -0.3675990280E+02  0.0000000000E+00  0.1011396549E-04  0.7858509004E-03 -0.3275576066E-04  0.0000000000E+00  0.0000000000E+00  0.1083499858E+02  0.4197180122E-02  0.5208391230E-05 -0.1281708969E-03
16  0.1494090656E-02  0.1833815630E-02  0.4973153775E-03  0.1920869525E-02  0.2951177513E-02  0.1078568943E+02  0.4152580059E-02 -0.5946682233E+00 -0.3612900041E+02 -0.2097779067E-04  0.1410200000E+01  0.4152580059E-02  0.8186884965E-05  0.1078568943E+02  0.1078583186E+02  0.0000000000E+00 -0.1424232733E-03  0.4152580059E-02 -0.5946785958E+00 -0.3612977936E+02  0.0000000000E+00  0.1037248273E-04  0.7789540894E-03 -0.2097779067E-04  0.0000000000E+00  0.0000000000E+00  0.1078583186E+02  0.4152580059E-02  0.8186884965E-05 -0.1424232733E-03
17  0.9913785638E-03  0.1521994439E-02  0.4752590476E-03  0.1682511127E-02  0.2014261001E-02  0.1064292851E+02  0.4118712026E-02 -0.6730267183E+00 -0.3554920490E+02 -0.9080468529E-05  0.1467300000E+01  0.4118712026E-02  0.1111190999E-04  0.1064292851E+02  0.1064308564E+02  0.0000000000E+00 -0.1571246609E-03  0.4118712026E-02 -0.6730388091E+00 -0.3554999125E+02  0.0000000000E+00  0.1209081612E-04  0.7863523158E-03 -0.9080468529E-05  0.0000000000E+00  0.0000000000E+00  0.1064308564E+02  0.4118712026E-02  0.1111190999E-04 -0.1571246609E-03
18  0.8237028731E-03  0.1239604563E-02  0.3643914411E-03  0.1506679373E-02  0.1763299404E-02  0.1051978747E+02  0.4094132987E-02 -0.7299723563E+00 -0.3505868350E+02  0.1946510457E-05  0.1533000000E+01  0.4094132987E-02  0.1366581050E-04  0.1051978747E+02  0.1051995687E+02  0.0000000000E+00 -0.1693917994E-03  0.4094132987E-02 -0.7299864444E+00 -0.3505947739E+02  0.0000000000E+00  0.1408808789E-04  0.7938926434E-03  0.1946510457E-05  0.0000000000E+00  0.0000000000E+00  0.1051995687E+02  0.4094132987E-02  0.1366581050E-04 -0.1693917994E-03
19  0.6431255470E-03  0.1004151820E-02  0.2827044576E-03  0.1158831194E-02  0.1365743378E-02  0.1045701880E+02  0.4077420183E-02 -0.7682475999E+00 -0.3473114574E+02  0.1201639096E-04  0.1589900000E+01  0.4077420183E-02  0.1580083366E-04  0.1045701880E+02  0.1045719674E+02  0.0000000000E+00 -0.1779373017E-03  0.4077420183E-02 -0.7682634039E+00 -0.3473194137E+02  0.0000000000E+00  0.1580402006E-04  0.7956345762E-03  0.1201639096E-04  0.0000000000E+00  0.0000000000E+00  0.1045719674E+02  0.4077420183E-02  0.1580083366E-04 -0.1779373017E-03
20  0.4681415919E-03  0.8044035314E-03  0.2366620515E-03  0.1196932136E-02  0.9404086080E-03  0.1041447790E+02  0.4064469241E-02 -0.7941044173E+00 -0.3448573838E+02  0.2161818657E-04  0.1655300000E+01  0.4064469241E-02  0.1786940669E-04  0.1041447790E+02  0.1041466157E+02  0.0000000000E+00 -0.1836709203E-03  0.4064469241E-02 -0.7941220349E+00 -0.3448653259E+02  0.0000000000E+00  0.1761762446E-04  0.7942128716E-03  0.2161818657E-04  0.0000000000E+00  0.0000000000E+00  0.1041466157E+02  0.4064469241E-02  0.1786940669E-04 -0.1836709203E-03
21  0.3523042359E-03  0.6470060602E-03  0.1997955156E-03  0.6846948969E-03  0.6313670798E-03  0.1043689349E+02  0.4054214677E-02 -0.8172641936E+00 -0.3438776006E+02  0.2973188403E-04  0.1900200000E+01  0.4054214677E-02  0.1950952375E-04  0.1043689349E+02  0.1043708156E+02  0.0000000000E+00 -0.1880663200E-03  0.4054214677E-02 -0.8172832784E+00 -0.3438855208E+02  0.0000000000E+00  0.1908483949E-04  0.7920279715E-03  0.2973188403E-04  0.0000000000E+00  0.0000000000E+00  0.1043708156E+02  0.4054214677E-02  0.1950952375E-04 -0.1880663200E-03
22  0.2961851469E-03  0.5245411131E-03  0.1675278787E-03  0.4519198601E-03  0.4888540416E-03  0.1047660655E+02  0.4045314906E-02 -0.8379192254E+00 -0.3434102065E+02  0.3635745085E-04  0.1965600000E+01  0.4045314906E-02  0.2083478250E-04  0.1047660655E+02  0.1047679843E+02  0.0000000000E+00 -0.1918767773E-03  0.4045314906E-02 -0.8379397190E+00 -0.3434181118E+02  0.0000000000E+00  0.2049362174E-04  0.7905222074E-03  0.3635745085E-04  0.0000000000E+00  0.0000000000E+00  0.1047679843E+02  0.4045314906E-02  0.2083478250E-04 -0.1918767773E-03
23  0.2543015137E-03  0.4138340423E-03  0.1412009805E-03  0.3428626261E-03  0.3960139993E-03  0.1050821188E+02  0.4037644910E-02 -0.8510564528E+00 -0.3430480958E+02  0.4184597874E-04  0.2022700000E+01  0.4037644910E-02  0.2195957038E-04  0.1050821188E+02  0.1050840699E+02  0.0000000000E+00 -0.1951189855E-03  0.4037644910E-02 -0.8510782303E+00 -0.3430559914E+02  0.0000000000E+00  0.2177746628E-04  0.7895657471E-03  0.4184597874E-04  0.0000000000E+00  0.0000000000E+00  0.1050840699E+02  0.4037644910E-02  0.2195957038E-04 -0.1951189855E-03
24  0.2249667314E-03  0.3223987119E-03  0.1180904819E-03  0.2740627492E-03  0.3204811232E-03  0.1053167905E+02  0.4031119698E-02 -0.8595307835E+00 -0.3427373171E+02  0.4644215878E-04  0.2088900000E+01  0.4031119698E-02  0.2293797074E-04  0.1053167905E+02  0.1053187686E+02  0.0000000000E+00 -0.1978105820E-03  0.4031119698E-02 -0.8595536805E+00 -0.3427452050E+02  0.0000000000E+00  0.2289699064E-04  0.7887960599E-03  0.4644215878E-04  0.0000000000E+00  0.0000000000E+00  0.1053187686E+02  0.4031119698E-02  0.2293797074E-04 -0.1978105820E-03
25  0.1922562944E-03  0.2511772467E-03  0.9848382366E-04  0.2233908866E-03  0.2794190489E-03  0.1054337110E+02  0.4025819358E-02 -0.8560083863E+00 -0.3424259409E+02  0.5050134667E-04  0.2145600000E+01  0.4025819358E-02  0.2382984801E-04  0.1054337110E+02  0.1054357096E+02  0.0000000000E+00 -0.1998587854E-03  0.4025819358E-02 -0.8560320187E+00 -0.3424338189E+02  0.0000000000E+00  0.2363240745E-04  0.7878054209E-03  0.5050134667E-04  0.0000000000E+00  0.0000000000E+00  0.1054357096E+02  0.4025819358E-02  0.2382984801E-04 -0.1998587854E-03
26  0.1758129417E-03  0.1967387093E-03  0.8049410880E-04  0.1794260649E-03  0.2709163260E-03  0.1055144007E+02  0.4021488341E-02 -0.8503254492E+00 -0.3421529879E+02  0.5407897507E-04  0.2202900000E+01  0.4021488341E-02  0.2460551318E-04  0.1055144007E+02  0.1055164152E+02  0.0000000000E+00 -0.2014452501E-03  0.4021488341E-02 -0.8503495122E+00 -0.3421608550E+02  0.0000000000E+00  0.2406306528E-04  0.7867075169E-03  0.5407897507E-04  0.0000000000E+00  0.0000000000E+00  0.1055164152E+02  0.4021488341E-02  0.2460551318E-04 -0.2014452501E-03
27  0.1619566633E-03  0.1579736992E-03  0.6635795157E-04  0.1452460761E-03  0.2605989023E-03  0.1055825942E+02  0.4017821714E-02 -0.8465315298E+00 -0.3419008105E+02  0.5718950048E-04  0.2258900000E+01  0.4017821714E-02  0.2525480073E-04  0.1055825942E+02  0.1055846214E+02  0.0000000000E+00 -0.2027217865E-03  0.4017821714E-02 -0.8465558580E+00 -0.3419086665E+02  0.0000000000E+00  0.2432819691E-04  0.7855977075E-03  0.5718950048E-04  0.0000000000E+00  0.0000000000E+00  0.1055846214E+02  0.4017821714E-02  0.2525480073E-04 -0.2027217865E-03
28  0.1490009104E-03  0.1311610636E-03  0.5546948210E-04  0.1202366694E-03  0.2476709855E-03  0.1055945112E+02  0.4014693146E-02 -0.8351732999E+00 -0.3416427472E+02  0.6003509300E-04  0.2324300000E+01  0.4014693146E-02  0.2583933033E-04  0.1055945112E+02  0.1055965477E+02  0.0000000000E+00 -0.2036507950E-03  0.4014693146E-02 -0.8351975954E+00 -0.3416505908E+02  0.0000000000E+00  0.2429544059E-04  0.7843596526E-03  0.6003509300E-04  0.0000000000E+00  0.0000000000E+00  0.1055965477E+02  0.4014693146E-02  0.2583933033E-04 -0.2036507950E-03
29  0.1376190974E-03  0.1106716064E-03  0.4735818539E-04  0.9892796605E-04  0.1999213130E-03  0.1056569334E+02  0.4011844671E-02 -0.8365236939E+00 -0.3414433937E+02  0.6239405768E-04  0.2380300000E+01  0.4011844671E-02  0.2627422278E-04  0.1056569334E+02  0.1056589787E+02  0.0000000000E+00 -0.2045247782E-03  0.4011844671E-02 -0.8365480621E+00 -0.3414512274E+02  0.0000000000E+00  0.2436819391E-04  0.7833729007E-03  0.6239405768E-04  0.0000000000E+00  0.0000000000E+00  0.1056589787E+02  0.4011844671E-02  0.2627422278E-04 -0.2045247782E-03
30  0.1287991055E-03  0.9685023673E-04  0.3987729358E-04  0.8562086384E-04  0.1950393737E-03  0.1057105679E+02  0.4009179075E-02 -0.8402928293E+00 -0.3412332180E+02  0.6435759790E-04  0.2438200000E+01  0.4009179075E-02  0.2662015941E-04  0.1057105679E+02  0.1057126209E+02  0.0000000000E+00 -0.2052999199E-03  0.4009179075E-02 -0.8403173699E+00 -0.3412410426E+02  0.0000000000E+00  0.2454064794E-04  0.7824574710E-03  0.6435759790E-04  0.0000000000E+00  0.0000000000E+00  0.1057126209E+02  0.4009179075E-02  0.2662015941E-04 -0.2052999199E-03
31  0.1208706906E-03  0.8682870811E-04  0.3376133307E-04  0.7596869616E-04  0.1897866269E-03  0.1057497531E+02  0.4006687958E-02 -0.8429668632E+00 -0.3410279065E+02  0.6604458394E-04  0.2697600000E+01  0.4006687958E-02  0.2691707138E-04  0.1057497531E+02  0.1057518127E+02  0.0000000000E+00 -0.2059594933E-03  0.4006687958E-02 -0.8429916024E+00 -0.3410357221E+02  0.0000000000E+00  0.2473927630E-04  0.7815527629E-03  0.6604458394E-04  0.0000000000E+00  0.0000000000E+00  0.1057518127E+02  0.4006687958E-02  0.2691707138E-04 -0.2059594933E-03
32  0.1135687193E-03  0.7872756915E-04  0.2933312387E-04  0.6776376212E-04  0.1818342353E-03  0.1057780347E+02  0.4004343591E-02 -0.8440166596E+00 -0.3408389551E+02  0.6752694326E-04  0.2763700000E+01  0.4004343591E-02  0.2718105483E-04  0.1057780347E+02  0.1057800998E+02  0.0000000000E+00 -0.2065091449E-03  0.4004343591E-02 -0.8440415633E+00 -0.3408467617E+02  0.0000000000E+00  0.2490368651E-04  0.7806572186E-03  0.6752694326E-04  0.0000000000E+00  0.0000000000E+00  0.1057800998E+02  0.4004343591E-02  0.2718105483E-04 -0.2065091449E-03
33  0.1067643723E-03  0.7173125275E-04  0.2582530028E-04  0.6036048751E-04  0.1730062167E-03  0.1057978169E+02  0.4002154627E-02 -0.8442102116E+00 -0.3406685332E+02  0.6885069404E-04  0.2820900000E+01  0.4002154627E-02  0.2741569160E-04  0.1057978169E+02  0.1057998866E+02  0.0000000000E+00 -0.2069663239E-03  0.4002154627E-02 -0.8442352356E+00 -0.3406763311E+02  0.0000000000E+00  0.2502399794E-04  0.7797888086E-03  0.6885069404E-04  0.0000000000E+00  0.0000000000E+00  0.1057998866E+02  0.4002154627E-02  0.2741569160E-04 -0.2069663239E-03
34  0.1004866395E-03  0.6565358532E-04  0.2288001313E-04  0.5376035682E-04  0.1652981476E-03  0.1058129371E+02  0.4000102622E-02 -0.8439909407E+00 -0.3405148572E+02  0.7004834251E-04  0.2877100000E+01  0.4000102622E-02  0.2762555901E-04  0.1058129371E+02  0.1058150106E+02  0.0000000000E+00 -0.2073512519E-03  0.4000102622E-02 -0.8440160449E+00 -0.3405226468E+02  0.0000000000E+00  0.2510418790E-04  0.7789587952E-03  0.7004834251E-04  0.0000000000E+00  0.0000000000E+00  0.1058150106E+02  0.4000102622E-02  0.2762555901E-04 -0.2073512519E-03
35  0.9461652694E-04  0.6044789690E-04  0.2039172642E-04  0.4816124835E-04  0.1584157010E-03  0.1058246939E+02  0.3998170891E-02 -0.8436016487E+00 -0.3403741989E+02  0.7114554309E-04  0.2933300000E+01  0.3998170891E-02  0.2781453712E-04  0.1058246939E+02  0.1058267707E+02  0.0000000000E+00 -0.2076796803E-03  0.3998170891E-02 -0.8436268016E+00 -0.3403819806E+02  0.0000000000E+00  0.2515292146E-04  0.7781685339E-03  0.7114554309E-04  0.0000000000E+00  0.0000000000E+00  0.1058267707E+02  0.3998170891E-02  0.2781453712E-04 -0.2076796803E-03
36  0.8916024707E-04  0.5597895942E-04  0.1829844175E-04  0.4348459533E-04  0.1519255024E-03  0.1058342015E+02  0.3996334417E-02 -0.8430633843E+00 -0.3402440496E+02  0.7216112174E-04  0.2998800000E+01  0.3996334417E-02  0.2798614999E-04  0.1058342015E+02  0.1058362812E+02  0.0000000000E+00 -0.2079634670E-03  0.3996334417E-02 -0.8430885593E+00 -0.3402518238E+02  0.0000000000E+00  0.2517506065E-04  0.7774160004E-03  0.7216112174E-04  0.0000000000E+00  0.0000000000E+00  0.1058362812E+02  0.3996334417E-02  0.2798614999E-04 -0.2079634670E-03
37  0.8416119363E-04  0.5210943048E-04  0.1652600798E-04  0.3955977943E-04  0.1452531584E-03  0.1058408171E+02  0.3994595047E-02 -0.8425133355E+00 -0.3401220851E+02  0.7310940703E-04  0.3055100000E+01  0.3994595047E-02  0.2814172798E-04  0.1058408171E+02  0.1058428992E+02  0.0000000000E+00 -0.2082094785E-03  0.3994595047E-02 -0.8425385144E+00 -0.3401298521E+02  0.0000000000E+00  0.2517888441E-04  0.7766979747E-03  0.7310940703E-04  0.0000000000E+00  0.0000000000E+00  0.1058428992E+02  0.3994595047E-02  0.2814172798E-04 -0.2082094785E-03
38  0.7950930645E-04  0.4868645279E-04  0.1501317846E-04  0.3621945209E-04  0.1389727451E-03  0.1058455200E+02  0.3992941195E-02 -0.8418968125E+00 -0.3400072856E+02  0.7400177536E-04  0.3111500000E+01  0.3992941195E-02  0.2828359867E-04  0.1058455200E+02  0.1058476043E+02  0.0000000000E+00 -0.2084246380E-03  0.3992941195E-02 -0.8419219800E+00 -0.3400150458E+02  0.0000000000E+00  0.2516744963E-04  0.7760131167E-03  0.7400177536E-04  0.0000000000E+00  0.0000000000E+00  0.1058476043E+02  0.3992941195E-02  0.2828359867E-04 -0.2084246380E-03
39  0.7517058345E-04  0.4566831778E-04  0.1371942915E-04  0.3337474971E-04  0.1329447482E-03  0.1058487094E+02  0.3991362951E-02 -0.8412055073E+00 -0.3398986928E+02  0.7484801093E-04  0.3168700000E+01  0.3991362951E-02  0.2841388626E-04  0.1058487094E+02  0.1058507956E+02  0.0000000000E+00 -0.2086142665E-03  0.3991362951E-02 -0.8412306500E+00 -0.3399064464E+02  0.0000000000E+00  0.2514275833E-04  0.7753595102E-03  0.7484801093E-04  0.0000000000E+00  0.0000000000E+00  0.1058507956E+02  0.3991362951E-02  0.2841388626E-04 -0.2086142665E-03
40  0.7111627379E-04  0.4296968876E-04  0.1260671211E-04  0.3092951559E-04  0.1271328366E-03  0.1058511264E+02  0.3989844984E-02 -0.8404161576E+00 -0.3397960189E+02  0.7565623866E-04  0.3234600000E+01  0.3989844984E-02  0.2853450538E-04  0.1058511264E+02  0.1058532142E+02  0.0000000000E+00 -0.2087833191E-03  0.3989844984E-02 -0.8404412629E+00 -0.3398037663E+02  0.0000000000E+00  0.2510533598E-04  0.7747361450E-03  0.7565623866E-04  0.0000000000E+00  0.0000000000E+00  0.1058532142E+02  0.3989844984E-02  0.2853450538E-04 -0.2087833191E-03
41  0.6737124122E-04  0.4054168220E-04  0.1163956252E-04  0.2879895093E-04  0.1212995458E-03  0.1058523249E+02  0.3988390019E-02 -0.8396387881E+00 -0.3396984564E+02  0.7643130066E-04  0.3489100000E+01  0.3988390019E-02  0.2864605370E-04  0.1058523249E+02  0.1058544143E+02  0.0000000000E+00 -0.2089341027E-03  0.3988390019E-02 -0.8396638476E+00 -0.3397061978E+02  0.0000000000E+00  0.2505943426E-04  0.7741406098E-03  0.7643130066E-04  0.0000000000E+00  0.0000000000E+00  0.1058544143E+02  0.3988390019E-02  0.2864605370E-04 -0.2089341027E-03
42  0.6385047611E-04  0.3830388011E-04  0.1078570874E-04  0.2691918494E-04  0.1158535529E-03  0.1058529113E+02  0.3986992457E-02 -0.8388460650E+00 -0.3396058055E+02  0.7717729132E-04  0.3545500000E+01  0.3986992457E-02  0.2874959408E-04  0.1058529113E+02  0.1058550020E+02  0.0000000000E+00 -0.2090698279E-03  0.3986992457E-02 -0.8388710717E+00 -0.3396135412E+02  0.0000000000E+00  0.2500665382E-04  0.7735720184E-03  0.7717729132E-04  0.0000000000E+00  0.0000000000E+00  0.1058550020E+02  0.3986992457E-02  0.2874959408E-04 -0.2090698279E-03
43  0.6055056495E-04  0.3625906626E-04  0.1003346060E-04  0.2525857579E-04  0.1106947007E-03  0.1058530815E+02  0.3985647760E-02 -0.8380347334E+00 -0.3395176929E+02  0.7789776767E-04  0.3601900000E+01  0.3985647760E-02  0.2884608983E-04  0.1058530815E+02  0.1058551734E+02  0.0000000000E+00 -0.2091929122E-03  0.3985647760E-02 -0.8380596814E+00 -0.3395254232E+02  0.0000000000E+00  0.2494804295E-04  0.7730289024E-03  0.7789776767E-04  0.0000000000E+00  0.0000000000E+00  0.1058551734E+02  0.3985647760E-02  0.2884608983E-04 -0.2091929122E-03
44  0.5745595647E-04  0.3437093084E-04  0.9367420025E-05  0.2377688186E-04  0.1057908756E-03  0.1058532572E+02  0.3984347182E-02 -0.8371813308E+00 -0.3394340471E+02  0.7859640919E-04  0.3667700000E+01  0.3984347182E-02  0.2893642584E-04  0.1058532572E+02  0.1058553503E+02  0.0000000000E+00 -0.2093058582E-03  0.3984347182E-02 -0.8372062143E+00 -0.3394417722E+02  0.0000000000E+00  0.2488357862E-04  0.7725105626E-03  0.7859640919E-04  0.0000000000E+00  0.0000000000E+00  0.1058553503E+02  0.3984347182E-02  0.2893642584E-04 -0.2093058582E-03
45  0.5458596740E-04  0.3262689906E-04  0.8773583983E-05  0.2243671429E-04  0.1009686660E-03  0.1058529954E+02  0.3983094083E-02 -0.8363622360E+00 -0.3393542646E+02  0.7927417673E-04  0.3724200000E+01  0.3983094083E-02  0.2902079512E-04  0.1058529954E+02  0.1058550895E+02  0.0000000000E+00 -0.2094092541E-03  0.3983094083E-02 -0.8363870519E+00 -0.3393619847E+02  0.0000000000E+00  0.2481585485E-04  0.7720148945E-03  0.7927417673E-04  0.0000000000E+00  0.0000000000E+00  0.1058550895E+02  0.3983094083E-02  0.2902079512E-04 -0.2094092541E-03
46  0.5188336508E-04  0.3097985569E-04  0.8231725167E-05  0.2121082952E-04  0.9649213875E-04  0.1058526469E+02  0.3981885631E-02 -0.8355493378E+00 -0.3392781996E+02  0.7993260977E-04  0.3780600000E+01  0.3981885631E-02  0.2909973882E-04  0.1058526469E+02  0.1058547420E+02  0.0000000000E+00 -0.2095046775E-03  0.3981885631E-02 -0.8355740833E+00 -0.3392859150E+02  0.0000000000E+00  0.2474556992E-04  0.7715411928E-03  0.7993260977E-04  0.0000000000E+00  0.0000000000E+00  0.1058547420E+02  0.3981885631E-02  0.2909973882E-04 -0.2095046775E-03
47  0.4934866189E-04  0.2944600758E-04  0.7741318981E-05  0.2009343234E-04  0.9228379076E-04  0.1058522915E+02  0.3980719321E-02 -0.8347368553E+00 -0.3392055857E+02  0.8057325145E-04  0.3837500000E+01  0.3980719321E-02  0.2917379914E-04  0.1058522915E+02  0.1058543874E+02  0.0000000000E+00 -0.2095932958E-03  0.3980719321E-02 -0.8347615284E+00 -0.3392132966E+02  0.0000000000E+00  0.2467310600E-04  0.7710883618E-03  0.8057325145E-04  0.0000000000E+00  0.0000000000E+00  0.1058543874E+02  0.3980719321E-02  0.2917379914E-04 -0.2095932958E-03
48  0.4696821138E-04  0.2800895699E-04  0.7296723808E-05  0.1906883081E-04  0.8831571106E-04  0.1058521784E+02  0.3979589358E-02 -0.8339050879E+00 -0.3391363885E+02  0.8119836990E-04  0.3904100000E+01  0.3979589358E-02  0.2924347278E-04  0.1058521784E+02  0.1058542751E+02  0.0000000000E+00 -0.2096764596E-03  0.3979589358E-02 -0.8339296861E+00 -0.3391440950E+02  0.0000000000E+00  0.2459818138E-04  0.7706558701E-03  0.8119836990E-04  0.0000000000E+00  0.0000000000E+00  0.1058542751E+02  0.3979589358E-02  0.2924347278E-04 -0.2096764596E-03
49  0.4475620034E-04  0.2666438982E-04  0.6893237806E-05  0.1811834352E-04  0.8445223863E-04  0.1058519247E+02  0.3978498460E-02 -0.8331138921E+00 -0.3390701655E+02  0.8180762235E-04  0.3960500000E+01  0.3978498460E-02  0.2930886539E-04  0.1058519247E+02  0.1058540222E+02  0.0000000000E+00 -0.2097540845E-03  0.3978498460E-02 -0.8331384147E+00 -0.3390778679E+02  0.0000000000E+00  0.2452255816E-04  0.7702419502E-03  0.8180762235E-04  0.0000000000E+00  0.0000000000E+00  0.1058540222E+02  0.3978498460E-02  0.2930886539E-04 -0.2097540845E-03
50  0.4267163221E-04  0.2537893596E-04  0.6515336515E-05  0.1722719906E-04  0.8088427948E-04  0.1058517717E+02  0.3977444782E-02 -0.8323375020E+00 -0.3390068457E+02  0.8240173929E-04  0.4017000000E+01  0.3977444782E-02  0.2937032776E-04  0.1058517717E+02  0.1058538700E+02  0.0000000000E+00 -0.2098270206E-03  0.3977444782E-02 -0.8323619486E+00 -0.3390145442E+02  0.0000000000E+00  0.2444653382E-04  0.7698460629E-03  0.8240173929E-04  0.0000000000E+00  0.0000000000E+00  0.1058538700E+02  0.3977444782E-02  0.2937032776E-04 -0.2098270206E-03
51  0.4071775349E-04  0.2417113707E-04  0.6166377469E-05  0.1639959053E-04  0.7754552137E-04  0.1058517588E+02  0.3976426585E-02 -0.8315696429E+00 -0.3389462554E+02  0.8298158703E-04  0.4266500000E+01  0.3976426585E-02  0.2942822338E-04  0.1058517588E+02  0.1058538578E+02  0.0000000000E+00 -0.2098959060E-03  0.3976426585E-02 -0.8315940131E+00 -0.3389539501E+02  0.0000000000E+00  0.2437018426E-04  0.7694674068E-03  0.8298158703E-04  0.0000000000E+00  0.0000000000E+00  0.1058538578E+02  0.3976426585E-02  0.2942822338E-04 -0.2098959060E-03
52  0.3888519706E-04  0.2303292456E-04  0.5845135421E-05  0.1562949723E-04  0.7441273581E-04  0.1058520661E+02  0.3975439598E-02 -0.8307904268E+00 -0.3388883867E+02  0.8354905311E-04  0.4332600000E+01  0.3975439598E-02  0.2948289207E-04  0.1058520661E+02  0.1058541657E+02  0.0000000000E+00 -0.2099616249E-03  0.3975439598E-02 -0.8308147199E+00 -0.3388960778E+02  0.0000000000E+00  0.2429303614E-04  0.7691056644E-03  0.8354905311E-04  0.0000000000E+00  0.0000000000E+00  0.1058541657E+02  0.3975439598E-02  0.2948289207E-04 -0.2099616249E-03
53  0.3718594301E-04  0.2196614005E-04  0.5550995472E-05  0.1490853263E-04  0.7137267217E-04  0.1058523719E+02  0.3974485737E-02 -0.8300476533E+00 -0.3388328906E+02  0.8410350204E-04  0.4391100000E+01  0.3974485737E-02  0.2953442592E-04  0.1058523719E+02  0.1058544722E+02  0.0000000000E+00 -0.2100239170E-03  0.3974485737E-02 -0.8300718695E+00 -0.3388405782E+02  0.0000000000E+00  0.2421624944E-04  0.7687594074E-03  0.8410350204E-04  0.0000000000E+00  0.0000000000E+00  0.1058544722E+02  0.3974485737E-02  0.2953442592E-04 -0.2100239170E-03
54  0.3558392114E-04  0.2094551482E-04  0.5271639556E-05  0.1422634690E-04  0.6858062784E-04  0.1058528446E+02  0.3973563586E-02 -0.8293200073E+00 -0.3387797261E+02  0.8464542022E-04  0.4447800000E+01  0.3973563586E-02  0.2958305865E-04  0.1058528446E+02  0.1058549454E+02  0.0000000000E+00 -0.2100832804E-03  0.3973563586E-02 -0.8293441472E+00 -0.3387874104E+02  0.0000000000E+00  0.2413989845E-04  0.7684281778E-03  0.8464542022E-04  0.0000000000E+00  0.0000000000E+00  0.1058549454E+02  0.3973563586E-02  0.2958305865E-04 -0.2100832804E-03