# vtk DataFile Version 2.0
FUN3D:global_image_vtk
ASCII
DATASET UNSTRUCTURED_GRID
POINTS 213 double
    0.0000000000000000E+00    0.2500000000000000E+01    0.0000000000000000E+00
    0.1250000000000000E+01    0.2500000000000000E+01    0.0000000000000000E+00
    0.2500000000000000E+01    0.2500000000000000E+01    0.0000000000000000E+00
    0.3750000000000000E+01    0.2500000000000000E+01    0.0000000000000000E+00
    0.5000000000000000E+01    0.2500000000000000E+01    0.0000000000000000E+00
    0.5000000000000000E+01    0.1250000000000000E+01    0.0000000000000000E+00
    0.5000000000000000E+01    0.0000000000000000E+00    0.0000000000000000E+00
    0.5000000000000000E+01   -0.1250000000000000E+01    0.0000000000000000E+00
    0.5000000000000000E+01   -0.2500000000000000E+01    0.0000000000000000E+00
    0.3750000000000000E+01   -0.2500000000000000E+01    0.0000000000000000E+00
    0.2500000000000000E+01   -0.2500000000000000E+01    0.0000000000000000E+00
    0.1250000000000000E+01   -0.2500000000000000E+01    0.0000000000000000E+00
    0.0000000000000000E+00   -0.2500000000000000E+01    0.0000000000000000E+00
    0.0000000000000000E+00   -0.1250000000000000E+01    0.0000000000000000E+00
    0.0000000000000000E+00    0.0000000000000000E+00    0.0000000000000000E+00
    0.0000000000000000E+00    0.1250000000000000E+01    0.0000000000000000E+00
    0.9058375365086910E+00    0.1578994732800803E+01    0.0000000000000000E+00
    0.3982050490726493E+01   -0.1583989954232354E+01    0.0000000000000000E+00
    0.4033849428301197E+01    0.1453322699199022E+01    0.0000000000000000E+00
    0.1040505887381675E+01   -0.1479596339503735E+01    0.0000000000000000E+00
    0.1099454400140349E+01   -0.3227322616384110E+00    0.0000000000000000E+00
    0.7354504170366591E+00    0.6593508822075582E+00    0.0000000000000000E+00
    0.1622302608453282E+01    0.8256214013940779E+00    0.0000000000000000E+00
    0.2145871574390382E+01   -0.1650070333782557E+01    0.0000000000000000E+00
    0.4086422318222992E+01   -0.4612828702537229E+00    0.0000000000000000E+00
    0.2979540174134984E+01   -0.8579242121530853E+00    0.0000000000000000E+00
    0.3045064261640043E+01   -0.1836846154397680E+01    0.0000000000000000E+00
    0.3428197553792836E+01    0.3508002863614053E+00    0.0000000000000000E+00
    0.4309693860063405E+01    0.5185680230613409E+00    0.0000000000000000E+00
    0.1827272193562204E+01    0.1738996113203182E+01    0.0000000000000000E+00
    0.2808563282768077E+01    0.1325493893339706E+01    0.0000000000000000E+00
    0.1895995683864404E+01   -0.8731419609589618E+00    0.0000000000000000E+00
    0.2273179336307740E+01    0.4906150219227333E-01    0.0000000000000000E+00
    0.5000000000000000E+01    0.2500000000000000E+01    0.1250000000000000E+01
    0.5000000000000000E+01    0.2500000000000000E+01    0.2500000000000000E+01
    0.5000000000000000E+01    0.2500000000000000E+01    0.3750000000000000E+01
    0.5000000000000000E+01    0.2500000000000000E+01    0.5000000000000000E+01
    0.3750000000000000E+01    0.2500000000000000E+01    0.5000000000000000E+01
    0.2500000000000000E+01    0.2500000000000000E+01    0.5000000000000000E+01
    0.1250000000000000E+01    0.2500000000000000E+01    0.5000000000000000E+01
    0.0000000000000000E+00    0.2500000000000000E+01    0.5000000000000000E+01
    0.0000000000000000E+00    0.2500000000000000E+01    0.3750000000000000E+01
    0.0000000000000000E+00    0.2500000000000000E+01    0.2500000000000000E+01
    0.0000000000000000E+00    0.2500000000000000E+01    0.1250000000000000E+01
    0.9631080833812172E+00    0.2500000000000000E+01    0.9613285771248219E+00
    0.3981732467264904E+01    0.2500000000000000E+01    0.4069753913607991E+01
    0.4035525118777670E+01    0.2500000000000000E+01    0.1012015867579395E+01
    0.9641717640894248E+00    0.2500000000000000E+01    0.3972455192261839E+01
    0.1547743040396780E+01    0.2500000000000000E+01    0.2928177746738678E+01
    0.6985170616192014E+00    0.2500000000000000E+01    0.3068281976055466E+01
    0.8931277594515110E+00    0.2500000000000000E+01    0.2052465503257726E+01
    0.2183293750162785E+01    0.2500000000000000E+01    0.3959073795658649E+01
    0.3855333506014705E+01    0.2500000000000000E+01    0.2931218481500625E+01
    0.3152495579421047E+01    0.2500000000000000E+01    0.3635850502723324E+01
    0.3103247580566054E+01    0.2500000000000000E+01    0.4331682712472464E+01
    0.3266837581688852E+01    0.2500000000000000E+01    0.1886092433583972E+01
    0.4231539241296245E+01    0.2500000000000000E+01    0.1915865356532799E+01
    0.1909741006522088E+01    0.2500000000000000E+01    0.7170024419130505E+00
    0.2880784107213163E+01    0.2500000000000000E+01    0.9046598906449592E+00
    0.2014316024535771E+01    0.2500000000000000E+01    0.1762464314805728E+01
    0.2670003247036656E+01    0.2500000000000000E+01    0.2850479545835163E+01
    0.5000000000000000E+01    0.1250000000000000E+01    0.5000000000000000E+01
    0.5000000000000000E+01    0.0000000000000000E+00    0.5000000000000000E+01
    0.5000000000000000E+01   -0.1250000000000000E+01    0.5000000000000000E+01
    0.5000000000000000E+01   -0.2500000000000000E+01    0.5000000000000000E+01
    0.5000000000000000E+01   -0.2500000000000000E+01    0.3750000000000000E+01
    0.5000000000000000E+01   -0.2500000000000000E+01    0.2500000000000000E+01
    0.5000000000000000E+01   -0.2500000000000000E+01    0.1250000000000000E+01
    0.5000000000000000E+01    0.1578994732800803E+01    0.9058375365086910E+00
    0.5000000000000000E+01   -0.1583989954232354E+01    0.3982050490726493E+01
    0.5000000000000000E+01    0.1453322699199022E+01    0.4033849428301197E+01
    0.5000000000000000E+01   -0.1479596339503735E+01    0.1040505887381675E+01
    0.5000000000000000E+01   -0.3227322616384110E+00    0.1099454400140349E+01
    0.5000000000000000E+01    0.6593508822075582E+00    0.7354504170366591E+00
    0.5000000000000000E+01    0.8256214013940779E+00    0.1622302608453282E+01
    0.5000000000000000E+01   -0.1650070333782557E+01    0.2145871574390382E+01
    0.5000000000000000E+01   -0.4612828702537229E+00    0.4086422318222992E+01
    0.5000000000000000E+01   -0.8579242121530853E+00    0.2979540174134984E+01
    0.5000000000000000E+01   -0.1836846154397680E+01    0.3045064261640043E+01
    0.5000000000000000E+01    0.3508002863614053E+00    0.3428197553792836E+01
    0.5000000000000000E+01    0.5185680230613409E+00    0.4309693860063405E+01
    0.5000000000000000E+01    0.1738996113203182E+01    0.1827272193562204E+01
    0.5000000000000000E+01    0.1325493893339706E+01    0.2808563282768077E+01
    0.5000000000000000E+01   -0.8731419609589618E+00    0.1895995683864404E+01
    0.5000000000000000E+01    0.4906150219227333E-01    0.2273179336307740E+01
    0.0000000000000000E+00    0.1250000000000000E+01    0.5000000000000000E+01
    0.0000000000000000E+00    0.0000000000000000E+00    0.5000000000000000E+01
    0.0000000000000000E+00   -0.1250000000000000E+01    0.5000000000000000E+01
    0.0000000000000000E+00   -0.2500000000000000E+01    0.5000000000000000E+01
    0.1250000000000000E+01   -0.2500000000000000E+01    0.5000000000000000E+01
    0.2500000000000000E+01   -0.2500000000000000E+01    0.5000000000000000E+01
    0.3750000000000000E+01   -0.2500000000000000E+01    0.5000000000000000E+01
    0.4042003247744892E+01    0.1558308132739014E+01    0.5000000000000000E+01
    0.9304122287900499E+00   -0.1548001304379777E+01    0.5000000000000000E+01
    0.1037243024609388E+01    0.1462892710085612E+01    0.5000000000000000E+01
    0.3946240828834967E+01   -0.1445243809615570E+01    0.5000000000000000E+01
    0.4092527262848217E+01   -0.3455338993778935E+00    0.5000000000000000E+01
    0.4293103109154542E+01    0.6277660831404320E+00    0.5000000000000000E+01
    0.3241512314643519E+01    0.7429886854239611E+00    0.5000000000000000E+01
    0.2844289952419609E+01   -0.1588117879734118E+01    0.5000000000000000E+01
    0.7159905765450471E+00   -0.6002320124191652E+00    0.5000000000000000E+01
    0.1754341919796891E+01   -0.7398147869923652E+00    0.5000000000000000E+01
    0.1870296826774691E+01   -0.1788622905643739E+01    0.5000000000000000E+01
    0.9220614901912976E+00    0.3083720183248586E+00    0.5000000000000000E+01
    0.3101523624086016E+01    0.1777901774806180E+01    0.5000000000000000E+01
    0.2192512063922564E+01    0.1576861561598471E+01    0.5000000000000000E+01
    0.2024793420196460E+01    0.4773861992750707E+00    0.5000000000000000E+01
    0.2990627757741975E+01   -0.4878110785814084E+00    0.5000000000000000E+01
    0.0000000000000000E+00   -0.2500000000000000E+01    0.1250000000000000E+01
    0.0000000000000000E+00   -0.2500000000000000E+01    0.2500000000000000E+01
    0.0000000000000000E+00   -0.2500000000000000E+01    0.3750000000000000E+01
    0.0000000000000000E+00    0.1558308132739014E+01    0.4042003247744892E+01
    0.0000000000000000E+00   -0.1548001304379777E+01    0.9304122287900499E+00
    0.0000000000000000E+00    0.1462892710085612E+01    0.1037243024609388E+01
    0.0000000000000000E+00   -0.1445243809615570E+01    0.3946240828834967E+01
    0.0000000000000000E+00   -0.3455338993778935E+00    0.4092527262848217E+01
    0.0000000000000000E+00    0.6277660831404320E+00    0.4293103109154542E+01
    0.0000000000000000E+00    0.7429886854239611E+00    0.3241512314643519E+01
    0.0000000000000000E+00   -0.1588117879734118E+01    0.2844289952419609E+01
    0.0000000000000000E+00   -0.6002320124191652E+00    0.7159905765450471E+00
    0.0000000000000000E+00   -0.7398147869923652E+00    0.1754341919796891E+01
    0.0000000000000000E+00   -0.1788622905643739E+01    0.1870296826774691E+01
    0.0000000000000000E+00    0.3083720183248586E+00    0.9220614901912976E+00
    0.0000000000000000E+00    0.1777901774806180E+01    0.3101523624086016E+01
    0.0000000000000000E+00    0.1576861561598471E+01    0.2192512063922564E+01
[...]
POINT_DATA 213
SCALARS rho double 1
LOOKUP_TABLE default
   0.8651910835297001E+00
   0.7437754555930360E+00
   0.6997597479189226E+00
   0.6650343370851253E+00
   0.5244972300941556E+00
   0.4592818210358103E+00
   0.4479223477567689E+00
   0.4530353247245845E+00
   0.5114317620371128E+00
   0.6561672941072320E+00
   0.6951539894741744E+00
   0.7356392720271484E+00
   0.8633970575932618E+00
   0.9164658164551241E+00
   0.8446610134063014E+00
   0.8636596402276447E+00
   0.7800558442277439E+00
   0.6570745576712700E+00
   0.6594885198608896E+00
   0.7682124608570116E+00
   0.7679786573754198E+00
   0.8121414597952420E+00
   0.7305958949998037E+00
   0.7052261476895795E+00
   0.6582221691334097E+00
   0.6754175529567745E+00
   0.6635639693739047E+00
   0.6741536028637312E+00
   0.6489977968815356E+00
   0.7205646866185060E+00
   0.6855369137526518E+00
   0.6990997391881603E+00
   0.6967921760197032E+00
   0.7899231443891017E+00
   0.9489737389524272E+00
   0.9877264254567084E+00
   0.9758105502614220E+00
   0.9354439347056880E+00
   0.9916394492748692E+00
   0.1031777277710724E+01
   0.1022968033661154E+01
   0.9991884881651250E+00
   0.9961549424515347E+00
   0.1061937124521200E+01
   0.9328918084051087E+00
   0.9833576334080243E+00
   0.7482931384695714E+00
   0.9887982250956685E+00
   0.9846764751470857E+00
   0.9880716788738182E+00
   0.1004612027182723E+01
   0.9845595487657721E+00
   0.9518091009974075E+00
   0.9681363154867344E+00
   0.9890685918525040E+00
   0.8620782092835401E+00
   0.8800740795000087E+00
   0.8093066294659449E+00
   0.7658190452020315E+00
   0.8945756222644752E+00
   0.9419975492276097E+00
   0.9728942485897260E+00
   0.9737241804090710E+00
   0.9832538544878034E+00
   0.9789363903958315E+00
   0.9867404510725344E+00
   0.9338752427254580E+00
   0.7812816902396537E+00
   0.7130293355109261E+00
   0.1002803925589458E+01
   0.1003011326432265E+01
   0.7012872177860859E+00
   0.7057584110668191E+00
   0.6430119101123835E+00
   0.8358940360888518E+00
   0.8992934484762588E+00
   0.1005707753253337E+01
   0.9651869969404845E+00
   0.9687170354972743E+00
   0.9791947301613464E+00
   0.1014126610073433E+01
   0.8731208701608392E+00
   0.9515030821606431E+00
   0.8639250054059876E+00
   0.9157424199107875E+00
   0.1017920449987989E+01
   0.1011758489804027E+01
   0.1014135133407017E+01
   0.1019072045292028E+01
   0.1024137138831474E+01
   0.1011128000114356E+01
   0.9272483483188605E+00
   0.9540218996860499E+00
   0.1019863492142830E+01
   0.1017988672823564E+01
   0.9586943663723181E+00
   0.9517235173481315E+00
   0.9572624691495725E+00
   0.9552884199736977E+00
   0.9898986102498785E+00
   0.1022325478848147E+01
   0.1028750565037318E+01
   0.1025925317679825E+01
   0.1021908855308240E+01
   0.9580244934990556E+00
   0.1016855181000949E+01
   0.1015655842519053E+01
   0.9677220406155707E+00
   0.1037442961371674E+01
   0.1009001575003715E+01
   0.1000196189825749E+01
   0.1000350215111305E+01
   0.1053041355233238E+01
   0.1032740330886510E+01
   0.1000595968625828E+01
   0.9993299965707469E+00
   0.1002341828796060E+01
   0.9999003292119758E+00
   0.1016555247221608E+01
   0.1068042410409960E+01
   0.1042946183229839E+01
   0.1025884999323835E+01
   0.1059218152895231E+01
   0.9964538323489256E+00
   0.1011157816417912E+01
   0.1019449606569801E+01
   0.1006851935797960E+01
   0.9298426631371213E+00
   0.9949579586875346E+00
   0.7550443357059586E+00
   0.9906313342291433E+00
   0.9777986726656305E+00
   0.9932708557038471E+00
   0.1000400171554437E+01
   0.9874682641541238E+00
   0.9443736961420688E+00
   0.9660090229387636E+00
   0.9901861136691228E+00
   0.8479644377052185E+00
   0.8631614629844122E+00
   0.7771375588897348E+00
   0.7541759674169846E+00
   0.8865777994025892E+00
   0.9334356493958460E+00
   0.9398105596781157E+00
   0.9789171147847239E+00
   0.9740404288342835E+00
   0.9334719882820355E+00
   0.1002503544891959E+01
   0.9684054142408578E+00
   0.8991097688055094E+00
   0.9948321158963829E+00
   0.9848836009595591E+00
   0.9921735315580599E+00
   0.9568852943980963E+00
   0.8964395135301904E+00
   0.9895198433501338E+00
   0.9554603368435257E+00
   0.8729710665527920E+00
   0.9287496404140183E+00
   0.9622973418512727E+00
   0.9102402849008364E+00
   0.9834050688208024E+00
   0.9879281000240427E+00
   0.9832308771819483E+00
   0.9307113853386663E+00
   0.9541158601768180E+00
   0.9905570686520111E+00
   0.9869243086030584E+00
   0.9628471465645143E+00
   0.8868564125751721E+00
   0.9934123437144655E+00
   0.9940003595589703E+00
   0.7891301608261776E+00
   0.8100305959070615E+00
   0.8640944684371216E+00
   0.9000656451238782E+00
   0.8112281532393576E+00
   0.8782404441567375E+00
   0.8847298693924539E+00
   0.1002298389407207E+01
   0.9339446152191770E+00
   0.9889945240011324E+00
   0.9891238114896205E+00
   0.9006360752803043E+00
   0.9168648168377042E+00
   0.8129536977925459E+00
   0.9142208303811176E+00
   0.9715869704538331E+00
   0.9664742729728029E+00
   0.9443727862181426E+00
   0.8281824451750764E+00
   0.7243284234648040E+00
   0.8181189119329317E+00
   0.8668151159155796E+00
   0.7800874725247194E+00
   0.7918071388681321E+00
   0.8016068300601000E+00
   0.7517934715631410E+00
   0.7273182813092680E+00
   0.9861379985096120E+00
   0.9911507033267690E+00
   0.9851048607445494E+00
   0.9692647379427759E+00
   0.7435961694812067E+00
   0.7166952117284840E+00
   0.7308544493064748E+00
   0.9890438697964512E+00
   0.9819675074039643E+00
   0.9713521398148686E+00
   0.8896951229388409E+00
   0.8336902662948635E+00
   0.7602766702385220E+00
SCALARS u double 1
LOOKUP_TABLE default
   0.0000000000000000E+00
   0.0000000000000000E+00
   0.0000000000000000E+00
   0.0000000000000000E+00
   0.0000000000000000E+00
   0.0000000000000000E+00
   0.0000000000000000E+00
   0.0000000000000000E+00
   0.0000000000000000E+00
   0.0000000000000000E+00
   0.0000000000000000E+00
   0.0000000000000000E+00
   0.0000000000000000E+00
   0.0000000000000000E+00
   0.0000000000000000E+00
   0.0000000000000000E+00
   0.0000000000000000E+00
   0.0000000000000000E+00
   0.0000000000000000E+00
   0.0000000000000000E+00
   0.0000000000000000E+00
   0.0000000000000000E+00
   0.0000000000000000E+00
   0.0000000000000000E+00
   0.0000000000000000E+00
   0.0000000000000000E+00
   0.0000000000000000E+00
   0.0000000000000000E+00
   0.0000000000000000E+00
   0.0000000000000000E+00
   0.0000000000000000E+00
   0.0000000000000000E+00
   0.0000000000000000E+00
   0.6572970334879690E+00
   0.6013967588502438E+00
   0.5622336724962522E+00
   0.5226883707340629E+00
   0.5789057560864137E+00
   0.5652693802887291E+00
   0.5315674153659502E+00
   0.5037418945931413E+00
   0.5123164714782041E+00
   0.5127513837955131E+00
   0.4978799692085432E+00
   0.4388265688780535E+00
   0.5815594564155161E+00
   0.5798490777484748E+00
   0.5248216452716910E+00
   0.5514937761573587E+00
   0.5246478685518213E+00
   0.5392119863515755E+00
   0.5504922638955145E+00
   0.6354967603151265E+00
   0.5931331559587613E+00
   0.5674609809995670E+00
   0.6530213759840388E+00
   0.6669054549061096E+00
   0.3918684348236338E+00
   0.4860828544778238E+00
   0.5965141555491552E+00
   0.6205386202762688E+00
   0.5245168664948533E+00
   0.5185037256717663E+00
   0.5171661832614268E+00
   0.5221789288120203E+00
   0.5658781056805025E+00
   0.6135820308073646E+00
   0.6620364495962158E+00
   0.6365687148283288E+00
   0.5453166841675718E+00
   0.5410735849384877E+00
   0.6769550745934753E+00
   0.6894540349262518E+00
   0.6750246080208729E+00
   0.6626806593480596E+00
   0.6294883779326041E+00
   0.5361147235157162E+00
   0.5911568453775524E+00
   0.5888088991141794E+00
   0.5825403035219791E+00
   0.5189328523301860E+00
   0.6424854028799536E+00
   0.6054541081268164E+00
   0.6568275185800614E+00
   0.6259307095450914E+00
   0.4996760730599312E+00
   0.4977863045764232E+00
   0.4991376962872741E+00
   0.5014873245390906E+00
   0.5330476527017013E+00
   0.5672553739320244E+00
   0.5850624301707098E+00
   0.5525593118391028E+00
   0.5238298078140446E+00
   0.5257939095203400E+00
   0.5528173550156819E+00
   0.5558762012161166E+00
   0.5462803729401434E+00
   0.5808668453329227E+00
   0.5691250056735376E+00
   0.5187628826983518E+00
   0.5488024860308686E+00
   0.5547105168953095E+00
   0.5248864904398614E+00
   0.5752258977978214E+00
   0.5528592257219442E+00
   0.5487549254140124E+00
   0.5784676059138600E+00
   0.5153397663380888E+00
   0.5049877038858887E+00
   0.5089517987097189E+00
   0.5104026700177129E+00
   0.5332090408195976E+00
   0.5428677911231879E+00
   0.5088045836682477E+00
   0.5080236870155250E+00
   0.5080283038178024E+00
   0.5102289741087003E+00
   0.4958342172770626E+00
   0.4877671869887713E+00
   0.5038033457004124E+00
   0.4929011141639806E+00
   0.5225530251794757E+00
   0.5156024283442032E+00
   0.5029343670432622E+00
   0.4974814114145950E+00
   0.5058593611348453E+00
   0.4581536658768782E+00
   0.5642285363410080E+00
   0.5773416800821494E+00
   0.5235793607492238E+00
   0.5610582373403181E+00
   0.5208056182721864E+00
   0.5403937370947007E+00
   0.5491711532642584E+00
   0.6389829772095847E+00
   0.5867412681211513E+00
   0.5585258772154480E+00
   0.6744219637237793E+00
   0.6777584312257566E+00
   0.3977860716189951E+00
   0.4794888463921655E+00
   0.6156259664167386E+00
   0.6265176546735763E+00
   0.6280415846861841E+00
   0.5606199392008551E+00
   0.5764769088662021E+00
   0.6077011296768935E+00
   0.5606699147512684E+00
   0.5662571046034600E+00
   0.6103374250989819E+00
   0.5207880941908895E+00
   0.5392173284389237E+00
   0.5238956632101330E+00
   0.5724625769032694E+00
   0.4050904881416312E+00
   0.5371219728285096E+00
   0.6022487705658279E+00
   0.6734588332691259E+00
   0.6538596043935719E+00
   0.6129744947737606E+00
   0.6626188307762299E+00
   0.5606001753198709E+00
   0.5532012642915650E+00
   0.5688134529812332E+00
   0.6411922696045420E+00
   0.6107284981548496E+00
   0.5301253996201650E+00
   0.5615822737257471E+00
   0.5690766799998642E+00
   0.6129003740208339E+00
   0.5269344884655910E+00
   0.5219941780249779E+00
   0.4625358416260452E+00
   0.4224310217341726E+00
   0.6284327272361147E+00
   0.6339670150694340E+00
   0.4644400645092045E+00
   0.6455351638661455E+00
   0.3966800556888547E+00
   0.5518738117976508E+00
   0.4976402671178172E+00
   0.5636967156007195E+00
   0.5618542986021499E+00
   0.6569502554684873E+00
   0.6571975914075133E+00
   0.6621390299559645E+00
   0.6499012481841043E+00
   0.5975374928534655E+00
   0.5961886633921950E+00
   0.6061083032179602E+00
   0.6587965725590506E+00
   0.5737558257310764E+00
   0.6070437191083238E+00
   0.6653059346734704E+00
   0.4169297374842393E+00
   0.5725166597587371E+00
   0.6714114921833577E+00
   0.6363819937280470E+00
   0.4058758741732188E+00
   0.5360896641374941E+00
   0.5470960811772114E+00
   0.5660229442487488E+00
   0.6073688941452945E+00
   0.4453098826627585E+00
   0.4849216742320971E+00
   0.4362410590613356E+00
   0.5567110184109108E+00
   0.5727484486593755E+00
   0.6039994856032451E+00
   0.6486699812627654E+00
   0.5078713558297295E+00
   0.4559804225775483E+00
SCALARS v double 1
LOOKUP_TABLE default
   0.0000000000000000E+00
   0.0000000000000000E+00
   0.0000000000000000E+00
   0.0000000000000000E+00
   0.0000000000000000E+00
   0.0000000000000000E+00
   0.0000000000000000E+00
   0.0000000000000000E+00
   0.0000000000000000E+00
   0.0000000000000000E+00
   0.0000000000000000E+00
   0.0000000000000000E+00
   0.0000000000000000E+00
   0.0000000000000000E+00
   0.0000000000000000E+00
   0.0000000000000000E+00
   0.0000000000000000E+00
   0.0000000000000000E+00
   0.0000000000000000E+00
   0.0000000000000000E+00
   0.0000000000000000E+00
   0.0000000000000000E+00
   0.0000000000000000E+00
   0.0000000000000000E+00
   0.0000000000000000E+00
   0.0000000000000000E+00
   0.0000000000000000E+00
   0.0000000000000000E+00
   0.0000000000000000E+00
   0.0000000000000000E+00
   0.0000000000000000E+00
   0.0000000000000000E+00
   0.0000000000000000E+00
   0.0000000000000000E+00
   0.0000000000000000E+00
   0.0000000000000000E+00
   0.0000000000000000E+00
   0.0000000000000000E+00
   0.0000000000000000E+00
   0.0000000000000000E+00
   0.0000000000000000E+00
   0.0000000000000000E+00
   0.0000000000000000E+00
   0.0000000000000000E+00
   0.0000000000000000E+00
   0.0000000000000000E+00
   0.0000000000000000E+00
   0.0000000000000000E+00
   0.0000000000000000E+00
   0.0000000000000000E+00
   0.0000000000000000E+00
   0.0000000000000000E+00
   0.0000000000000000E+00
   0.0000000000000000E+00
   0.0000000000000000E+00
   0.0000000000000000E+00
   0.0000000000000000E+00
   0.0000000000000000E+00
   0.0000000000000000E+00
   0.0000000000000000E+00
   0.0000000000000000E+00
  -0.1441821395742351E-02
  -0.2832060773495496E-02
   0.1659697470551744E-02
   0.0000000000000000E+00
   0.0000000000000000E+00
   0.0000000000000000E+00
   0.0000000000000000E+00
  -0.2254241116717794E-01
   0.3265557876339622E-02
   0.1057242062355582E-01
   0.1973860258251763E-01
  -0.3471629482119986E-02
  -0.8703173699788725E-02
  -0.1497122988866673E-01
   0.7855222002858700E-02
   0.2995763432574747E-02
   0.6867110671614276E-02
   0.3826185648693951E-02
   0.7095738943978101E-02
   0.3833611754549790E-02
  -0.8535120618159055E-02
   0.1228007715171362E-02
   0.7932410899664798E-02
   0.3419664928688483E-03
   0.9947512797385924E-03
  -0.9576173549577980E-03
  -0.2096292290361199E-02
   0.0000000000000000E+00
   0.0000000000000000E+00
   0.0000000000000000E+00
   0.0000000000000000E+00
   0.4684818510864666E-02
  -0.1923173917049877E-03
   0.6449324128916722E-04
  -0.4623679698126105E-03
   0.2430739678335772E-02
  -0.6214399584999584E-02
   0.4127400390036268E-03
  -0.3677899899321556E-02
  -0.1396809521503505E-02
   0.5581190413680400E-03
   0.1448136046497556E-02
   0.3899476270466291E-03
   0.2420480818569564E-02
   0.1614216731503655E-02
  -0.1566350235868102E-03
   0.1603869584861717E-02
   0.0000000000000000E+00
   0.0000000000000000E+00
   0.0000000000000000E+00
  -0.2156194962081030E-02
  -0.1996094090525982E-01
   0.1846047253204832E-01
   0.1065811482770301E-02
  -0.5866470483748668E-03
  -0.3016023012905296E-03
  -0.4506879773362751E-02
   0.5630055346186816E-03
  -0.4074388065648532E-02
  -0.5345051280782169E-03
   0.7642840118206145E-03
   0.2322258983270746E-01
  -0.1317981931412530E-02
  -0.7720589664049641E-02
   0.1730084814810033E-02
   0.8771724902950369E-03
   0.0000000000000000E+00
   0.0000000000000000E+00
   0.0000000000000000E+00
   0.0000000000000000E+00
   0.0000000000000000E+00
   0.0000000000000000E+00
   0.0000000000000000E+00
   0.0000000000000000E+00
   0.0000000000000000E+00
   0.0000000000000000E+00
   0.0000000000000000E+00
   0.0000000000000000E+00
   0.0000000000000000E+00
   0.0000000000000000E+00
   0.0000000000000000E+00
   0.0000000000000000E+00
   0.0000000000000000E+00
   0.9051135190053326E-02
   0.2606623716468321E-02
   0.5096396996303160E-02
   0.8455122892133625E-02
   0.7011203974028558E-02
   0.1308268806880744E-01
   0.7291619440087671E-02
   0.2376055246666107E-02
   0.8465060050369629E-03
  -0.2638061765574969E-03
   0.4081853417872992E-02
   0.4437738334388844E-02
  -0.1022570276350127E-02
   0.7377762501399793E-02
   0.8422512428130295E-02
   0.3993003840490741E-02
   0.7791800941459199E-02
  -0.1421978589188986E-02
   0.2852306834862978E-02
   0.3164721667795247E-02
   0.6968275563980933E-02
   0.5707684966513580E-02
   0.4489562590961486E-02
   0.1516639333551122E-02
   0.6567794727989158E-02
  -0.3490173946476436E-02
   0.4127178213207498E-02
   0.1589972969011461E-02
   0.1501245196216466E-02
  -0.3911439148650643E-02
   0.3604177318979747E-02
   0.5295783194425272E-02
   0.7345129861740246E-02
   0.1062359162656965E-02
   0.4182980217029481E-02
   0.9358343588766162E-02
  -0.6603150667787765E-02
   0.2052112053419849E-03
   0.7492259120633120E-02
   0.1499277966626132E-02
   0.7755309330474382E-02
   0.1150821296839383E-02
   0.4636192062215484E-02
   0.8502911142301452E-02
   0.7251157269024552E-02
   0.2388139554705656E-02
  -0.1982952824381585E-02
  -0.5094511663316554E-02
  -0.4633269551706946E-02
   0.4715753498819384E-02
   0.2155216555181195E-02
   0.5935443605205469E-02
  -0.6542575217986928E-02
   0.1892284268159970E-02
  -0.3812346589803817E-02
  -0.8473116668985191E-02
  -0.7821287969893727E-03
   0.3315681664565480E-02
   0.3501098851435126E-02
   0.5956139372856122E-02
   0.1768703967517588E-02
   0.1239455585501066E-01
  -0.1220135968204060E-01
   0.1497680940144518E-03
   0.1584408264310019E-02
   0.5510922861925225E-02
  -0.2519444288532774E-02
  -0.1742397778630935E-02
   0.1861867426056022E-02
SCALARS w double 1
LOOKUP_TABLE default
   0.0000000000000000E+00
   0.0000000000000000E+00
   0.0000000000000000E+00
   0.0000000000000000E+00
   0.0000000000000000E+00
   0.0000000000000000E+00
   0.0000000000000000E+00
   0.0000000000000000E+00
   0.0000000000000000E+00
   0.0000000000000000E+00
   0.0000000000000000E+00
   0.0000000000000000E+00
   0.0000000000000000E+00
   0.0000000000000000E+00
   0.0000000000000000E+00
   0.0000000000000000E+00
   0.0000000000000000E+00
   0.0000000000000000E+00
   0.0000000000000000E+00
   0.0000000000000000E+00
   0.0000000000000000E+00
   0.0000000000000000E+00
   0.0000000000000000E+00
   0.0000000000000000E+00
   0.0000000000000000E+00
   0.0000000000000000E+00
   0.0000000000000000E+00
   0.0000000000000000E+00
   0.0000000000000000E+00
   0.0000000000000000E+00
   0.0000000000000000E+00
   0.0000000000000000E+00
   0.0000000000000000E+00
  -0.1764402113445619E+00
  -0.1201376243502405E+00
  -0.5538529462988788E-01
   0.7978025940638596E-02
  -0.2130109587978849E-01
  -0.5199555798580701E-01
  -0.9781543287533957E-02
   0.1335240950329861E-02
  -0.1484452575341863E-02
  -0.1390384184892273E-02
  -0.3928129736538550E-02
   0.4189358643056394E-02
  -0.3291394919167073E-01
  -0.3061552951837167E-01
  -0.1050185029605948E-01
  -0.3214703507728513E-02
  -0.5126234558549015E-02
   0.1738196420916836E-01
  -0.2205770567392906E-01
  -0.4428493561151427E-01
  -0.3496074727505000E-01
  -0.3427515249599990E-01
   0.2796502738480903E-04
  -0.8650628337999246E-01
   0.3573515762599187E-01
   0.3942680802696237E-01
   0.3406241054670069E-01
  -0.7278867224286274E-02
  -0.4870486434382514E-01
  -0.1862511225740644E-01
  -0.5705543497694731E-01
  -0.5731655024402284E-01
  -0.6900672659887766E-01
  -0.1183136753285450E+00
  -0.1677844963413522E+00
  -0.1746558226896705E+00
  -0.5658671456385323E-01
  -0.4400647440330809E-01
  -0.1536923085395699E+00
  -0.1505741145660963E+00
  -0.1442195547167785E+00
  -0.1679428158498190E+00
  -0.1456966683619213E+00
  -0.5179583063280278E-01
  -0.9174223864814204E-01
  -0.9112202634645096E-01
  -0.8085019509124877E-01
  -0.4404906286972193E-01
  -0.1615654284750669E+00
  -0.1016797000876292E+00
  -0.1522576358460489E+00
  -0.1338607143280538E+00
   0.1358463907415529E-02
   0.7444260648072876E-03
  -0.1051839196347520E-02
   0.1183030176103489E-02
  -0.8621031049102912E-02
  -0.3282195776165759E-01
  -0.8724636244762100E-01
  -0.9703355870908741E-02
  -0.7084968976908929E-02
  -0.1293817231018572E-01
  -0.5907867869519516E-01
  -0.6407029997284452E-01
  -0.6569056308841183E-01
  -0.6686642081730614E-01
  -0.4545858719906095E-01
  -0.2723120307333178E-02
  -0.1515965732454004E-01
  -0.1684580329594543E-01
  -0.9060104245312631E-02
  -0.7527858141123749E-01
  -0.2732518400882846E-01
  -0.2403559164426944E-01
  -0.5924694551992431E-01
  -0.1038764723147550E-01
  -0.6142277240314127E-02
  -0.3116560955375300E-02
  -0.4073412859737674E-02
   0.2839547704006081E-02
   0.2807701618039734E-03
  -0.4805377102536990E-02
  -0.4460923389571641E-02
  -0.2628460331050408E-02
  -0.1024910363603442E-01
  -0.1078618426906075E-01
  -0.4333196016550710E-02
   0.1359358225895646E-01
  -0.2564298488483096E-02
   0.8980057749888236E-02