# vtk DataFile Version 2.0
FUN3D:global_image_vtk
ASCII
DATASET UNSTRUCTURED_GRID
POINTS 213 double
    0.0000000000000000E+00    0.2500000000000000E+01    0.0000000000000000E+00
    0.1250000000000000E+01    0.2500000000000000E+01    0.0000000000000000E+00
    0.2500000000000000E+01    0.2500000000000000E+01    0.0000000000000000E+00
    0.3750000000000000E+01    0.2500000000000000E+01    0.0000000000000000E+00
    0.5000000000000000E+01    0.2500000000000000E+01    0.0000000000000000E+00
    0.5000000000000000E+01    0.1250000000000000E+01    0.0000000000000000E+00
    0.5000000000000000E+01    0.0000000000000000E+00    0.0000000000000000E+00
    0.5000000000000000E+01   -0.1250000000000000E+01    0.0000000000000000E+00
    0.5000000000000000E+01   -0.2500000000000000E+01    0.0000000000000000E+00
    0.3750000000000000E+01   -0.2500000000000000E+01    0.0000000000000000E+00
    0.2500000000000000E+01   -0.2500000000000000E+01    0.0000000000000000E+00
    0.1250000000000000E+01   -0.2500000000000000E+01    0.0000000000000000E+00
    0.0000000000000000E+00   -0.2500000000000000E+01    0.0000000000000000E+00
    0.0000000000000000E+00   -0.1250000000000000E+01    0.0000000000000000E+00
    0.0000000000000000E+00    0.0000000000000000E+00    0.0000000000000000E+00
    0.0000000000000000E+00    0.1250000000000000E+01    0.0000000000000000E+00
    0.9058375365086910E+00    0.1578994732800803E+01    0.0000000000000000E+00
    0.3982050490726493E+01   -0.1583989954232354E+01    0.0000000000000000E+00
    0.4033849428301197E+01    0.1453322699199022E+01    0.0000000000000000E+00
    0.1040505887381675E+01   -0.1479596339503735E+01    0.0000000000000000E+00
    0.1099454400140349E+01   -0.3227322616384110E+00    0.0000000000000000E+00
    0.7354504170366591E+00    0.6593508822075582E+00    0.0000000000000000E+00
    0.1622302608453282E+01    0.8256214013940779E+00    0.0000000000000000E+00
    0.2145871574390382E+01   -0.1650070333782557E+01    0.0000000000000000E+00
    0.4086422318222992E+01   -0.4612828702537229E+00    0.0000000000000000E+00
    0.2979540174134984E+01   -0.8579242121530853E+00    0.0000000000000000E+00
    0.3045064261640043E+01   -0.1836846154397680E+01    0.0000000000000000E+00
    0.3428197553792836E+01    0.3508002863614053E+00    0.0000000000000000E+00
    0.4309693860063405E+01    0.5185680230613409E+00    0.0000000000000000E+00
    0.1827272193562204E+01    0.1738996113203182E+01    0.0000000000000000E+00
    0.2808563282768077E+01    0.1325493893339706E+01    0.0000000000000000E+00
    0.1895995683864404E+01   -0.8731419609589618E+00    0.0000000000000000E+00
    0.2273179336307740E+01    0.4906150219227333E-01    0.0000000000000000E+00
    0.5000000000000000E+01    0.2500000000000000E+01    0.1250000000000000E+01
    0.5000000000000000E+01    0.2500000000000000E+01    0.2500000000000000E+01
    0.5000000000000000E+01    0.2500000000000000E+01    0.3750000000000000E+01
    0.5000000000000000E+01    0.2500000000000000E+01    0.5000000000000000E+01
    0.3750000000000000E+01    0.2500000000000000E+01    0.5000000000000000E+01
    0.2500000000000000E+01    0.2500000000000000E+01    0.5000000000000000E+01
    0.1250000000000000E+01    0.2500000000000000E+01    0.5000000000000000E+01
    0.0000000000000000E+00    0.2500000000000000E+01    0.5000000000000000E+01
    0.0000000000000000E+00    0.2500000000000000E+01    0.3750000000000000E+01
    0.0000000000000000E+00    0.2500000000000000E+01    0.2500000000000000E+01
    0.0000000000000000E+00    0.2500000000000000E+01    0.1250000000000000E+01
    0.9631080833812172E+00    0.2500000000000000E+01    0.9613285771248219E+00
    0.3981732467264904E+01    0.2500000000000000E+01    0.4069753913607991E+01
    0.4035525118777670E+01    0.2500000000000000E+01    0.1012015867579395E+01
    0.9641717640894248E+00    0.2500000000000000E+01    0.3972455192261839E+01
    0.1547743040396780E+01    0.2500000000000000E+01    0.2928177746738678E+01
    0.6985170616192014E+00    0.2500000000000000E+01    0.3068281976055466E+01
    0.8931277594515110E+00    0.2500000000000000E+01    0.2052465503257726E+01
    0.2183293750162785E+01    0.2500000000000000E+01    0.3959073795658649E+01
    0.3855333506014705E+01    0.2500000000000000E+01    0.2931218481500625E+01
    0.3152495579421047E+01    0.2500000000000000E+01    0.3635850502723324E+01
    0.3103247580566054E+01    0.2500000000000000E+01    0.4331682712472464E+01
    0.3266837581688852E+01    0.2500000000000000E+01    0.1886092433583972E+01
    0.4231539241296245E+01    0.2500000000000000E+01    0.1915865356532799E+01
    0.1909741006522088E+01    0.2500000000000000E+01    0.7170024419130505E+00
    0.2880784107213163E+01    0.2500000000000000E+01    0.9046598906449592E+00
    0.2014316024535771E+01    0.2500000000000000E+01    0.1762464314805728E+01
    0.2670003247036656E+01    0.2500000000000000E+01    0.2850479545835163E+01
    0.5000000000000000E+01    0.1250000000000000E+01    0.5000000000000000E+01
    0.5000000000000000E+01    0.0000000000000000E+00    0.5000000000000000E+01
    0.5000000000000000E+01   -0.1250000000000000E+01    0.5000000000000000E+01
    0.5000000000000000E+01   -0.2500000000000000E+01    0.5000000000000000E+01
    0.5000000000000000E+01   -0.2500000000000000E+01    0.3750000000000000E+01
    0.5000000000000000E+01   -0.2500000000000000E+01    0.2500000000000000E+01
    0.5000000000000000E+01   -0.2500000000000000E+01    0.1250000000000000E+01
    0.5000000000000000E+01    0.1578994732800803E+01    0.9058375365086910E+00
    0.5000000000000000E+01   -0.1583989954232354E+01    0.3982050490726493E+01
    0.5000000000000000E+01    0.1453322699199022E+01    0.4033849428301197E+01
    0.5000000000000000E+01   -0.1479596339503735E+01    0.1040505887381675E+01
    0.5000000000000000E+01   -0.3227322616384110E+00    0.1099454400140349E+01
    0.5000000000000000E+01    0.6593508822075582E+00    0.7354504170366591E+00
    0.5000000000000000E+01    0.8256214013940779E+00    0.1622302608453282E+01
    0.5000000000000000E+01   -0.1650070333782557E+01    0.2145871574390382E+01
    0.5000000000000000E+01   -0.4612828702537229E+00    0.4086422318222992E+01
    0.5000000000000000E+01   -0.8579242121530853E+00    0.2979540174134984E+01
    0.5000000000000000E+01   -0.1836846154397680E+01    0.3045064261640043E+01
    0.5000000000000000E+01    0.3508002863614053E+00    0.3428197553792836E+01
    0.5000000000000000E+01    0.5185680230613409E+00    0.4309693860063405E+01
    0.5000000000000000E+01    0.1738996113203182E+01    0.1827272193562204E+01
    0.5000000000000000E+01    0.1325493893339706E+01    0.2808563282768077E+01
    0.5000000000000000E+01   -0.8731419609589618E+00    0.1895995683864404E+01
    0.5000000000000000E+01    0.4906150219227333E-01    0.2273179336307740E+01
    0.0000000000000000E+00    0.1250000000000000E+01    0.5000000000000000E+01
    0.0000000000000000E+00    0.0000000000000000E+00    0.5000000000000000E+01
    0.0000000000000000E+00   -0.1250000000000000E+01    0.5000000000000000E+01
    0.0000000000000000E+00   -0.2500000000000000E+01    0.5000000000000000E+01
    0.1250000000000000E+01   -0.2500000000000000E+01    0.5000000000000000E+01
    0.2500000000000000E+01   -0.2500000000000000E+01    0.5000000000000000E+01
    0.3750000000000000E+01   -0.2500000000000000E+01    0.5000000000000000E+01
    0.4042003247744892E+01    0.1558308132739014E+01    0.5000000000000000E+01
    0.9304122287900499E+00   -0.1548001304379777E+01    0.5000000000000000E+01
    0.1037243024609388E+01    0.1462892710085612E+01    0.5000000000000000E+01
    0.3946240828834967E+01   -0.1445243809615570E+01    0.5000000000000000E+01
    0.4092527262848217E+01   -0.3455338993778935E+00    0.5000000000000000E+01
    0.4293103109154542E+01    0.6277660831404320E+00    0.5000000000000000E+01
    0.3241512314643519E+01    0.7429886854239611E+00    0.5000000000000000E+01
    0.2844289952419609E+01   -0.1588117879734118E+01    0.5000000000000000E+01
    0.7159905765450471E+00   -0.6002320124191652E+00    0.5000000000000000E+01
    0.1754341919796891E+01   -0.7398147869923652E+00    0.5000000000000000E+01
    0.1870296826774691E+01   -0.1788622905643739E+01    0.5000000000000000E+01
    0.9220614901912976E+00    0.3083720183248586E+00    0.5000000000000000E+01
    0.3101523624086016E+01    0.1777901774806180E+01    0.5000000000000000E+01
    0.2192512063922564E+01    0.1576861561598471E+01    0.5000000000000000E+01
    0.2024793420196460E+01    0.4773861992750707E+00    0.5000000000000000E+01
    0.2990627757741975E+01   -0.4878110785814084E+00    0.5000000000000000E+01
    0.0000000000000000E+00   -0.2500000000000000E+01    0.1250000000000000E+01
    0.0000000000000000E+00   -0.2500000000000000E+01    0.2500000000000000E+01
    0.0000000000000000E+00   -0.2500000000000000E+01    0.3750000000000000E+01
    0.0000000000000000E+00    0.1558308132739014E+01    0.4042003247744892E+01
    0.0000000000000000E+00   -0.1548001304379777E+01    0.9304122287900499E+00
    0.0000000000000000E+00    0.1462892710085612E+01    0.1037243024609388E+01
    0.0000000000000000E+00   -0.1445243809615570E+01    0.3946240828834967E+01
    0.0000000000000000E+00   -0.3455338993778935E+00    0.4092527262848217E+01
    0.0000000000000000E+00    0.6277660831404320E+00    0.4293103109154542E+01
    0.0000000000000000E+00    0.7429886854239611E+00    0.3241512314643519E+01
    0.0000000000000000E+00   -0.1588117879734118E+01    0.2844289952419609E+01
    0.0000000000000000E+00   -0.6002320124191652E+00    0.7159905765450471E+00
    0.0000000000000000E+00   -0.7398147869923652E+00    0.1754341919796891E+01
    0.0000000000000000E+00   -0.1788622905643739E+01    0.1870296826774691E+01
    0.0000000000000000E+00    0.3083720183248586E+00    0.9220614901912976E+00
    0.0000000000000000E+00    0.1777901774806180E+01    0.3101523624086016E+01
    0.0000000000000000E+00    0.1576861561598471E+01    0.2192512063922564E+01
[...]
POINT_DATA 213
SCALARS rho double 1
LOOKUP_TABLE default
   0.7341094640654507E+00
   0.8896060919290314E+00
   0.8480353216146816E+00
   0.7947655115051320E+00
   0.6028311964050561E+00
   0.5341417748507002E+00
   0.5235895940789326E+00
   0.5319953281613307E+00
   0.5861752854127248E+00
   0.8085427905322642E+00
   0.8364868956477638E+00
   0.8974146140793262E+00
   0.6403428274342152E+00
   0.7462311702445903E+00
   0.6203976005947870E+00
   0.7211106964580982E+00
   0.8852009487978729E+00
   0.8279180378482307E+00
   0.8070660507130192E+00
   0.8856543727117255E+00
   0.8440315034738267E+00
   0.8904183958371158E+00
   0.8688383102242233E+00
   0.8535149426162100E+00
   0.8271672104733927E+00
   0.8328512898185324E+00
   0.8273150239835328E+00
   0.8197337006367215E+00
   0.8156968386443219E+00
   0.8758651838998655E+00
   0.8270249570356799E+00
   0.8519485797218600E+00
   0.8449448192693105E+00
   0.9343666560085648E+00
   0.1009672707593677E+01
   0.1004650486145141E+01
   0.9945838450858727E+00
   0.9937590298662051E+00
   0.9938700462052199E+00
   0.9952943360948071E+00
   0.9952025757846210E+00
   0.9948177459691832E+00
   0.9903123285046767E+00
   0.1029606201094090E+01
   0.9809730723975978E+00
   0.9956680896462071E+00
   0.9191638880146739E+00
   0.9930683375675279E+00
   0.9917245690500281E+00
   0.9920920371861111E+00
   0.9983863163393695E+00
   0.9919831205985150E+00
   0.9982145266087229E+00
   0.9941711765990044E+00
   0.9924240694738526E+00
   0.9760727617070948E+00
   0.9767426507643704E+00
   0.9422673819842716E+00
   0.9291324090874915E+00
   0.9854932675883280E+00
   0.9906686983729057E+00
   0.9948288085524949E+00
   0.9951491629710723E+00
   0.9947953460812275E+00
   0.9941795149509229E+00
   0.1006384917170723E+01
   0.1010902812480219E+01
   0.9405209342446684E+00
   0.8683714369912063E+00
   0.1004272490674349E+01
   0.1001269919887776E+01
   0.8797833527032891E+00
   0.8784769324676083E+00
   0.8068613160207350E+00
   0.9702475886045564E+00
   0.1006176006429826E+01
   0.1003793738737777E+01
   0.1020327926712968E+01
   0.1014045476036497E+01
   0.1015637341481055E+01
   0.1002017956690276E+01
   0.9838654681548711E+00
   0.1010171190145465E+01
   0.9937441187266488E+00
   0.1019032080817639E+01
   0.9950845635385885E+00
   0.9949744799683150E+00
   0.9955062635775050E+00
   0.9957323594973035E+00
   0.9952364743944750E+00
   0.9935219366068253E+00
   0.9945945279113932E+00
   0.9930217603417755E+00
   0.9955268263062907E+00
   0.9955327655881236E+00
   0.9918407577144528E+00
   0.9926741648996562E+00
   0.9929203649404779E+00
   0.9927723063541378E+00
   0.9938652576928118E+00
   0.9953287495106131E+00
   0.9942347838240490E+00
   0.9941048478668056E+00
   0.9956618995400789E+00
   0.9938090002930994E+00
   0.9941025663637595E+00
   0.9933670683119517E+00
   0.9936112049898922E+00
   0.1035826676873450E+01
   0.9887994865100737E+00
   0.9937962264957164E+00
   0.9942700809606035E+00
   0.1079779588718643E+01
   0.1070282496005244E+01
   0.9935290715112991E+00
   0.9945893459978102E+00
   0.9948481177071693E+00
   0.9863894561020460E+00
   0.9860731713517699E+00
   0.1082013672245712E+01
   0.9791612346992907E+00
   0.9853169909291358E+00
   0.1071564376672530E+01
   0.9938480709853262E+00
   0.9889908323532912E+00
   0.9653824689972431E+00
   0.9880417277743575E+00
   0.9881999334113541E+00
   0.9954177116981672E+00
   0.9342852065667926E+00
   0.9937313049552227E+00
   0.9912299319130551E+00
   0.9927697812395595E+00
   0.9990268904534043E+00
   0.9908136830003594E+00
   0.9993204365230467E+00
   0.9920429551370817E+00
   0.9926390540623483E+00
   0.9869127902264057E+00
   0.9827884384875042E+00
   0.9528058042497023E+00
   0.9342861650973470E+00
   0.9908311598380826E+00
   0.9898985093177366E+00
   0.9949013100681887E+00
   0.9934347549560625E+00
   0.9962113008436221E+00
   0.1001246025304214E+01
   0.1002256108035788E+01
   0.1027152234137238E+01
   0.1001117652018549E+01
   0.9931324290162566E+00
   0.9924635746844136E+00
   0.9917702437502715E+00
   0.9966769196123485E+00
   0.9562328470533663E+00
   0.9924081141201017E+00
   0.9922836333333999E+00
   0.9882586603790364E+00
   0.9978663158275943E+00
   0.9960731365253864E+00
   0.9999681184172767E+00
   0.9925011767596431E+00
   0.9927226288944007E+00
   0.9940279697665333E+00
   0.1000665832011727E+01
   0.9929919267690553E+00
   0.9923029034780297E+00
   0.1007382141456589E+01
   0.9962963305659137E+00
   0.9929384595151203E+00
   0.9935642787220132E+00
   0.9942005012193861E+00
   0.9575382947031950E+00
   0.9466662790186554E+00
   0.9952486832839958E+00
   0.9859930983631559E+00
   0.9567773213322590E+00
   0.9967173820971942E+00
   0.9707731332180541E+00
   0.1018776415937096E+01
   0.1015471538894325E+01
   0.9963459189713028E+00
   0.9927264026777860E+00
   0.9991367350622717E+00
   0.9945233292719520E+00
   0.9565771805640033E+00
   0.9969151263348168E+00
   0.1005467297056667E+01
   0.1001235950351197E+01
   0.9892010901701974E+00
   0.9567190628680157E+00
   0.8880456061177397E+00
   0.9656763748621211E+00
   0.9846029043804237E+00
   0.9505530209003026E+00
   0.9575480394921774E+00
   0.9478811661396327E+00
   0.9274979007416224E+00
   0.8964059732651873E+00
   0.9899062807108970E+00
   0.9920757281206168E+00
   0.9945074010510520E+00
   0.1002086757230721E+01
   0.9053017794894287E+00
   0.8869111471001927E+00
   0.9118897329994569E+00
   0.9920774567164744E+00
   0.9933490842452352E+00
   0.9982564991517510E+00
   0.9855901188670676E+00
   0.9808677118088616E+00
   0.9226996841984897E+00
SCALARS u double 1
LOOKUP_TABLE default
   0.0000000000000000E+00
   0.0000000000000000E+00
   0.0000000000000000E+00
   0.0000000000000000E+00
   0.0000000000000000E+00
   0.0000000000000000E+00
   0.0000000000000000E+00
   0.0000000000000000E+00
   0.0000000000000000E+00
   0.0000000000000000E+00
   0.0000000000000000E+00
   0.0000000000000000E+00
   0.0000000000000000E+00
   0.0000000000000000E+00
   0.0000000000000000E+00
   0.0000000000000000E+00
   0.0000000000000000E+00
   0.0000000000000000E+00
   0.0000000000000000E+00
   0.0000000000000000E+00
   0.0000000000000000E+00
   0.0000000000000000E+00
   0.0000000000000000E+00
   0.0000000000000000E+00
   0.0000000000000000E+00
   0.0000000000000000E+00
   0.0000000000000000E+00
   0.0000000000000000E+00
   0.0000000000000000E+00
   0.0000000000000000E+00
   0.0000000000000000E+00
   0.0000000000000000E+00
   0.0000000000000000E+00
   0.5071699042389876E+00
   0.5094975662299508E+00
   0.5052421986667998E+00
   0.4956652642695883E+00
   0.4970504194147956E+00
   0.5019246315511284E+00
   0.5038927318665590E+00
   0.5056644027664420E+00
   0.5051596152704172E+00
   0.5050491141550361E+00
   0.4880950979047272E+00
   0.4104347832427913E+00
   0.5077793289340701E+00
   0.4594576986520282E+00
   0.5062757156499884E+00
   0.5209548659343650E+00
   0.5075618798611259E+00
   0.5239497482306140E+00
   0.5097478973453570E+00
   0.5461010274239523E+00
   0.5197904533566476E+00
   0.5049640490845385E+00
   0.5500382959299532E+00
   0.5554459881034446E+00
   0.3246396058002045E+00
   0.3909018720961760E+00
   0.5224022634100874E+00
   0.5406548386319071E+00
   0.4961536528133770E+00
   0.4961519807025591E+00
   0.4944728838768002E+00
   0.4945753121994524E+00
   0.5034822986376478E+00
   0.5121302930559010E+00
   0.5037366353032766E+00
   0.4935978202396242E+00
   0.5020189086124345E+00
   0.5026969019547066E+00
   0.5097282585063397E+00
   0.5215618200097680E+00
   0.5229904054420067E+00
   0.5213839023270356E+00
   0.5086224336050335E+00
   0.5017702670955654E+00
   0.5063265201765763E+00
   0.5082225686029214E+00
   0.5079282801953680E+00
   0.4991137049041635E+00
   0.5135749259794951E+00
   0.5150335026335303E+00
   0.5220751253825598E+00
   0.5085323862187762E+00
   0.5051013265526217E+00
   0.5051745474301533E+00
   0.5048554130946250E+00
   0.5048402611121472E+00
   0.5054920997762725E+00
   0.5051447360670007E+00
   0.4984491343512792E+00
   0.4963418677314957E+00
   0.5055325209258148E+00
   0.5042683719899345E+00
   0.4947554619113038E+00
   0.4971954110059102E+00
   0.4969448308807162E+00
   0.5005057963611670E+00
   0.5032055830883814E+00
   0.5056590328088510E+00
   0.5057433985661811E+00
   0.5059513387737705E+00
   0.5057834438778011E+00
   0.5004884005052591E+00
   0.5040541444014991E+00
   0.5037439725685320E+00
   0.5020071673606684E+00
   0.4977124714769383E+00
   0.5064475889493145E+00
   0.5056067283656559E+00
   0.5036568340693958E+00
   0.5011206650328272E+00
   0.5001584208383005E+00
   0.5041546094028365E+00
   0.5024049586185105E+00
   0.5035443859708798E+00
   0.5059199568041283E+00
   0.5026229646079416E+00
   0.4580799507922514E+00
   0.5168291858158043E+00
   0.5008051632690901E+00
   0.4996840180200863E+00
   0.5064179159557739E+00
   0.5020756289090905E+00
   0.5103196054648848E+00
   0.5052977381707404E+00
   0.4169649870353697E+00
   0.5046778254496251E+00
   0.4605815006300480E+00
   0.5054027921714636E+00
   0.5223204431586365E+00
   0.5055890121024093E+00
   0.5216782144958942E+00
   0.5099056226068027E+00
   0.5468999195793987E+00
   0.5182172242197843E+00
   0.5057902025830378E+00
   0.5651406385092543E+00
   0.5596475891927518E+00
   0.3173686042799545E+00
   0.3902942368330338E+00
   0.5359277322546773E+00
   0.5436109726710573E+00
   0.5523896781171849E+00
   0.5224440355747040E+00
   0.5372881501698453E+00
   0.5495033930499996E+00
   0.5443866239704911E+00
   0.5427328073915009E+00
   0.5450221149964027E+00
   0.5039671745013032E+00
   0.5103513114452706E+00
   0.5086923027765707E+00
   0.5292130514488336E+00
   0.3514531641206937E+00
   0.5060100135798210E+00
   0.5379708028548535E+00
   0.5720679909105070E+00
   0.5626353912121842E+00
   0.5347413978870678E+00
   0.5595199023603157E+00
   0.5124467674695784E+00
   0.5095690790403827E+00
   0.5064051811086356E+00
   0.5458153409401845E+00
   0.5410588339719282E+00
   0.5050050046942859E+00
   0.5313706468549150E+00
   0.5264132988523216E+00
   0.5371522755371104E+00
   0.5047679137843120E+00
   0.5047357933941535E+00
   0.3847881878126008E+00
   0.3657235937452516E+00
   0.5406131725145891E+00
   0.5488560355600497E+00
   0.3882623021380181E+00
   0.5560091406627061E+00
   0.3507877595023717E+00
   0.5289759507707520E+00
   0.4660127629788899E+00
   0.5080982438593343E+00
   0.5094907904515786E+00
   0.5537408725706866E+00
   0.5632203804765011E+00
   0.5414196936819693E+00
   0.5459967420582931E+00
   0.5188742810008379E+00
   0.5188683077765746E+00
   0.5372915297117580E+00
   0.5442839511186109E+00
   0.4585987739482229E+00
   0.5072945985934656E+00
   0.5658830841278757E+00
   0.3523761493148568E+00
   0.4773495185530817E+00
   0.5490004040622959E+00
   0.5043708205208834E+00
   0.3288504943956618E+00
   0.5085768360500023E+00
   0.5085457128987858E+00
   0.5099315689455478E+00
   0.5260465133601187E+00
   0.3605377939799108E+00
   0.3833167462478441E+00
   0.3497638309454156E+00
   0.5094469006611321E+00
   0.5086874478660834E+00
   0.5224956747009017E+00
   0.5577954997167369E+00
   0.4366218694414278E+00
   0.3786309050112644E+00
SCALARS v double 1
LOOKUP_TABLE default
   0.0000000000000000E+00
   0.0000000000000000E+00
   0.0000000000000000E+00
   0.0000000000000000E+00
   0.0000000000000000E+00
   0.0000000000000000E+00
   0.0000000000000000E+00
   0.0000000000000000E+00
   0.0000000000000000E+00
   0.0000000000000000E+00
   0.0000000000000000E+00
   0.0000000000000000E+00
   0.0000000000000000E+00
   0.0000000000000000E+00
   0.0000000000000000E+00
   0.0000000000000000E+00
   0.0000000000000000E+00
   0.0000000000000000E+00
   0.0000000000000000E+00
   0.0000000000000000E+00
   0.0000000000000000E+00
   0.0000000000000000E+00
   0.0000000000000000E+00
   0.0000000000000000E+00
   0.0000000000000000E+00
   0.0000000000000000E+00
   0.0000000000000000E+00
   0.0000000000000000E+00
   0.0000000000000000E+00
   0.0000000000000000E+00
   0.0000000000000000E+00
   0.0000000000000000E+00
   0.0000000000000000E+00
   0.0000000000000000E+00
   0.0000000000000000E+00
   0.0000000000000000E+00
   0.0000000000000000E+00
   0.0000000000000000E+00
   0.0000000000000000E+00
   0.0000000000000000E+00
   0.0000000000000000E+00
   0.0000000000000000E+00
   0.0000000000000000E+00
   0.0000000000000000E+00
   0.0000000000000000E+00
   0.0000000000000000E+00
   0.0000000000000000E+00
   0.0000000000000000E+00
   0.0000000000000000E+00
   0.0000000000000000E+00
   0.0000000000000000E+00
   0.0000000000000000E+00
   0.0000000000000000E+00
   0.0000000000000000E+00
   0.0000000000000000E+00
   0.0000000000000000E+00
   0.0000000000000000E+00
   0.0000000000000000E+00
   0.0000000000000000E+00
   0.0000000000000000E+00
   0.0000000000000000E+00
  -0.5885347530254883E-04
  -0.1702263798282428E-02
  -0.1361077313337853E-02
   0.0000000000000000E+00
   0.0000000000000000E+00
   0.0000000000000000E+00
   0.0000000000000000E+00
  -0.1231297814357101E-01
  -0.4016025050309530E-03
   0.1767713702102732E-02
   0.1666579526578069E-01
   0.6166113875697904E-03
   0.2479297378041506E-02
  -0.2998406766158214E-02
   0.4009174289444443E-02
  -0.3362964785915233E-03
   0.1994514729650557E-02
   0.1773724353457844E-03
   0.3649180175582896E-02
   0.1025235388245339E-02
  -0.2343430945757124E-02
   0.3195836422676334E-02
   0.5923098167846222E-02
   0.4131752915183342E-02
   0.3945698628534678E-03
  -0.8848460147993215E-04
  -0.2773241041868183E-03
   0.0000000000000000E+00
   0.0000000000000000E+00
   0.0000000000000000E+00
   0.0000000000000000E+00
  -0.6538469880484279E-03
   0.3171907223808624E-03
  -0.1960917747049994E-03
  -0.5457282025872905E-03
  -0.1616518356311272E-02
  -0.1642599955557748E-02
  -0.9935053481737381E-03
  -0.3145490344550352E-03
  -0.4017092593745875E-03
  -0.2691565907434328E-03
   0.3001857614430933E-03
  -0.6351236046812990E-03
  -0.2980218169000873E-03
  -0.1621386110263970E-03
  -0.4337205419665846E-03
  -0.2817248178136286E-03
   0.0000000000000000E+00
   0.0000000000000000E+00
   0.0000000000000000E+00
  -0.1006849766764755E-02
  -0.2860637715487644E-01
   0.8224477700676030E-02
   0.8221580221572218E-03
   0.2446919848964780E-03
  -0.2126119412012712E-03
  -0.3114533010235274E-02
   0.2753179328966499E-02
   0.4285350483239712E-02
   0.3368769082436190E-02
   0.7570387198871395E-02
   0.1073907734017037E-01
  -0.8726445508628836E-03
  -0.1090581605873906E-01
  -0.2575158480391955E-02
   0.3758532330417316E-02
   0.0000000000000000E+00
   0.0000000000000000E+00
   0.0000000000000000E+00
   0.0000000000000000E+00
   0.0000000000000000E+00
   0.0000000000000000E+00
   0.0000000000000000E+00
   0.0000000000000000E+00
   0.0000000000000000E+00
   0.0000000000000000E+00
   0.0000000000000000E+00
   0.0000000000000000E+00
   0.0000000000000000E+00
   0.0000000000000000E+00
   0.0000000000000000E+00
   0.0000000000000000E+00
   0.0000000000000000E+00
   0.2464554459893835E-02
   0.8496806462348053E-03
   0.4701036473406190E-03
   0.2392571763963164E-02
  -0.4131322042782195E-02
   0.2511254328635234E-02
   0.2638876574770611E-02
   0.1152981506164088E-02
   0.1428012050244848E-03
  -0.2216078231715644E-02
  -0.5879309180555715E-03
   0.1121189586151560E-01
  -0.1312437927984576E-03
   0.2654647676217725E-02
   0.6266356927028358E-02
   0.2697118334223473E-02
   0.1644392237678587E-02
   0.7857203796420516E-03
  -0.3664360021382876E-03
   0.6547035805561830E-03
  -0.6492888329569100E-04
   0.2600938222063655E-02
   0.3644880655146353E-03
   0.7262627990333961E-03
   0.3717084639569011E-02
  -0.1109199935289958E-02
   0.9287994677012268E-03
   0.2047237460373176E-03
   0.1973364186089342E-02
   0.4551997673560617E-02
   0.3973631676332139E-02
   0.1840515792216532E-02
   0.4097726218198205E-02
   0.6754219959448486E-02
   0.3815244547117974E-02
   0.1224936527865994E-01
  -0.2037447407281925E-02
  -0.3803524373554050E-02
  -0.3551166339471530E-03
   0.4714644646574048E-03
   0.3846878768265201E-02
   0.6947589440764799E-03
   0.3814175626993539E-02
   0.3888573733208804E-02
   0.1117043535422983E-02
  -0.4313005351528152E-04
  -0.1536825937641304E-02
  -0.1348494743686349E-02
   0.1774641334953270E-02
   0.6839777757413581E-02
   0.5179403822946338E-03
   0.5947781923501644E-02
  -0.6213986708545351E-02
   0.4006201804781295E-02
  -0.7883884785407946E-03
  -0.3266105321431825E-02
  -0.7969520892955841E-03
   0.1916137491452166E-03
  -0.9489112809257884E-03
   0.4368197264490828E-03
   0.6166328123504750E-02
   0.1492473410386132E-01
  -0.1191568303124235E-01
  -0.1026628100447379E-03
  -0.4481153823457089E-03
   0.1408522220617531E-02
  -0.1421132075929086E-02
  -0.3102101283950016E-02
   0.4956187451805533E-02
SCALARS w double 1
LOOKUP_TABLE default
   0.0000000000000000E+00
   0.0000000000000000E+00
   0.0000000000000000E+00
   0.0000000000000000E+00
   0.0000000000000000E+00
   0.0000000000000000E+00
   0.0000000000000000E+00
   0.0000000000000000E+00
   0.0000000000000000E+00
   0.0000000000000000E+00
   0.0000000000000000E+00
   0.0000000000000000E+00
   0.0000000000000000E+00
   0.0000000000000000E+00
   0.0000000000000000E+00
   0.0000000000000000E+00
   0.0000000000000000E+00
   0.0000000000000000E+00
   0.0000000000000000E+00
   0.0000000000000000E+00
   0.0000000000000000E+00
   0.0000000000000000E+00
   0.0000000000000000E+00
   0.0000000000000000E+00
   0.0000000000000000E+00
   0.0000000000000000E+00
   0.0000000000000000E+00
   0.0000000000000000E+00
   0.0000000000000000E+00
   0.0000000000000000E+00
   0.0000000000000000E+00
   0.0000000000000000E+00
   0.0000000000000000E+00
  -0.1391608555615583E+00
  -0.6183313547637664E-01
  -0.7947145127254545E-02
   0.1682897704886449E-02
  -0.6628781691332024E-02
  -0.7277645766760476E-02
  -0.6302973834571704E-02
  -0.3068155266473351E-02
  -0.6755898398581350E-03
   0.1828858415463209E-02
   0.5252549018124768E-02
  -0.8462911404841426E-02
  -0.7225218155090064E-02
  -0.3854784887805302E-01
  -0.5316135581737920E-02
   0.1776551926800575E-02
  -0.1026347524588514E-02
   0.2290719150609417E-01
  -0.7843785697381372E-02
  -0.1743610007851651E-01
  -0.1006576094520941E-01
  -0.8187160032163623E-02
  -0.4944685669491469E-02
  -0.5677292626227434E-01
   0.9276848885444623E-02
   0.1899367056839149E-01
   0.1487653574173524E-01
  -0.2708380979140871E-02
   0.8708440165902914E-03
   0.9408788839754540E-03
   0.7199464678856704E-03
   0.2396989098273000E-02
  -0.5321066122444291E-02
  -0.5591193125080098E-01
  -0.1327711845715097E+00
  -0.1609910256676894E+00
  -0.2555836342034969E-02
  -0.3932362191260358E-02
  -0.1442330856041967E+00
  -0.1410012503422649E+00
  -0.1462299916953896E+00
  -0.1288054820754105E+00
  -0.8896248117322669E-01
  -0.2311068584482719E-02
  -0.3151923267577018E-01
  -0.2636947696755057E-01
  -0.1707827913354829E-01
   0.1196335841582576E-03
  -0.1092537936694923E+00
  -0.4375049008653176E-01
  -0.1064991829247459E+00
  -0.8073132807701647E-01
  -0.2862904283717220E-02
  -0.2414433562005143E-02
  -0.2245249714197619E-02
  -0.2134731311460168E-02
  -0.5050793376459253E-02
  -0.7322860924681346E-02
  -0.6499178756510069E-02
  -0.5353228046750072E-02
  -0.4831836626488050E-02
  -0.5621350390046665E-02
  -0.6181884515298475E-02
  -0.6380565255949109E-02
  -0.5961959095748123E-02
  -0.7933529858241656E-02
  -0.7458076344280844E-02
  -0.4560706765193193E-02
  -0.6399464900690612E-02
  -0.6647586750899822E-02
  -0.4619307406274358E-02
  -0.7344034852893806E-02
  -0.7091722034517035E-02
  -0.7327183757376192E-02
  -0.7643441737936039E-02
  -0.2981432228579502E-02
   0.5361399899162946E-03
  -0.2326197427098804E-02
  -0.3838948250307561E-02
  -0.3261378498997421E-01
   0.6726127943965656E-02
  -0.3844702141751932E-02
  -0.4351234471402642E-02
  -0.2821479793042544E-02
  -0.1009689209505603E-01
  -0.6451019422327290E-02
  -0.5069156372440096E-01
   0.2469872751582000E-01
   0.1011459551990984E-01
  -0.4000507500130287E-01