# vtk DataFile Version 2.0
FUN3D:global_image_vtk
ASCII
DATASET UNSTRUCTURED_GRID
POINTS 213 double
    0.0000000000000000E+00    0.2500000000000000E+01    0.0000000000000000E+00
    0.1250000000000000E+01    0.2500000000000000E+01    0.0000000000000000E+00
    0.2500000000000000E+01    0.2500000000000000E+01    0.0000000000000000E+00
    0.3750000000000000E+01    0.2500000000000000E+01    0.0000000000000000E+00
    0.5000000000000000E+01    0.2500000000000000E+01    0.0000000000000000E+00
    0.5000000000000000E+01    0.1250000000000000E+01    0.0000000000000000E+00
    0.5000000000000000E+01    0.0000000000000000E+00    0.0000000000000000E+00
    0.5000000000000000E+01   -0.1250000000000000E+01    0.0000000000000000E+00
    0.5000000000000000E+01   -0.2500000000000000E+01    0.0000000000000000E+00
    0.3750000000000000E+01   -0.2500000000000000E+01    0.0000000000000000E+00
    0.2500000000000000E+01   -0.2500000000000000E+01    0.0000000000000000E+00
    0.1250000000000000E+01   -0.2500000000000000E+01    0.0000000000000000E+00
    0.0000000000000000E+00   -0.2500000000000000E+01    0.0000000000000000E+00
    0.0000000000000000E+00   -0.1250000000000000E+01    0.0000000000000000E+00
    0.0000000000000000E+00    0.0000000000000000E+00    0.0000000000000000E+00
    0.0000000000000000E+00    0.1250000000000000E+01    0.0000000000000000E+00
    0.9058375365086910E+00    0.1578994732800803E+01    0.0000000000000000E+00
    0.3982050490726493E+01   -0.1583989954232354E+01    0.0000000000000000E+00
    0.4033849428301197E+01    0.1453322699199022E+01    0.0000000000000000E+00
    0.1040505887381675E+01   -0.1479596339503735E+01    0.0000000000000000E+00
    0.1099454400140349E+01   -0.3227322616384110E+00    0.0000000000000000E+00
    0.7354504170366591E+00    0.6593508822075582E+00    0.0000000000000000E+00
    0.1622302608453282E+01    0.8256214013940779E+00    0.0000000000000000E+00
    0.2145871574390382E+01   -0.1650070333782557E+01    0.0000000000000000E+00
    0.4086422318222992E+01   -0.4612828702537229E+00    0.0000000000000000E+00
    0.2979540174134984E+01   -0.8579242121530853E+00    0.0000000000000000E+00
    0.3045064261640043E+01   -0.1836846154397680E+01    0.0000000000000000E+00
    0.3428197553792836E+01    0.3508002863614053E+00    0.0000000000000000E+00
    0.4309693860063405E+01    0.5185680230613409E+00    0.0000000000000000E+00
    0.1827272193562204E+01    0.1738996113203182E+01    0.0000000000000000E+00
    0.2808563282768077E+01    0.1325493893339706E+01    0.0000000000000000E+00
    0.1895995683864404E+01   -0.8731419609589618E+00    0.0000000000000000E+00
    0.2273179336307740E+01    0.4906150219227333E-01    0.0000000000000000E+00
    0.5000000000000000E+01    0.2500000000000000E+01    0.1250000000000000E+01
    0.5000000000000000E+01    0.2500000000000000E+01    0.2500000000000000E+01
    0.5000000000000000E+01    0.2500000000000000E+01    0.3750000000000000E+01
    0.5000000000000000E+01    0.2500000000000000E+01    0.5000000000000000E+01
    0.3750000000000000E+01    0.2500000000000000E+01    0.5000000000000000E+01
    0.2500000000000000E+01    0.2500000000000000E+01    0.5000000000000000E+01
    0.1250000000000000E+01    0.2500000000000000E+01    0.5000000000000000E+01
    0.0000000000000000E+00    0.2500000000000000E+01    0.5000000000000000E+01
    0.0000000000000000E+00    0.2500000000000000E+01    0.3750000000000000E+01
    0.0000000000000000E+00    0.2500000000000000E+01    0.2500000000000000E+01
    0.0000000000000000E+00    0.2500000000000000E+01    0.1250000000000000E+01
    0.9631080833812172E+00    0.2500000000000000E+01    0.9613285771248219E+00
    0.3981732467264904E+01    0.2500000000000000E+01    0.4069753913607991E+01
    0.4035525118777670E+01    0.2500000000000000E+01    0.1012015867579395E+01
    0.9641717640894248E+00    0.2500000000000000E+01    0.3972455192261839E+01
    0.1547743040396780E+01    0.2500000000000000E+01    0.2928177746738678E+01
    0.6985170616192014E+00    0.2500000000000000E+01    0.3068281976055466E+01
    0.8931277594515110E+00    0.2500000000000000E+01    0.2052465503257726E+01
    0.2183293750162785E+01    0.2500000000000000E+01    0.3959073795658649E+01
    0.3855333506014705E+01    0.2500000000000000E+01    0.2931218481500625E+01
    0.3152495579421047E+01    0.2500000000000000E+01    0.3635850502723324E+01
    0.3103247580566054E+01    0.2500000000000000E+01    0.4331682712472464E+01
    0.3266837581688852E+01    0.2500000000000000E+01    0.1886092433583972E+01
    0.4231539241296245E+01    0.2500000000000000E+01    0.1915865356532799E+01
    0.1909741006522088E+01    0.2500000000000000E+01    0.7170024419130505E+00
    0.2880784107213163E+01    0.2500000000000000E+01    0.9046598906449592E+00
    0.2014316024535771E+01    0.2500000000000000E+01    0.1762464314805728E+01
    0.2670003247036656E+01    0.2500000000000000E+01    0.2850479545835163E+01
    0.5000000000000000E+01    0.1250000000000000E+01    0.5000000000000000E+01
    0.5000000000000000E+01    0.0000000000000000E+00    0.5000000000000000E+01
    0.5000000000000000E+01   -0.1250000000000000E+01    0.5000000000000000E+01
    0.5000000000000000E+01   -0.2500000000000000E+01    0.5000000000000000E+01
    0.5000000000000000E+01   -0.2500000000000000E+01    0.3750000000000000E+01
    0.5000000000000000E+01   -0.2500000000000000E+01    0.2500000000000000E+01
    0.5000000000000000E+01   -0.2500000000000000E+01    0.1250000000000000E+01
    0.5000000000000000E+01    0.1578994732800803E+01    0.9058375365086910E+00
    0.5000000000000000E+01   -0.1583989954232354E+01    0.3982050490726493E+01
    0.5000000000000000E+01    0.1453322699199022E+01    0.4033849428301197E+01
    0.5000000000000000E+01   -0.1479596339503735E+01    0.1040505887381675E+01
    0.5000000000000000E+01   -0.3227322616384110E+00    0.1099454400140349E+01
    0.5000000000000000E+01    0.6593508822075582E+00    0.7354504170366591E+00
    0.5000000000000000E+01    0.8256214013940779E+00    0.1622302608453282E+01
    0.5000000000000000E+01   -0.1650070333782557E+01    0.2145871574390382E+01
    0.5000000000000000E+01   -0.4612828702537229E+00    0.4086422318222992E+01
    0.5000000000000000E+01   -0.8579242121530853E+00    0.2979540174134984E+01
    0.5000000000000000E+01   -0.1836846154397680E+01    0.3045064261640043E+01
    0.5000000000000000E+01    0.3508002863614053E+00    0.3428197553792836E+01
    0.5000000000000000E+01    0.5185680230613409E+00    0.4309693860063405E+01
    0.5000000000000000E+01    0.1738996113203182E+01    0.1827272193562204E+01
    0.5000000000000000E+01    0.1325493893339706E+01    0.2808563282768077E+01
    0.5000000000000000E+01   -0.8731419609589618E+00    0.1895995683864404E+01
    0.5000000000000000E+01    0.4906150219227333E-01    0.2273179336307740E+01
    0.0000000000000000E+00    0.1250000000000000E+01    0.5000000000000000E+01
    0.0000000000000000E+00    0.0000000000000000E+00    0.5000000000000000E+01
    0.0000000000000000E+00   -0.1250000000000000E+01    0.5000000000000000E+01
    0.0000000000000000E+00   -0.2500000000000000E+01    0.5000000000000000E+01
    0.1250000000000000E+01   -0.2500000000000000E+01    0.5000000000000000E+01
    0.2500000000000000E+01   -0.2500000000000000E+01    0.5000000000000000E+01
    0.3750000000000000E+01   -0.2500000000000000E+01    0.5000000000000000E+01
    0.4042003247744892E+01    0.1558308132739014E+01    0.5000000000000000E+01
    0.9304122287900499E+00   -0.1548001304379777E+01    0.5000000000000000E+01
    0.1037243024609388E+01    0.1462892710085612E+01    0.5000000000000000E+01
    0.3946240828834967E+01   -0.1445243809615570E+01    0.5000000000000000E+01
    0.4092527262848217E+01   -0.3455338993778935E+00    0.5000000000000000E+01
    0.4293103109154542E+01    0.6277660831404320E+00    0.5000000000000000E+01
    0.3241512314643519E+01    0.7429886854239611E+00    0.5000000000000000E+01
    0.2844289952419609E+01   -0.1588117879734118E+01    0.5000000000000000E+01
    0.7159905765450471E+00   -0.6002320124191652E+00    0.5000000000000000E+01
    0.1754341919796891E+01   -0.7398147869923652E+00    0.5000000000000000E+01
    0.1870296826774691E+01   -0.1788622905643739E+01    0.5000000000000000E+01
    0.9220614901912976E+00    0.3083720183248586E+00    0.5000000000000000E+01
    0.3101523624086016E+01    0.1777901774806180E+01    0.5000000000000000E+01
    0.2192512063922564E+01    0.1576861561598471E+01    0.5000000000000000E+01
    0.2024793420196460E+01    0.4773861992750707E+00    0.5000000000000000E+01
    0.2990627757741975E+01   -0.4878110785814084E+00    0.5000000000000000E+01
    0.0000000000000000E+00   -0.2500000000000000E+01    0.1250000000000000E+01
    0.0000000000000000E+00   -0.2500000000000000E+01    0.2500000000000000E+01
    0.0000000000000000E+00   -0.2500000000000000E+01    0.3750000000000000E+01
    0.0000000000000000E+00    0.1558308132739014E+01    0.4042003247744892E+01
    0.0000000000000000E+00   -0.1548001304379777E+01    0.9304122287900499E+00
    0.0000000000000000E+00    0.1462892710085612E+01    0.1037243024609388E+01
    0.0000000000000000E+00   -0.1445243809615570E+01    0.3946240828834967E+01
    0.0000000000000000E+00   -0.3455338993778935E+00    0.4092527262848217E+01
    0.0000000000000000E+00    0.6277660831404320E+00    0.4293103109154542E+01
    0.0000000000000000E+00    0.7429886854239611E+00    0.3241512314643519E+01
    0.0000000000000000E+00   -0.1588117879734118E+01    0.2844289952419609E+01
    0.0000000000000000E+00   -0.6002320124191652E+00    0.7159905765450471E+00
    0.0000000000000000E+00   -0.7398147869923652E+00    0.1754341919796891E+01
    0.0000000000000000E+00   -0.1788622905643739E+01    0.1870296826774691E+01
    0.0000000000000000E+00    0.3083720183248586E+00    0.9220614901912976E+00
    0.0000000000000000E+00    0.1777901774806180E+01    0.3101523624086016E+01
    0.0000000000000000E+00    0.1576861561598471E+01    0.2192512063922564E+01
[...]
POINT_DATA 213
SCALARS rho double 1
LOOKUP_TABLE default
   0.7513192290336769E+00
   0.8647960075923590E+00
   0.8244672178563915E+00
   0.7866292834183354E+00
   0.5964363160641072E+00
   0.5291083470704384E+00
   0.5196837569665376E+00
   0.5272747904582467E+00
   0.5816740740769957E+00
   0.8027553758077717E+00
   0.8255879935959686E+00
   0.8758524130385371E+00
   0.6522927084026962E+00
   0.7534089894685794E+00
   0.6187255865138421E+00
   0.7370984571960993E+00
   0.8296000306507912E+00
   0.8136929907810555E+00
   0.7963477982029958E+00
   0.8694643840069639E+00
   0.8300516756985963E+00
   0.8683745141924649E+00
   0.8452027736185223E+00
   0.8383199455180216E+00
   0.8161645671741363E+00
   0.8249496351389154E+00
   0.8207681735887723E+00
   0.8157091185844588E+00
   0.8078445878741235E+00
   0.8518788209696576E+00
   0.8137543556035701E+00
   0.8418527325123184E+00
   0.8366139097375791E+00
   0.9328776436818156E+00
   0.1011044323350534E+01
   0.1005059830213006E+01
   0.9944446111021756E+00
   0.9938072543932922E+00
   0.9939903645172413E+00
   0.9954235634236757E+00
   0.9952342795133955E+00
   0.9950168126970205E+00
   0.9910550920860035E+00
   0.1030648596877013E+01
   0.9807876618472153E+00
   0.9957377698352425E+00
   0.9149817060319775E+00
   0.9932193638896941E+00
   0.9916635776670597E+00
   0.9923214875946267E+00
   0.9983638382607600E+00
   0.9920419306984053E+00
   0.9989718940779215E+00
   0.9942463302276445E+00
   0.9924501922596932E+00
   0.9762255597008700E+00
   0.9770482041476579E+00
   0.9367959341556965E+00
   0.9232627167824218E+00
   0.9859571972803015E+00
   0.9909849599679573E+00
   0.9946913885398994E+00
   0.9949990972428452E+00
   0.9945533696820976E+00
   0.9939661371892770E+00
   0.1006700193982665E+01
   0.1012234898658157E+01
   0.9402920124267028E+00
   0.8654672246859872E+00
   0.1004467244953891E+01
   0.1001427305440777E+01
   0.8781493689419484E+00
   0.8775418401762769E+00
   0.8037027030101953E+00
   0.9711435788824977E+00
   0.1007712315236298E+01
   0.1003950641168594E+01
   0.1021622845626879E+01
   0.1015062965411834E+01
   0.1016543275683023E+01
   0.1002072524265507E+01
   0.9848145166762909E+00
   0.1011555174617006E+01
   0.9955626821558669E+00
   0.1021259231258655E+01
   0.9951187800755401E+00
   0.9949686753187355E+00
   0.9955577256369206E+00
   0.9957367004549428E+00
   0.9954138378549098E+00
   0.9936623707545662E+00
   0.9947414493615467E+00
   0.9930002750538202E+00
   0.9956035323379935E+00
   0.9956498059645447E+00
   0.9917214832645813E+00
   0.9926233548208283E+00
   0.9928652215442946E+00
   0.9928292696646583E+00
   0.9940216029006630E+00
   0.9953880107907640E+00
   0.9943600177581288E+00
   0.9942561156807023E+00
   0.9957555699464241E+00
   0.9938957650984033E+00
   0.9942323582587848E+00
   0.9934803097227499E+00
   0.9937283808524465E+00
   0.1035414481124921E+01
   0.9895356650124405E+00
   0.9939472821858168E+00
   0.9945220199701175E+00
   0.1086650484279617E+01
   0.1071381213104875E+01
   0.9937086671408583E+00
   0.9948388190939177E+00
   0.9950787173491717E+00
   0.9868907283055371E+00
   0.9862808539475243E+00
   0.1087821186305615E+01
   0.9793843287550965E+00
   0.9862848929661199E+00
   0.1080761294983323E+01
   0.9942233258888703E+00
   0.9898911764584521E+00
   0.9657358993075102E+00
   0.9880862651440345E+00
   0.9891454953153523E+00
   0.9954008529995935E+00
   0.9321245686653146E+00
   0.9938862204224531E+00
   0.9910462501078648E+00
   0.9929595944104810E+00
   0.9989384515254518E+00
   0.9907726498272548E+00
   0.1000015497862999E+01
   0.9920253521273253E+00
   0.9926563951614833E+00
   0.9876581013228682E+00
   0.9835070440966689E+00
   0.9469983494844065E+00
   0.9306056847370026E+00
   0.9916515681499154E+00
   0.9901566298158239E+00
   0.9953589201221507E+00
   0.9935096731467440E+00
   0.9963018491596427E+00
   0.1001690268958295E+01
   0.1002229097962392E+01
   0.1028280503464915E+01
   0.1003293934619648E+01
   0.9931733504235442E+00
   0.9925921386636389E+00
   0.9919715072210644E+00
   0.9968353619242004E+00
   0.9548960133326290E+00
   0.9924511489995947E+00
   0.9924921367717806E+00
   0.9893769101020899E+00
   0.9988143570156122E+00
   0.9963945739386881E+00
   0.1001377499436606E+01
   0.9925397255749432E+00
   0.9927353018172408E+00
   0.9940709959420133E+00
   0.1001661900759345E+01
   0.9932549554823275E+00
   0.9923474922215928E+00
   0.1008291441275470E+01
   0.9966154428956674E+00
   0.9934510893612103E+00
   0.9936438720346883E+00
   0.9942784637492962E+00
   0.9532839588513458E+00
   0.9435721439442991E+00
   0.9961517463501007E+00
   0.9864310389011256E+00
   0.9532991521117653E+00
   0.9976605814481228E+00
   0.9678754976491368E+00
   0.1019582428712392E+01
   0.1016649850205050E+01
   0.9964468610094138E+00
   0.9927553409372649E+00
   0.1000522975681719E+01
   0.9952872449807629E+00
   0.9566528908892499E+00
   0.9979550728400012E+00
   0.1005991647664814E+01
   0.1001614105020630E+01
   0.9893157258347574E+00
   0.9561407140211010E+00
   0.8849626683083568E+00
   0.9649211085723166E+00
   0.9855081970879918E+00
   0.9477953358541998E+00
   0.9564972365579953E+00
   0.9483947209203026E+00
   0.9265235177762844E+00
   0.8934801324509840E+00
   0.9898602634986081E+00
   0.9921014674752552E+00
   0.9945652544643403E+00
   0.1002642824715930E+01
   0.9017030654963786E+00
   0.8840630113743012E+00
   0.9081779506663895E+00
   0.9920895762449031E+00
   0.9933232143379723E+00
   0.9985636459214642E+00
   0.9861820360883901E+00
   0.9796011417862340E+00
   0.9203645520097882E+00
SCALARS u double 1
LOOKUP_TABLE default
   0.0000000000000000E+00
   0.0000000000000000E+00
   0.0000000000000000E+00
   0.0000000000000000E+00
   0.0000000000000000E+00
   0.0000000000000000E+00
   0.0000000000000000E+00
   0.0000000000000000E+00
   0.0000000000000000E+00
   0.0000000000000000E+00
   0.0000000000000000E+00
   0.0000000000000000E+00
   0.0000000000000000E+00
   0.0000000000000000E+00
   0.0000000000000000E+00
   0.0000000000000000E+00
   0.0000000000000000E+00
   0.0000000000000000E+00
   0.0000000000000000E+00
   0.0000000000000000E+00
   0.0000000000000000E+00
   0.0000000000000000E+00
   0.0000000000000000E+00
   0.0000000000000000E+00
   0.0000000000000000E+00
   0.0000000000000000E+00
   0.0000000000000000E+00
   0.0000000000000000E+00
   0.0000000000000000E+00
   0.0000000000000000E+00
   0.0000000000000000E+00
   0.0000000000000000E+00
   0.0000000000000000E+00
   0.5092038105333629E+00
   0.5088077483665812E+00
   0.5050701469833643E+00
   0.4957782792595964E+00
   0.4969042208744343E+00
   0.5017468340310913E+00
   0.5037193624310566E+00
   0.5056006471045850E+00
   0.5049183588332637E+00
   0.5042900675295565E+00
   0.4866977598060980E+00
   0.4136127547160960E+00
   0.5076749814575297E+00
   0.4614019152693813E+00
   0.5061658106295661E+00
   0.5212212089538723E+00
   0.5075125387270017E+00
   0.5242604329536540E+00
   0.5097315492536499E+00
   0.5464313403267880E+00
   0.5198595033911059E+00
   0.5048284143162892E+00
   0.5512705902447109E+00
   0.5562992793271649E+00
   0.3267608498244385E+00
   0.3922865201027311E+00
   0.5239474764532015E+00
   0.5412415048432000E+00
   0.4962971918091557E+00
   0.4963250749685871E+00
   0.4946614241842033E+00
   0.4947417118336600E+00
   0.5034055984094062E+00
   0.5112759545704544E+00
   0.5041406146999666E+00
   0.4965748064568219E+00
   0.5019881105575281E+00
   0.5026533165526188E+00
   0.5113445091645253E+00
   0.5226123173130881E+00
   0.5261857229102368E+00
   0.5211250102300080E+00
   0.5075017884894520E+00
   0.5017392585072271E+00
   0.5054351713088423E+00
   0.5076274964564396E+00
   0.5073675155998567E+00
   0.4991510321295339E+00
   0.5133076741797401E+00
   0.5142221072768567E+00
   0.5208045173746304E+00
   0.5068993448889906E+00
   0.5050496090021381E+00
   0.5051603557702412E+00
   0.5048037113680870E+00
   0.5048072899704784E+00
   0.5052709790609168E+00
   0.5049166849618116E+00
   0.4983088635137883E+00
   0.4962250670192831E+00
   0.5053962013303316E+00
   0.5041171445371608E+00
   0.4946766389932623E+00
   0.4971586247704086E+00
   0.4969062692550101E+00
   0.5002992582769742E+00
   0.5029931924544871E+00
   0.5055725545741692E+00
   0.5055434847011475E+00
   0.5057222354975347E+00
   0.5056848362126288E+00
   0.5003043539516669E+00
   0.5038756314158994E+00
   0.5035544198642942E+00
   0.5018233431200152E+00
   0.4975308158047565E+00
   0.5058004183658023E+00
   0.5054341462280453E+00
   0.5033530296382117E+00
   0.4969157824860065E+00
   0.4987220796880154E+00
   0.5039307143737660E+00
   0.5020884722797344E+00
   0.5033101790367286E+00
   0.5054422729678043E+00
   0.5022277677902716E+00
   0.4550135546558646E+00
   0.5170586771646607E+00
   0.4999896050521329E+00
   0.4943039038686620E+00
   0.5060170102717078E+00
   0.5011923932990593E+00
   0.5101913253738608E+00
   0.5050350187738765E+00
   0.4184247871151557E+00
   0.5046036153851116E+00
   0.4612139749299146E+00
   0.5052610144057570E+00
   0.5226719453020350E+00
   0.5054506980728782E+00
   0.5220055659519112E+00
   0.5098927448502540E+00
   0.5470883595229891E+00
   0.5183334316179631E+00
   0.5056884612294226E+00
   0.5655770639813933E+00
   0.5597581411423928E+00
   0.3176090082835650E+00
   0.3902790987770968E+00
   0.5368045760057667E+00
   0.5441436614016885E+00
   0.5528184651386242E+00
   0.5227370011329316E+00
   0.5376182541873200E+00
   0.5500854650335125E+00
   0.5443887225483152E+00
   0.5426433293240557E+00
   0.5459978207133965E+00
   0.5038869137232233E+00
   0.5103645052903568E+00
   0.5085711095527361E+00
   0.5303102280101539E+00
   0.3560927983599256E+00
   0.5058893638500922E+00
   0.5383286316548967E+00
   0.5725871510064605E+00
   0.5632846670682431E+00
   0.5348275320817898E+00
   0.5594414257766034E+00
   0.5123925017695419E+00
   0.5094839381839327E+00
   0.5062563029919619E+00
   0.5455971611114580E+00
   0.5413802155412651E+00
   0.5048919280546902E+00
   0.5320124361350086E+00
   0.5270943961384010E+00
   0.5377093961556974E+00
   0.5046265095726726E+00
   0.5046760487973800E+00
   0.3851409009575542E+00
   0.3653698205274489E+00
   0.5410097772660267E+00
   0.5499167623873219E+00
   0.3896606397312333E+00
   0.5569801127786026E+00
   0.3527735718948055E+00
   0.5292231727462072E+00
   0.4663808514562892E+00
   0.5079721434144152E+00
   0.5094245073919428E+00
   0.5533117348309695E+00
   0.5636523585441895E+00
   0.5416124741406514E+00
   0.5457759337164148E+00
   0.5187651702758088E+00
   0.5187506911758631E+00
   0.5377638127874845E+00
   0.5454315873927026E+00
   0.4602803056392059E+00
   0.5085432605035963E+00
   0.5660756029874162E+00
   0.3518285674005912E+00
   0.4774716400772060E+00
   0.5489313127390422E+00
   0.5048041802268352E+00
   0.3289351772895989E+00
   0.5085597427731501E+00
   0.5084785332520179E+00
   0.5098647414445959E+00
   0.5259056317057754E+00
   0.3613122897236808E+00
   0.3842171536182987E+00
   0.3501980150456572E+00
   0.5094007151499566E+00
   0.5086433609154882E+00
   0.5224697385667022E+00
   0.5584730559594779E+00
   0.4369672420097326E+00
   0.3785723236671080E+00
SCALARS v double 1
LOOKUP_TABLE default
   0.0000000000000000E+00
   0.0000000000000000E+00
   0.0000000000000000E+00
   0.0000000000000000E+00
   0.0000000000000000E+00
   0.0000000000000000E+00
   0.0000000000000000E+00
   0.0000000000000000E+00
   0.0000000000000000E+00
   0.0000000000000000E+00
   0.0000000000000000E+00
   0.0000000000000000E+00
   0.0000000000000000E+00
   0.0000000000000000E+00
   0.0000000000000000E+00
   0.0000000000000000E+00
   0.0000000000000000E+00
   0.0000000000000000E+00
   0.0000000000000000E+00
   0.0000000000000000E+00
   0.0000000000000000E+00
   0.0000000000000000E+00
   0.0000000000000000E+00
   0.0000000000000000E+00
   0.0000000000000000E+00
   0.0000000000000000E+00
   0.0000000000000000E+00
   0.0000000000000000E+00
   0.0000000000000000E+00
   0.0000000000000000E+00
   0.0000000000000000E+00
   0.0000000000000000E+00
   0.0000000000000000E+00
   0.0000000000000000E+00
   0.0000000000000000E+00
   0.0000000000000000E+00
   0.0000000000000000E+00
   0.0000000000000000E+00
   0.0000000000000000E+00
   0.0000000000000000E+00
   0.0000000000000000E+00
   0.0000000000000000E+00
   0.0000000000000000E+00
   0.0000000000000000E+00
   0.0000000000000000E+00
   0.0000000000000000E+00
   0.0000000000000000E+00
   0.0000000000000000E+00
   0.0000000000000000E+00
   0.0000000000000000E+00
   0.0000000000000000E+00
   0.0000000000000000E+00
   0.0000000000000000E+00
   0.0000000000000000E+00
   0.0000000000000000E+00
   0.0000000000000000E+00
   0.0000000000000000E+00
   0.0000000000000000E+00
   0.0000000000000000E+00
   0.0000000000000000E+00
   0.0000000000000000E+00
  -0.7391171571418118E-04
  -0.1793993237912075E-02
  -0.1447912990184450E-02
   0.0000000000000000E+00
   0.0000000000000000E+00
   0.0000000000000000E+00
   0.0000000000000000E+00
  -0.1227939128128395E-01
  -0.4431337108647479E-03
   0.1802399958248659E-02
   0.1668605191354279E-01
   0.7468107004029893E-03
   0.2675520195279365E-02
  -0.2811134378046153E-02
   0.3881756995676133E-02
  -0.3895689432512032E-03
   0.1933462243488455E-02
   0.1094497011193134E-03
   0.3692705338343269E-02
   0.1024643286364773E-02
  -0.2175179939117522E-02
   0.3297620945954188E-02
   0.5815323728910127E-02
   0.4200645687231496E-02
   0.4020957240414546E-03
  -0.8001164044804895E-04
  -0.2596574213143518E-03
   0.0000000000000000E+00
   0.0000000000000000E+00
   0.0000000000000000E+00
   0.0000000000000000E+00
  -0.6526571372162900E-03
   0.3551639378644910E-03
  -0.2272976642008451E-03
  -0.5778586578267510E-03
  -0.1701155711438950E-02
  -0.1698813069813159E-02
  -0.1027386986860660E-02
  -0.2761684746007350E-03
  -0.4047997030875234E-03
  -0.2703186875123314E-03
   0.3429855101734058E-03
  -0.6760580113670631E-03
  -0.3207471684657920E-03
  -0.1902116126615295E-03
  -0.4841855965580809E-03
  -0.3228682029921390E-03
   0.0000000000000000E+00
   0.0000000000000000E+00
   0.0000000000000000E+00
  -0.1011722993290060E-02
  -0.2819253804995048E-01
   0.8140514186716193E-02
   0.8145993326504179E-03
   0.1771186186975741E-03
  -0.2631295229730154E-03
  -0.3263423054305448E-02
   0.2764530184404132E-02
   0.4707214054583530E-02
   0.3332144081714603E-02
   0.7410837373435306E-02
   0.1041859597905134E-01
  -0.8496381346698418E-03
  -0.1077838303212982E-01
  -0.2691560611016257E-02
   0.3693440374737079E-02
   0.0000000000000000E+00
   0.0000000000000000E+00
   0.0000000000000000E+00
   0.0000000000000000E+00
   0.0000000000000000E+00
   0.0000000000000000E+00
   0.0000000000000000E+00
   0.0000000000000000E+00
   0.0000000000000000E+00
   0.0000000000000000E+00
   0.0000000000000000E+00
   0.0000000000000000E+00
   0.0000000000000000E+00
   0.0000000000000000E+00
   0.0000000000000000E+00
   0.0000000000000000E+00
   0.0000000000000000E+00
   0.2484439875063266E-02
   0.8778209751393047E-03
   0.5606666114061859E-03
   0.2393132582199777E-02
  -0.3994781296493779E-02
   0.2470353988593704E-02
   0.2351798507503725E-02
   0.1143857184107050E-02
   0.1691476666938977E-03
  -0.2130492740250011E-02
  -0.5681223164971888E-03
   0.9971813043328814E-02
  -0.1365866296124869E-03
   0.2705192126383391E-02
   0.6241464961337734E-02
   0.2690970640968935E-02
   0.1671081286937425E-02
   0.8099532747172607E-03
  -0.3810587967880836E-03
   0.6581314710468046E-03
  -0.6315645581399683E-04
   0.2608328941958951E-02
   0.3771031977719115E-03
   0.7059941823288879E-03
   0.3757437863542178E-02
  -0.1102270148259835E-02
   0.1017739088986343E-02
   0.1783113699159488E-03
   0.1943170451633044E-02
   0.4001414494965570E-02
   0.3782125283019550E-02
   0.1695472727175632E-02
   0.4043357009168654E-02
   0.6317451528336101E-02
   0.3668606531481713E-02
   0.1067113799555523E-01
  -0.1896745114875677E-02
  -0.3705087116880034E-02
  -0.3666165741064977E-03
   0.4870713319969923E-03
   0.3817512012473559E-02
   0.7160913292161292E-03
   0.3795306258407862E-02
   0.3863183312016041E-02
   0.1091534255154308E-02
  -0.7055756588551814E-04
  -0.1517467375712634E-02
  -0.1339418967708472E-02
   0.1835586172831540E-02
   0.6655523302109833E-02
   0.4790730704662504E-03
   0.5799617807044630E-02
  -0.6205010243182234E-02
   0.4038361666193638E-02
  -0.8501880783483290E-03
  -0.3290247235099260E-02
  -0.8248910974458142E-03
   0.1723260527098740E-03
  -0.9951963304819132E-03
   0.4518704285900548E-03
   0.6140848405883081E-02
   0.1515244769112572E-01
  -0.1201857368433869E-01
  -0.1174102282781058E-03
  -0.4530925192401426E-03
   0.1448991226797632E-02
  -0.1362304779674418E-02
  -0.2999310219893624E-02
   0.4848045737646649E-02
SCALARS w double 1
LOOKUP_TABLE default
   0.0000000000000000E+00
   0.0000000000000000E+00
   0.0000000000000000E+00
   0.0000000000000000E+00
   0.0000000000000000E+00
   0.0000000000000000E+00
   0.0000000000000000E+00
   0.0000000000000000E+00
   0.0000000000000000E+00
   0.0000000000000000E+00
   0.0000000000000000E+00
   0.0000000000000000E+00
   0.0000000000000000E+00
   0.0000000000000000E+00
   0.0000000000000000E+00
   0.0000000000000000E+00
   0.0000000000000000E+00
   0.0000000000000000E+00
   0.0000000000000000E+00
   0.0000000000000000E+00
   0.0000000000000000E+00
   0.0000000000000000E+00
   0.0000000000000000E+00
   0.0000000000000000E+00
   0.0000000000000000E+00
   0.0000000000000000E+00
   0.0000000000000000E+00
   0.0000000000000000E+00
   0.0000000000000000E+00
   0.0000000000000000E+00
   0.0000000000000000E+00
   0.0000000000000000E+00
   0.0000000000000000E+00
  -0.1411461562531837E+00
  -0.6235910072146662E-01
  -0.7367061768292131E-02
   0.2047187015045238E-02
  -0.6530201023625806E-02
  -0.7148914422576687E-02
  -0.6198678104793459E-02
  -0.3054107751165273E-02
  -0.6580030002735681E-03
   0.1878709764866430E-02
   0.6735411453857575E-02
  -0.5743293073758763E-02
  -0.7065277978874226E-02
  -0.3917895631217846E-01
  -0.5172406767459263E-02
   0.1968755775203463E-02
  -0.7670566987852617E-03
   0.2376137008866346E-01
  -0.7756783130964853E-02
  -0.1754079268711833E-01
  -0.1005884181420618E-01
  -0.8093447811343848E-02
  -0.5185689867477036E-02
  -0.5766781371832565E-01
   0.9631300749325231E-02
   0.1888241063240987E-01
   0.1536007763497497E-01
  -0.2677976011199413E-02
   0.1174821588717083E-02
   0.1227767248841844E-02
   0.1089385814124816E-02
   0.2798734332915398E-02
  -0.4729163951870613E-02
  -0.5622685256392073E-01
  -0.1343646075314408E+00
  -0.1629690698146884E+00
  -0.2023986164362088E-02
  -0.3381028771392821E-02
  -0.1459802990243239E+00
  -0.1427646768514496E+00
  -0.1478421883562654E+00
  -0.1304663502478381E+00
  -0.8993321480781104E-01
  -0.1756958857166194E-02
  -0.3136807389779880E-01
  -0.2608902367608932E-01
  -0.1659033344430086E-01
   0.6616889788986952E-03
  -0.1106824226930884E+00
  -0.4377324405722085E-01
  -0.1078550881321220E+00
  -0.8145480685626864E-01
  -0.2826961025639160E-02
  -0.2383345193993024E-02
  -0.2179757605146084E-02
  -0.2111540510043967E-02
  -0.4925388800158267E-02
  -0.7196799956499441E-02
  -0.6318938349035972E-02
  -0.5337609847527102E-02
  -0.4755079239228376E-02
  -0.5504059632456202E-02
  -0.6166991312035584E-02
  -0.6403464351149054E-02
  -0.5996506480376791E-02
  -0.7860477884856488E-02
  -0.7319572051473664E-02
  -0.4469684472884683E-02
  -0.6315394565274171E-02
  -0.6536611218739345E-02
  -0.4502163053012358E-02
  -0.7231106413812621E-02
  -0.6971494520263406E-02
  -0.7237111016435174E-02
  -0.7534025621216616E-02
  -0.6773151114599826E-03
   0.6463984488669661E-03
  -0.2327741535917436E-02
  -0.3749918556588961E-02
  -0.2927238562527999E-01
   0.1070385098067232E-01
  -0.3871421646178895E-02
  -0.4427755836297693E-02
  -0.2776728703991862E-02
  -0.1007598588683522E-01
  -0.6402492001144502E-02
  -0.5015160462079678E-01
   0.2586375204009634E-01
   0.1082745100029282E-01
  -0.3762370399927890E-01