title="tecplot geometry and solution file"
variables = x y z rho u v w p mach temperature
zone t="boundary 1 bc-1", solutiontime= 0.5000000E+02, strandid=1001, i=32, j=46, f=feblock
  0.000000000000E+00  0.000000000000E+00  0.000000000000E+00  0.000000000000E+00  0.000000000000E+00  0.000000000000E+00  0.000000000000E+00
  0.000000000000E+00  0.000000000000E+00  0.000000000000E+00  0.000000000000E+00  0.000000000000E+00  0.000000000000E+00  0.000000000000E+00
  0.000000000000E+00  0.000000000000E+00  0.000000000000E+00  0.000000000000E+00  0.000000000000E+00  0.000000000000E+00  0.000000000000E+00
  0.000000000000E+00  0.000000000000E+00  0.000000000000E+00  0.000000000000E+00  0.000000000000E+00  0.000000000000E+00  0.000000000000E+00
  0.000000000000E+00  0.000000000000E+00  0.000000000000E+00  0.000000000000E+00
  0.250000000000E+01  0.250000000000E+01  0.125000000000E+01  0.146289271009E+01  0.157686156160E+01  0.308372018325E+00  0.000000000000E+00
 -0.125000000000E+01 -0.600232012419E+00  0.250000000000E+01  0.477386199275E+00  0.742988685424E+00 -0.739814786992E+00  0.177790177481E+01
  0.155830813274E+01  0.250000000000E+01 -0.250000000000E+01 -0.154800130438E+01 -0.487811078581E+00  0.250000000000E+01  0.627766083140E+00
 -0.345533899378E+00 -0.178862290564E+01 -0.158811787973E+01  0.125000000000E+01 -0.250000000000E+01 -0.144524380962E+01  0.000000000000E+00
 -0.125000000000E+01 -0.250000000000E+01 -0.250000000000E+01 -0.250000000000E+01
  0.000000000000E+00  0.125000000000E+01  0.000000000000E+00  0.103724302461E+01  0.219251206392E+01  0.922061490191E+00  0.000000000000E+00
  0.000000000000E+00  0.715990576545E+00  0.250000000000E+01  0.202479342020E+01  0.324151231464E+01  0.175434191980E+01  0.310152362409E+01
  0.404200324774E+01  0.375000000000E+01  0.000000000000E+00  0.930412228790E+00  0.299062775774E+01  0.500000000000E+01  0.429310310915E+01
  0.409252726285E+01  0.187029682677E+01  0.284428995242E+01  0.500000000000E+01  0.125000000000E+01  0.394624082883E+01  0.500000000000E+01
  0.500000000000E+01  0.250000000000E+01  0.375000000000E+01  0.500000000000E+01
  0.746325970072E+00  0.103035062186E+01  0.731971617954E+00  0.107095688715E+01  0.989602962373E+00  0.107643863169E+01  0.619709090616E+00
  0.750040451255E+00  0.108514642182E+01  0.990815169297E+00  0.965718102683E+00  0.986714985548E+00  0.979312176784E+00  0.994096655019E+00
  0.994425977694E+00  0.994948026996E+00  0.646184122201E+00  0.108316140672E+01  0.988098792301E+00  0.995235970121E+00  0.994987436661E+00
  0.994737123286E+00  0.985845667782E+00  0.986215740778E+00  0.995119689188E+00  0.103569301973E+01  0.993636927050E+00  0.994983464155E+00
  0.995541742481E+00  0.989186208622E+00  0.993886680811E+00  0.995744037897E+00
  0.000000000000E+00  0.487124783848E+00  0.000000000000E+00  0.499183257703E+00  0.501496069458E+00  0.496805680966E+00  0.000000000000E+00
  0.000000000000E+00  0.456415934866E+00  0.504543304316E+00  0.510148656981E+00  0.505615561465E+00  0.516922772413E+00  0.506151642920E+00
  0.503470842975E+00  0.504998360848E+00  0.000000000000E+00  0.499023437963E+00  0.505127972452E+00  0.505611772870E+00  0.503405488319E+00
  0.502223401824E+00  0.500353881738E+00  0.502392139551E+00  0.505058531460E+00  0.497574738302E+00  0.504025140562E+00  0.505155607918E+00
  0.504819380828E+00  0.506102354047E+00  0.505504364093E+00  0.504813384501E+00
  0.000000000000E+00  0.000000000000E+00  0.000000000000E+00  0.797774316645E-02 -0.108209626095E-01  0.103437553824E-01  0.000000000000E+00
  0.000000000000E+00  0.445976824285E-02  0.000000000000E+00 -0.267346515578E-02 -0.319082900761E-02  0.329392370873E-02 -0.856987740416E-03
 -0.100746907953E-02  0.000000000000E+00  0.000000000000E+00 -0.284593849547E-01  0.372241583424E-02  0.000000000000E+00 -0.242265955747E-03
  0.205974599398E-03  0.749422892390E-02  0.276209246712E-02  0.397033806939E-03  0.000000000000E+00  0.816791722666E-03 -0.839046372141E-04
 -0.267539519477E-03  0.000000000000E+00  0.000000000000E+00  0.000000000000E+00
  0.000000000000E+00  0.629126539113E-02  0.000000000000E+00  0.941270765698E-02  0.118832817464E-01 -0.385566430228E-01  0.000000000000E+00
  0.000000000000E+00 -0.504273494739E-01  0.186153004752E-02  0.467347920450E-02 -0.100646317209E-01  0.252906052613E-01 -0.739160186753E-03
 -0.377699681164E-02 -0.662316689088E-03  0.000000000000E+00 -0.309506862679E-01 -0.109344212959E-01 -0.305200919775E-02 -0.278938181172E-02
 -0.438575072687E-02  0.104704067445E-01 -0.641808459790E-02 -0.283359623655E-02 -0.184896287036E-02 -0.385376841359E-02 -0.239112400826E-02
 -0.220542971842E-02  0.594874625760E-03 -0.232606518359E-02 -0.211680784844E-02
  0.636806228306E+00  0.740717596480E+00  0.626889511524E+00  0.766818343569E+00  0.706284381244E+00  0.773218872959E+00  0.544384162288E+00
  0.646168260877E+00  0.786556599188E+00  0.706135274814E+00  0.689043526296E+00  0.702497164482E+00  0.697008100273E+00  0.708047137681E+00
  0.708160649605E+00  0.708752689391E+00  0.568604547479E+00  0.774345796914E+00  0.703962025529E+00  0.709827591193E+00  0.708846246460E+00
  0.708379250796E+00  0.703432067789E+00  0.704256107194E+00  0.709762048739E+00  0.742275377047E+00  0.707794489718E+00  0.709574170970E+00
  0.709853520976E+00  0.704348146102E+00  0.707990786872E+00  0.710079276006E+00
  0.000000000000E+00  0.485599927458E+00  0.000000000000E+00  0.498733303832E+00  0.501957697097E+00  0.497008127659E+00  0.000000000000E+00
  0.000000000000E+00  0.455859618756E+00  0.505114406305E+00  0.510456541701E+00  0.506552726701E+00  0.518479116978E+00  0.506875078860E+00
  0.504247474749E+00  0.505683940785E+00  0.000000000000E+00  0.500578478866E+00  0.505913751214E+00  0.505996677973E+00  0.504072984208E+00
  0.503003225695E+00  0.500783942516E+00  0.502506253135E+00  0.505435725481E+00  0.496741336337E+00  0.504733021691E+00  0.505562746308E+00
  0.505267744223E+00  0.506897300023E+00  0.506197646180E+00  0.505232291048E+00
  0.119455674247E+01  0.100645800864E+01  0.119901550088E+01  0.100241727177E+01  0.999186715619E+00  0.100563691257E+01  0.122983160768E+01
  0.120611570178E+01  0.101477479603E+01  0.997753582477E+00  0.998905305941E+00  0.996737705092E+00  0.996425208952E+00  0.997152528126E+00
  0.996982109966E+00  0.997292057699E+00  0.123191879701E+01  0.100085186654E+01  0.997417306266E+00  0.998515585756E+00  0.997384196502E+00
  0.996977923010E+00  0.998944284170E+00  0.999739214559E+00  0.998540054057E+00  0.100337214606E+01  0.997257910438E+00  0.998412411007E+00
  0.998245364267E+00  0.996867319770E+00  0.997283815909E+00  0.998359968600E+00
        12        19        11        11
        11         5        12        12
        10        14         5         5
        19        13        11        11
        19        24        13        13
        30        23        24        24
        19        12        22        22
        28        22        21        21
        11        13         6         6
         7         6         9         9
        15        12        14        14
        18        13        23        23
        15        25        21        21
        27        19        22        22
        18         8         9         9
        27        31        24        24
         4        11         6         6
         5        14        12        12
         4         2         5         5
        21        12        15        15
        14        16        15        15
        24        19        27        27
        22        29        27        27
        23        26        18        18
        17         8        18        18
         5        11         4         4
         6         3         4         4
        26        23        30        30
         5         2        10        10
        16        14        10        10
         3         6         7         7
        21        25        28        28
        29        22        28        28
         6        13         9         9
         2         4         1         1
        31        27        32        32
        25        15        20        20
        24        23        13        13
         8         7         9         9
        13        18         9         9
        31        30        24        24
        12        21        22        22
        29        32        27        27
         3         1         4         4
        26        17        18        18
        16        20        15        15
zone t="boundary 2 bc-2", solutiontime= 0.5000000E+02, strandid=1002, i=33, j=48, f=feblock
  0.500000000000E+01  0.375000000000E+01  0.250000000000E+01  0.288078410721E+01  0.125000000000E+01  0.190974100652E+01  0.326683758169E+01
  0.201431602454E+01  0.000000000000E+00  0.963108083381E+00  0.500000000000E+01  0.403552511878E+01  0.423153924130E+01  0.500000000000E+01
  0.385533350601E+01  0.500000000000E+01  0.398173246726E+01  0.315249557942E+01  0.267000324704E+01  0.154774304040E+01  0.218329375016E+01
  0.893127759452E+00  0.000000000000E+00  0.698517061619E+00  0.964171764089E+00  0.310324758057E+01  0.000000000000E+00  0.000000000000E+00
  0.125000000000E+01  0.500000000000E+01  0.375000000000E+01  0.250000000000E+01  0.000000000000E+00
 -0.250000000000E+01 -0.250000000000E+01 -0.250000000000E+01 -0.250000000000E+01 -0.250000000000E+01 -0.250000000000E+01 -0.250000000000E+01
 -0.250000000000E+01 -0.250000000000E+01 -0.250000000000E+01 -0.250000000000E+01 -0.250000000000E+01 -0.250000000000E+01 -0.250000000000E+01
 -0.250000000000E+01 -0.250000000000E+01 -0.250000000000E+01 -0.250000000000E+01 -0.250000000000E+01 -0.250000000000E+01 -0.250000000000E+01
 -0.250000000000E+01 -0.250000000000E+01 -0.250000000000E+01 -0.250000000000E+01 -0.250000000000E+01 -0.250000000000E+01 -0.250000000000E+01
 -0.250000000000E+01 -0.250000000000E+01 -0.250000000000E+01 -0.250000000000E+01 -0.250000000000E+01
  0.000000000000E+00  0.000000000000E+00  0.000000000000E+00  0.904659890645E+00  0.000000000000E+00  0.717002441913E+00  0.188609243358E+01
  0.176246431481E+01  0.000000000000E+00  0.961328577125E+00  0.125000000000E+01  0.101201586758E+01  0.191586535653E+01  0.250000000000E+01
  0.293121848150E+01  0.375000000000E+01  0.406975391361E+01  0.363585050272E+01  0.285047954584E+01  0.292817774674E+01  0.395907379566E+01
  0.205246550326E+01  0.125000000000E+01  0.306828197606E+01  0.397245519226E+01  0.433168271247E+01  0.250000000000E+01  0.375000000000E+01
  0.500000000000E+01  0.500000000000E+01  0.500000000000E+01  0.500000000000E+01  0.500000000000E+01
  0.583340039744E+00  0.804229008708E+00  0.828482879092E+00  0.932296030604E+00  0.886388537554E+00  0.950454809248E+00  0.987462302374E+00
  0.991311467150E+00  0.646184122201E+00  0.988662388440E+00  0.940544435175E+00  0.933075608234E+00  0.983304961072E+00  0.101171828859E+01
  0.999738925556E+00  0.100656317364E+01  0.995418294238E+00  0.992039353633E+00  0.990033773439E+00  0.991132366605E+00  0.990811334997E+00
  0.999006570084E+00  0.103569301973E+01  0.992889633690E+00  0.993827743976E+00  0.992667835865E+00  0.989186208622E+00  0.993886680811E+00
  0.995340580731E+00  0.994076658392E+00  0.994694114956E+00  0.993610078573E+00  0.995744037897E+00
  0.000000000000E+00  0.000000000000E+00  0.000000000000E+00  0.390275102570E+00  0.000000000000E+00  0.317462487367E+00  0.565341122132E+00
  0.536356906874E+00  0.000000000000E+00  0.417665395658E+00  0.503825305489E+00  0.460911599187E+00  0.559644197488E+00  0.511584655151E+00
  0.546959951355E+00  0.503440903005E+00  0.504620666705E+00  0.518255932338E+00  0.543863180312E+00  0.522483065770E+00  0.509881993759E+00
  0.521822101945E+00  0.497574738302E+00  0.505499163946E+00  0.505314364296E+00  0.505718168171E+00  0.506102354047E+00  0.505504364093E+00
  0.505359421363E+00  0.494669765375E+00  0.498359130970E+00  0.505003042014E+00  0.504813384501E+00
  0.000000000000E+00  0.000000000000E+00  0.000000000000E+00  0.000000000000E+00  0.000000000000E+00  0.000000000000E+00  0.000000000000E+00
  0.000000000000E+00  0.000000000000E+00  0.000000000000E+00  0.000000000000E+00  0.000000000000E+00  0.000000000000E+00  0.000000000000E+00
  0.000000000000E+00  0.000000000000E+00  0.000000000000E+00  0.000000000000E+00  0.000000000000E+00  0.000000000000E+00  0.000000000000E+00
  0.000000000000E+00  0.000000000000E+00  0.000000000000E+00  0.000000000000E+00  0.000000000000E+00  0.000000000000E+00  0.000000000000E+00
  0.000000000000E+00  0.000000000000E+00  0.000000000000E+00  0.000000000000E+00  0.000000000000E+00
  0.000000000000E+00  0.000000000000E+00  0.000000000000E+00  0.478333831184E-02  0.000000000000E+00  0.628969079016E-02  0.109217884694E-02
  0.174474866346E-01  0.000000000000E+00 -0.656630307506E-02 -0.133697578414E+00 -0.371956910642E-01 -0.460585443159E-01 -0.560436908750E-01
 -0.145532709898E-01 -0.495686468566E-02 -0.783877734826E-02 -0.121034088925E-01 -0.312140509074E-02  0.366517107484E-02 -0.734556185026E-02
  0.182919949489E-01 -0.184896287036E-02 -0.122947774311E-02 -0.376941123546E-02 -0.101322402655E-01  0.594874625760E-03 -0.232606518359E-02
 -0.497426198696E-02  0.262791942775E-02 -0.638089871862E-02 -0.724150417660E-02 -0.211680784844E-02
  0.525815651275E+00  0.654564652199E+00  0.692937540064E+00  0.683123839289E+00  0.698990415909E+00  0.704449151126E+00  0.692143143027E+00
  0.699780402298E+00  0.568604547479E+00  0.721663076877E+00  0.661604397602E+00  0.668451222345E+00  0.689152837180E+00  0.717613841664E+00
  0.707901849489E+00  0.719163545543E+00  0.710919630781E+00  0.706657752750E+00  0.701132149847E+00  0.705419044563E+00  0.706011248738E+00
  0.709258852603E+00  0.742275377047E+00  0.708219617717E+00  0.708190178470E+00  0.707521268138E+00  0.704348146102E+00  0.707990786872E+00
  0.709194031898E+00  0.709877574335E+00  0.708938067258E+00  0.707749641906E+00  0.710079276006E+00
  0.000000000000E+00  0.000000000000E+00  0.000000000000E+00  0.385360008112E+00  0.000000000000E+00  0.311712722515E+00  0.570702363648E+00
  0.539813442782E+00  0.000000000000E+00  0.413213883269E+00  0.525270779016E+00  0.461728594444E+00  0.566891780252E+00  0.516450099274E+00
  0.549543361093E+00  0.503398846364E+00  0.504714711003E+00  0.519108994156E+00  0.546207748754E+00  0.523433031764E+00  0.510552483774E+00
  0.523729341912E+00  0.496741336337E+00  0.505852872277E+00  0.505929865878E+00  0.506365271573E+00  0.506897300023E+00  0.506197646180E+00
  0.506011870943E+00  0.494738476188E+00  0.498947238708E+00  0.505758030066E+00  0.505232291048E+00
  0.126194305488E+01  0.113946463402E+01  0.117095063830E+01  0.102582585746E+01  0.110401538469E+01  0.103763882510E+01  0.981303689172E+00
  0.988279260034E+00  0.123191879701E+01  0.102191437587E+01  0.984797870257E+00  0.100295378319E+01  0.981195061806E+00  0.993022849999E+00
  0.991321397967E+00  0.100026405706E+01  0.999868586759E+00  0.997259685543E+00  0.991466186427E+00  0.996422572467E+00  0.997582196853E+00
  0.993949813124E+00  0.100337214606E+01  0.998607933007E+00  0.997623839612E+00  0.997846147125E+00  0.996867319770E+00  0.997283815909E+00
  0.997519506265E+00  0.999750467612E+00  0.997807546298E+00  0.997221666764E+00  0.998359968600E+00
        15         7        19        19
         8        20        19        19
        18        19        21        21
         7         4         8         8
         3         6         4         4
        19         7         8         8
        19        18        15        15
        14        13        15        15
         8        22        20        20
        27        24        22        22
        19        20        21        21
        32        26        21        21
        17        18        26        26
        17        16        15        15
        25        29        21        21
        12         7        13        13
        10         8         6         6
        25        20        24        24
         4         6         8         8
        12         2         4         4
        10        23        22        22
        26        31        17        17
        30        16        17        17
         4         7        12        12
        13        11        12        12
        21        20        25        25
        24        28        25        25
        22         8        10        10
         6         5        10        10
        31        26        32        32
         4         2         3         3
         5         6         3         3
        11        13        14        14
        22        23        27        27
        28        24        27        27
        15        13         7         7
         2        12         1         1
        29        25        33        33
        23        10         9         9
        21        26        18        18
        16        14        15        15
        18        17        15        15
        29        32        21        21
        22        24        20        20
        28        33        25        25
        11         1        12        12
        31        30        17        17
         5         9        10        10
zone t="boundary 3 bc-3", solutiontime= 0.5000000E+02, strandid=1003, i=33, j=48, f=feblock
  0.375000000000E+01  0.250000000000E+01  0.500000000000E+01  0.403552511878E+01  0.288078410721E+01  0.125000000000E+01  0.190974100652E+01
  0.500000000000E+01  0.326683758169E+01  0.423153924130E+01  0.201431602454E+01  0.000000000000E+00  0.963108083381E+00  0.500000000000E+01
  0.267000324704E+01  0.385533350601E+01  0.893127759452E+00  0.154774304040E+01  0.000000000000E+00  0.500000000000E+01  0.315249557942E+01
  0.218329375016E+01  0.398173246726E+01  0.000000000000E+00  0.698517061619E+00  0.964171764089E+00  0.125000000000E+01  0.000000000000E+00
  0.500000000000E+01  0.310324758057E+01  0.250000000000E+01  0.375000000000E+01  0.000000000000E+00
  0.250000000000E+01  0.250000000000E+01  0.250000000000E+01  0.250000000000E+01  0.250000000000E+01  0.250000000000E+01  0.250000000000E+01
  0.250000000000E+01  0.250000000000E+01  0.250000000000E+01  0.250000000000E+01  0.250000000000E+01  0.250000000000E+01  0.250000000000E+01
  0.250000000000E+01  0.250000000000E+01  0.250000000000E+01  0.250000000000E+01  0.250000000000E+01  0.250000000000E+01  0.250000000000E+01
  0.250000000000E+01  0.250000000000E+01  0.250000000000E+01  0.250000000000E+01  0.250000000000E+01  0.250000000000E+01  0.250000000000E+01
  0.250000000000E+01  0.250000000000E+01  0.250000000000E+01  0.250000000000E+01  0.250000000000E+01
  0.000000000000E+00  0.000000000000E+00  0.000000000000E+00  0.101201586758E+01  0.904659890645E+00  0.000000000000E+00  0.717002441913E+00
  0.125000000000E+01  0.188609243358E+01  0.191586535653E+01  0.176246431481E+01  0.000000000000E+00  0.961328577125E+00  0.250000000000E+01
  0.285047954584E+01  0.293121848150E+01  0.205246550326E+01  0.292817774674E+01  0.125000000000E+01  0.375000000000E+01  0.363585050272E+01
  0.395907379566E+01  0.406975391361E+01  0.250000000000E+01  0.306828197606E+01  0.397245519226E+01  0.500000000000E+01  0.375000000000E+01
  0.500000000000E+01  0.433168271247E+01  0.500000000000E+01  0.500000000000E+01  0.500000000000E+01
  0.787710917966E+00  0.831559709385E+00  0.597876627531E+00  0.916169023078E+00  0.925175457210E+00  0.875458899875E+00  0.938950675490E+00
  0.933382125041E+00  0.976214134464E+00  0.976973102638E+00  0.985824786091E+00  0.746325970072E+00  0.980760166711E+00  0.101062218644E+01
  0.990879854633E+00  0.998732057057E+00  0.998367746839E+00  0.991691580662E+00  0.103035062186E+01  0.100492435517E+01  0.994220262589E+00
  0.992025878256E+00  0.995716824635E+00  0.990815169297E+00  0.992248818905E+00  0.993169611221E+00  0.995380382045E+00  0.994948026996E+00
  0.994500772471E+00  0.992447138335E+00  0.993946951097E+00  0.993793914446E+00  0.995235970121E+00
  0.000000000000E+00  0.000000000000E+00  0.000000000000E+00  0.460828458971E+00  0.391828121704E+00  0.000000000000E+00  0.326051488178E+00
  0.508526041232E+00  0.550862712086E+00  0.556014527254E+00  0.523407125504E+00  0.000000000000E+00  0.412576883249E+00  0.509000541234E+00
  0.541035679683E+00  0.546319396320E+00  0.524136316704E+00  0.521120281906E+00  0.487124783848E+00  0.505128557027E+00  0.519835574797E+00
  0.509736560324E+00  0.507714271440E+00  0.504543304316E+00  0.507524640632E+00  0.506201979140E+00  0.503779836049E+00  0.504998360848E+00
  0.495735219277E+00  0.504876842640E+00  0.501808344115E+00  0.496949102994E+00  0.505611772870E+00
  0.000000000000E+00  0.000000000000E+00  0.000000000000E+00  0.000000000000E+00  0.000000000000E+00  0.000000000000E+00  0.000000000000E+00
  0.000000000000E+00  0.000000000000E+00  0.000000000000E+00  0.000000000000E+00  0.000000000000E+00  0.000000000000E+00  0.000000000000E+00
  0.000000000000E+00  0.000000000000E+00  0.000000000000E+00  0.000000000000E+00  0.000000000000E+00  0.000000000000E+00  0.000000000000E+00
  0.000000000000E+00  0.000000000000E+00  0.000000000000E+00  0.000000000000E+00  0.000000000000E+00  0.000000000000E+00  0.000000000000E+00
  0.000000000000E+00  0.000000000000E+00  0.000000000000E+00  0.000000000000E+00  0.000000000000E+00
  0.000000000000E+00  0.000000000000E+00  0.000000000000E+00 -0.390145359786E-01  0.189366973400E-01  0.000000000000E+00  0.953485372240E-02
 -0.140575123590E+00 -0.508300140108E-02 -0.573765380856E-01  0.152357029311E-01  0.000000000000E+00 -0.653075444557E-02 -0.621880394580E-01
 -0.266951810210E-02 -0.174964093661E-01  0.234900364938E-01  0.191540667690E-02  0.629126539113E-02 -0.756172951647E-02 -0.100556662649E-01
 -0.777955916909E-02 -0.712116322892E-02  0.186153004752E-02 -0.848776536139E-03 -0.521629171424E-02 -0.623015075631E-02 -0.662316689088E-03
  0.191738286573E-02 -0.812554110215E-02 -0.719539705833E-02 -0.656323306034E-02 -0.305200919775E-02
  0.659240251095E+00  0.700118126670E+00  0.536720776775E+00  0.662347081085E+00  0.686671568294E+00  0.709437927166E+00  0.702696357349E+00
  0.659305406499E+00  0.688385195368E+00  0.686817305986E+00  0.698810230653E+00  0.636806228306E+00  0.717090311868E+00  0.717356709993E+00
  0.701822070825E+00  0.707121961815E+00  0.708473340706E+00  0.705613825129E+00  0.740717596480E+00  0.716921247644E+00  0.708059416866E+00
  0.706755769171E+00  0.710506698267E+00  0.706135274814E+00  0.706852498253E+00  0.707420753329E+00  0.709371672900E+00  0.708752689391E+00
  0.710106732014E+00  0.707715730378E+00  0.708191324740E+00  0.708638063935E+00  0.709827591193E+00
  0.000000000000E+00  0.000000000000E+00  0.000000000000E+00  0.459696436606E+00  0.384836009773E+00  0.000000000000E+00  0.318673042675E+00
  0.530549482554E+00  0.554440097204E+00  0.563433829907E+00  0.525629543039E+00  0.000000000000E+00  0.407839942590E+00  0.514397081173E+00
  0.543330598486E+00  0.549012888279E+00  0.526380096371E+00  0.522133627340E+00  0.485599927458E+00  0.505495764083E+00  0.520702510142E+00
  0.510456994594E+00  0.508021277543E+00  0.505114406305E+00  0.508205801537E+00  0.506938985468E+00  0.504391301063E+00  0.505683940785E+00
  0.495826520378E+00  0.505361251209E+00  0.502486969839E+00  0.497418226064E+00  0.505996677973E+00
  0.117166885780E+01  0.117870715269E+01  0.125679622331E+01  0.101213410425E+01  0.103908959984E+01  0.113450568402E+01  0.104773863630E+01
  0.988906412857E+00  0.987221183848E+00  0.984207472841E+00  0.992401831155E+00  0.119455674247E+01  0.102362072879E+01  0.993743663525E+00
  0.991594384082E+00  0.991227566539E+00  0.993484294869E+00  0.996135668028E+00  0.100645800864E+01  0.998771441386E+00  0.997045846794E+00
  0.997411558031E+00  0.998988219305E+00  0.997753582477E+00  0.997323935993E+00  0.997200320541E+00  0.997729471039E+00  0.997292057699E+00
  0.999646709524E+00  0.998342364302E+00  0.997505806061E+00  0.998288754930E+00  0.998515585756E+00
        15         9        16        16
        15        18        11        11
        22        15        21        21
        11         5         9         9
         5         7         2         2
        11         9        15        15
        16        21        15        15
        16        10        14        14
        18        17        11        11
        17        25        24        24
        22        18        15        15
        22        30        31        31
        30        21        23        23
        16        20        23        23
        22        27        26        26
        10         9         4         4
         7        11        13        13
        25        18        26        26
        11         7         5         5
         5         1         4         4
        17        19        13        13
        23        32        30        30
        23        20        29        29
         4         9         5         5
         4         8        10        10
        26        18        22        22
        26        28        25        25
        13        11        17        17
        13         6         7         7
        31        30        32        32
         2         1         5         5
         2         7         6         6
        14        10         8         8
        24        19        17        17
        24        25        28        28
         9        10        16        16
         3         4         1         1
        33        26        27        27
        12        13        19        19
        21        30        22        22
        16        14        20        20
        16        23        21        21
        22        31        27        27
        18        25        17        17
        26        33        28        28
         4         3         8         8
        23        29        32        32
        13        12         6         6
zone t="boundary 4 bc-4", solutiontime= 0.5000000E+02, strandid=1004, i=32, j=46, f=feblock
  0.125000000000E+01  0.219251206392E+01  0.103724302461E+01  0.500000000000E+01  0.250000000000E+01  0.375000000000E+01  0.404200324774E+01
  0.500000000000E+01  0.000000000000E+00  0.310152362409E+01  0.202479342020E+01  0.324151231464E+01  0.922061490191E+00  0.000000000000E+00
  0.299062775774E+01  0.394624082883E+01  0.500000000000E+01  0.409252726285E+01  0.500000000000E+01  0.429310310915E+01  0.175434191980E+01
  0.284428995242E+01  0.000000000000E+00  0.000000000000E+00  0.715990576545E+00  0.930412228790E+00  0.125000000000E+01  0.187029682677E+01
  0.500000000000E+01  0.375000000000E+01  0.250000000000E+01  0.000000000000E+00
  0.250000000000E+01  0.157686156160E+01  0.146289271009E+01  0.250000000000E+01  0.250000000000E+01  0.250000000000E+01  0.155830813274E+01
  0.125000000000E+01  0.250000000000E+01  0.177790177481E+01  0.477386199275E+00  0.742988685424E+00  0.308372018325E+00  0.125000000000E+01
 -0.487811078581E+00 -0.144524380962E+01 -0.125000000000E+01 -0.345533899378E+00  0.000000000000E+00  0.627766083140E+00 -0.739814786992E+00
 -0.158811787973E+01  0.000000000000E+00 -0.125000000000E+01 -0.600232012419E+00 -0.154800130438E+01 -0.250000000000E+01 -0.178862290564E+01
 -0.250000000000E+01 -0.250000000000E+01 -0.250000000000E+01 -0.250000000000E+01
  0.500000000000E+01  0.500000000000E+01  0.500000000000E+01  0.500000000000E+01  0.500000000000E+01  0.500000000000E+01  0.500000000000E+01
  0.500000000000E+01  0.500000000000E+01  0.500000000000E+01  0.500000000000E+01  0.500000000000E+01  0.500000000000E+01  0.500000000000E+01
  0.500000000000E+01  0.500000000000E+01  0.500000000000E+01  0.500000000000E+01  0.500000000000E+01  0.500000000000E+01  0.500000000000E+01
  0.500000000000E+01  0.500000000000E+01  0.500000000000E+01  0.500000000000E+01  0.500000000000E+01  0.500000000000E+01  0.500000000000E+01
  0.500000000000E+01  0.500000000000E+01  0.500000000000E+01  0.500000000000E+01
  0.995380382045E+00  0.994187080956E+00  0.995608654531E+00  0.994500772471E+00  0.993946951097E+00  0.993793914446E+00  0.993020504831E+00
  0.994755622580E+00  0.995235970121E+00  0.993868775119E+00  0.993440561908E+00  0.992823409317E+00  0.995721725650E+00  0.995119689188E+00
  0.993694333592E+00  0.991794996162E+00  0.994661901315E+00  0.992662455774E+00  0.995069678091E+00  0.992906041417E+00  0.994311141375E+00
  0.993965907327E+00  0.994983464155E+00  0.995541742481E+00  0.995369206473E+00  0.995575785654E+00  0.995340580731E+00  0.994197121029E+00
  0.994076658392E+00  0.994694114956E+00  0.993610078573E+00  0.995744037897E+00
  0.503779836049E+00  0.503937302173E+00  0.504170431113E+00  0.495735219277E+00  0.501808344115E+00  0.496949102994E+00  0.496257986786E+00
  0.496237850572E+00  0.505611772870E+00  0.500365458252E+00  0.503623321490E+00  0.500368924051E+00  0.505718382500E+00  0.505058531460E+00
  0.501888158091E+00  0.494705338086E+00  0.494590711183E+00  0.497164593222E+00  0.496256029454E+00  0.496908339720E+00  0.505620752550E+00
  0.503072991968E+00  0.505155607918E+00  0.504819380828E+00  0.505602087402E+00  0.505447253470E+00  0.505359421363E+00  0.505811035655E+00
  0.494669765375E+00  0.498359130970E+00  0.505003042014E+00  0.504813384501E+00
  0.000000000000E+00 -0.178776571879E-03 -0.217211802461E-03  0.000000000000E+00  0.000000000000E+00  0.000000000000E+00 -0.644039649667E-03
 -0.658170038041E-04  0.000000000000E+00 -0.306843500376E-03 -0.464162026991E-03 -0.100828849424E-02 -0.661468021343E-03  0.397033806939E-03
 -0.306643689267E-03 -0.564545512126E-03 -0.140873987670E-02 -0.166399023375E-02 -0.175483287322E-02 -0.166761977951E-02 -0.271272361421E-03
 -0.294619352159E-03 -0.839046372141E-04 -0.267539519477E-03 -0.405070501286E-03  0.336927715308E-03  0.000000000000E+00  0.322422832362E-03
  0.000000000000E+00  0.000000000000E+00  0.000000000000E+00  0.000000000000E+00