# vtk DataFile Version 2.0
FUN3D:global_image_vtk
ASCII
DATASET UNSTRUCTURED_GRID
POINTS 1331 double
    0.0000000000000000E+00    0.2500000000000000E+01    0.0000000000000000E+00
    0.5000000000000000E+00    0.2500000000000000E+01    0.0000000000000000E+00
    0.1000000000000000E+01    0.2500000000000000E+01    0.0000000000000000E+00
    0.1500000000000000E+01    0.2500000000000000E+01    0.0000000000000000E+00
    0.2000000000000000E+01    0.2500000000000000E+01    0.0000000000000000E+00
    0.2500000000000000E+01    0.2500000000000000E+01    0.0000000000000000E+00
    0.3000000000000000E+01    0.2500000000000000E+01    0.0000000000000000E+00
    0.3500000000000000E+01    0.2500000000000000E+01    0.0000000000000000E+00
    0.4000000000000000E+01    0.2500000000000000E+01    0.0000000000000000E+00
    0.4500000000000000E+01    0.2500000000000000E+01    0.0000000000000000E+00
    0.5000000000000000E+01    0.2500000000000000E+01    0.0000000000000000E+00
    0.0000000000000000E+00    0.2500000000000000E+01    0.4999999999999982E+00
    0.4999999999999998E+00    0.2500000000000000E+01    0.4999999999999984E+00
    0.9999999999999998E+00    0.2500000000000000E+01    0.4999999999999987E+00
    0.1500000000000000E+01    0.2500000000000000E+01    0.4999999999999989E+00
    0.2000000000000000E+01    0.2500000000000000E+01    0.4999999999999991E+00
    0.2500000000000000E+01    0.2500000000000000E+01    0.4999999999999993E+00
    0.3000000000000000E+01    0.2500000000000000E+01    0.4999999999999996E+00
    0.3500000000000000E+01    0.2500000000000000E+01    0.4999999999999998E+00
    0.4000000000000000E+01    0.2500000000000000E+01    0.5000000000000000E+00
    0.4500000000000002E+01    0.2500000000000000E+01    0.5000000000000002E+00
    0.5000000000000000E+01    0.2500000000000000E+01    0.5000000000000004E+00
    0.0000000000000000E+00    0.2500000000000000E+01    0.1000000000000001E+01
    0.4999999999999997E+00    0.2500000000000000E+01    0.1000000000000001E+01
    0.1000000000000000E+01    0.2500000000000000E+01    0.1000000000000001E+01
    0.1500000000000000E+01    0.2500000000000000E+01    0.1000000000000001E+01
    0.2000000000000000E+01    0.2500000000000000E+01    0.1000000000000001E+01
    0.2500000000000000E+01    0.2500000000000000E+01    0.1000000000000001E+01
    0.3000000000000000E+01    0.2500000000000000E+01    0.1000000000000001E+01
    0.3500000000000000E+01    0.2500000000000000E+01    0.1000000000000001E+01
    0.4000000000000000E+01    0.2500000000000000E+01    0.1000000000000001E+01
    0.4499999999999999E+01    0.2500000000000000E+01    0.1000000000000001E+01
    0.5000000000000000E+01    0.2500000000000000E+01    0.1000000000000001E+01
    0.0000000000000000E+00    0.2500000000000000E+01    0.1499999999999999E+01
    0.4999999999999994E+00    0.2500000000000000E+01    0.1499999999999999E+01
    0.1000000000000000E+01    0.2500000000000000E+01    0.1499999999999999E+01
    0.1500000000000000E+01    0.2500000000000000E+01    0.1499999999999999E+01
    0.2000000000000001E+01    0.2500000000000000E+01    0.1499999999999999E+01
    0.2500000000000000E+01    0.2500000000000000E+01    0.1499999999999999E+01
    0.2999999999999999E+01    0.2500000000000000E+01    0.1499999999999999E+01
    0.3500000000000000E+01    0.2500000000000000E+01    0.1499999999999999E+01
    0.4000000000000001E+01    0.2500000000000000E+01    0.1499999999999999E+01
    0.4500000000000001E+01    0.2500000000000000E+01    0.1499999999999999E+01
    0.5000000000000000E+01    0.2500000000000000E+01    0.1499999999999999E+01
    0.0000000000000000E+00    0.2500000000000000E+01    0.2000000000000002E+01
    0.4999999999999992E+00    0.2500000000000000E+01    0.2000000000000001E+01
    0.1000000000000000E+01    0.2500000000000000E+01    0.2000000000000001E+01
    0.1500000000000000E+01    0.2500000000000000E+01    0.2000000000000001E+01
    0.2000000000000001E+01    0.2500000000000000E+01    0.2000000000000001E+01
    0.2500000000000000E+01    0.2500000000000000E+01    0.2000000000000001E+01
    0.2999999999999999E+01    0.2500000000000000E+01    0.2000000000000000E+01
    0.3500000000000000E+01    0.2500000000000000E+01    0.2000000000000000E+01
    0.4000000000000000E+01    0.2500000000000000E+01    0.2000000000000000E+01
    0.4500000000000000E+01    0.2500000000000000E+01    0.2000000000000000E+01
    0.5000000000000000E+01    0.2500000000000000E+01    0.2000000000000000E+01
    0.0000000000000000E+00    0.2500000000000000E+01    0.2500000000000000E+01
    0.4999999999999991E+00    0.2500000000000000E+01    0.2500000000000000E+01
    0.1000000000000000E+01    0.2500000000000000E+01    0.2500000000000000E+01
    0.1500000000000000E+01    0.2500000000000000E+01    0.2500000000000000E+01
    0.2000000000000001E+01    0.2500000000000000E+01    0.2500000000000000E+01
    0.2500000000000000E+01    0.2500000000000000E+01    0.2500000000000000E+01
    0.2999999999999999E+01    0.2500000000000000E+01    0.2500000000000000E+01
    0.3500000000000001E+01    0.2500000000000000E+01    0.2500000000000000E+01
    0.4000000000000000E+01    0.2500000000000000E+01    0.2500000000000000E+01
    0.4500000000000001E+01    0.2500000000000000E+01    0.2500000000000000E+01
    0.5000000000000000E+01    0.2500000000000000E+01    0.2500000000000000E+01
    0.0000000000000000E+00    0.2500000000000000E+01    0.2999999999999998E+01
    0.4999999999999989E+00    0.2500000000000000E+01    0.2999999999999998E+01
    0.1000000000000000E+01    0.2500000000000000E+01    0.2999999999999999E+01
    0.1499999999999999E+01    0.2500000000000000E+01    0.2999999999999999E+01
    0.2000000000000001E+01    0.2500000000000000E+01    0.2999999999999999E+01
    0.2500000000000000E+01    0.2500000000000000E+01    0.2999999999999999E+01
    0.2999999999999999E+01    0.2500000000000000E+01    0.2999999999999999E+01
    0.3500000000000001E+01    0.2500000000000000E+01    0.3000000000000000E+01
    0.4000000000000000E+01    0.2500000000000000E+01    0.3000000000000000E+01
    0.4500000000000001E+01    0.2500000000000000E+01    0.3000000000000000E+01
    0.5000000000000000E+01    0.2500000000000000E+01    0.3000000000000000E+01
    0.0000000000000000E+00    0.2500000000000000E+01    0.3500000000000001E+01
    0.4999999999999988E+00    0.2500000000000000E+01    0.3500000000000001E+01
    0.1000000000000001E+01    0.2500000000000000E+01    0.3500000000000001E+01
    0.1499999999999999E+01    0.2500000000000000E+01    0.3500000000000001E+01
    0.2000000000000001E+01    0.2500000000000000E+01    0.3500000000000001E+01
    0.2500000000000000E+01    0.2500000000000000E+01    0.3500000000000001E+01
    0.2999999999999999E+01    0.2500000000000000E+01    0.3500000000000001E+01
    0.3500000000000001E+01    0.2500000000000000E+01    0.3500000000000001E+01
    0.4000000000000001E+01    0.2500000000000000E+01    0.3500000000000001E+01
    0.4500000000000001E+01    0.2500000000000000E+01    0.3500000000000001E+01
    0.5000000000000000E+01    0.2500000000000000E+01    0.3500000000000001E+01
    0.0000000000000000E+00    0.2500000000000000E+01    0.3999999999999999E+01
    0.4999999999999986E+00    0.2500000000000000E+01    0.4000000000000000E+01
    0.1000000000000001E+01    0.2500000000000000E+01    0.3999999999999999E+01
    0.1499999999999999E+01    0.2500000000000000E+01    0.3999999999999999E+01
    0.2000000000000001E+01    0.2500000000000000E+01    0.3999999999999999E+01
    0.2500000000000000E+01    0.2500000000000000E+01    0.3999999999999999E+01
    0.2999999999999998E+01    0.2500000000000000E+01    0.3999999999999999E+01
    0.3500000000000001E+01    0.2500000000000000E+01    0.3999999999999999E+01
    0.3999999999999999E+01    0.2500000000000000E+01    0.3999999999999999E+01
    0.4500000000000003E+01    0.2500000000000000E+01    0.3999999999999999E+01
    0.5000000000000000E+01    0.2500000000000000E+01    0.3999999999999999E+01
    0.0000000000000000E+00    0.2500000000000000E+01    0.4500000000000002E+01
    0.4999999999999984E+00    0.2500000000000000E+01    0.4500000000000002E+01
    0.1000000000000001E+01    0.2500000000000000E+01    0.4500000000000001E+01
    0.1499999999999999E+01    0.2500000000000000E+01    0.4500000000000003E+01
    0.2000000000000002E+01    0.2500000000000000E+01    0.4500000000000001E+01
    0.2500000000000000E+01    0.2500000000000000E+01    0.4500000000000001E+01
    0.2999999999999998E+01    0.2500000000000000E+01    0.4500000000000001E+01
    0.3500000000000001E+01    0.2500000000000000E+01    0.4499999999999999E+01
    0.3999999999999999E+01    0.2500000000000000E+01    0.4499999999999999E+01
    0.4500000000000002E+01    0.2500000000000000E+01    0.4500000000000000E+01
    0.5000000000000000E+01    0.2500000000000000E+01    0.4500000000000000E+01
    0.0000000000000000E+00    0.2500000000000000E+01    0.5000000000000000E+01
    0.4999999999999982E+00    0.2500000000000000E+01    0.5000000000000000E+01
    0.1000000000000001E+01    0.2500000000000000E+01    0.5000000000000000E+01
    0.1499999999999999E+01    0.2500000000000000E+01    0.5000000000000000E+01
    0.2000000000000002E+01    0.2500000000000000E+01    0.5000000000000000E+01
    0.2500000000000000E+01    0.2500000000000000E+01    0.5000000000000000E+01
    0.2999999999999998E+01    0.2500000000000000E+01    0.5000000000000000E+01
    0.3500000000000001E+01    0.2500000000000000E+01    0.5000000000000000E+01
    0.3999999999999999E+01    0.2500000000000000E+01    0.5000000000000000E+01
    0.4500000000000002E+01    0.2500000000000000E+01    0.5000000000000000E+01
    0.5000000000000000E+01    0.2500000000000000E+01    0.5000000000000000E+01
    0.0000000000000000E+00    0.2000000000000000E+01    0.0000000000000000E+00
    0.5000000000000000E+00    0.2000000000000000E+01    0.0000000000000000E+00
    0.1000000000000000E+01    0.2000000000000000E+01    0.0000000000000000E+00
    0.1500000000000000E+01    0.2000000000000000E+01    0.0000000000000000E+00
[...]
POINT_DATA 1331
SCALARS rho double 1
LOOKUP_TABLE default
   0.1822982917534671E+01
   0.8031654207303252E+00
   0.8629226117820045E+00
   0.1001556808843669E+01
   0.1007496443364614E+01
   0.9928277976267048E+00
   0.9959298575371015E+00
   0.1003372856652392E+01
   0.9968029558483303E+00
   0.9076234678224768E+00
   0.5939072006932166E+00
   0.1113509588044031E+01
   0.9411243074410772E+00
   0.9974134409422000E+00
   0.1001677876546236E+01
   0.1000780258583296E+01
   0.9970522189577374E+00
   0.1000302972704933E+01
   0.1000596132168188E+01
   0.9992730634298954E+00
   0.9895176815178085E+00
   0.9986240813454306E+00
   0.1053276592469261E+01
   0.9790346759920492E+00
   0.9742084693262033E+00
   0.9868695507545823E+00
   0.9961487999207422E+00
   0.9951381325084097E+00
   0.9921516597746408E+00
   0.9905435133218590E+00
   0.9880974737237832E+00
   0.9938236264226750E+00
   0.9783734084944234E+00
   0.1024244384080144E+01
   0.1000639202550513E+01
   0.9975546306207022E+00
   0.9922197994663320E+00
   0.9905540777244758E+00
   0.9917287650624595E+00
   0.9957344532031448E+00
   0.9978588987750278E+00
   0.9964672009144526E+00
   0.9975256382775479E+00
   0.9982126179832663E+00
   0.1009603846186791E+01
   0.1001448057170020E+01
   0.9974036398458930E+00
   0.9988299238112444E+00
   0.9996389106578519E+00
   0.9962309458372425E+00
   0.9932702222542397E+00
   0.9948063307642784E+00
   0.9994957470164483E+00
   0.1006077686835459E+01
   0.1008006552871773E+01
   0.1004238840481386E+01
   0.1001671762664124E+01
   0.9985418941233897E+00
   0.9965393228798074E+00
   0.9981490039519691E+00
   0.1000676212077970E+01
   0.1000402150813781E+01
   0.9970470670368456E+00
   0.9935874237634204E+00
   0.9958130648317086E+00
   0.9978972556771224E+00
   0.1000913001309899E+01
   0.1001114092665373E+01
   0.1000041674329819E+01
   0.9981551946989421E+00
   0.9965950892587491E+00
   0.9970541656264361E+00
   0.9995536941407467E+00
   0.1002201900524577E+01
   0.1001151512540480E+01
   0.9977686671802941E+00
   0.9972297796824368E+00
   0.9999336461715698E+00
   0.1000306708700851E+01
   0.1000107342589770E+01
   0.9999416880197362E+00
   0.9988777951179963E+00
   0.9972599450341141E+00
   0.9963650543471643E+00
   0.9981156365458445E+00
   0.1002191089147120E+01
   0.1004490938415906E+01
   0.1005574381319419E+01
   0.9999447291702221E+00
   0.9998037907966625E+00
   0.9993393869513243E+00
   0.9996446606465147E+00
   0.9999997670463824E+00
   0.9995450764473544E+00
   0.9980023132581066E+00
   0.9966592659874018E+00
   0.9975706382980002E+00
   0.1000083822586388E+01
   0.1001341782014970E+01
   0.9999634943912080E+00
   0.9997761844557831E+00
   0.9994705880906426E+00
   0.9993995025099237E+00
   0.9994291572910963E+00
   0.9994163281192706E+00
   0.9989314383477115E+00
   0.9983436956956900E+00
   0.9979106817829636E+00
   0.9982884106045498E+00
   0.9989595206043684E+00
   0.1000022544411544E+01
   0.1000149573796868E+01
   0.9997620904066375E+00
   0.9986757546500322E+00
   0.9978483743405608E+00
   0.9982902616398014E+00
   0.1000298969752756E+01
   0.1002302832383707E+01
   0.1001391922490067E+01
   0.9988369907011504E+00
   0.9987730629668389E+00
   0.1820912356987290E+01
   0.8026673576977964E+00
   0.8630555870421129E+00
   0.1001591008119580E+01
   0.1007719222466343E+01
   0.9929122491120291E+00
   0.9957998892513052E+00
   0.1003319538736666E+01
   0.9969258896048291E+00
   0.9075772996891576E+00
   0.5932917254745756E+00
   0.1111353754599910E+01
   0.9400517497262494E+00
   0.9982812931053975E+00
   0.1002085110623536E+01
   0.1000525209143846E+01
   0.9965889158284574E+00
   0.1000336537115036E+01
   0.1000587902402847E+01
   0.9989914427560438E+00
   0.9894538179023826E+00
   0.9993704225103819E+00
   0.1052261475510227E+01
   0.9793237889082698E+00
   0.9746901405266151E+00
   0.9861345789589162E+00
   0.9960392325316645E+00
   0.9959458359508586E+00
   0.9927291028162681E+00
   0.9905476620139573E+00
   0.9878231762944676E+00
   0.9935232023533830E+00
   0.9784480547980592E+00
   0.1024004098739508E+01
   0.1000487786938744E+01
   0.9977116102729136E+00
   0.9925840529976280E+00
   0.9900699204954991E+00
   0.9909505474193550E+00
   0.9962231384396475E+00
   0.9992392369977828E+00
   0.9970861617744966E+00
   0.9962235581746292E+00
   0.9959223217747604E+00
   0.1009695731176018E+01
   0.1001216178628866E+01
   0.9973433735003328E+00
   0.9990306154320239E+00
   0.9999166050412087E+00
   0.9957459071915172E+00
   0.9923288436982162E+00
   0.9949311377536436E+00
   0.1001317183300721E+01
   0.1007936233636916E+01
   0.1009134561284573E+01
   0.1004208485481476E+01
   0.1001662611082963E+01
   0.9985276862672365E+00
   0.9965321746297449E+00
   0.9981388142153336E+00
   0.1000637679952082E+01
   0.1000177208784838E+01
   0.9965506900480201E+00
   0.9932053110874809E+00
   0.9959604603097962E+00
   0.9984806353430035E+00
   0.1000900379416421E+01
   0.1001119652899811E+01
   0.1000010343309663E+01
   0.9980711313839181E+00
   0.9965712861098520E+00
   0.9971671691655861E+00
   0.9996814179045597E+00
   0.1002290711422888E+01
   0.1001214099635057E+01
   0.9977005887875829E+00
   0.9970960690831244E+00
   0.9999481225381220E+00
   0.1000327782420576E+01
   0.1000146619037062E+01
   0.9999538357071516E+00
   0.9988285052553288E+00
   0.9972377986912254E+00
   0.9964256674266472E+00
   0.9981584466078705E+00
   0.1002147121674491E+01
   0.1004334026234770E+01
   0.1005180083408907E+01
   0.9999823301554508E+00
   0.9998001804056584E+00
   0.9993277503004052E+00
   0.9996395733716047E+00
   0.9999970527141301E+00
   0.9996135115877497E+00
   0.9982152907867760E+00
   0.9969211903275692E+00
   0.9976608030698052E+00
   0.9999888915333056E+00
   0.1000921973086111E+01
   0.9999946585517316E+00
   0.9998057613526826E+00
   0.9994956152580091E+00
   0.9994056325029084E+00
   0.9994110574363861E+00
   0.9995008691679999E+00
   0.9991282371019730E+00
   0.9987152005975299E+00
   0.9980853287105317E+00
   0.9982495756424676E+00
   0.9986718627336368E+00
   0.1000017354580841E+01
   0.1000169015516436E+01
   0.9998134270764434E+00
   0.9986919068540643E+00
   0.9977805691931230E+00
   0.9981622863979762E+00
   0.1000340212711334E+01
   0.1002718031817984E+01
   0.1001982462221250E+01
   0.9992270583153776E+00
   0.9989255783717386E+00
   0.1820707203642831E+01
   0.8027680662959669E+00
   0.8631253378021833E+00
   0.1001572494001102E+01
   0.1007494670698208E+01
   0.9927545319441019E+00
   0.9958394939869786E+00
   0.1003295399829784E+01
   0.9967539407631787E+00
   0.9076247131987467E+00
   0.5938652292330042E+00
   0.1110621863553236E+01
   0.9407814601555512E+00
   0.9984489245396392E+00
   0.1001801416678505E+01
   0.1001022572980651E+01
   0.9971942486669625E+00
   0.1000493969842166E+01
   0.1000692834866397E+01
   0.9992088283881474E+00
   0.9893059461213796E+00
   0.9988643940240507E+00
   0.1053022283046319E+01
   0.9790857844774800E+00
   0.9744041905374449E+00
   0.9867811023565966E+00
   0.9961407143044356E+00
   0.9951891256868460E+00
   0.9922472782592912E+00
   0.9906322069165525E+00
   0.9881805113433478E+00
   0.9939676147412826E+00
   0.9786674374716093E+00
   0.1024050184132699E+01
   0.1000617359956075E+01
   0.9976922438909093E+00
   0.9922482655497795E+00
   0.9905637785842756E+00
   0.9917041799340311E+00
   0.9957178411204703E+00
   0.9978468405112144E+00
   0.9964656772147122E+00
   0.9975448867300194E+00
   0.9982966660121090E+00
   0.1009542984153427E+01
   0.1001396788573714E+01
   0.9974145547591485E+00
   0.9988385349692875E+00
   0.9996582754644459E+00
   0.9962429222424052E+00
   0.9932759272219082E+00
   0.9948024015121848E+00
   0.9994891628931482E+00
   0.1006072712563403E+01
   0.1008002060561219E+01
   0.1004223209679029E+01
   0.1001650959535051E+01
   0.9985379211716966E+00
   0.9965321474017108E+00
   0.9981460195493272E+00
   0.1000675452062791E+01
   0.1000405552872754E+01
   0.9970493265079401E+00
   0.9935860032589918E+00
   0.9958069262469320E+00
   0.9978895806061557E+00
   0.1000909688961399E+01
   0.1001105634600180E+01
   0.1000038420979712E+01
   0.9981513246495696E+00
   0.9965903007722734E+00
   0.9970485811854470E+00
   0.9995509561610192E+00
   0.1002201650632475E+01
   0.1001151742536716E+01
   0.9977666238675164E+00
   0.9972278425965391E+00
   0.9999327065891065E+00
   0.1000303209602585E+01
   0.1000105398355268E+01
   0.9999400003465402E+00
   0.9988755633918356E+00
   0.9972559500747540E+00
   0.9963608005880953E+00
   0.9981125915900184E+00
   0.1002189465791306E+01
   0.1004489482330274E+01
   0.1005573895892026E+01
   0.9999443320843798E+00
   0.9998021630814092E+00
   0.9993380175588233E+00
   0.9996438278610147E+00
   0.9999990175058929E+00
   0.9995432271052681E+00
   0.9979995224547463E+00
   0.9966563834239797E+00
   0.9975682516976437E+00
   0.1000081769325072E+01
   0.1001340075312580E+01
   0.9999632631799851E+00
   0.9997753639954078E+00
   0.9994694929498139E+00
   0.9993986973614002E+00
   0.9994287799932360E+00
   0.9994156855111563E+00
   0.9989301361600896E+00
   0.9983419983907605E+00
   0.9979088528745383E+00
   0.9982864153276746E+00
   0.9989573648272113E+00
   0.1000022446628011E+01
   0.1000149253104808E+01
   0.9997613154473592E+00
   0.9986748556675369E+00
   0.9978478306799005E+00
   0.9982899231134433E+00
   0.1000298334116793E+01
   0.1002301648642681E+01
   0.1001390330767659E+01
   0.9988353227016760E+00
   0.9987711083101193E+00
   0.1820717535057450E+01
   0.8029366501309450E+00
   0.8632373875880295E+00
   0.1001507923090720E+01
   0.1007683228923886E+01
   0.9929144961491079E+00
   0.9957954110328155E+00
   0.1003305980755322E+01
   0.9969394925117278E+00
   0.9076222263778170E+00
   0.5933383274836559E+00
   0.1111196973457037E+01
   0.9403080772119072E+00
   0.9984306446064121E+00
   0.1002051653944052E+01
   0.1000524228234318E+01
   0.9965143583294332E+00
   0.1000250724499269E+01
   0.1000531423123154E+01
   0.9989926550698424E+00
   0.9895148066050823E+00
   0.9994851303064812E+00
   0.1052296766549434E+01
   0.9794410445318747E+00
   0.9747469707538111E+00
   0.9860952561672797E+00
   0.9960103567233818E+00
   0.9959230824608871E+00
   0.9927214995426584E+00
   0.9905388876156017E+00
   0.9878255470359413E+00
   0.9935595605878622E+00
   0.9785132832136699E+00
   0.1023966786050589E+01
   0.1000539724073697E+01
   0.9977664271078002E+00
   0.9925837066453904E+00
   0.9900671455857203E+00
   0.9909378025446436E+00
   0.9962157210484077E+00
   0.9992342495450477E+00
   0.9970859967447269E+00
   0.9962347566446936E+00
   0.9959233783321371E+00
   0.1009682986634959E+01
   0.1001233709731233E+01
   0.9973698519187922E+00
   0.9990393495303095E+00
   0.9999187982677515E+00
   0.9957373975383417E+00
   0.9923190354502354E+00
   0.9949219141937439E+00
   0.1001306628670499E+01
   0.1007918502329136E+01
   0.1009103382015086E+01
   0.1004208230433308E+01
   0.1001667912557206E+01
   0.9985417069729974E+00
   0.9965430871101079E+00
   0.9981483363356487E+00
   0.1000639664583817E+01
   0.1000175091892147E+01
   0.9965464333723743E+00
   0.9931987246453235E+00
   0.9959480904093864E+00
   0.9984701381083144E+00
   0.1000903167342370E+01
   0.1001121635152414E+01
   0.1000015738310589E+01
   0.9980763849811395E+00
   0.9965785956234142E+00
   0.9971725642389869E+00
   0.9996839891078025E+00
   0.1002291450615661E+01
   0.1001214586847127E+01
   0.9976988207649252E+00
   0.9970990544585359E+00
   0.9999496048547459E+00
   0.1000329161454895E+01
   0.1000149300318310E+01
   0.9999563995837120E+00
   0.9988326582853054E+00
   0.9972420610675786E+00
   0.9964287603798657E+00
   0.9981601142221516E+00
   0.1002148999405622E+01
   0.1004336461485392E+01
   0.1005186396174499E+01
   0.9999827356279035E+00
   0.9998011350055989E+00
   0.9993291163497066E+00
   0.9996409438975580E+00
   0.9999994055889937E+00
   0.9996164435342820E+00
   0.9982179602523781E+00
   0.9969229783372389E+00
   0.9976624443102884E+00
   0.9999909641691671E+00
   0.1000925300251355E+01
   0.9999947100397607E+00
   0.9998063524632427E+00
   0.9994961481478395E+00
   0.9994060462190438E+00
   0.9994123383806660E+00
   0.9995032628110903E+00
   0.9991310138453859E+00
   0.9987174879890059E+00
   0.9980872195340542E+00
   0.9982512261112187E+00
   0.9986731909740976E+00
   0.1000017067405855E+01
   0.1000169468932762E+01
   0.9998143118784762E+00
   0.9986926648627323E+00
   0.9977813947915237E+00
   0.9981637612163912E+00
   0.1000342417477328E+01
   0.1002720189361302E+01
   0.1001984240250696E+01
   0.9992289153301390E+00
   0.9989267481234454E+00
   0.1820796643201203E+01
   0.8029273694536494E+00
   0.8633189391301471E+00
   0.1001579321118098E+01
   0.1007467484598264E+01
   0.9927431700630549E+00
   0.9958445526594801E+00
   0.1003301101783782E+01
   0.9967638589782634E+00
   0.9076575722767047E+00
   0.5939086059806419E+00
   0.1110397118234823E+01
   0.9406841344292184E+00
   0.9985956554991480E+00
   0.1001784860250629E+01
   0.1001047603551688E+01
   0.9972017755815286E+00
   0.1000485449457569E+01
   0.1000645406564833E+01
   0.9991466708476954E+00
   0.9892431296857235E+00
   0.9988601523030510E+00
   0.1052939809318586E+01
   0.9790950505052503E+00
   0.9744911765564135E+00
   0.9868054208174369E+00
   0.9961509082077521E+00
   0.9951747160394552E+00
   0.9922340620089452E+00
   0.9906152171838044E+00
   0.9881609753404820E+00
   0.9939509082285203E+00
   0.9786510704740019E+00
   0.1023989365777553E+01
   0.1000587530607039E+01
   0.9977330065790823E+00
   0.9922699182411946E+00
   0.9905879249873241E+00
   0.9917104977317298E+00
   0.9957154886436873E+00
   0.9978296774545914E+00
   0.9964375967143386E+00
   0.9975014315030389E+00
   0.9982477995919835E+00
   0.1009523571388047E+01
   0.1001373718441901E+01
   0.9974180154455899E+00
   0.9988434287625413E+00
   0.9996708382916794E+00
   0.9962508678420766E+00
   0.9932821995594702E+00
   0.9948038514076314E+00
   0.9994844486972386E+00
   0.1006056172736869E+01
   0.1007985352517607E+01
   0.1004217664698124E+01
   0.1001638635296899E+01
   0.9985345595432354E+00
   0.9965280368351558E+00
   0.9981479690709908E+00
   0.1000678631069047E+01
   0.1000409482806083E+01
   0.9970513392110105E+00
   0.9935868338001548E+00
   0.9958029553831108E+00
   0.9978916298182331E+00
   0.1000907504429413E+01
   0.1001100643809494E+01
   0.1000035888454895E+01
   0.9981467605662289E+00
   0.9965876777991919E+00
   0.9970479172100236E+00
   0.9995525829189090E+00
   0.1002203644459595E+01
   0.1001154932594324E+01
   0.9977701525863131E+00
   0.9972353756364394E+00
   0.9999308312702591E+00
   0.1000300941172779E+01
   0.1000104264195331E+01
   0.9999373450863696E+00
   0.9988725328777248E+00
   0.9972533363456272E+00
   0.9963599267767483E+00
   0.9981128462707680E+00
   0.1002191382424261E+01
   0.1004493157433352E+01
   0.1005578765017594E+01
   0.9999430330459795E+00
   0.9998009525576150E+00
   0.9993373806388420E+00
   0.9996425900844952E+00
   0.9999970749917860E+00
   0.9995407988728859E+00
   0.9979976330960921E+00
   0.9966552143066972E+00
   0.9975681624421143E+00
   0.1000082974395985E+01
   0.1001340596430652E+01
   0.9999625986112579E+00
   0.9997746682141561E+00
   0.9994689303966577E+00
   0.9993976712190761E+00
   0.9994271498996136E+00
   0.9994137446775375E+00
   0.9989285840882490E+00
   0.9983410584236175E+00
   0.9979082087161850E+00
   0.9982860814891120E+00
   0.9989558132513131E+00
   0.1000022099910509E+01
   0.1000148421581056E+01
   0.9997607609543684E+00
   0.9986747563709220E+00
   0.9978477654732003E+00
   0.9982893229150551E+00
   0.1000297210334014E+01
   0.1002299904321497E+01
   0.1001387843418386E+01
   0.9988331044428405E+00
   0.9987679259728346E+00
   0.1820728235314809E+01
   0.8029484895876781E+00
   0.8632705828591248E+00
   0.1001502567396890E+01
   0.1007673526493575E+01
   0.9929112655832276E+00
   0.9957990682092686E+00
   0.1003310298711514E+01
   0.9969418376046495E+00
   0.9076262529053919E+00
   0.5933417888902152E+00
   0.1111151279007769E+01
   0.9402843196825782E+00
   0.9984484630407904E+00
   0.1002034604254243E+01
   0.1000523592227707E+01
   0.9965184418820119E+00
   0.1000256891665265E+01
   0.1000525057791870E+01
   0.9989795686074815E+00
   0.9894951515106035E+00
   0.9994658540731493E+00
   0.1052276242627951E+01
   0.9794381455076029E+00
   0.9747566049263350E+00
   0.9860991687543684E+00
   0.9960182442046509E+00
   0.9959223887363154E+00
   0.9927184204782381E+00
   0.9905331448200810E+00
   0.9878174930687192E+00
   0.9935428586152469E+00
   0.9784830212198725E+00
   0.1023957355851139E+01
   0.1000534204495347E+01
   0.9977721893084337E+00
   0.9925872949009376E+00
   0.9900799041395071E+00
   0.9909492416310652E+00
   0.9962247072948494E+00
   0.9992347900159140E+00
   0.9970764128642473E+00
   0.9962118994508015E+00
   0.9958941067082121E+00
   0.1009682603709025E+01
   0.1001231926498286E+01
   0.9973687989974642E+00
   0.9990349387710727E+00
   0.9999199913171322E+00
   0.9957422978970734E+00
   0.9923279847398289E+00
   0.9949309958011682E+00
   0.1001311784058063E+01
   0.1007914004576909E+01
   0.1009098040236948E+01
   0.1004209100987470E+01
   0.1001668477131642E+01
   0.9985433183402177E+00
   0.9965401376598774E+00
   0.9981459218410850E+00
   0.1000639027126123E+01
   0.1000177941757671E+01
   0.9965516230646568E+00
   0.9932055064980824E+00
   0.9959531451434925E+00
   0.9984775666977033E+00
   0.1000903682839748E+01
   0.1001122494608358E+01
   0.1000018047694427E+01
   0.9980761373413292E+00
   0.9965766056308253E+00
   0.9971698636935556E+00
   0.9996830242965924E+00
   0.1002292553417350E+01
   0.1001217926032780E+01
   0.9977034503928698E+00
   0.9971049558482963E+00
   0.9999497163514404E+00
   0.1000329573381917E+01
   0.1000151143841224E+01
   0.9999575784871790E+00
   0.9988324927547774E+00
   0.9972402796804035E+00
   0.9964268349752766E+00
   0.9981590439994705E+00
   0.1002149466284524E+01
   0.1004338292699440E+01
   0.1005188109574623E+01
   0.9999828834188706E+00
   0.9998012253146732E+00
   0.9993300746288828E+00
   0.9996422866006920E+00
   0.1000000396063922E+01
   0.9996161547669814E+00
   0.9982167003655238E+00
   0.9969214512934180E+00
   0.9976612672478516E+00
   0.9999904182922036E+00
   0.1000924185152585E+01
   0.9999949064111354E+00
   0.9998063759867498E+00
   0.9994965958009258E+00
   0.9994069253549094E+00
   0.9994132323266894E+00
   0.9995034108966152E+00
   0.9991303342812321E+00
   0.9987163727891980E+00
   0.9980858284603995E+00
   0.9982497570443991E+00
   0.9986713461522632E+00
   0.1000017363473118E+01
   0.1000169340973434E+01
   0.9998141283359133E+00
   0.9986931439234152E+00
   0.9977829134250735E+00
   0.9981655844646391E+00
   0.1000343559502046E+01
   0.1002720052855975E+01
   0.1001982455966078E+01
   0.9992261364522118E+00
   0.9989236681446714E+00
   0.1820795553149782E+01
   0.8029271034144203E+00
   0.8633189047903772E+00
   0.1001579340573598E+01
   0.1007467513438192E+01
   0.9927431982485244E+00
   0.9958445608849695E+00
   0.1003301060351074E+01
   0.9967637420040251E+00
   0.9076573726438200E+00
   0.5939082999678021E+00
   0.1110396892903632E+01
   0.9406840946412161E+00
   0.9985956386905360E+00
   0.1001784822906553E+01
   0.1001047578658036E+01
   0.9972017638297892E+00
   0.1000485448629195E+01
   0.1000645403785025E+01
   0.9991466339110848E+00
   0.9892430339723256E+00
   0.9988600056506313E+00
   0.1052939762470373E+01
   0.9790950420637949E+00
   0.9744911525233081E+00
   0.9868053821527880E+00
   0.9961508600485921E+00
   0.9951746642881548E+00
   0.9922340099117192E+00
   0.9906151619139092E+00
   0.9881609114878042E+00
   0.9939508345989910E+00
   0.9786509890774610E+00
   0.1023989365178884E+01
   0.1000587532275207E+01
   0.9977330088765327E+00
   0.9922699129839090E+00
   0.9905879120261586E+00
   0.9917104758868402E+00
   0.9957154606121532E+00
   0.9978296466241766E+00