# vtk DataFile Version 2.0
FUN3D:global_image_vtk
ASCII
DATASET UNSTRUCTURED_GRID
POINTS 1331 double
    0.0000000000000000E+00    0.2500000000000000E+01    0.0000000000000000E+00
    0.5000000000000000E+00    0.2500000000000000E+01    0.0000000000000000E+00
    0.1000000000000000E+01    0.2500000000000000E+01    0.0000000000000000E+00
    0.1500000000000000E+01    0.2500000000000000E+01    0.0000000000000000E+00
    0.2000000000000000E+01    0.2500000000000000E+01    0.0000000000000000E+00
    0.2500000000000000E+01    0.2500000000000000E+01    0.0000000000000000E+00
    0.3000000000000000E+01    0.2500000000000000E+01    0.0000000000000000E+00
    0.3500000000000000E+01    0.2500000000000000E+01    0.0000000000000000E+00
    0.4000000000000000E+01    0.2500000000000000E+01    0.0000000000000000E+00
    0.4500000000000000E+01    0.2500000000000000E+01    0.0000000000000000E+00
    0.5000000000000000E+01    0.2500000000000000E+01    0.0000000000000000E+00
    0.0000000000000000E+00    0.2500000000000000E+01    0.4999999999999982E+00
    0.4999999999999998E+00    0.2500000000000000E+01    0.4999999999999984E+00
    0.9999999999999998E+00    0.2500000000000000E+01    0.4999999999999987E+00
    0.1500000000000000E+01    0.2500000000000000E+01    0.4999999999999989E+00
    0.2000000000000000E+01    0.2500000000000000E+01    0.4999999999999991E+00
    0.2500000000000000E+01    0.2500000000000000E+01    0.4999999999999993E+00
    0.3000000000000000E+01    0.2500000000000000E+01    0.4999999999999996E+00
    0.3500000000000000E+01    0.2500000000000000E+01    0.4999999999999998E+00
    0.4000000000000000E+01    0.2500000000000000E+01    0.5000000000000000E+00
    0.4500000000000002E+01    0.2500000000000000E+01    0.5000000000000002E+00
    0.5000000000000000E+01    0.2500000000000000E+01    0.5000000000000004E+00
    0.0000000000000000E+00    0.2500000000000000E+01    0.1000000000000001E+01
    0.4999999999999997E+00    0.2500000000000000E+01    0.1000000000000001E+01
    0.1000000000000000E+01    0.2500000000000000E+01    0.1000000000000001E+01
    0.1500000000000000E+01    0.2500000000000000E+01    0.1000000000000001E+01
    0.2000000000000000E+01    0.2500000000000000E+01    0.1000000000000001E+01
    0.2500000000000000E+01    0.2500000000000000E+01    0.1000000000000001E+01
    0.3000000000000000E+01    0.2500000000000000E+01    0.1000000000000001E+01
    0.3500000000000000E+01    0.2500000000000000E+01    0.1000000000000001E+01
    0.4000000000000000E+01    0.2500000000000000E+01    0.1000000000000001E+01
    0.4499999999999999E+01    0.2500000000000000E+01    0.1000000000000001E+01
    0.5000000000000000E+01    0.2500000000000000E+01    0.1000000000000001E+01
    0.0000000000000000E+00    0.2500000000000000E+01    0.1499999999999999E+01
    0.4999999999999994E+00    0.2500000000000000E+01    0.1499999999999999E+01
    0.1000000000000000E+01    0.2500000000000000E+01    0.1499999999999999E+01
    0.1500000000000000E+01    0.2500000000000000E+01    0.1499999999999999E+01
    0.2000000000000001E+01    0.2500000000000000E+01    0.1499999999999999E+01
    0.2500000000000000E+01    0.2500000000000000E+01    0.1499999999999999E+01
    0.2999999999999999E+01    0.2500000000000000E+01    0.1499999999999999E+01
    0.3500000000000000E+01    0.2500000000000000E+01    0.1499999999999999E+01
    0.4000000000000001E+01    0.2500000000000000E+01    0.1499999999999999E+01
    0.4500000000000001E+01    0.2500000000000000E+01    0.1499999999999999E+01
    0.5000000000000000E+01    0.2500000000000000E+01    0.1499999999999999E+01
    0.0000000000000000E+00    0.2500000000000000E+01    0.2000000000000002E+01
    0.4999999999999992E+00    0.2500000000000000E+01    0.2000000000000001E+01
    0.1000000000000000E+01    0.2500000000000000E+01    0.2000000000000001E+01
    0.1500000000000000E+01    0.2500000000000000E+01    0.2000000000000001E+01
    0.2000000000000001E+01    0.2500000000000000E+01    0.2000000000000001E+01
    0.2500000000000000E+01    0.2500000000000000E+01    0.2000000000000001E+01
    0.2999999999999999E+01    0.2500000000000000E+01    0.2000000000000000E+01
    0.3500000000000000E+01    0.2500000000000000E+01    0.2000000000000000E+01
    0.4000000000000000E+01    0.2500000000000000E+01    0.2000000000000000E+01
    0.4500000000000000E+01    0.2500000000000000E+01    0.2000000000000000E+01
    0.5000000000000000E+01    0.2500000000000000E+01    0.2000000000000000E+01
    0.0000000000000000E+00    0.2500000000000000E+01    0.2500000000000000E+01
    0.4999999999999991E+00    0.2500000000000000E+01    0.2500000000000000E+01
    0.1000000000000000E+01    0.2500000000000000E+01    0.2500000000000000E+01
    0.1500000000000000E+01    0.2500000000000000E+01    0.2500000000000000E+01
    0.2000000000000001E+01    0.2500000000000000E+01    0.2500000000000000E+01
    0.2500000000000000E+01    0.2500000000000000E+01    0.2500000000000000E+01
    0.2999999999999999E+01    0.2500000000000000E+01    0.2500000000000000E+01
    0.3500000000000001E+01    0.2500000000000000E+01    0.2500000000000000E+01
    0.4000000000000000E+01    0.2500000000000000E+01    0.2500000000000000E+01
    0.4500000000000001E+01    0.2500000000000000E+01    0.2500000000000000E+01
    0.5000000000000000E+01    0.2500000000000000E+01    0.2500000000000000E+01
    0.0000000000000000E+00    0.2500000000000000E+01    0.2999999999999998E+01
    0.4999999999999989E+00    0.2500000000000000E+01    0.2999999999999998E+01
    0.1000000000000000E+01    0.2500000000000000E+01    0.2999999999999999E+01
    0.1499999999999999E+01    0.2500000000000000E+01    0.2999999999999999E+01
    0.2000000000000001E+01    0.2500000000000000E+01    0.2999999999999999E+01
    0.2500000000000000E+01    0.2500000000000000E+01    0.2999999999999999E+01
    0.2999999999999999E+01    0.2500000000000000E+01    0.2999999999999999E+01
    0.3500000000000001E+01    0.2500000000000000E+01    0.3000000000000000E+01
    0.4000000000000000E+01    0.2500000000000000E+01    0.3000000000000000E+01
    0.4500000000000001E+01    0.2500000000000000E+01    0.3000000000000000E+01
    0.5000000000000000E+01    0.2500000000000000E+01    0.3000000000000000E+01
    0.0000000000000000E+00    0.2500000000000000E+01    0.3500000000000001E+01
    0.4999999999999988E+00    0.2500000000000000E+01    0.3500000000000001E+01
    0.1000000000000001E+01    0.2500000000000000E+01    0.3500000000000001E+01
    0.1499999999999999E+01    0.2500000000000000E+01    0.3500000000000001E+01
    0.2000000000000001E+01    0.2500000000000000E+01    0.3500000000000001E+01
    0.2500000000000000E+01    0.2500000000000000E+01    0.3500000000000001E+01
    0.2999999999999999E+01    0.2500000000000000E+01    0.3500000000000001E+01
    0.3500000000000001E+01    0.2500000000000000E+01    0.3500000000000001E+01
    0.4000000000000001E+01    0.2500000000000000E+01    0.3500000000000001E+01
    0.4500000000000001E+01    0.2500000000000000E+01    0.3500000000000001E+01
    0.5000000000000000E+01    0.2500000000000000E+01    0.3500000000000001E+01
    0.0000000000000000E+00    0.2500000000000000E+01    0.3999999999999999E+01
    0.4999999999999986E+00    0.2500000000000000E+01    0.4000000000000000E+01
    0.1000000000000001E+01    0.2500000000000000E+01    0.3999999999999999E+01
    0.1499999999999999E+01    0.2500000000000000E+01    0.3999999999999999E+01
    0.2000000000000001E+01    0.2500000000000000E+01    0.3999999999999999E+01
    0.2500000000000000E+01    0.2500000000000000E+01    0.3999999999999999E+01
    0.2999999999999998E+01    0.2500000000000000E+01    0.3999999999999999E+01
    0.3500000000000001E+01    0.2500000000000000E+01    0.3999999999999999E+01
    0.3999999999999999E+01    0.2500000000000000E+01    0.3999999999999999E+01
    0.4500000000000003E+01    0.2500000000000000E+01    0.3999999999999999E+01
    0.5000000000000000E+01    0.2500000000000000E+01    0.3999999999999999E+01
    0.0000000000000000E+00    0.2500000000000000E+01    0.4500000000000002E+01
    0.4999999999999984E+00    0.2500000000000000E+01    0.4500000000000002E+01
    0.1000000000000001E+01    0.2500000000000000E+01    0.4500000000000001E+01
    0.1499999999999999E+01    0.2500000000000000E+01    0.4500000000000003E+01
    0.2000000000000002E+01    0.2500000000000000E+01    0.4500000000000001E+01
    0.2500000000000000E+01    0.2500000000000000E+01    0.4500000000000001E+01
    0.2999999999999998E+01    0.2500000000000000E+01    0.4500000000000001E+01
    0.3500000000000001E+01    0.2500000000000000E+01    0.4499999999999999E+01
    0.3999999999999999E+01    0.2500000000000000E+01    0.4499999999999999E+01
    0.4500000000000002E+01    0.2500000000000000E+01    0.4500000000000000E+01
    0.5000000000000000E+01    0.2500000000000000E+01    0.4500000000000000E+01
    0.0000000000000000E+00    0.2500000000000000E+01    0.5000000000000000E+01
    0.4999999999999982E+00    0.2500000000000000E+01    0.5000000000000000E+01
    0.1000000000000001E+01    0.2500000000000000E+01    0.5000000000000000E+01
    0.1499999999999999E+01    0.2500000000000000E+01    0.5000000000000000E+01
    0.2000000000000002E+01    0.2500000000000000E+01    0.5000000000000000E+01
    0.2500000000000000E+01    0.2500000000000000E+01    0.5000000000000000E+01
    0.2999999999999998E+01    0.2500000000000000E+01    0.5000000000000000E+01
    0.3500000000000001E+01    0.2500000000000000E+01    0.5000000000000000E+01
    0.3999999999999999E+01    0.2500000000000000E+01    0.5000000000000000E+01
    0.4500000000000002E+01    0.2500000000000000E+01    0.5000000000000000E+01
    0.5000000000000000E+01    0.2500000000000000E+01    0.5000000000000000E+01
    0.0000000000000000E+00    0.2000000000000000E+01    0.0000000000000000E+00
    0.5000000000000000E+00    0.2000000000000000E+01    0.0000000000000000E+00
    0.1000000000000000E+01    0.2000000000000000E+01    0.0000000000000000E+00
    0.1500000000000000E+01    0.2000000000000000E+01    0.0000000000000000E+00
[...]
POINT_DATA 1331
SCALARS rho double 1
LOOKUP_TABLE default
   0.1822524317031857E+01
   0.8025294624681223E+00
   0.8629444937152495E+00
   0.1001346971955701E+01
   0.1007091181107098E+01
   0.9918086709436146E+00
   0.9936556290412872E+00
   0.1000212079008400E+01
   0.9935096732148881E+00
   0.9050112503557752E+00
   0.5939548065363008E+00
   0.1117154024772794E+01
   0.9418353431020129E+00
   0.9963608328856079E+00
   0.1000659283163064E+01
   0.1003583833170412E+01
   0.1001711264444655E+01
   0.1001886953816107E+01
   0.9984638880172265E+00
   0.9952209574827292E+00
   0.9877205966955360E+00
   0.9976939444706883E+00
   0.1051976171625381E+01
   0.9793950590619950E+00
   0.9766928717902569E+00
   0.9877612417136648E+00
   0.9933380292833354E+00
   0.9915471610721034E+00
   0.9917220806144184E+00
   0.9933964396840159E+00
   0.9911009635490500E+00
   0.9929874732791327E+00
   0.9762056809331299E+00
   0.1026412653763152E+01
   0.1000454076293712E+01
   0.9964016935234160E+00
   0.9934402155305420E+00
   0.9946901709807813E+00
   0.9947097730009147E+00
   0.9946000613360252E+00
   0.9942039514845061E+00
   0.9945137384253380E+00
   0.1000145727180194E+01
   0.1002986510090295E+01
   0.1009616409967120E+01
   0.1002233696771207E+01
   0.9982700414676499E+00
   0.9970621502762042E+00
   0.9967884538356350E+00
   0.9963083077128533E+00
   0.9971808656538153E+00
   0.9989424755538534E+00
   0.9987562920396018E+00
   0.9994681202086746E+00
   0.9995524055126382E+00
   0.1004180836931968E+01
   0.1002016301925427E+01
   0.9996762221345153E+00
   0.9984967742113842E+00
   0.9983236632423212E+00
   0.9976492225722202E+00
   0.9967949383575002E+00
   0.9972469358278488E+00
   0.9992460583800684E+00
   0.1002084853816257E+01
   0.1003675797553653E+01
   0.1001600671054299E+01
   0.1001159491511058E+01
   0.9997523182042780E+00
   0.9987088766175229E+00
   0.9984933579826754E+00
   0.9989276307566852E+00
   0.9991980318345588E+00
   0.9987125074785222E+00
   0.9978525817554260E+00
   0.9988826963865275E+00
   0.1000065596826658E+01
   0.1000536289065552E+01
   0.1000642960849911E+01
   0.1000022256274873E+01
   0.9993616268327526E+00
   0.9987253295300218E+00
   0.9984508476462149E+00
   0.9988133170837961E+00
   0.9996792879425850E+00
   0.9998290809555802E+00
   0.9995084582707415E+00
   0.9996185817506674E+00
   0.1000247470622377E+01
   0.1000229042835372E+01
   0.9998685405258751E+00
   0.9996778631369502E+00
   0.9994264360141628E+00
   0.9990164723956323E+00
   0.9985435441290559E+00
   0.9987356296024456E+00
   0.9997843952446636E+00
   0.1000746013013218E+01
   0.1001122104569224E+01
   0.1000121147792694E+01
   0.1000106648669943E+01
   0.9998365850272272E+00
   0.9996550761203363E+00
   0.9996040638710459E+00
   0.9995791911654651E+00
   0.9992364058783346E+00
   0.9987652748373338E+00
   0.9988911867892850E+00
   0.9997753394384375E+00
   0.1000031648887982E+01
   0.1000000690554113E+01
   0.1000139549431096E+01
   0.1000051656415479E+01
   0.9996558611887207E+00
   0.9990575726836658E+00
   0.9988907448378438E+00
   0.9996315989656316E+00
   0.1000549810731929E+01
   0.1000042353647767E+01
   0.9987979839786920E+00
   0.9989392520150433E+00
   0.1820451590956371E+01
   0.8020004056316441E+00
   0.8631028868106594E+00
   0.1001350469869268E+01
   0.1007080907908843E+01
   0.9919029706617437E+00
   0.9938557521363101E+00
   0.1000337654444122E+01
   0.9935368549304213E+00
   0.9051292715598346E+00
   0.5939518801630439E+00
   0.1114249735240984E+01
   0.9412381400058545E+00
   0.9972204594936115E+00
   0.1000581872786958E+01
   0.1003895945262279E+01
   0.1001893192810449E+01
   0.1001823579119738E+01
   0.9983149777433692E+00
   0.9951001484402876E+00
   0.9877029170722229E+00
   0.9984329917939589E+00
   0.1051694658005500E+01
   0.9792238625661788E+00
   0.9769303546807941E+00
   0.9879037850139120E+00
   0.9933208177143658E+00
   0.9913912429700434E+00
   0.9917412371511181E+00
   0.9935715731839081E+00
   0.9913162008838357E+00
   0.9934563194056913E+00
   0.9769670921533553E+00
   0.1026238773681529E+01
   0.1000370376582772E+01
   0.9963841472884493E+00
   0.9933387025385229E+00
   0.9948895410891984E+00
   0.9949291372214402E+00
   0.9944633162341751E+00
   0.9938660750498587E+00
   0.9944938152784237E+00
   0.1000577315726919E+01
   0.1003431164605081E+01
   0.1009531206455258E+01
   0.1002176025174693E+01
   0.9982930082334134E+00
   0.9969117883501745E+00
   0.9966213496161866E+00
   0.9965133410226580E+00
   0.9975908648784583E+00
   0.9988410088939547E+00
   0.9980369879062483E+00
   0.9992689465134251E+00
   0.1000019304144818E+01
   0.1004133469306248E+01
   0.1001967047079280E+01
   0.9996839635171835E+00
   0.9985210464791913E+00
   0.9982566127074683E+00
   0.9975135552765312E+00
   0.9968429106092277E+00
   0.9975164369313092E+00
   0.9992555511376295E+00
   0.1001503747030657E+01
   0.1002833543581005E+01
   0.1001597610778702E+01
   0.1001125477490764E+01
   0.9997242968758082E+00
   0.9987023224825057E+00
   0.9984729747897148E+00
   0.9988646760709391E+00
   0.9991299728552466E+00
   0.9987324512260228E+00
   0.9980270191981339E+00
   0.9991496334991162E+00
   0.1000436498656636E+01
   0.1000541643293135E+01
   0.1000636266713723E+01
   0.1000008188826691E+01
   0.9993652995819629E+00
   0.9987452342239043E+00
   0.9984359150163299E+00
   0.9987489207702527E+00
   0.9996128156204838E+00
   0.9997848189193226E+00
   0.9994052838497955E+00
   0.9994612001726884E+00
   0.1000242070108308E+01
   0.1000225197127172E+01
   0.9998549674881695E+00
   0.9996576254865990E+00
   0.9994175071071589E+00
   0.9990116442829221E+00
   0.9985240964599031E+00
   0.9987049908504716E+00
   0.9997501477955341E+00
   0.1000620264403733E+01
   0.1000961360119488E+01
   0.1000114018844777E+01
   0.1000104851029933E+01
   0.9998383124004159E+00
   0.9996669347399472E+00
   0.9996081052337340E+00
   0.9995587775612098E+00
   0.9991965502559056E+00
   0.9987462579478321E+00
   0.9989047865908640E+00
   0.9997093914364084E+00
   0.9999935222139286E+00
   0.1000010830793403E+01
   0.1000134390995928E+01
   0.1000032327650106E+01
   0.9996455024844828E+00
   0.9990911856426258E+00
   0.9989519048897341E+00
   0.9996302377534120E+00
   0.1000429300041952E+01
   0.9998865949140499E+00
   0.9987551049263501E+00
   0.9990078386705095E+00
   0.1820153271954997E+01
   0.8021250054819041E+00
   0.8631660948841030E+00
   0.1001306068650153E+01
   0.1007075660460437E+01
   0.9917985864253560E+00
   0.9936386562645025E+00
   0.1000166051953163E+01
   0.9934676152476607E+00
   0.9050004246125782E+00
   0.5938897181688895E+00
   0.1114245766325090E+01
   0.9414996913422735E+00
   0.9973792797860321E+00
   0.1000665734369318E+01
   0.1003748375666014E+01
   0.1001848034761381E+01
   0.1002090963786412E+01
   0.9985683619494516E+00
   0.9952160547193796E+00
   0.9875997092359647E+00
   0.9980767704395186E+00
   0.1051697034988879E+01
   0.9794613982204307E+00
   0.9769516593361658E+00
   0.9877446891338667E+00
   0.9933513715583040E+00
   0.9915224589298595E+00
   0.9916885963419944E+00
   0.9933621499286491E+00
   0.9911013735024287E+00
   0.9931334637743122E+00
   0.9765443860129052E+00
   0.1026220994037010E+01
   0.1000417993838143E+01
   0.9965234935440782E+00
   0.9934749772265604E+00
   0.9947454198011667E+00
   0.9947576140920360E+00
   0.9946423041671295E+00
   0.9942135710240231E+00
   0.9944869901700719E+00
   0.1000093634598773E+01
   0.1002957306717868E+01
   0.1009559970109069E+01
   0.1002181262523900E+01
   0.9982801130321680E+00
   0.9970587878428431E+00
   0.9967915534630325E+00
   0.9963137427724977E+00
   0.9971986595438003E+00
   0.9989674501191662E+00
   0.9987801647490080E+00
   0.9994712245650235E+00
   0.9995479428492821E+00
   0.1004166789008353E+01
   0.1001994616512710E+01
   0.9996713959442206E+00
   0.9984905341313082E+00
   0.9983205649541943E+00
   0.9976432668545753E+00
   0.9967890142095746E+00
   0.9972424700199478E+00
   0.9992462868878085E+00
   0.1002084464257578E+01
   0.1003678624956836E+01
   0.1001597160763751E+01
   0.1001150828294877E+01
   0.9997470360292806E+00
   0.9987038401638171E+00
   0.9984911417742978E+00
   0.9989258034872522E+00
   0.9991955235309730E+00
   0.9987079135642672E+00
   0.9978471124180397E+00
   0.9988762332733072E+00
   0.1000060202290977E+01
   0.1000534993837144E+01
   0.1000640009694859E+01
   0.1000019315093318E+01
   0.9993578156965611E+00
   0.9987223634812873E+00
   0.9984489511039618E+00
   0.9988122615230806E+00
   0.9996776555246276E+00
   0.9998265084688148E+00
   0.9995043564419952E+00
   0.9996141783303311E+00
   0.1000246822186101E+01
   0.1000227907033100E+01
   0.9998672090671790E+00
   0.9996758033096078E+00
   0.9994241090628031E+00
   0.9990143514315727E+00
   0.9985421124128679E+00
   0.9987344713848796E+00
   0.9997832263803278E+00
   0.1000744391672413E+01
   0.1001120653133011E+01
   0.1000120830040969E+01
   0.1000106130910910E+01
   0.9998359432376611E+00
   0.9996540151353923E+00
   0.9996025958146338E+00
   0.9995775200687564E+00
   0.9992349209562605E+00
   0.9987639391854057E+00
   0.9988899145903974E+00
   0.9997741804505088E+00
   0.1000031095840717E+01
   0.1000000576214458E+01
   0.1000139205389450E+01
   0.1000051178760533E+01
   0.9996551084363161E+00
   0.9990564836326286E+00
   0.9988893556332022E+00
   0.9996301822408310E+00
   0.1000548519622589E+01
   0.1000041111859749E+01
   0.9987967346458165E+00
   0.9989386162708026E+00
   0.1820152976656431E+01
   0.8022505518819428E+00
   0.8633432390501062E+00
   0.1001291301466042E+01
   0.1007009234061473E+01
   0.9918599334557857E+00
   0.9938382255762477E+00
   0.1000338615554285E+01
   0.9935651375544168E+00
   0.9051696410592663E+00
   0.5939437122008403E+00
   0.1114010187021292E+01
   0.9415190860883628E+00
   0.9974233204038521E+00
   0.1000536958709056E+01
   0.1003875487883104E+01
   0.1001857091959969E+01
   0.1001815048185793E+01
   0.9983034208578611E+00
   0.9950854795406725E+00
   0.9877191905587208E+00
   0.9984886524065890E+00
   0.1051694351791945E+01
   0.9793414069705687E+00
   0.9770008783904073E+00
   0.9879040245516069E+00
   0.9933446976424629E+00
   0.9913983031469199E+00
   0.9917421965688915E+00
   0.9935665834122305E+00
   0.9913187267646008E+00
   0.9934715273091733E+00
   0.9769752832712915E+00
   0.1026213039099369E+01
   0.1000417574947683E+01
   0.9964296025466327E+00
   0.9933312661483706E+00
   0.9948849310589895E+00
   0.9949232183991770E+00
   0.9944685755912147E+00
   0.9938762239601029E+00
   0.9945066936340685E+00
   0.1000577788629229E+01
   0.1003420717266581E+01
   0.1009522712086708E+01
   0.1002196107660547E+01
   0.9983217117818117E+00
   0.9969198210846010E+00
   0.9966241336748882E+00
   0.9965055978720186E+00
   0.9975817131245929E+00
   0.9988343180495725E+00
   0.9980386064493943E+00
   0.9992763574676243E+00
   0.1000039433915049E+01
   0.1004129938882355E+01
   0.1001975048212591E+01
   0.9996998606485779E+00
   0.9985292450296114E+00
   0.9982627517331230E+00
   0.9975149503884869E+00
   0.9968421565418826E+00
   0.9975131465639029E+00
   0.9992538464611819E+00
   0.1001508553931754E+01
   0.1002846349081029E+01
   0.1001596874424368E+01
   0.1001128283457444E+01
   0.9997323257404421E+00
   0.9987084971820109E+00
   0.9984780869491414E+00
   0.9988675198479680E+00
   0.9991321719292608E+00
   0.9987334823115146E+00
   0.9980275654794639E+00
   0.9991522858662408E+00
   0.1000439863587417E+01
   0.1000542048649401E+01
   0.1000637590262127E+01
   0.1000012295333884E+01
   0.9993691559619898E+00
   0.9987485686796264E+00
   0.9984380220151813E+00
   0.9987510068556722E+00
   0.9996149467537824E+00
   0.9997869640585784E+00
   0.9994078210193025E+00
   0.9994625355234087E+00
   0.1000242646301214E+01
   0.1000225813085359E+01
   0.9998571103909095E+00
   0.9996603009565315E+00
   0.9994200793622716E+00
   0.9990132411442134E+00
   0.9985253448907365E+00
   0.9987064903065463E+00
   0.9997521028012255E+00
   0.1000622550896655E+01
   0.1000962833305647E+01
   0.1000114446409953E+01
   0.1000105126229562E+01
   0.9998393510505109E+00
   0.9996688649373576E+00
   0.9996103825813653E+00
   0.9995603812253145E+00
   0.9991974701577684E+00
   0.9987470758502054E+00
   0.9989059441131225E+00
   0.9997110103444284E+00
   0.9999947152179278E+00
   0.1000011241047346E+01
   0.1000134651260517E+01
   0.1000032722559657E+01
   0.9996464026282962E+00
   0.9990930135075988E+00
   0.9989541719824950E+00
   0.9996321986389819E+00
   0.1000430594374978E+01
   0.9998871037081412E+00
   0.9987551804277126E+00
   0.9990077138433835E+00
   0.1820258873659723E+01
   0.8022820721377457E+00
   0.8633418670840939E+00
   0.1001313766667691E+01
   0.1007059158635421E+01
   0.9917920037037380E+00
   0.9936334842988714E+00
   0.1000156917730161E+01
   0.9934689293480331E+00
   0.9050254088667039E+00
   0.5939292498313552E+00
   0.1114004863126123E+01
   0.9413825281937899E+00
   0.9975376396002443E+00
   0.1000687839159325E+01
   0.1003771739367671E+01
   0.1001825415650301E+01
   0.1002068899472885E+01
   0.9985400860640776E+00
   0.9951802857718957E+00
   0.9875430567299022E+00
   0.9980640943913953E+00
   0.1051629893019932E+01
   0.9794630370512536E+00
   0.9770136173101696E+00
   0.9877463809164920E+00
   0.9933675028935545E+00
   0.9915388280395058E+00
   0.9917065749355886E+00
   0.9933670591238934E+00
   0.9911025108839701E+00
   0.9931267476245158E+00
   0.9765382440961774E+00
   0.1026169426856103E+01
   0.1000389476799502E+01
   0.9965592510798821E+00
   0.9934848842268622E+00
   0.9947562702879191E+00
   0.9947586331421913E+00
   0.9946458932881247E+00
   0.9942133343274245E+00
   0.9944857008434100E+00
   0.1000087470203861E+01
   0.1002968277739162E+01
   0.1009537944163146E+01
   0.1002159650379742E+01
   0.9982854401341819E+00
   0.9970596507118323E+00
   0.9967967564526582E+00
   0.9963152065573048E+00
   0.9971999184638339E+00
   0.9989656684919602E+00
   0.9987794782653905E+00
   0.9994749879426265E+00
   0.9995560790527941E+00
   0.1004158392037927E+01
   0.1001981943392966E+01
   0.9996708094323959E+00
   0.9984898632268924E+00
   0.9983229759440154E+00
   0.9976435939034177E+00
   0.9967891762957403E+00
   0.9972402550462024E+00
   0.9992415292914045E+00
   0.1002078009655775E+01
   0.1003666904518867E+01
   0.1001594789634223E+01
   0.1001143993915349E+01
   0.9997436359433386E+00
   0.9987011022898221E+00
   0.9984914689101062E+00
   0.9989265362236401E+00
   0.9991964547447310E+00
   0.9987078033678407E+00
   0.9978451828208422E+00
   0.9988706704357589E+00
   0.1000049074115496E+01
   0.1000534219299609E+01
   0.1000637060171420E+01
   0.1000016979794237E+01
   0.9993549460932879E+00
   0.9987206583722300E+00
   0.9984479157106245E+00
   0.9988120161651064E+00
   0.9996775307022897E+00
   0.9998258207582106E+00
   0.9995013173110868E+00
   0.9996095556232537E+00
   0.1000246350680716E+01
   0.1000226564842878E+01
   0.9998658057323067E+00
   0.9996739293480128E+00
   0.9994224725076045E+00
   0.9990128281028495E+00
   0.9985408348589556E+00
   0.9987333493396473E+00
   0.9997822122296475E+00
   0.1000742655329241E+01
   0.1001119451069598E+01
   0.1000120518306259E+01
   0.1000105435456083E+01
   0.9998349129859271E+00
   0.9996527279782943E+00
   0.9996016267207110E+00
   0.9995766971450968E+00
   0.9992338951381440E+00
   0.9987625050782185E+00
   0.9988882171841350E+00
   0.9997723603698923E+00
   0.1000030124595088E+01
   0.1000000332749583E+01
   0.1000138913433337E+01
   0.1000050529995821E+01
   0.9996539383119833E+00
   0.9990552043108178E+00
   0.9988882920687933E+00
   0.9996292395720811E+00
   0.1000547311382409E+01
   0.1000039543173662E+01
   0.9987948393088132E+00
   0.9989374210263361E+00
   0.1820190091481887E+01
   0.8022812438194811E+00
   0.8633850509692889E+00
   0.1001294706772364E+01
   0.1007004032315854E+01
   0.9918533133495546E+00
   0.9938297902668198E+00
   0.1000327647057156E+01
   0.9935593337197262E+00
   0.9051760397021380E+00
   0.5939662917601266E+00
   0.1113981873584422E+01
   0.9414870720787726E+00
   0.9974389511759140E+00
   0.1000534009546934E+01
   0.1003890144284014E+01
   0.1001859228819181E+01
   0.1001806515499448E+01
   0.9982866188694223E+00
   0.9950725674446302E+00
   0.9877027867854472E+00
   0.9984762435747041E+00
   0.1051680955956158E+01
   0.9793456398116469E+00
   0.9770168596866788E+00
   0.9878963555048369E+00
   0.9933367571809893E+00
   0.9913921883052353E+00
   0.9917442099058267E+00
   0.9935693317561033E+00
   0.9913211258497833E+00
   0.9934701984872379E+00
   0.9769771843883234E+00
   0.1026200674150434E+01
   0.1000416699829759E+01
   0.9964444573893371E+00
   0.9933369039558733E+00
   0.9948876139271543E+00
   0.9949164637999138E+00
   0.9944607275237255E+00
   0.9938697774444747E+00
   0.9945055544578583E+00
   0.1000583033080315E+01
   0.1003435054645085E+01
   0.1009518757157553E+01
   0.1002194742812288E+01
   0.9983264868159745E+00
   0.9969226809963380E+00
   0.9966282834951546E+00
   0.9965052071717598E+00
   0.9975777465366280E+00
   0.9988269041568770E+00
   0.9980314684113817E+00
   0.9992738230388980E+00
   0.1000035755213771E+01
   0.1004129898685111E+01
   0.1001974698719222E+01
   0.9997019053785504E+00
   0.9985300504457355E+00
   0.9982656119407702E+00
   0.9975169883281427E+00
   0.9968425943552431E+00
   0.9975103799609003E+00
   0.9992475575001547E+00
   0.1001499666139470E+01
   0.1002833623229038E+01
   0.1001597386784676E+01
   0.1001128779201619E+01
   0.9997335979284390E+00
   0.9987082397200050E+00
   0.9984787173999212E+00
   0.9988689815877843E+00
   0.9991341045842719E+00
   0.9987344358852216E+00
   0.9980263102852472E+00
   0.9991473665168208E+00
   0.1000434070053830E+01
   0.1000542117747550E+01
   0.1000638350597644E+01
   0.1000013814700797E+01
   0.9993694104621301E+00
   0.9987482696684493E+00
   0.9984379447918335E+00
   0.9987519035864832E+00
   0.9996164417927869E+00
   0.9997884751284255E+00
   0.9994080487409904E+00
   0.9994645883310651E+00
   0.1000242468379701E+01
   0.1000226229074439E+01
   0.9998583149137618E+00
   0.9996611926489953E+00
   0.9994202478106212E+00
   0.9990129007808410E+00
   0.9985253273631214E+00
   0.9987071523649402E+00
   0.9997536792420202E+00
   0.1000624786864159E+01
   0.1000967195029811E+01
   0.1000114318866096E+01
   0.1000105282744369E+01
   0.9998400173279599E+00
   0.9996695508884634E+00
   0.9996108214891194E+00
   0.9995606485205956E+00
   0.9991979739603890E+00
   0.9987479713625899E+00
   0.9989073409777428E+00
   0.9997130166715222E+00
   0.9999976100341142E+00
   0.1000011090161690E+01
   0.1000134564842107E+01
   0.1000033191966768E+01
   0.9996475207070512E+00
   0.9990942166718527E+00
   0.9989547140847234E+00
   0.9996319348053303E+00
   0.1000429859065885E+01
   0.9998869396172089E+00
   0.9987566785289237E+00
   0.9990098996320791E+00
   0.1820258035131590E+01
   0.8022820785622369E+00
   0.8633418805007633E+00
   0.1001313759959017E+01
   0.1007059201921726E+01
   0.9917920736993888E+00
   0.9936335259579090E+00
   0.1000156895118083E+01
   0.9934688253139635E+00
   0.9050252058484139E+00
   0.5939289251704232E+00
   0.1114004667115933E+01
   0.9413825462155709E+00
   0.9975375813149902E+00
   0.1000687787581483E+01
   0.1003771676497776E+01
   0.1001825354540673E+01
   0.1002068837745954E+01
   0.9985400256956215E+00
   0.9951802325301548E+00
   0.9875430126513189E+00
   0.9980640714784137E+00
   0.1051629868672128E+01
   0.9794630636520032E+00
   0.9770136324253015E+00
   0.9877463920182399E+00
   0.9933675051007835E+00
   0.9915388295157768E+00
   0.9917065704833000E+00
   0.9933670473030327E+00
   0.9911024863248249E+00
   0.9931267123938812E+00
   0.9765381915753015E+00
   0.1026169394630974E+01
   0.1000389480260268E+01
   0.9965592524962852E+00
   0.9934848914696757E+00
   0.9947562761314592E+00
   0.9947586401841746E+00
   0.9946459001601754E+00
   0.9942133419876400E+00