# vtk DataFile Version 2.0
FUN3D:global_image_vtk
ASCII
DATASET UNSTRUCTURED_GRID
POINTS 1331 double
    0.0000000000000000E+00    0.2500000000000000E+01    0.0000000000000000E+00
    0.5000000000000000E+00    0.2500000000000000E+01    0.0000000000000000E+00
    0.1000000000000000E+01    0.2500000000000000E+01    0.0000000000000000E+00
    0.1500000000000000E+01    0.2500000000000000E+01    0.0000000000000000E+00
    0.2000000000000000E+01    0.2500000000000000E+01    0.0000000000000000E+00
    0.2500000000000000E+01    0.2500000000000000E+01    0.0000000000000000E+00
    0.3000000000000000E+01    0.2500000000000000E+01    0.0000000000000000E+00
    0.3500000000000000E+01    0.2500000000000000E+01    0.0000000000000000E+00
    0.4000000000000000E+01    0.2500000000000000E+01    0.0000000000000000E+00
    0.4500000000000000E+01    0.2500000000000000E+01    0.0000000000000000E+00
    0.5000000000000000E+01    0.2500000000000000E+01    0.0000000000000000E+00
    0.0000000000000000E+00    0.2500000000000000E+01    0.4999999999999982E+00
    0.4999999999999998E+00    0.2500000000000000E+01    0.4999999999999984E+00
    0.9999999999999998E+00    0.2500000000000000E+01    0.4999999999999987E+00
    0.1500000000000000E+01    0.2500000000000000E+01    0.4999999999999989E+00
    0.2000000000000000E+01    0.2500000000000000E+01    0.4999999999999991E+00
    0.2500000000000000E+01    0.2500000000000000E+01    0.4999999999999993E+00
    0.3000000000000000E+01    0.2500000000000000E+01    0.4999999999999996E+00
    0.3500000000000000E+01    0.2500000000000000E+01    0.4999999999999998E+00
    0.4000000000000000E+01    0.2500000000000000E+01    0.5000000000000000E+00
    0.4500000000000002E+01    0.2500000000000000E+01    0.5000000000000002E+00
    0.5000000000000000E+01    0.2500000000000000E+01    0.5000000000000004E+00
    0.0000000000000000E+00    0.2500000000000000E+01    0.1000000000000001E+01
    0.4999999999999997E+00    0.2500000000000000E+01    0.1000000000000001E+01
    0.1000000000000000E+01    0.2500000000000000E+01    0.1000000000000001E+01
    0.1500000000000000E+01    0.2500000000000000E+01    0.1000000000000001E+01
    0.2000000000000000E+01    0.2500000000000000E+01    0.1000000000000001E+01
    0.2500000000000000E+01    0.2500000000000000E+01    0.1000000000000001E+01
    0.3000000000000000E+01    0.2500000000000000E+01    0.1000000000000001E+01
    0.3500000000000000E+01    0.2500000000000000E+01    0.1000000000000001E+01
    0.4000000000000000E+01    0.2500000000000000E+01    0.1000000000000001E+01
    0.4499999999999999E+01    0.2500000000000000E+01    0.1000000000000001E+01
    0.5000000000000000E+01    0.2500000000000000E+01    0.1000000000000001E+01
    0.0000000000000000E+00    0.2500000000000000E+01    0.1499999999999999E+01
    0.4999999999999994E+00    0.2500000000000000E+01    0.1499999999999999E+01
    0.1000000000000000E+01    0.2500000000000000E+01    0.1499999999999999E+01
    0.1500000000000000E+01    0.2500000000000000E+01    0.1499999999999999E+01
    0.2000000000000001E+01    0.2500000000000000E+01    0.1499999999999999E+01
    0.2500000000000000E+01    0.2500000000000000E+01    0.1499999999999999E+01
    0.2999999999999999E+01    0.2500000000000000E+01    0.1499999999999999E+01
    0.3500000000000000E+01    0.2500000000000000E+01    0.1499999999999999E+01
    0.4000000000000001E+01    0.2500000000000000E+01    0.1499999999999999E+01
    0.4500000000000001E+01    0.2500000000000000E+01    0.1499999999999999E+01
    0.5000000000000000E+01    0.2500000000000000E+01    0.1499999999999999E+01
    0.0000000000000000E+00    0.2500000000000000E+01    0.2000000000000002E+01
    0.4999999999999992E+00    0.2500000000000000E+01    0.2000000000000001E+01
    0.1000000000000000E+01    0.2500000000000000E+01    0.2000000000000001E+01
    0.1500000000000000E+01    0.2500000000000000E+01    0.2000000000000001E+01
    0.2000000000000001E+01    0.2500000000000000E+01    0.2000000000000001E+01
    0.2500000000000000E+01    0.2500000000000000E+01    0.2000000000000001E+01
    0.2999999999999999E+01    0.2500000000000000E+01    0.2000000000000000E+01
    0.3500000000000000E+01    0.2500000000000000E+01    0.2000000000000000E+01
    0.4000000000000000E+01    0.2500000000000000E+01    0.2000000000000000E+01
    0.4500000000000000E+01    0.2500000000000000E+01    0.2000000000000000E+01
    0.5000000000000000E+01    0.2500000000000000E+01    0.2000000000000000E+01
    0.0000000000000000E+00    0.2500000000000000E+01    0.2500000000000000E+01
    0.4999999999999991E+00    0.2500000000000000E+01    0.2500000000000000E+01
    0.1000000000000000E+01    0.2500000000000000E+01    0.2500000000000000E+01
    0.1500000000000000E+01    0.2500000000000000E+01    0.2500000000000000E+01
    0.2000000000000001E+01    0.2500000000000000E+01    0.2500000000000000E+01
    0.2500000000000000E+01    0.2500000000000000E+01    0.2500000000000000E+01
    0.2999999999999999E+01    0.2500000000000000E+01    0.2500000000000000E+01
    0.3500000000000001E+01    0.2500000000000000E+01    0.2500000000000000E+01
    0.4000000000000000E+01    0.2500000000000000E+01    0.2500000000000000E+01
    0.4500000000000001E+01    0.2500000000000000E+01    0.2500000000000000E+01
    0.5000000000000000E+01    0.2500000000000000E+01    0.2500000000000000E+01
    0.0000000000000000E+00    0.2500000000000000E+01    0.2999999999999998E+01
    0.4999999999999989E+00    0.2500000000000000E+01    0.2999999999999998E+01
    0.1000000000000000E+01    0.2500000000000000E+01    0.2999999999999999E+01
    0.1499999999999999E+01    0.2500000000000000E+01    0.2999999999999999E+01
    0.2000000000000001E+01    0.2500000000000000E+01    0.2999999999999999E+01
    0.2500000000000000E+01    0.2500000000000000E+01    0.2999999999999999E+01
    0.2999999999999999E+01    0.2500000000000000E+01    0.2999999999999999E+01
    0.3500000000000001E+01    0.2500000000000000E+01    0.3000000000000000E+01
    0.4000000000000000E+01    0.2500000000000000E+01    0.3000000000000000E+01
    0.4500000000000001E+01    0.2500000000000000E+01    0.3000000000000000E+01
    0.5000000000000000E+01    0.2500000000000000E+01    0.3000000000000000E+01
    0.0000000000000000E+00    0.2500000000000000E+01    0.3500000000000001E+01
    0.4999999999999988E+00    0.2500000000000000E+01    0.3500000000000001E+01
    0.1000000000000001E+01    0.2500000000000000E+01    0.3500000000000001E+01
    0.1499999999999999E+01    0.2500000000000000E+01    0.3500000000000001E+01
    0.2000000000000001E+01    0.2500000000000000E+01    0.3500000000000001E+01
    0.2500000000000000E+01    0.2500000000000000E+01    0.3500000000000001E+01
    0.2999999999999999E+01    0.2500000000000000E+01    0.3500000000000001E+01
    0.3500000000000001E+01    0.2500000000000000E+01    0.3500000000000001E+01
    0.4000000000000001E+01    0.2500000000000000E+01    0.3500000000000001E+01
    0.4500000000000001E+01    0.2500000000000000E+01    0.3500000000000001E+01
    0.5000000000000000E+01    0.2500000000000000E+01    0.3500000000000001E+01
    0.0000000000000000E+00    0.2500000000000000E+01    0.3999999999999999E+01
    0.4999999999999986E+00    0.2500000000000000E+01    0.4000000000000000E+01
    0.1000000000000001E+01    0.2500000000000000E+01    0.3999999999999999E+01
    0.1499999999999999E+01    0.2500000000000000E+01    0.3999999999999999E+01
    0.2000000000000001E+01    0.2500000000000000E+01    0.3999999999999999E+01
    0.2500000000000000E+01    0.2500000000000000E+01    0.3999999999999999E+01
    0.2999999999999998E+01    0.2500000000000000E+01    0.3999999999999999E+01
    0.3500000000000001E+01    0.2500000000000000E+01    0.3999999999999999E+01
    0.3999999999999999E+01    0.2500000000000000E+01    0.3999999999999999E+01
    0.4500000000000003E+01    0.2500000000000000E+01    0.3999999999999999E+01
    0.5000000000000000E+01    0.2500000000000000E+01    0.3999999999999999E+01
    0.0000000000000000E+00    0.2500000000000000E+01    0.4500000000000002E+01
    0.4999999999999984E+00    0.2500000000000000E+01    0.4500000000000002E+01
    0.1000000000000001E+01    0.2500000000000000E+01    0.4500000000000001E+01
    0.1499999999999999E+01    0.2500000000000000E+01    0.4500000000000003E+01
    0.2000000000000002E+01    0.2500000000000000E+01    0.4500000000000001E+01
    0.2500000000000000E+01    0.2500000000000000E+01    0.4500000000000001E+01
    0.2999999999999998E+01    0.2500000000000000E+01    0.4500000000000001E+01
    0.3500000000000001E+01    0.2500000000000000E+01    0.4499999999999999E+01
    0.3999999999999999E+01    0.2500000000000000E+01    0.4499999999999999E+01
    0.4500000000000002E+01    0.2500000000000000E+01    0.4500000000000000E+01
    0.5000000000000000E+01    0.2500000000000000E+01    0.4500000000000000E+01
    0.0000000000000000E+00    0.2500000000000000E+01    0.5000000000000000E+01
    0.4999999999999982E+00    0.2500000000000000E+01    0.5000000000000000E+01
    0.1000000000000001E+01    0.2500000000000000E+01    0.5000000000000000E+01
    0.1499999999999999E+01    0.2500000000000000E+01    0.5000000000000000E+01
    0.2000000000000002E+01    0.2500000000000000E+01    0.5000000000000000E+01
    0.2500000000000000E+01    0.2500000000000000E+01    0.5000000000000000E+01
    0.2999999999999998E+01    0.2500000000000000E+01    0.5000000000000000E+01
    0.3500000000000001E+01    0.2500000000000000E+01    0.5000000000000000E+01
    0.3999999999999999E+01    0.2500000000000000E+01    0.5000000000000000E+01
    0.4500000000000002E+01    0.2500000000000000E+01    0.5000000000000000E+01
    0.5000000000000000E+01    0.2500000000000000E+01    0.5000000000000000E+01
    0.0000000000000000E+00    0.2000000000000000E+01    0.0000000000000000E+00
    0.5000000000000000E+00    0.2000000000000000E+01    0.0000000000000000E+00
    0.1000000000000000E+01    0.2000000000000000E+01    0.0000000000000000E+00
    0.1500000000000000E+01    0.2000000000000000E+01    0.0000000000000000E+00
[...]
POINT_DATA 1331
SCALARS rho double 1
LOOKUP_TABLE default
   0.1822842588276478E+01
   0.8026084483549784E+00
   0.8627104594968439E+00
   0.1000978773208308E+01
   0.1006742761887463E+01
   0.9914529357122147E+00
   0.9931358881959126E+00
   0.9995222328278114E+00
   0.9929902009016286E+00
   0.9054729468031217E+00
   0.5956904584829879E+00
   0.1117307925974593E+01
   0.9418185087596823E+00
   0.9964378946779836E+00
   0.1001302468690597E+01
   0.1003969456906355E+01
   0.1001234694674970E+01
   0.1001150039216617E+01
   0.9985227547447399E+00
   0.9961006020195463E+00
   0.9881749936629626E+00
   0.9977447833863957E+00
   0.1052199852083286E+01
   0.9794777292011179E+00
   0.9764876285847141E+00
   0.9872493379490812E+00
   0.9931417055745881E+00
   0.9919498545425515E+00
   0.9921153156816178E+00
   0.9930177048066285E+00
   0.9901655343824605E+00
   0.9930074254685178E+00
   0.9770197825246526E+00
   0.1026241835581466E+01
   0.1000533783507617E+01
   0.9967204715242933E+00
   0.9938547266855753E+00
   0.9946347535631445E+00
   0.9941505903368046E+00
   0.9942861636630861E+00
   0.9947621211199044E+00
   0.9954459829709538E+00
   0.1000069119123839E+01
   0.1002020838870393E+01
   0.1009871197108857E+01
   0.1002184185880146E+01
   0.9979441742461579E+00
   0.9968540536491413E+00
   0.9971740764707278E+00
   0.9969097180918021E+00
   0.9969776733653518E+00
   0.9976342815585035E+00
   0.9977355892437368E+00
   0.1000274933431462E+01
   0.1001438557242907E+01
   0.1004083270556367E+01
   0.1002178614307550E+01
   0.9998976842263527E+00
   0.9983553588654606E+00
   0.9979002092857306E+00
   0.9976573835595201E+00
   0.9977110451246475E+00
   0.9983100017742811E+00
   0.9988787995825137E+00
   0.1000450674539812E+01
   0.1001711049616656E+01
   0.1001520810773586E+01
   0.1001081698141740E+01
   0.9997884233183588E+00
   0.9989897864703561E+00
   0.9985799884341178E+00
   0.9983875689433154E+00
   0.9983730692207973E+00
   0.9987431167626754E+00
   0.9991125423307631E+00
   0.9999798085252788E+00
   0.1000813322277390E+01
   0.1000684014376924E+01
   0.1000638714973973E+01
   0.9999260748753339E+00
   0.9993464683284621E+00
   0.9989565588197152E+00
   0.9987928703001571E+00
   0.9987920717284000E+00
   0.9990565030816564E+00
   0.9993743516664924E+00
   0.9998909005087238E+00
   0.1000432665575928E+01
   0.1000261736160061E+01
   0.1000271853307745E+01
   0.9998810847712715E+00
   0.9995390848106893E+00
   0.9992448026210256E+00
   0.9990906024494897E+00
   0.9990520871336487E+00
   0.9992096748919177E+00
   0.9994468325899390E+00
   0.9997877391035114E+00
   0.1000176144463456E+01
   0.1000108146641378E+01
   0.1000132393738992E+01
   0.9999054375113277E+00
   0.9996612847662254E+00
   0.9994240432488369E+00
   0.9992782091179904E+00
   0.9992158777003910E+00
   0.9992958936708577E+00
   0.9994785516096285E+00
   0.9997483420741479E+00
   0.1000067857402439E+01
   0.1000043597254621E+01
   0.1000094632253959E+01
   0.9999643924932634E+00
   0.9997660166386846E+00
   0.9995369432411810E+00
   0.9993636138333606E+00
   0.9992710110001065E+00
   0.9992959797713947E+00
   0.9994178639873451E+00
   0.9996458722881559E+00
   0.9999610750837381E+00
   0.1820838506226829E+01
   0.8020774027067468E+00
   0.8628356254327268E+00
   0.1001001380780614E+01
   0.1006769733593027E+01
   0.9914643674130408E+00
   0.9931341587946878E+00
   0.9994940595011654E+00
   0.9929593417531363E+00
   0.9054572760438722E+00
   0.5955999045496195E+00
   0.1114407498539218E+01
   0.9411017516059719E+00
   0.9974219043483827E+00
   0.1001398372119831E+01
   0.1004157014847138E+01
   0.1001345953873808E+01
   0.1001312222034218E+01
   0.9985907257048970E+00
   0.9960348456936075E+00
   0.9879456375799728E+00
   0.9980313166412922E+00
   0.1051860915244396E+01
   0.9794194929031160E+00
   0.9767222053678792E+00
   0.9872356063584803E+00
   0.9931592761992257E+00
   0.9919590656116929E+00
   0.9921186975697052E+00
   0.9930010370287717E+00
   0.9901514279009138E+00
   0.9930935698100857E+00
   0.9772985544222106E+00
   0.1026029551577642E+01
   0.1000419717376831E+01
   0.9968291525495238E+00
   0.9939046254629311E+00
   0.9946872313866441E+00
   0.9941874190450198E+00
   0.9943300895760155E+00
   0.9947948446606644E+00
   0.9954554530945138E+00
   0.1000037097975870E+01
   0.1002008565033767E+01
   0.1009803500780601E+01
   0.1002085839230433E+01
   0.9979244328470287E+00
   0.9968442217146996E+00
   0.9971833987176423E+00
   0.9969200562117367E+00
   0.9969815183905258E+00
   0.9976333923489057E+00
   0.9977416896913556E+00
   0.1000272720655599E+01
   0.1001440451786305E+01
   0.1004061037003670E+01
   0.1002134592887755E+01
   0.9998753590382643E+00
   0.9983369232908063E+00
   0.9978861155300454E+00
   0.9976530609345909E+00
   0.9977205524973851E+00
   0.9983111014606053E+00
   0.9988634451256232E+00
   0.1000431727041271E+01
   0.1001700289595952E+01
   0.1001512639502806E+01
   0.1001059775855693E+01
   0.9997698065529315E+00
   0.9989776733314196E+00
   0.9985700408917831E+00
   0.9983709639191359E+00
   0.9983609812722840E+00
   0.9987480395714837E+00
   0.9991188826237809E+00
   0.9999694217226449E+00
   0.1000798832909729E+01
   0.1000680461546137E+01
   0.1000628867361289E+01
   0.9999134718458644E+00
   0.9993347839198042E+00
   0.9989504477735286E+00
   0.9987875054315020E+00
   0.9987796499053312E+00
   0.9990446580515046E+00
   0.9993761907866983E+00
   0.9998953770942767E+00
   0.1000431197431853E+01
   0.1000259210287237E+01
   0.1000266984554265E+01
   0.9998739000627122E+00
   0.9995297943142968E+00
   0.9992361278350760E+00
   0.9990851701936050E+00
   0.9990465128926316E+00
   0.9991982471659525E+00
   0.9994350626568965E+00
   0.9997866330422820E+00
   0.1000184289716251E+01
   0.1000106538091373E+01
   0.1000129668886984E+01
   0.9999011438836086E+00
   0.9996552223607613E+00
   0.9994171129461179E+00
   0.9992727289646131E+00
   0.9992125466368142E+00
   0.9992903233313967E+00
   0.9994692576322086E+00
   0.9997415509982761E+00
   0.1000063679144071E+01
   0.1000042786773346E+01
   0.1000092522719124E+01
   0.9999613362600535E+00
   0.9997623155525839E+00
   0.9995310816871319E+00
   0.9993543158961375E+00
   0.9992617159341330E+00
   0.9992924186488622E+00
   0.9994170916423605E+00
   0.9996415875394605E+00
   0.9999577846841410E+00
   0.1820485491933279E+01
   0.8021992576298596E+00
   0.8629218201180472E+00
   0.1000933757005835E+01
   0.1006720181610983E+01
   0.9914351292411147E+00
   0.9931157646877317E+00
   0.9994823828745579E+00
   0.9929599412342213E+00
   0.9054573614713789E+00
   0.5955668766518956E+00
   0.1114398935300993E+01
   0.9414717425950822E+00
   0.9974609746854756E+00
   0.1001338496070296E+01
   0.1004146300190112E+01
   0.1001346887037948E+01
   0.1001315583450008E+01
   0.9985971966590144E+00
   0.9960764670356104E+00
   0.9880543746644037E+00
   0.9981295313407609E+00
   0.1051927774105979E+01
   0.9795429389362541E+00
   0.9767361437744596E+00
   0.9872162402645501E+00
   0.9931513127549786E+00
   0.9919482641260373E+00
   0.9921183251702618E+00
   0.9930125524397782E+00
   0.9901682969464662E+00
   0.9931167018559213E+00
   0.9773066704966896E+00
   0.1026047750723658E+01
   0.1000500590232651E+01
   0.9968482976143854E+00
   0.9938903483549318E+00
   0.9946769334231228E+00
   0.9941775956950578E+00
   0.9943173495628075E+00
   0.9947830187986225E+00
   0.9954566358014298E+00
   0.1000058370900299E+01
   0.1002033939520254E+01
   0.1009814171172044E+01
   0.1002130435737650E+01
   0.9979535999986535E+00
   0.9968545606469078E+00
   0.9971827773918471E+00
   0.9969149124854104E+00
   0.9969842592402032E+00
   0.9976392531282154E+00
   0.9977406952487897E+00
   0.1000273960999256E+01
   0.1001445203826560E+01
   0.1004069154855946E+01
   0.1002156880998665E+01
   0.9998922791022827E+00
   0.9983479007208071E+00
   0.9978972635261834E+00
   0.9976545860494532E+00
   0.9977100143564938E+00
   0.9983083269120661E+00
   0.9988769895967163E+00
   0.1000445077989263E+01
   0.1001707157832345E+01
   0.1001517088976598E+01
   0.1001073072854770E+01
   0.9997835065888520E+00
   0.9989845536436761E+00
   0.9985763479802189E+00
   0.9983840771276877E+00
   0.9983705130321272E+00
   0.9987407272138057E+00
   0.9991108544114338E+00
   0.9999772571317588E+00
   0.1000810570015099E+01
   0.1000682772249666E+01
   0.1000635564282925E+01
   0.9999232511700963E+00
   0.9993431419592150E+00
   0.9989536744669404E+00
   0.9987899935963310E+00
   0.9987895241203525E+00
   0.9990539471863776E+00
   0.9993721840458435E+00
   0.9998891369671821E+00
   0.1000431393900186E+01
   0.1000261154856820E+01
   0.1000270553062178E+01
   0.9998796043810279E+00
   0.9995371848712400E+00
   0.9992428519640838E+00
   0.9990885252981566E+00
   0.9990500716798940E+00
   0.9992076089838564E+00
   0.9994448931724321E+00
   0.9997862471863952E+00
   0.1000175096273432E+01
   0.1000107856240135E+01
   0.1000131801222730E+01
   0.9999046209483745E+00
   0.9996601376026512E+00
   0.9994227022310801E+00
   0.9992766686064691E+00
   0.9992142651827500E+00
   0.9992942097028965E+00
   0.9994768647296286E+00
   0.9997469492172482E+00
   0.1000066970551039E+01
   0.1000043460346247E+01
   0.1000094279021149E+01
   0.9999638476296342E+00
   0.9997651981925328E+00
   0.9995358672175895E+00
   0.9993622697436714E+00
   0.9992695246928276E+00
   0.9992945032778238E+00
   0.9994164312071194E+00
   0.9996445842667286E+00
   0.9999602895542727E+00
   0.1820554471286243E+01
   0.8023299430024355E+00
   0.8630703162555879E+00
   0.1000943886045123E+01
   0.1006706285088030E+01
   0.9914283347232972E+00
   0.9931119417082661E+00
   0.9994765362594483E+00
   0.9929642160846411E+00
   0.9054867188604599E+00
   0.5956143949423073E+00
   0.1114184613368028E+01
   0.9413758392449872E+00
   0.9976099127934046E+00
   0.1001356651091061E+01
   0.1004158837247935E+01
   0.1001326035460954E+01
   0.1001300207224812E+01
   0.9985731546642788E+00
   0.9960263401147664E+00
   0.9879716812094179E+00
   0.9980879893867647E+00
   0.1051862961752483E+01
   0.9795405260746252E+00
   0.9767966140690564E+00
   0.9872270073093710E+00
   0.9931660659834390E+00
   0.9919572188950017E+00
   0.9921233294735796E+00
   0.9930064818049027E+00
   0.9901666565793601E+00
   0.9931207076975778E+00
   0.9773196421532885E+00
   0.1025999383385662E+01
   0.1000466287961995E+01
   0.9968776433094533E+00
   0.9939047411107321E+00
   0.9946887382676047E+00
   0.9941782839213085E+00
   0.9943220044843447E+00
   0.9947849198558886E+00
   0.9954475693805929E+00
   0.1000035908897463E+01
   0.1002016285880960E+01
   0.1009795061628850E+01
   0.1002104544889741E+01
   0.9979517233720121E+00
   0.9968531627266405E+00
   0.9971908853678985E+00
   0.9969206941767317E+00
   0.9969811377500203E+00
   0.9976317455138148E+00
   0.9977408032467655E+00
   0.1000273290110089E+01
   0.1001441984591801E+01
   0.1004058838139112E+01
   0.1002142117851130E+01
   0.9998902074238668E+00
   0.9983442849035641E+00
   0.9978922594477988E+00
   0.9976552072885616E+00
   0.9977214107523765E+00
   0.9983103160756248E+00
   0.9988625036062171E+00
   0.1000431818619317E+01
   0.1001701904724024E+01
   0.1001512835549949E+01
   0.1001062931582722E+01
   0.9997777148269028E+00
   0.9989836710756836E+00
   0.9985755183931321E+00
   0.9983743737639790E+00
   0.9983635219919017E+00
   0.9987495522860029E+00
   0.9991195261416045E+00
   0.9999693946347831E+00
   0.1000798917081291E+01
   0.1000681023567538E+01
   0.1000630342056694E+01
   0.9999174316655831E+00
   0.9993385942883889E+00
   0.9989543699725311E+00
   0.9987905549499309E+00
   0.9987821729353422E+00
   0.9990466992643483E+00
   0.9993779477595414E+00
   0.9998963684020634E+00
   0.1000431646349494E+01
   0.1000259658307865E+01
   0.1000267768110902E+01
   0.9998759537864411E+00
   0.9995321926609008E+00
   0.9992388766790870E+00
   0.9990877252233163E+00
   0.9990488282868373E+00
   0.9992002076898493E+00
   0.9994368573035790E+00
   0.9997880058889398E+00
   0.1000185102866267E+01
   0.1000106805762845E+01
   0.1000130115512114E+01
   0.9999022538329896E+00
   0.9996567200124471E+00
   0.9994190051454086E+00
   0.9992747566891090E+00
   0.9992146296326999E+00
   0.9992922923056724E+00
   0.9994710595902775E+00
   0.9997429009652964E+00
   0.1000064403958866E+01
   0.1000042920695587E+01
   0.1000092801348691E+01
   0.9999620674795892E+00
   0.9997634378386167E+00
   0.9995325916763075E+00
   0.9993560724681708E+00
   0.9992636533161997E+00
   0.9992943966288577E+00
   0.9994189604238553E+00
   0.9996430008556996E+00
   0.9999585502129194E+00
   0.1820584667262356E+01
   0.8023576873310121E+00
   0.8631028280798362E+00
   0.1000943753795666E+01
   0.1006702166887568E+01
   0.9914274615865711E+00
   0.9931137949615886E+00
   0.9994766535323978E+00
   0.9929613755904608E+00
   0.9054917793860537E+00
   0.5956406970944409E+00
   0.1114159929606131E+01
   0.9413603479034958E+00
   0.9976158997034904E+00
   0.1001345011295466E+01
   0.1004164302208389E+01
   0.1001336136638039E+01
   0.1001305983088753E+01
   0.9985644998912556E+00
   0.9960216803001534E+00
   0.9879685796505313E+00
   0.9980850061809764E+00
   0.1051854980269878E+01
   0.9795440244566330E+00
   0.9768042904349385E+00
   0.9872260814087899E+00
   0.9931643287545207E+00
   0.9919505636719409E+00
   0.9921229805833492E+00
   0.9930122419986154E+00
   0.9901693059621117E+00
   0.9931191838060526E+00
   0.9773214547144324E+00
   0.1025995947073463E+01
   0.1000470283375480E+01
   0.9968826881683281E+00
   0.9939026193816973E+00
   0.9946933421532371E+00
   0.9941834727881701E+00
   0.9943223951921879E+00
   0.9947807577241551E+00
   0.9954488845992314E+00
   0.1000039284157595E+01
   0.1002016926189267E+01
   0.1009794319246701E+01
   0.1002108172187998E+01
   0.9979566929941560E+00
   0.9968532477289559E+00
   0.9971868423444584E+00
   0.9969163681355778E+00
   0.9969865108117155E+00
   0.9976392436849263E+00
   0.9977398600400336E+00
   0.1000269129581520E+01
   0.1001440107719578E+01
   0.1004061431189012E+01
   0.1002145067070304E+01
   0.9998916718032587E+00
   0.9983455847884665E+00
   0.9978976970729025E+00
   0.9976537235253906E+00
   0.9977097198886489E+00
   0.9983068339569600E+00
   0.9988747210020609E+00
   0.1000440539829557E+01
   0.1001703106421080E+01
   0.1001513978304354E+01
   0.1001066685165927E+01
   0.9997808425750347E+00
   0.9989817884963722E+00
   0.9985753777667115E+00
   0.9983829433003909E+00
   0.9983697890710187E+00
   0.9987396708613909E+00
   0.9991099630295904E+00
   0.9999754977835287E+00
   0.1000808536905645E+01
   0.1000681422575119E+01
   0.1000632546369912E+01
   0.9999211503531122E+00
   0.9993406746827809E+00
   0.9989519329235712E+00
   0.9987883371813777E+00
   0.9987882409418795E+00
   0.9990525325271775E+00
   0.9993709274138139E+00
   0.9998880400496750E+00
   0.1000430856617133E+01
   0.1000260451789745E+01
   0.1000269041611435E+01
   0.9998781705371056E+00
   0.9995354103532669E+00
   0.9992412115764049E+00
   0.9990868504011243E+00
   0.9990486184897891E+00
   0.9992062185610451E+00
   0.9994436163170726E+00
   0.9997852213162494E+00
   0.1000174553246425E+01
   0.1000107503743825E+01
   0.1000131026955911E+01
   0.9999036724198199E+00
   0.9996588605343359E+00
   0.9994213175147176E+00
   0.9992751401556446E+00
   0.9992127431463387E+00
   0.9992927006581007E+00
   0.9994755110590339E+00
   0.9997459723335853E+00
   0.1000066410958722E+01
   0.1000043304135116E+01
   0.1000093794831691E+01
   0.9999631339624651E+00
   0.9997641690822292E+00
   0.9995346349940345E+00
   0.9993608725283541E+00
   0.9992680879548886E+00
   0.9992930234226519E+00
   0.9994149271661397E+00
   0.9996433557998761E+00
   0.9999594560478081E+00
   0.1820585407929890E+01
   0.8023588815409625E+00
   0.8631129389383776E+00
   0.1000946887344142E+01
   0.1006702517967650E+01
   0.9914261894680715E+00
   0.9931116926864547E+00
   0.9994757054745610E+00
   0.9929663185494704E+00
   0.9054985480400074E+00
   0.5956376659069428E+00
   0.1114152804796694E+01
   0.9413459365100604E+00
   0.9976302120023518E+00
   0.1001351770152014E+01
   0.1004163408907599E+01
   0.1001322133349335E+01
   0.1001296872372748E+01
   0.9985663118661817E+00
   0.9960188007249889E+00
   0.9879564537798382E+00
   0.9980799219461162E+00
   0.1051849128254843E+01
   0.9795414239418280E+00
   0.9768100464504735E+00
   0.9872243564787210E+00
   0.9931658414830894E+00
   0.9919537581639548E+00
   0.9921223241162483E+00
   0.9930054813746875E+00
   0.9901669003913557E+00
   0.9931203840102727E+00
   0.9773226175780863E+00
   0.1025990041784194E+01
   0.1000464438138494E+01
   0.9968887938288994E+00
   0.9939067798563817E+00
   0.9946923900216156E+00
   0.9941776240102642E+00
   0.9943212303103830E+00
   0.9947828521738329E+00
   0.9954461264999659E+00
   0.1000033269345649E+01
   0.1002014618172824E+01
   0.1009792162311718E+01
   0.1002104312316918E+01
   0.9979563223219002E+00
   0.9968530568960540E+00
   0.9971916826579067E+00
   0.9969199699838606E+00
   0.9969809531592086E+00
   0.9976310653904895E+00
   0.9977402164170398E+00
   0.1000272163170103E+01
   0.1001441245667943E+01
   0.1004057943386731E+01
   0.1002142485285464E+01
   0.9998937595407211E+00
   0.9983452084875970E+00
   0.9978929083381213E+00
   0.9976542400289790E+00
   0.9977202944859653E+00
   0.9983090539809489E+00
   0.9988617556326198E+00
   0.1000430903980831E+01
   0.1001701640574423E+01
   0.1001512792976756E+01
   0.1001063320625393E+01
   0.9997798073381587E+00
   0.9989848924601145E+00
   0.9985767130812412E+00
   0.9983747434890918E+00
   0.9983634954035009E+00
   0.9987489008348031E+00
   0.9991189623133839E+00
   0.9999693426947406E+00
   0.1000799173409769E+01
   0.1000681189221450E+01
   0.1000630728084387E+01
   0.9999187426334667E+00
   0.9993395728267491E+00
   0.9989552959041571E+00
   0.9987910880131302E+00
   0.9987826287050925E+00
   0.9990468460245268E+00
   0.9993777056583023E+00
   0.9998959036234577E+00
   0.1000430950622479E+01
   0.1000259807982032E+01
   0.1000268046561060E+01
   0.9998767776724312E+00
   0.9995330490027925E+00
   0.9992397610412586E+00
   0.9990883533048207E+00
   0.9990493265702927E+00
   0.9992006591125243E+00
   0.9994372227798516E+00
   0.9997879607644191E+00
   0.1000184792980694E+01
   0.1000106901468975E+01
   0.1000130294417418E+01
   0.9999027468256614E+00
   0.9996573565786492E+00
   0.9994197743721567E+00
   0.9992754766151892E+00
   0.9992152536304211E+00
   0.9992928458716475E+00
   0.9994716077438891E+00
   0.9997432676551758E+00
   0.1000064701803195E+01
   0.1000042967714087E+01
   0.1000092910998322E+01
   0.9999624019900069E+00
   0.9997639576065820E+00
   0.9995332887440631E+00
   0.9993568430620967E+00
   0.9992643752076918E+00
   0.9992949219096465E+00
   0.9994193857086409E+00
   0.9996434467191289E+00
   0.9999590707080248E+00
   0.1820583836609943E+01
   0.8023576910179019E+00
   0.8631028469639219E+00
   0.1000943754852658E+01
   0.1006702214472069E+01
   0.9914275352464385E+00
   0.9931138438403267E+00
   0.9994766413747194E+00
   0.9929612814778089E+00
   0.9054915805887452E+00
   0.5956403644666408E+00
   0.1114159734436456E+01
   0.9413603628475583E+00
   0.9976158399990354E+00
   0.1001344957268054E+01
   0.1004164239209475E+01
   0.1001336074409879E+01
   0.1001305918195768E+01
   0.9985644309138261E+00
   0.9960216095481625E+00
   0.9879684981743885E+00
   0.9980849395618016E+00
   0.1051854954781947E+01
   0.9795440491254785E+00
   0.9768043051794713E+00
   0.9872260927832233E+00
   0.9931643316356707E+00
   0.9919505671642077E+00
   0.9921229817877568E+00
   0.9930122413771421E+00
   0.9901693012069309E+00
   0.9931191764049463E+00
   0.9773214363816430E+00
   0.1025995914272147E+01
   0.1000470285602167E+01
   0.9968826894852484E+00
   0.9939026254639722E+00
   0.9946933458523429E+00
   0.9941834765355970E+00
   0.9943223971830428E+00
   0.9947807583555440E+00