# vtk DataFile Version 2.0
FUN3D:global_image_vtk
ASCII
DATASET UNSTRUCTURED_GRID
POINTS 1331 double
    0.0000000000000000E+00    0.2500000000000000E+01    0.0000000000000000E+00
    0.5000000000000000E+00    0.2500000000000000E+01    0.0000000000000000E+00
    0.1000000000000000E+01    0.2500000000000000E+01    0.0000000000000000E+00
    0.1500000000000000E+01    0.2500000000000000E+01    0.0000000000000000E+00
    0.2000000000000000E+01    0.2500000000000000E+01    0.0000000000000000E+00
    0.2500000000000000E+01    0.2500000000000000E+01    0.0000000000000000E+00
    0.3000000000000000E+01    0.2500000000000000E+01    0.0000000000000000E+00
    0.3500000000000000E+01    0.2500000000000000E+01    0.0000000000000000E+00
    0.4000000000000000E+01    0.2500000000000000E+01    0.0000000000000000E+00
    0.4500000000000000E+01    0.2500000000000000E+01    0.0000000000000000E+00
    0.5000000000000000E+01    0.2500000000000000E+01    0.0000000000000000E+00
    0.0000000000000000E+00    0.2500000000000000E+01    0.4999999999999982E+00
    0.4999999999999998E+00    0.2500000000000000E+01    0.4999999999999984E+00
    0.9999999999999998E+00    0.2500000000000000E+01    0.4999999999999987E+00
    0.1500000000000000E+01    0.2500000000000000E+01    0.4999999999999989E+00
    0.2000000000000000E+01    0.2500000000000000E+01    0.4999999999999991E+00
    0.2500000000000000E+01    0.2500000000000000E+01    0.4999999999999993E+00
    0.3000000000000000E+01    0.2500000000000000E+01    0.4999999999999996E+00
    0.3500000000000000E+01    0.2500000000000000E+01    0.4999999999999998E+00
    0.4000000000000000E+01    0.2500000000000000E+01    0.5000000000000000E+00
    0.4500000000000002E+01    0.2500000000000000E+01    0.5000000000000002E+00
    0.5000000000000000E+01    0.2500000000000000E+01    0.5000000000000004E+00
    0.0000000000000000E+00    0.2500000000000000E+01    0.1000000000000001E+01
    0.4999999999999997E+00    0.2500000000000000E+01    0.1000000000000001E+01
    0.1000000000000000E+01    0.2500000000000000E+01    0.1000000000000001E+01
    0.1500000000000000E+01    0.2500000000000000E+01    0.1000000000000001E+01
    0.2000000000000000E+01    0.2500000000000000E+01    0.1000000000000001E+01
    0.2500000000000000E+01    0.2500000000000000E+01    0.1000000000000001E+01
    0.3000000000000000E+01    0.2500000000000000E+01    0.1000000000000001E+01
    0.3500000000000000E+01    0.2500000000000000E+01    0.1000000000000001E+01
    0.4000000000000000E+01    0.2500000000000000E+01    0.1000000000000001E+01
    0.4499999999999999E+01    0.2500000000000000E+01    0.1000000000000001E+01
    0.5000000000000000E+01    0.2500000000000000E+01    0.1000000000000001E+01
    0.0000000000000000E+00    0.2500000000000000E+01    0.1499999999999999E+01
    0.4999999999999994E+00    0.2500000000000000E+01    0.1499999999999999E+01
    0.1000000000000000E+01    0.2500000000000000E+01    0.1499999999999999E+01
    0.1500000000000000E+01    0.2500000000000000E+01    0.1499999999999999E+01
    0.2000000000000001E+01    0.2500000000000000E+01    0.1499999999999999E+01
    0.2500000000000000E+01    0.2500000000000000E+01    0.1499999999999999E+01
    0.2999999999999999E+01    0.2500000000000000E+01    0.1499999999999999E+01
    0.3500000000000000E+01    0.2500000000000000E+01    0.1499999999999999E+01
    0.4000000000000001E+01    0.2500000000000000E+01    0.1499999999999999E+01
    0.4500000000000001E+01    0.2500000000000000E+01    0.1499999999999999E+01
    0.5000000000000000E+01    0.2500000000000000E+01    0.1499999999999999E+01
    0.0000000000000000E+00    0.2500000000000000E+01    0.2000000000000002E+01
    0.4999999999999992E+00    0.2500000000000000E+01    0.2000000000000001E+01
    0.1000000000000000E+01    0.2500000000000000E+01    0.2000000000000001E+01
    0.1500000000000000E+01    0.2500000000000000E+01    0.2000000000000001E+01
    0.2000000000000001E+01    0.2500000000000000E+01    0.2000000000000001E+01
    0.2500000000000000E+01    0.2500000000000000E+01    0.2000000000000001E+01
    0.2999999999999999E+01    0.2500000000000000E+01    0.2000000000000000E+01
    0.3500000000000000E+01    0.2500000000000000E+01    0.2000000000000000E+01
    0.4000000000000000E+01    0.2500000000000000E+01    0.2000000000000000E+01
    0.4500000000000000E+01    0.2500000000000000E+01    0.2000000000000000E+01
    0.5000000000000000E+01    0.2500000000000000E+01    0.2000000000000000E+01
    0.0000000000000000E+00    0.2500000000000000E+01    0.2500000000000000E+01
    0.4999999999999991E+00    0.2500000000000000E+01    0.2500000000000000E+01
    0.1000000000000000E+01    0.2500000000000000E+01    0.2500000000000000E+01
    0.1500000000000000E+01    0.2500000000000000E+01    0.2500000000000000E+01
    0.2000000000000001E+01    0.2500000000000000E+01    0.2500000000000000E+01
    0.2500000000000000E+01    0.2500000000000000E+01    0.2500000000000000E+01
    0.2999999999999999E+01    0.2500000000000000E+01    0.2500000000000000E+01
    0.3500000000000001E+01    0.2500000000000000E+01    0.2500000000000000E+01
    0.4000000000000000E+01    0.2500000000000000E+01    0.2500000000000000E+01
    0.4500000000000001E+01    0.2500000000000000E+01    0.2500000000000000E+01
    0.5000000000000000E+01    0.2500000000000000E+01    0.2500000000000000E+01
    0.0000000000000000E+00    0.2500000000000000E+01    0.2999999999999998E+01
    0.4999999999999989E+00    0.2500000000000000E+01    0.2999999999999998E+01
    0.1000000000000000E+01    0.2500000000000000E+01    0.2999999999999999E+01
    0.1499999999999999E+01    0.2500000000000000E+01    0.2999999999999999E+01
    0.2000000000000001E+01    0.2500000000000000E+01    0.2999999999999999E+01
    0.2500000000000000E+01    0.2500000000000000E+01    0.2999999999999999E+01
    0.2999999999999999E+01    0.2500000000000000E+01    0.2999999999999999E+01
    0.3500000000000001E+01    0.2500000000000000E+01    0.3000000000000000E+01
    0.4000000000000000E+01    0.2500000000000000E+01    0.3000000000000000E+01
    0.4500000000000001E+01    0.2500000000000000E+01    0.3000000000000000E+01
    0.5000000000000000E+01    0.2500000000000000E+01    0.3000000000000000E+01
    0.0000000000000000E+00    0.2500000000000000E+01    0.3500000000000001E+01
    0.4999999999999988E+00    0.2500000000000000E+01    0.3500000000000001E+01
    0.1000000000000001E+01    0.2500000000000000E+01    0.3500000000000001E+01
    0.1499999999999999E+01    0.2500000000000000E+01    0.3500000000000001E+01
    0.2000000000000001E+01    0.2500000000000000E+01    0.3500000000000001E+01
    0.2500000000000000E+01    0.2500000000000000E+01    0.3500000000000001E+01
    0.2999999999999999E+01    0.2500000000000000E+01    0.3500000000000001E+01
    0.3500000000000001E+01    0.2500000000000000E+01    0.3500000000000001E+01
    0.4000000000000001E+01    0.2500000000000000E+01    0.3500000000000001E+01
    0.4500000000000001E+01    0.2500000000000000E+01    0.3500000000000001E+01
    0.5000000000000000E+01    0.2500000000000000E+01    0.3500000000000001E+01
    0.0000000000000000E+00    0.2500000000000000E+01    0.3999999999999999E+01
    0.4999999999999986E+00    0.2500000000000000E+01    0.4000000000000000E+01
    0.1000000000000001E+01    0.2500000000000000E+01    0.3999999999999999E+01
    0.1499999999999999E+01    0.2500000000000000E+01    0.3999999999999999E+01
    0.2000000000000001E+01    0.2500000000000000E+01    0.3999999999999999E+01
    0.2500000000000000E+01    0.2500000000000000E+01    0.3999999999999999E+01
    0.2999999999999998E+01    0.2500000000000000E+01    0.3999999999999999E+01
    0.3500000000000001E+01    0.2500000000000000E+01    0.3999999999999999E+01
    0.3999999999999999E+01    0.2500000000000000E+01    0.3999999999999999E+01
    0.4500000000000003E+01    0.2500000000000000E+01    0.3999999999999999E+01
    0.5000000000000000E+01    0.2500000000000000E+01    0.3999999999999999E+01
    0.0000000000000000E+00    0.2500000000000000E+01    0.4500000000000002E+01
    0.4999999999999984E+00    0.2500000000000000E+01    0.4500000000000002E+01
    0.1000000000000001E+01    0.2500000000000000E+01    0.4500000000000001E+01
    0.1499999999999999E+01    0.2500000000000000E+01    0.4500000000000003E+01
    0.2000000000000002E+01    0.2500000000000000E+01    0.4500000000000001E+01
    0.2500000000000000E+01    0.2500000000000000E+01    0.4500000000000001E+01
    0.2999999999999998E+01    0.2500000000000000E+01    0.4500000000000001E+01
    0.3500000000000001E+01    0.2500000000000000E+01    0.4499999999999999E+01
    0.3999999999999999E+01    0.2500000000000000E+01    0.4499999999999999E+01
    0.4500000000000002E+01    0.2500000000000000E+01    0.4500000000000000E+01
    0.5000000000000000E+01    0.2500000000000000E+01    0.4500000000000000E+01
    0.0000000000000000E+00    0.2500000000000000E+01    0.5000000000000000E+01
    0.4999999999999982E+00    0.2500000000000000E+01    0.5000000000000000E+01
    0.1000000000000001E+01    0.2500000000000000E+01    0.5000000000000000E+01
    0.1499999999999999E+01    0.2500000000000000E+01    0.5000000000000000E+01
    0.2000000000000002E+01    0.2500000000000000E+01    0.5000000000000000E+01
    0.2500000000000000E+01    0.2500000000000000E+01    0.5000000000000000E+01
    0.2999999999999998E+01    0.2500000000000000E+01    0.5000000000000000E+01
    0.3500000000000001E+01    0.2500000000000000E+01    0.5000000000000000E+01
    0.3999999999999999E+01    0.2500000000000000E+01    0.5000000000000000E+01
    0.4500000000000002E+01    0.2500000000000000E+01    0.5000000000000000E+01
    0.5000000000000000E+01    0.2500000000000000E+01    0.5000000000000000E+01
    0.0000000000000000E+00    0.2000000000000000E+01    0.0000000000000000E+00
    0.5000000000000000E+00    0.2000000000000000E+01    0.0000000000000000E+00
    0.1000000000000000E+01    0.2000000000000000E+01    0.0000000000000000E+00
    0.1500000000000000E+01    0.2000000000000000E+01    0.0000000000000000E+00
[...]
POINT_DATA 1331
SCALARS rho double 1
LOOKUP_TABLE default
   0.1822836264983201E+01
   0.8026096776890901E+00
   0.8627225734622188E+00
   0.1001000031999913E+01
   0.1006757740397014E+01
   0.9914565023981990E+00
   0.9931477172498210E+00
   0.9995564727983801E+00
   0.9930207657239892E+00
   0.9054571819740191E+00
   0.5956370020144017E+00
   0.1117279937331627E+01
   0.9418135345878077E+00
   0.9964571141436679E+00
   0.1001303645694279E+01
   0.1003927677429917E+01
   0.1001203036549568E+01
   0.1001172759882289E+01
   0.9985657077811960E+00
   0.9960848667187387E+00
   0.9881046717365862E+00
   0.9976747139547500E+00
   0.1052204805831218E+01
   0.9794755206605197E+00
   0.9764742168680941E+00
   0.9872566312866530E+00
   0.9931845964067508E+00
   0.9919840355508841E+00
   0.9920969017330852E+00
   0.9929775119990764E+00
   0.9901695559399889E+00
   0.9930404394814070E+00
   0.9770462056531426E+00
   0.1026226518131705E+01
   0.1000536767632336E+01
   0.9967297624528000E+00
   0.9938367046815629E+00
   0.9945890132243435E+00
   0.9941368647734197E+00
   0.9943337556766360E+00
   0.9948093458123971E+00
   0.9954251075650679E+00
   0.1000023777026160E+01
   0.1001990563908847E+01
   0.1009875352837551E+01
   0.1002175233531100E+01
   0.9979415028996576E+00
   0.9968889654716524E+00
   0.9972143055474049E+00
   0.9968837879240431E+00
   0.9969058488317314E+00
   0.9976370223198964E+00
   0.9978195836480382E+00
   0.1000296122807597E+01
   0.1001383748257157E+01
   0.1004088751292783E+01
   0.1002181225786394E+01
   0.9998841455163542E+00
   0.9983215413755304E+00
   0.9978931325427652E+00
   0.9977055062643679E+00
   0.9977406035884419E+00
   0.9982490110925883E+00
   0.9988127726958486E+00
   0.1000486208087003E+01
   0.1001801043461230E+01
   0.1001512302557602E+01
   0.1001084083364573E+01
   0.9998005751513440E+00
   0.9990009975235320E+00
   0.9985681617306287E+00
   0.9983643261108979E+00
   0.9983890907050343E+00
   0.9987986350474558E+00
   0.9991325328512727E+00
   0.9999320022086110E+00
   0.1000728196620326E+01
   0.1000690806978599E+01
   0.1000632371506583E+01
   0.9999109490788836E+00
   0.9993415958858759E+00
   0.9989795907393035E+00
   0.9988110827795561E+00
   0.9987521910739092E+00
   0.9989949094678207E+00
   0.9993874282410719E+00
   0.9999759012894290E+00
   0.1000538864429397E+01
   0.1000258890888110E+01
   0.1000275880080553E+01
   0.9998880886377439E+00
   0.9995356513705812E+00
   0.9992288474139860E+00
   0.9990910404733633E+00
   0.9990917667102809E+00
   0.9992447057775459E+00
   0.9994215959229742E+00
   0.9997345770437904E+00
   0.1000122607656407E+01
   0.1000104400934924E+01
   0.1000128985800116E+01
   0.9999114573640127E+00
   0.9996745187559331E+00
   0.9994167903897930E+00
   0.9992347030114096E+00
   0.9991919292993680E+00
   0.9993420302540198E+00
   0.9995283647041173E+00
   0.9997243370849954E+00
   0.1000017669618579E+01
   0.1000049242957189E+01
   0.1000097624993121E+01
   0.9999562364253777E+00
   0.9997476306100568E+00
   0.9995477636481516E+00
   0.9994206382485152E+00
   0.9992844403342830E+00
   0.9991975151415934E+00
   0.9993373921282037E+00
   0.9997043494456272E+00
   0.1000071986173094E+01
   0.1820834485338199E+01
   0.8020809931146721E+00
   0.8628447734521764E+00
   0.1001013877119643E+01
   0.1006781954712598E+01
   0.9914821727105499E+00
   0.9931663249455545E+00
   0.9995337591709862E+00
   0.9929952719566820E+00
   0.9054690465173791E+00
   0.5955515781115449E+00
   0.1114404856078727E+01
   0.9410905551996208E+00
   0.9974083014061367E+00
   0.1001400648576686E+01
   0.1004140172021275E+01
   0.1001293560789720E+01
   0.1001288284086628E+01
   0.9986338231797168E+00
   0.9960895192654317E+00
   0.9879758864763245E+00
   0.9980687321043700E+00
   0.1051864335505648E+01
   0.9794196203196565E+00
   0.9767189639002110E+00
   0.9872326822643540E+00
   0.9931736882883612E+00
   0.9919852998162730E+00
   0.9921184481466034E+00
   0.9929637579754609E+00
   0.9901317483278963E+00
   0.9931070033652570E+00
   0.9773153626870383E+00
   0.1026023643657795E+01
   0.1000417879907480E+01
   0.9968262145305860E+00
   0.9938902947255096E+00
   0.9946577315414685E+00
   0.9941654065852507E+00
   0.9943451635623738E+00
   0.9948222480474882E+00
   0.9954408731885009E+00
   0.1000002907368760E+01
   0.1001995920443771E+01
   0.1009801922406020E+01
   0.1002084909971986E+01
   0.9979240828441953E+00
   0.9968542960417349E+00
   0.9972058495365080E+00
   0.9969302601671546E+00
   0.9969514459968190E+00
   0.9975932090310509E+00
   0.9977684090214932E+00
   0.1000341242427238E+01
   0.1001501099714774E+01
   0.1004059564788305E+01
   0.1002135512198462E+01
   0.9998717430792206E+00
   0.9983115453782352E+00
   0.9978542754675406E+00
   0.9976626933532244E+00
   0.9977808113255056E+00
   0.9983294012313623E+00
   0.9987777790005565E+00
   0.1000356864083488E+01
   0.1001661781715363E+01
   0.1001505378009630E+01
   0.1001058935851146E+01
   0.9997789949432917E+00
   0.9989946041525892E+00
   0.9985653548184700E+00
   0.9983292714029459E+00
   0.9983359603261357E+00
   0.9988056105057641E+00
   0.9991872836441545E+00
   0.9999342364498801E+00
   0.1000698162335542E+01
   0.1000688461663100E+01
   0.1000621574772077E+01
   0.9998960430862287E+00
   0.9993306147730947E+00
   0.9989804301489444E+00
   0.9988131654148087E+00
   0.9987351091587937E+00
   0.9989668487500869E+00
   0.9993908132866953E+00
   0.9999999874630513E+00
   0.1000551080386922E+01
   0.1000256927325461E+01
   0.1000271025292014E+01
   0.9998785995926421E+00
   0.9995221882465648E+00
   0.9992183751573188E+00
   0.9990857838197297E+00
   0.9990833093389511E+00
   0.9992238110302771E+00
   0.9994008932510215E+00
   0.9997409771675714E+00
   0.1000158680527382E+01
   0.1000102350536675E+01
   0.1000126470823957E+01
   0.9999080631034477E+00
   0.9996676780164425E+00
   0.9994080685343745E+00
   0.9992288693686553E+00
   0.9991919106549672E+00
   0.9993422796149087E+00
   0.9995138410995112E+00
   0.9996934722145963E+00
   0.9999796290388547E+00
   0.1000049134988958E+01
   0.1000094747193555E+01
   0.9999509273380124E+00
   0.9997423347871847E+00
   0.9995433583106776E+00
   0.9994134562900470E+00
   0.9992697605267026E+00
   0.9991779530863681E+00
   0.9993292527815224E+00
   0.9997169687412016E+00
   0.1000093389046355E+01
   0.1820479496388518E+01
   0.8022006824172699E+00
   0.8629340727971966E+00
   0.1000955319158985E+01
   0.1006735044672182E+01
   0.9914383255889362E+00
   0.9931279123997419E+00
   0.9995182807343340E+00
   0.9929926907972961E+00
   0.9054397452388495E+00
   0.5955063161187644E+00
   0.1114371338910930E+01
   0.9414667661842325E+00
   0.9974799896337271E+00
   0.1001340043102115E+01
   0.1004105152945911E+01
   0.1001315113914927E+01
   0.1001337642711424E+01
   0.9986391310490284E+00
   0.9960585032361652E+00
   0.9879823412511340E+00
   0.9980593559622042E+00
   0.1051932755063346E+01
   0.9795407353312769E+00
   0.9767227200393176E+00
   0.9872233503277811E+00
   0.9931938174010972E+00
   0.9919824326606520E+00
   0.9921002673827783E+00
   0.9929730820042976E+00
   0.9901744504477459E+00
   0.9931504708577313E+00
   0.9773317191206977E+00
   0.1026032453289789E+01
   0.1000503617921543E+01
   0.9968575330016073E+00
   0.9938721928249021E+00
   0.9946312401799130E+00
   0.9941640818708178E+00
   0.9943648033532783E+00
   0.9948290390187702E+00
   0.9954335867633322E+00
   0.1000013758357505E+01
   0.1002007245760934E+01
   0.1009818239883068E+01
   0.1002121517392661E+01
   0.9979510739331866E+00
   0.9968895410895552E+00
   0.9972227412743822E+00
   0.9968887362289498E+00
   0.9969128760652932E+00
   0.9976431441157325E+00
   0.9978251264340294E+00
   0.1000292632314226E+01
   0.1001386418171561E+01
   0.1004074708803959E+01
   0.1002159415213236E+01
   0.9998786578459288E+00
   0.9983142225849033E+00
   0.9978904485345491E+00
   0.9977026571930347E+00
   0.9977390899902618E+00
   0.9982468440844863E+00
   0.9988115311310289E+00
   0.1000482419037955E+01
   0.1001799118619946E+01
   0.1001508652530273E+01
   0.1001075488963598E+01
   0.9997955784111267E+00
   0.9989956124393953E+00
   0.9985645532552857E+00
   0.9983611339149601E+00
   0.9983868872915722E+00
   0.9987962336368593E+00
   0.9991302603529412E+00
   0.9999291909933734E+00
   0.1000725269150468E+01
   0.1000689550400890E+01
   0.1000629266504987E+01
   0.9999081731142646E+00
   0.9993382169825463E+00
   0.9989765413515241E+00
   0.9988080667951913E+00
   0.9987497375718947E+00
   0.9989927425692225E+00
   0.9993854896982014E+00
   0.9999737114343201E+00
   0.1000536574043088E+01
   0.1000258296307967E+01
   0.1000274589487846E+01
   0.9998866520652078E+00
   0.9995337981997264E+00
   0.9992268728726766E+00
   0.9990888365528154E+00
   0.9990896110516706E+00
   0.9992426850900060E+00
   0.9994198750079482E+00
   0.9997330707080938E+00
   0.1000121338044921E+01
   0.1000104102157513E+01
   0.1000128392413031E+01
   0.9999106513217287E+00
   0.9996733818716235E+00
   0.9994154646064444E+00
   0.9992331772206221E+00
   0.9991902968676037E+00
   0.9993403045948931E+00
   0.9995266338107059E+00
   0.9997228259320262E+00
   0.1000016770508101E+01
   0.1000049096977662E+01
   0.1000097267078542E+01
   0.9999556902198758E+00
   0.9997468201418530E+00
   0.9995467199503477E+00
   0.9994193637320778E+00
   0.9992829991949583E+00
   0.9991959447694683E+00
   0.9993357447185047E+00
   0.9997028730720408E+00
   0.1000071270306354E+01
   0.1820550790737273E+01
   0.8023336035982220E+00
   0.8630792448985554E+00
   0.1000956749217976E+01
   0.1006719337013495E+01
   0.9914462523858936E+00
   0.9931427017845165E+00
   0.9995137945269085E+00
   0.9929987468865012E+00
   0.9054991667135536E+00
   0.5955669112872859E+00
   0.1114181895614148E+01
   0.9413646975079719E+00
   0.9975964832172182E+00
   0.1001358407081323E+01
   0.1004141091573987E+01
   0.1001274121247534E+01
   0.1001278595486832E+01
   0.9986195601690531E+00
   0.9960826818080483E+00
   0.9880003405217659E+00
   0.9981218840135687E+00
   0.1051866577289149E+01
   0.9795404893326439E+00
   0.9767930439857510E+00
   0.9872244464709476E+00
   0.9931813531625607E+00
   0.9919833856026191E+00
   0.9921215120090019E+00
   0.9929668409698406E+00
   0.9901461602521430E+00
   0.9931369935305071E+00
   0.9773420560061322E+00
   0.1025993445902950E+01
   0.1000464542028146E+01
   0.9968746677392630E+00
   0.9938899107590864E+00
   0.9946588933944519E+00
   0.9941571088696864E+00
   0.9943390248605162E+00
   0.9948139570951298E+00
   0.9954322116187627E+00
   0.9999977204459777E+00
   0.1001998030564078E+01
   0.1009793546198389E+01
   0.1002103579627407E+01
   0.9979513877788757E+00
   0.9968634308392531E+00
   0.9972132411587006E+00
   0.9969300379053107E+00
   0.9969500451146072E+00
   0.9975916207732439E+00
   0.9977697684595116E+00
   0.1000345673129011E+01
   0.1001505316379172E+01
   0.1004057499088121E+01
   0.1002143072056036E+01
   0.9998865094545767E+00
   0.9983187918328312E+00
   0.9978606018770320E+00
   0.9976652449698779E+00
   0.9977816589883602E+00
   0.9983277940723738E+00
   0.9987751622875976E+00
   0.1000355299960718E+01
   0.1001661902145391E+01
   0.1001505471538891E+01
   0.1001062130393955E+01
   0.9997870028502301E+00
   0.9990005863577223E+00
   0.9985706463824769E+00
   0.9983325641907010E+00
   0.9983386020312280E+00
   0.9988073737477854E+00
   0.9991877556302097E+00
   0.9999328901188076E+00
   0.1000697746924931E+01
   0.1000688962408794E+01
   0.1000623018378495E+01
   0.9999000307224666E+00
   0.9993345248993868E+00
   0.9989844047243894E+00
   0.9988161522383866E+00
   0.9987375263675019E+00
   0.9989689555170244E+00
   0.9993930288643738E+00
   0.1000001691610004E+01
   0.1000553014533620E+01
   0.1000257394213468E+01
   0.1000271788987804E+01
   0.9998806256220917E+00
   0.9995245786848256E+00
   0.9992211422643624E+00
   0.9990883552378412E+00
   0.9990856067077855E+00
   0.9992257355854396E+00
   0.9994028379952208E+00
   0.9997428990341350E+00
   0.1000160145199174E+01
   0.1000102642906986E+01
   0.1000126911773515E+01
   0.9999091699796346E+00
   0.9996691856179107E+00
   0.9994099581256679E+00
   0.9992308478673038E+00
   0.9991939038879341E+00
   0.9993441474718419E+00
   0.9995156858822258E+00
   0.9996951329982431E+00
   0.9999805131394114E+00
   0.1000049293635738E+01
   0.1000095025655987E+01
   0.9999516382674534E+00
   0.9997434599236042E+00
   0.9995449229897834E+00
   0.9994152832483437E+00
   0.9992716987207964E+00
   0.9991797454141597E+00
   0.9993308555048278E+00
   0.9997184015254765E+00
   0.1000094131952722E+01
   0.1820578719480618E+01
   0.8023589886961133E+00
   0.8631148579949695E+00
   0.1000965102272161E+01
   0.1006717212711140E+01
   0.9914310093534556E+00
   0.9931261538657510E+00
   0.9995125351016696E+00
   0.9929942450247322E+00
   0.9054764773216875E+00
   0.5955861929978650E+00
   0.1114132383639880E+01
   0.9413551665749466E+00
   0.9976351225811922E+00
   0.1001347256719562E+01
   0.1004122805577140E+01
   0.1001302529741761E+01
   0.1001326471350065E+01
   0.9986073096567238E+00
   0.9960069735357514E+00
   0.9878973145503952E+00
   0.9980136918028734E+00
   0.1051860097434150E+01
   0.9795419271169126E+00
   0.9767906428370676E+00
   0.9872326384420399E+00
   0.9932070350943580E+00
   0.9919859296598400E+00
   0.9921059094748889E+00
   0.9929721150968471E+00
   0.9901734551908375E+00
   0.9931522978679869E+00
   0.9773462234301655E+00
   0.1025980498525908E+01
   0.1000473414174717E+01
   0.9968922194473180E+00
   0.9938845180405196E+00
   0.9946469041099595E+00
   0.9941688073659987E+00
   0.9943695388631545E+00
   0.9948281698461545E+00
   0.9954279826161827E+00
   0.9999950991190367E+00
   0.1001988842834919E+01
   0.1009798334512034E+01
   0.1002099228555370E+01
   0.9979542155157535E+00
   0.9968884236890357E+00
   0.9972271142401177E+00
   0.9968903145160560E+00
   0.9969146053413832E+00
   0.9976421522522434E+00
   0.9978237171220851E+00
   0.1000288045943328E+01
   0.1001382996433298E+01
   0.1004066858888967E+01
   0.1002147563413009E+01
   0.9998781149869707E+00
   0.9983119718566743E+00
   0.9978907968752164E+00
   0.9977017451314997E+00
   0.9977389798771414E+00
   0.9982456261074790E+00
   0.9988093732711728E+00
   0.1000477803099627E+01
   0.1001795644913629E+01
   0.1001505541052480E+01
   0.1001069028985322E+01
   0.9997928803425032E+00
   0.9989930049069118E+00
   0.9985637674631107E+00
   0.9983599408024555E+00
   0.9983859533616013E+00
   0.9987951720691469E+00
   0.9991300952369884E+00
   0.9999290636057939E+00
   0.1000724614936062E+01
   0.1000688321829016E+01
   0.1000626224128356E+01
   0.9999059478664066E+00
   0.9993356798581485E+00
   0.9989749335939676E+00
   0.9988066208929700E+00
   0.9987484837513941E+00
   0.9989910171779788E+00
   0.9993838729099023E+00
   0.9999727498466841E+00
   0.1000535650215072E+01
   0.1000257658636285E+01
   0.1000273119154760E+01
   0.9998851840744925E+00
   0.9995318891056855E+00
   0.9992251698849804E+00
   0.9990873124498808E+00
   0.9990884423492294E+00
   0.9992413683244608E+00
   0.9994181469061996E+00
   0.9997312668992688E+00
   0.1000119623160823E+01
   0.1000103715635533E+01
   0.1000127652186244E+01
   0.9999097006944890E+00
   0.9996720219293164E+00
   0.9994140008686244E+00
   0.9992316991730206E+00
   0.9991889820741592E+00
   0.9993389911254863E+00
   0.9995250733241506E+00
   0.9997211356019973E+00
   0.1000015338653463E+01
   0.1000048870737488E+01
   0.1000096788863805E+01
   0.9999550580928892E+00
   0.9997458972596446E+00
   0.9995454765604880E+00
   0.9994177852042370E+00
   0.9992813431142231E+00
   0.9991944955922463E+00
   0.9993345569577625E+00
   0.9997017639290098E+00
   0.1000070391628667E+01
   0.1820581705170553E+01
   0.8023622475127110E+00
   0.8631214892296534E+00
   0.1000959019520015E+01
   0.1006715323753244E+01
   0.9914448554618158E+00
   0.9931439766258732E+00
   0.9995148526958245E+00
   0.9930022886217504E+00
   0.9055137858404002E+00
   0.5955954389903870E+00
   0.1114150395679232E+01
   0.9413349326191999E+00
   0.9976161520623892E+00
   0.1001353515387362E+01
   0.1004147328488418E+01
   0.1001270945467591E+01
   0.1001272234481199E+01
   0.9986071152804731E+00
   0.9960724065493330E+00
   0.9879877107128279E+00
   0.9981206499917789E+00
   0.1051852610037158E+01
   0.9795415670927161E+00
   0.9768068675219158E+00
   0.9872214436841009E+00
   0.9931800862097142E+00
   0.9919799048230552E+00
   0.9921224743975465E+00
   0.9929680712188205E+00
   0.9901455481423811E+00
   0.9931343588354490E+00
   0.9773421424862925E+00
   0.1025984062476446E+01
   0.1000462545313123E+01
   0.9968859526636662E+00
   0.9938927877276599E+00
   0.9946631826621813E+00
   0.9941555014172833E+00
   0.9943359757633964E+00
   0.9948105287701000E+00
   0.9954317032383394E+00
   0.9999956606533225E+00
   0.1001996476772666E+01
   0.1009790773909803E+01
   0.1002103205398496E+01
   0.9979556275326548E+00
   0.9968632246333198E+00
   0.9972148772021371E+00
   0.9969307557099462E+00
   0.9969503311582364E+00
   0.9975894951424509E+00
   0.9977670319248281E+00
   0.1000344497081200E+01
   0.1001508256254280E+01
   0.1004056650630118E+01
   0.1002143524526907E+01
   0.9998899475249592E+00
   0.9983192406175952E+00
   0.9978608654230301E+00
   0.9976646887864536E+00
   0.9977819178352485E+00
   0.9983278712885152E+00
   0.9987745635097242E+00
   0.1000353830026134E+01
   0.1001659200264102E+01
   0.1001505427119680E+01
   0.1001062613821839E+01
   0.9997892213054198E+00
   0.9990017250776179E+00
   0.9985714071696439E+00
   0.9983323543566011E+00
   0.9983384024809999E+00
   0.9988072448294816E+00
   0.9991877749893496E+00
   0.9999321770908285E+00
   0.1000695416298162E+01
   0.1000689127060981E+01
   0.1000623410301170E+01
   0.9999014197434232E+00
   0.9993356355044130E+00
   0.9989853669153119E+00
   0.9988164859816393E+00
   0.9987375735552000E+00
   0.9989687688292879E+00
   0.9993926748861403E+00
   0.1000000835228346E+01
   0.1000552532832590E+01
   0.1000257518105127E+01
   0.1000272042192119E+01
   0.9998814573821315E+00
   0.9995255007036966E+00
   0.9992221153610207E+00
   0.9990890369529927E+00
   0.9990860489607714E+00
   0.9992260282197215E+00
   0.9994030572579213E+00
   0.9997428933004776E+00
   0.1000160982970066E+01
   0.1000102690784055E+01
   0.1000127064025165E+01
   0.9999096788821171E+00
   0.9996698411186608E+00
   0.9994106825128396E+00
   0.9992315028295254E+00
   0.9991945584499365E+00
   0.9993449341764589E+00
   0.9995166373875266E+00
   0.9996959917683899E+00
   0.9999815152016867E+00
   0.1000049326499760E+01
   0.1000095066439521E+01
   0.9999519319906863E+00
   0.9997440975236391E+00
   0.9995458604425013E+00
   0.9994161640039396E+00
   0.9992721706676087E+00
   0.9991798123819545E+00
   0.9993312856003220E+00
   0.9997196815944714E+00
   0.1000095544576885E+01
   0.1820577889802667E+01
   0.8023589923472397E+00
   0.8631148767408013E+00
   0.1000965103522772E+01
   0.1006717260706144E+01
   0.9914310834197828E+00
   0.9931262028283198E+00
   0.9995125224822684E+00
   0.9929941501686679E+00
   0.9054762782333803E+00
   0.5955858616070226E+00
   0.1114132188678628E+01
   0.9413551814842402E+00
   0.9976350628706350E+00
   0.1001347202728164E+01
   0.1004122742656190E+01
   0.1001302467411451E+01
   0.1001326406097063E+01
   0.9986072405644439E+00
   0.9960069035182897E+00
   0.9878972333540655E+00
   0.9980136242968630E+00
   0.1051860071975549E+01
   0.9795419517909291E+00
   0.9767906576007543E+00
   0.9872326497938827E+00
   0.9932070379637588E+00
   0.9919859332663100E+00
   0.9921059109284270E+00
   0.9929721144170239E+00
   0.9901734499539425E+00
   0.9931522904558366E+00
   0.9773462060564653E+00
   0.1025980465737104E+01
   0.1000473416396821E+01
   0.9968922207743837E+00
   0.9938845241308711E+00
   0.9946469077099913E+00
   0.9941688109251172E+00
   0.9943695408242347E+00
   0.9948281708609475E+00