# vtk DataFile Version 2.0
FUN3D:global_image_vtk
ASCII
DATASET UNSTRUCTURED_GRID
POINTS 213 double
    0.0000000000000000E+00    0.2500000000000000E+01    0.0000000000000000E+00
    0.1250000000000000E+01    0.2500000000000000E+01    0.0000000000000000E+00
    0.2500000000000000E+01    0.2500000000000000E+01    0.0000000000000000E+00
    0.3750000000000000E+01    0.2500000000000000E+01    0.0000000000000000E+00
    0.5000000000000000E+01    0.2500000000000000E+01    0.0000000000000000E+00
    0.5000000000000000E+01    0.1250000000000000E+01    0.0000000000000000E+00
    0.5000000000000000E+01    0.0000000000000000E+00    0.0000000000000000E+00
    0.5000000000000000E+01   -0.1250000000000000E+01    0.0000000000000000E+00
    0.5000000000000000E+01   -0.2500000000000000E+01    0.0000000000000000E+00
    0.3750000000000000E+01   -0.2500000000000000E+01    0.0000000000000000E+00
    0.2500000000000000E+01   -0.2500000000000000E+01    0.0000000000000000E+00
    0.1250000000000000E+01   -0.2500000000000000E+01    0.0000000000000000E+00
    0.0000000000000000E+00   -0.2500000000000000E+01    0.0000000000000000E+00
    0.0000000000000000E+00   -0.1250000000000000E+01    0.0000000000000000E+00
    0.0000000000000000E+00    0.0000000000000000E+00    0.0000000000000000E+00
    0.0000000000000000E+00    0.1250000000000000E+01    0.0000000000000000E+00
    0.9058375365086910E+00    0.1578994732800803E+01    0.0000000000000000E+00
    0.3982050490726493E+01   -0.1583989954232354E+01    0.0000000000000000E+00
    0.4033849428301197E+01    0.1453322699199022E+01    0.0000000000000000E+00
    0.1040505887381675E+01   -0.1479596339503735E+01    0.0000000000000000E+00
    0.1099454400140349E+01   -0.3227322616384110E+00    0.0000000000000000E+00
    0.7354504170366591E+00    0.6593508822075582E+00    0.0000000000000000E+00
    0.1622302608453282E+01    0.8256214013940779E+00    0.0000000000000000E+00
    0.2145871574390382E+01   -0.1650070333782557E+01    0.0000000000000000E+00
    0.4086422318222992E+01   -0.4612828702537229E+00    0.0000000000000000E+00
    0.2979540174134984E+01   -0.8579242121530853E+00    0.0000000000000000E+00
    0.3045064261640043E+01   -0.1836846154397680E+01    0.0000000000000000E+00
    0.3428197553792836E+01    0.3508002863614053E+00    0.0000000000000000E+00
    0.4309693860063405E+01    0.5185680230613409E+00    0.0000000000000000E+00
    0.1827272193562204E+01    0.1738996113203182E+01    0.0000000000000000E+00
    0.2808563282768077E+01    0.1325493893339706E+01    0.0000000000000000E+00
    0.1895995683864404E+01   -0.8731419609589618E+00    0.0000000000000000E+00
    0.2273179336307740E+01    0.4906150219227333E-01    0.0000000000000000E+00
    0.5000000000000000E+01    0.2500000000000000E+01    0.1250000000000000E+01
    0.5000000000000000E+01    0.2500000000000000E+01    0.2500000000000000E+01
    0.5000000000000000E+01    0.2500000000000000E+01    0.3750000000000000E+01
    0.5000000000000000E+01    0.2500000000000000E+01    0.5000000000000000E+01
    0.3750000000000000E+01    0.2500000000000000E+01    0.5000000000000000E+01
    0.2500000000000000E+01    0.2500000000000000E+01    0.5000000000000000E+01
    0.1250000000000000E+01    0.2500000000000000E+01    0.5000000000000000E+01
    0.0000000000000000E+00    0.2500000000000000E+01    0.5000000000000000E+01
    0.0000000000000000E+00    0.2500000000000000E+01    0.3750000000000000E+01
    0.0000000000000000E+00    0.2500000000000000E+01    0.2500000000000000E+01
    0.0000000000000000E+00    0.2500000000000000E+01    0.1250000000000000E+01
    0.9631080833812172E+00    0.2500000000000000E+01    0.9613285771248219E+00
    0.3981732467264904E+01    0.2500000000000000E+01    0.4069753913607991E+01
    0.4035525118777670E+01    0.2500000000000000E+01    0.1012015867579395E+01
    0.9641717640894248E+00    0.2500000000000000E+01    0.3972455192261839E+01
    0.1547743040396780E+01    0.2500000000000000E+01    0.2928177746738678E+01
    0.6985170616192014E+00    0.2500000000000000E+01    0.3068281976055466E+01
    0.8931277594515110E+00    0.2500000000000000E+01    0.2052465503257726E+01
    0.2183293750162785E+01    0.2500000000000000E+01    0.3959073795658649E+01
    0.3855333506014705E+01    0.2500000000000000E+01    0.2931218481500625E+01
    0.3152495579421047E+01    0.2500000000000000E+01    0.3635850502723324E+01
    0.3103247580566054E+01    0.2500000000000000E+01    0.4331682712472464E+01
    0.3266837581688852E+01    0.2500000000000000E+01    0.1886092433583972E+01
    0.4231539241296245E+01    0.2500000000000000E+01    0.1915865356532799E+01
    0.1909741006522088E+01    0.2500000000000000E+01    0.7170024419130505E+00
    0.2880784107213163E+01    0.2500000000000000E+01    0.9046598906449592E+00
    0.2014316024535771E+01    0.2500000000000000E+01    0.1762464314805728E+01
    0.2670003247036656E+01    0.2500000000000000E+01    0.2850479545835163E+01
    0.5000000000000000E+01    0.1250000000000000E+01    0.5000000000000000E+01
    0.5000000000000000E+01    0.0000000000000000E+00    0.5000000000000000E+01
    0.5000000000000000E+01   -0.1250000000000000E+01    0.5000000000000000E+01
    0.5000000000000000E+01   -0.2500000000000000E+01    0.5000000000000000E+01
    0.5000000000000000E+01   -0.2500000000000000E+01    0.3750000000000000E+01
    0.5000000000000000E+01   -0.2500000000000000E+01    0.2500000000000000E+01
    0.5000000000000000E+01   -0.2500000000000000E+01    0.1250000000000000E+01
    0.5000000000000000E+01    0.1578994732800803E+01    0.9058375365086910E+00
    0.5000000000000000E+01   -0.1583989954232354E+01    0.3982050490726493E+01
    0.5000000000000000E+01    0.1453322699199022E+01    0.4033849428301197E+01
    0.5000000000000000E+01   -0.1479596339503735E+01    0.1040505887381675E+01
    0.5000000000000000E+01   -0.3227322616384110E+00    0.1099454400140349E+01
    0.5000000000000000E+01    0.6593508822075582E+00    0.7354504170366591E+00
    0.5000000000000000E+01    0.8256214013940779E+00    0.1622302608453282E+01
    0.5000000000000000E+01   -0.1650070333782557E+01    0.2145871574390382E+01
    0.5000000000000000E+01   -0.4612828702537229E+00    0.4086422318222992E+01
    0.5000000000000000E+01   -0.8579242121530853E+00    0.2979540174134984E+01
    0.5000000000000000E+01   -0.1836846154397680E+01    0.3045064261640043E+01
    0.5000000000000000E+01    0.3508002863614053E+00    0.3428197553792836E+01
    0.5000000000000000E+01    0.5185680230613409E+00    0.4309693860063405E+01
    0.5000000000000000E+01    0.1738996113203182E+01    0.1827272193562204E+01
    0.5000000000000000E+01    0.1325493893339706E+01    0.2808563282768077E+01
    0.5000000000000000E+01   -0.8731419609589618E+00    0.1895995683864404E+01
    0.5000000000000000E+01    0.4906150219227333E-01    0.2273179336307740E+01
    0.0000000000000000E+00    0.1250000000000000E+01    0.5000000000000000E+01
    0.0000000000000000E+00    0.0000000000000000E+00    0.5000000000000000E+01
    0.0000000000000000E+00   -0.1250000000000000E+01    0.5000000000000000E+01
    0.0000000000000000E+00   -0.2500000000000000E+01    0.5000000000000000E+01
    0.1250000000000000E+01   -0.2500000000000000E+01    0.5000000000000000E+01
    0.2500000000000000E+01   -0.2500000000000000E+01    0.5000000000000000E+01
    0.3750000000000000E+01   -0.2500000000000000E+01    0.5000000000000000E+01
    0.4042003247744892E+01    0.1558308132739014E+01    0.5000000000000000E+01
    0.9304122287900499E+00   -0.1548001304379777E+01    0.5000000000000000E+01
    0.1037243024609388E+01    0.1462892710085612E+01    0.5000000000000000E+01
    0.3946240828834967E+01   -0.1445243809615570E+01    0.5000000000000000E+01
    0.4092527262848217E+01   -0.3455338993778935E+00    0.5000000000000000E+01
    0.4293103109154542E+01    0.6277660831404320E+00    0.5000000000000000E+01
    0.3241512314643519E+01    0.7429886854239611E+00    0.5000000000000000E+01
    0.2844289952419609E+01   -0.1588117879734118E+01    0.5000000000000000E+01
    0.7159905765450471E+00   -0.6002320124191652E+00    0.5000000000000000E+01
    0.1754341919796891E+01   -0.7398147869923652E+00    0.5000000000000000E+01
    0.1870296826774691E+01   -0.1788622905643739E+01    0.5000000000000000E+01
    0.9220614901912976E+00    0.3083720183248586E+00    0.5000000000000000E+01
    0.3101523624086016E+01    0.1777901774806180E+01    0.5000000000000000E+01
    0.2192512063922564E+01    0.1576861561598471E+01    0.5000000000000000E+01
    0.2024793420196460E+01    0.4773861992750707E+00    0.5000000000000000E+01
    0.2990627757741975E+01   -0.4878110785814084E+00    0.5000000000000000E+01
    0.0000000000000000E+00   -0.2500000000000000E+01    0.1250000000000000E+01
    0.0000000000000000E+00   -0.2500000000000000E+01    0.2500000000000000E+01
    0.0000000000000000E+00   -0.2500000000000000E+01    0.3750000000000000E+01
    0.0000000000000000E+00    0.1558308132739014E+01    0.4042003247744892E+01
    0.0000000000000000E+00   -0.1548001304379777E+01    0.9304122287900499E+00
    0.0000000000000000E+00    0.1462892710085612E+01    0.1037243024609388E+01
    0.0000000000000000E+00   -0.1445243809615570E+01    0.3946240828834967E+01
    0.0000000000000000E+00   -0.3455338993778935E+00    0.4092527262848217E+01
    0.0000000000000000E+00    0.6277660831404320E+00    0.4293103109154542E+01
    0.0000000000000000E+00    0.7429886854239611E+00    0.3241512314643519E+01
    0.0000000000000000E+00   -0.1588117879734118E+01    0.2844289952419609E+01
    0.0000000000000000E+00   -0.6002320124191652E+00    0.7159905765450471E+00
    0.0000000000000000E+00   -0.7398147869923652E+00    0.1754341919796891E+01
    0.0000000000000000E+00   -0.1788622905643739E+01    0.1870296826774691E+01
    0.0000000000000000E+00    0.3083720183248586E+00    0.9220614901912976E+00
    0.0000000000000000E+00    0.1777901774806180E+01    0.3101523624086016E+01
    0.0000000000000000E+00    0.1576861561598471E+01    0.2192512063922564E+01
[...]
POINT_DATA 213
SCALARS rho double 1
LOOKUP_TABLE default
   0.1343965948327687E+01
   0.9576972724405743E+00
   0.9477448433817116E+00
   0.9438131421022107E+00
   0.8441009447846745E+00
   0.7733576787659853E+00
   0.7630128782156073E+00
   0.7656186365399573E+00
   0.8316614324339852E+00
   0.9369663676446961E+00
   0.9354398909556665E+00
   0.9614824089668272E+00
   0.1447869001085407E+01
   0.1492319193533560E+01
   0.1642809578499057E+01
   0.1425671982586481E+01
   0.1009386312404570E+01
   0.9522697469496584E+00
   0.9451727048057951E+00
   0.9577559802024447E+00
   0.9405678763995456E+00
   0.1035489930762493E+01
   0.9260511811262017E+00
   0.9335251636679289E+00
   0.9552381712128842E+00
   0.9537149682220318E+00
   0.9360594530900984E+00
   0.9578783248905781E+00
   0.9386202137355031E+00
   0.9312265798067418E+00
   0.9460891748188243E+00
   0.8867073875696995E+00
   0.9437960414403305E+00
   0.9641219443466335E+00
   0.1007296400317861E+01
   0.1006184778546202E+01
   0.1004574959151592E+01
   0.1005751422830292E+01
   0.1004610526724873E+01
   0.1005284910337485E+01
   0.1003004652564943E+01
   0.1008151398199435E+01
   0.1023748878022731E+01
   0.1062885649017449E+01
   0.1019113284291749E+01
   0.1001827819908661E+01
   0.9658918526177749E+00
   0.1005409935122499E+01
   0.1000775309877684E+01
   0.1008827306000755E+01
   0.1007918429971980E+01
   0.1002494199374662E+01
   0.9976014237251127E+00
   0.1000593571336617E+01
   0.1001865291917373E+01
   0.9828372185309615E+00
   0.9840878137272084E+00
   0.9841380494267208E+00
   0.9802128033506645E+00
   0.9905521802892631E+00
   0.9934998275935218E+00
   0.1004778244803467E+01
   0.1004767189130537E+01
   0.1005114321242776E+01
   0.1004850285851231E+01
   0.1009544109010373E+01
   0.1004699691135224E+01
   0.9559620064136977E+00
   0.9257182841850161E+00
   0.1007687731080413E+01
   0.1004499793542953E+01
   0.9151324653010237E+00
   0.9096292327576869E+00
   0.8762722996483477E+00
   0.9757629699372320E+00
   0.9987129104263167E+00
   0.1006335541478504E+01
   0.1010818859136711E+01
   0.1010129204838805E+01
   0.1009074518996411E+01
   0.1005937111812357E+01
   0.9900076149243774E+00
   0.1003829925647525E+01
   0.9846226060668348E+00
   0.1002837188180503E+01
   0.1003882860619822E+01
   0.1003215373540894E+01
   0.1003424138898157E+01
   0.1003738532081054E+01
   0.1005281661611920E+01
   0.1003265155508626E+01
   0.1004580560017011E+01
   0.1005196429245032E+01
   0.1004060719344544E+01
   0.1004546525205358E+01
   0.1003385890255128E+01
   0.1004519397481840E+01
   0.1005791657507092E+01
   0.1004686431627684E+01
   0.1003955411069012E+01
   0.1003135933405682E+01
   0.1004406797708542E+01
   0.1004217778662242E+01
   0.1003536250589201E+01
   0.1005309733105612E+01
   0.1004812133061061E+01
   0.1004741757817561E+01
   0.1004669787005112E+01
   0.1064928020611391E+01
   0.1028650829953478E+01
   0.1009537909641121E+01
   0.1006519332098066E+01
   0.1163380977375529E+01
   0.1086055351196903E+01
   0.1007820126128945E+01
   0.1007302541614451E+01
   0.1006711537519557E+01
   0.1012984940976763E+01
   0.1019259447394707E+01
   0.1234910550970777E+01
   0.1032980184735104E+01
   0.1046583637507400E+01
   0.1200461005512873E+01
   0.1014504356011439E+01
   0.1031892368067934E+01
   0.1028375141661633E+01
   0.1014845787953274E+01
   0.1029073305711265E+01
   0.1002080407313249E+01
   0.9621401802288949E+00
   0.1006807133992382E+01
   0.1001537961741601E+01
   0.1010605445761794E+01
   0.1012248904861754E+01
   0.1001047925086710E+01
   0.9972872452913940E+00
   0.9978249675345341E+00
   0.1001116544924233E+01
   0.9838204466733279E+00
   0.9808407238697305E+00
   0.9653613796505280E+00
   0.9688902715226294E+00
   0.9913867316592554E+00
   0.9913033736638714E+00
   0.9924499654425706E+00
   0.1001939550866891E+01
   0.9994944957698053E+00
   0.9940522237651891E+00
   0.1006988072733463E+01
   0.1022221194226680E+01
   0.1000742636422157E+01
   0.1008918713244879E+01
   0.1004949825685536E+01
   0.1009093554618572E+01
   0.9967232933560001E+00
   0.1004971619361299E+01
   0.1003543350603142E+01
   0.9949818722419973E+00
   0.9827942752013704E+00
   0.9939983479575465E+00
   0.9970549762889627E+00
   0.9919138356583221E+00
   0.1001240974495029E+01
   0.1003192427043947E+01
   0.1002174555917853E+01
   0.9936100683272151E+00
   0.9937194721617385E+00
   0.1005130361146559E+01
   0.1019813424860883E+01
   0.1005421270224354E+01
   0.9816989785013184E+00
   0.1005148094733250E+01
   0.1012366734853372E+01
   0.9872335995123935E+00
   0.9550246533322323E+00
   0.9860586846452349E+00
   0.9866043128236753E+00
   0.9925193421885157E+00
   0.9931308546364161E+00
   0.9948952520520939E+00
   0.1037296046331229E+01
   0.1033015714077028E+01
   0.1001454862027391E+01
   0.1002005181718623E+01
   0.9897996522579672E+00
   0.9907251147578342E+00
   0.9646455761177700E+00
   0.9920848214726956E+00
   0.1005418868895208E+01
   0.1001496628940284E+01
   0.9910386849312305E+00
   0.9741297630439824E+00
   0.9424060704479778E+00
   0.9820102495630819E+00
   0.9791544203043809E+00
   0.9713816135728808E+00
   0.9720530681684343E+00
   0.9554278766865838E+00
   0.9502413885019508E+00
   0.9545737764510296E+00
   0.1002932458005396E+01
   0.1002562230411251E+01
   0.1000541322956242E+01
   0.1001108797993697E+01
   0.9616592888935349E+00
   0.9512265322561764E+00
   0.9602851449298934E+00
   0.1000865689349220E+01
   0.1000324352230716E+01
   0.1000906465824611E+01
   0.9809417602253253E+00
   0.9805261759019881E+00
   0.9640837764035893E+00
SCALARS u double 1
LOOKUP_TABLE default
   0.0000000000000000E+00
   0.0000000000000000E+00
   0.0000000000000000E+00
   0.0000000000000000E+00
   0.0000000000000000E+00
   0.0000000000000000E+00
   0.0000000000000000E+00
   0.0000000000000000E+00
   0.0000000000000000E+00
   0.0000000000000000E+00
   0.0000000000000000E+00
   0.0000000000000000E+00
   0.0000000000000000E+00
   0.0000000000000000E+00
   0.0000000000000000E+00
   0.0000000000000000E+00
   0.0000000000000000E+00
   0.0000000000000000E+00
   0.0000000000000000E+00
   0.0000000000000000E+00
   0.0000000000000000E+00
   0.0000000000000000E+00
   0.0000000000000000E+00
   0.0000000000000000E+00
   0.0000000000000000E+00
   0.0000000000000000E+00
   0.0000000000000000E+00
   0.0000000000000000E+00
   0.0000000000000000E+00
   0.0000000000000000E+00
   0.0000000000000000E+00
   0.0000000000000000E+00
   0.0000000000000000E+00
   0.4956088293801787E+00
   0.5336028968190444E+00
   0.5184450481459532E+00
   0.4933133806268910E+00
   0.4841981493954470E+00
   0.4837170327942530E+00
   0.4863897389876309E+00
   0.4963079455325422E+00
   0.4896567688629270E+00
   0.4720672489773592E+00
   0.4463580845113693E+00
   0.4827649161827635E+00
   0.5089240084031315E+00
   0.4407506715832673E+00
   0.4944059179387436E+00
   0.5229414835008102E+00
   0.4962113331872043E+00
   0.5227252775087804E+00
   0.5032083735101122E+00
   0.5640222651483207E+00
   0.5252398845883394E+00
   0.4980203185515953E+00
   0.5719626553714919E+00
   0.5688065663593204E+00
   0.3730025258198689E+00
   0.4007150978342784E+00
   0.5587988176189039E+00
   0.5564435979855805E+00
   0.4946070205322020E+00
   0.4954020890604287E+00
   0.4937887068834385E+00
   0.4918952700928300E+00
   0.5164135094692263E+00
   0.5359192415240710E+00
   0.4957089570974335E+00
   0.4530920770059308E+00
   0.5123877364375378E+00
   0.5107432040650680E+00
   0.4790291063147687E+00
   0.4944626138205322E+00
   0.4614927614769130E+00
   0.5257659118048237E+00
   0.5298668676066117E+00
   0.5123506247409734E+00
   0.5330012237346747E+00
   0.5309373754231798E+00
   0.5300690747930881E+00
   0.5056169291006828E+00
   0.5285423544102243E+00
   0.5403389542970951E+00
   0.5368093474164159E+00
   0.5377911714503820E+00
   0.4974925004139654E+00
   0.4981163010280925E+00
   0.4967933546770668E+00
   0.4957441692203157E+00
   0.4878915032523533E+00
   0.4876185041409788E+00
   0.4855744438428231E+00
   0.4864380786666955E+00
   0.4916982563283913E+00
   0.4891553764827999E+00
   0.4852571565851607E+00
   0.4886306926628780E+00
   0.4891593045815953E+00
   0.4864820349996055E+00
   0.4864884606352070E+00
   0.4945747637640280E+00
   0.4872882738984279E+00
   0.4875772052464312E+00
   0.4930333115849665E+00
   0.4847489968034538E+00
   0.4867503338682689E+00
   0.4860741818268718E+00
   0.4863473324261662E+00
   0.4453025382548859E+00
   0.4698446892186859E+00
   0.4891585193205084E+00
   0.4880234327978373E+00
   0.4508541998933995E+00
   0.4675635720344419E+00
   0.4875638100753409E+00
   0.4867846706953007E+00
   0.4910070762950807E+00
   0.4794303213845280E+00
   0.4668009670578449E+00
   0.3794183386981178E+00
   0.4896737064255499E+00
   0.4493542217496620E+00
   0.4441330469715308E+00
   0.4845044467553666E+00
   0.4634869332838419E+00
   0.4670678939061699E+00
   0.4748190095633536E+00
   0.4893617546530342E+00
   0.5086596075547101E+00
   0.4339262720711198E+00
   0.4926474818572317E+00
   0.5329860892628463E+00
   0.4918407846481661E+00
   0.5207224502815375E+00
   0.5065004764256970E+00
   0.5670296823428056E+00
   0.5283167985629508E+00
   0.5014208326346636E+00
   0.5802774554903390E+00
   0.5677865476776520E+00
   0.3413713420072823E+00
   0.3799191818552965E+00
   0.5737491346110662E+00
   0.5664341419649649E+00
   0.5693347635737001E+00
   0.5290190587680327E+00
   0.5447941408485509E+00
   0.5714556246843095E+00
   0.5388201783077590E+00
   0.5474922103406605E+00
   0.5819849038559384E+00
   0.4927287447365025E+00
   0.5038081363859441E+00
   0.4963777808405886E+00
   0.5560551740364951E+00
   0.4759488675139422E+00
   0.4944703452658733E+00
   0.5492269732091770E+00
   0.5873511811149180E+00
   0.5827117376539480E+00
   0.5459119783624381E+00
   0.5779713467717549E+00
   0.5101703934278150E+00
   0.5024518108620007E+00
   0.5028207583921941E+00
   0.5662368372816411E+00
   0.5559265057196816E+00
   0.4944845327441807E+00
   0.5501273442408454E+00
   0.5508114154995141E+00
   0.5651747166008109E+00
   0.4913641466959655E+00
   0.4930968997135451E+00
   0.3887840310446846E+00
   0.3712671998116591E+00
   0.5569996398941028E+00
   0.5753868689670414E+00
   0.4190741675121351E+00
   0.5815029703885288E+00
   0.4282091012549044E+00
   0.5390672021828663E+00
   0.5018184739827217E+00
   0.5109974192147074E+00
   0.5042138096659620E+00
   0.5729366097013029E+00
   0.5854507375449974E+00
   0.5377005189542917E+00
   0.5657930585845362E+00
   0.5353592577829371E+00
   0.5338428450717236E+00
   0.5573228452572874E+00
   0.5505141604191013E+00
   0.4278589454702422E+00
   0.5263781253311358E+00
   0.5780468346512720E+00
   0.3349063550891005E+00
   0.4756038255582238E+00
   0.5450194242266668E+00
   0.4812880025339653E+00
   0.3028624670220921E+00
   0.5042224179774868E+00
   0.5010712478109826E+00
   0.5127451431285429E+00
   0.5402571477786294E+00
   0.3462531774356373E+00
   0.3437558832492001E+00
   0.3211894761015406E+00
   0.5065066594959480E+00
   0.5132480549527678E+00
   0.5328474635637397E+00
   0.5867050686719004E+00
   0.4641292925223577E+00
   0.3573061440780654E+00
SCALARS v double 1
LOOKUP_TABLE default
   0.0000000000000000E+00
   0.0000000000000000E+00
   0.0000000000000000E+00
   0.0000000000000000E+00
   0.0000000000000000E+00
   0.0000000000000000E+00
   0.0000000000000000E+00
   0.0000000000000000E+00
   0.0000000000000000E+00
   0.0000000000000000E+00
   0.0000000000000000E+00
   0.0000000000000000E+00
   0.0000000000000000E+00
   0.0000000000000000E+00
   0.0000000000000000E+00
   0.0000000000000000E+00
   0.0000000000000000E+00
   0.0000000000000000E+00
   0.0000000000000000E+00
   0.0000000000000000E+00
   0.0000000000000000E+00
   0.0000000000000000E+00
   0.0000000000000000E+00
   0.0000000000000000E+00
   0.0000000000000000E+00
   0.0000000000000000E+00
   0.0000000000000000E+00
   0.0000000000000000E+00
   0.0000000000000000E+00
   0.0000000000000000E+00
   0.0000000000000000E+00
   0.0000000000000000E+00
   0.0000000000000000E+00
   0.0000000000000000E+00
   0.0000000000000000E+00
   0.0000000000000000E+00
   0.0000000000000000E+00
   0.0000000000000000E+00
   0.0000000000000000E+00
   0.0000000000000000E+00
   0.0000000000000000E+00
   0.0000000000000000E+00
   0.0000000000000000E+00
   0.0000000000000000E+00
   0.0000000000000000E+00
   0.0000000000000000E+00
   0.0000000000000000E+00
   0.0000000000000000E+00
   0.0000000000000000E+00
   0.0000000000000000E+00
   0.0000000000000000E+00
   0.0000000000000000E+00
   0.0000000000000000E+00
   0.0000000000000000E+00
   0.0000000000000000E+00
   0.0000000000000000E+00
   0.0000000000000000E+00
   0.0000000000000000E+00
   0.0000000000000000E+00
   0.0000000000000000E+00
   0.0000000000000000E+00
   0.1110944815573246E-02
   0.8894062552056044E-04
  -0.2256231058818348E-03
   0.0000000000000000E+00
   0.0000000000000000E+00
   0.0000000000000000E+00
   0.0000000000000000E+00
  -0.1826596313786122E-01
   0.5203830454416206E-03
   0.1878491927558462E-02
   0.1416255084376272E-01
  -0.6501997707257082E-02
  -0.6389585926043770E-02
  -0.1279767692035360E-01
   0.4370092564369784E-02
   0.8687744411408615E-03
   0.2912660657423790E-02
   0.1721176748008655E-02
   0.2390060122299159E-02
   0.1806295120713129E-02
  -0.7239135550362034E-02
  -0.7923523048288532E-03
   0.3835177453089385E-02
  -0.1118304162267411E-02
  -0.4335735632036060E-03
  -0.4122207921418541E-03
   0.8238327688194996E-03
   0.0000000000000000E+00
   0.0000000000000000E+00
   0.0000000000000000E+00
   0.0000000000000000E+00
   0.7713153093621869E-03
   0.1446855550631624E-02
  -0.1432454288275216E-02
  -0.1830682019232357E-03
  -0.6368229020529550E-03
   0.1554238912063146E-06
   0.1570368892442804E-03
  -0.1281326122122186E-03
  -0.1980906523380008E-03
  -0.5812876154489016E-03
   0.8187273743261016E-03
  -0.2009822771266864E-02
   0.6577135406153530E-03
   0.2670102312895069E-03
  -0.4122143318464849E-03
  -0.4041753000659664E-03
   0.0000000000000000E+00
   0.0000000000000000E+00
   0.0000000000000000E+00
  -0.8245146666339282E-03
  -0.7840960729325986E-02
   0.1754776417489314E-01
  -0.2303297926402449E-03
  -0.1392075951726784E-02
  -0.2132240657031235E-02
  -0.5225451647977958E-02
  -0.1867543397621300E-02
  -0.6503281606401465E-02
  -0.4080685676784971E-02
   0.1637819173597702E-02
   0.3279795326541463E-01
   0.3403925928161598E-04
  -0.2137299786268526E-02
   0.4117273060639052E-02
   0.3975299180362773E-03
   0.0000000000000000E+00
   0.0000000000000000E+00
   0.0000000000000000E+00
   0.0000000000000000E+00
   0.0000000000000000E+00
   0.0000000000000000E+00
   0.0000000000000000E+00
   0.0000000000000000E+00
   0.0000000000000000E+00
   0.0000000000000000E+00
   0.0000000000000000E+00
   0.0000000000000000E+00
   0.0000000000000000E+00
   0.0000000000000000E+00
   0.0000000000000000E+00
   0.0000000000000000E+00
   0.0000000000000000E+00
   0.4616975272245543E-02
   0.3357845440064541E-02
   0.8115582435673055E-02
   0.5759262584535157E-02
   0.1133093143859478E-01
   0.1381895410190749E-01
  -0.1135117494654044E-02
   0.5476402065749842E-02
   0.3081290786607948E-02
   0.3702009379254186E-02
   0.3533065064517663E-02
  -0.1539744609482708E-01
  -0.6072391912886639E-03
   0.6600773105105095E-02
   0.1225967961807931E-02
   0.2048811015331037E-02
   0.4111602318352699E-02
  -0.2954721288306835E-02
   0.1551222816705924E-02
   0.3142034587220237E-02
   0.1844151282592600E-02
   0.1980344511647378E-02
   0.1905421349781702E-02
   0.2340303349214417E-02
   0.8854545387500959E-02
  -0.3596672704405028E-02
   0.6173453789010281E-02
  -0.2538595917267508E-04
  -0.5217188864308697E-03
  -0.1694694251723801E-01
  -0.5238548289850403E-02
  -0.5401911970770877E-02
   0.3390623058917291E-02
  -0.6456337827980154E-02
  -0.2496865809838867E-03
  -0.3423380028905237E-01
  -0.2794928475519369E-02
   0.4829281618365347E-02
   0.1165738655439556E-02
   0.2409666440341250E-02
   0.3800483128600934E-02
   0.2521483324164087E-02
   0.2787006722923113E-02
   0.4652276088021628E-02
   0.1860294831204782E-02
   0.5598145204631115E-03
   0.1109449346041976E-03
  -0.5015274295462628E-02
  -0.6123223415105034E-02
  -0.7179794017834831E-03
   0.7534682357732238E-03
  -0.1629172405488236E-02
  -0.3315608066275869E-02
  -0.2686692892216832E-02
  -0.4637902063199845E-02
  -0.7870486808669221E-02
  -0.1984609520035369E-02
   0.7342676628285436E-03
  -0.4820010517835171E-04
   0.8017466788234807E-03
  -0.3054426256054839E-02
   0.5726048319070105E-02
  -0.8604835716979134E-02
   0.1214044342894789E-03
  -0.2437893741065041E-03
   0.2381684866963094E-02
   0.1773419300175535E-02
   0.2220241672414198E-02
  -0.5479036136433977E-02
SCALARS w double 1
LOOKUP_TABLE default
   0.0000000000000000E+00
   0.0000000000000000E+00
   0.0000000000000000E+00
   0.0000000000000000E+00
   0.0000000000000000E+00
   0.0000000000000000E+00
   0.0000000000000000E+00
   0.0000000000000000E+00
   0.0000000000000000E+00
   0.0000000000000000E+00
   0.0000000000000000E+00
   0.0000000000000000E+00
   0.0000000000000000E+00
   0.0000000000000000E+00
   0.0000000000000000E+00
   0.0000000000000000E+00
   0.0000000000000000E+00
   0.0000000000000000E+00
   0.0000000000000000E+00
   0.0000000000000000E+00
   0.0000000000000000E+00
   0.0000000000000000E+00
   0.0000000000000000E+00
   0.0000000000000000E+00
   0.0000000000000000E+00
   0.0000000000000000E+00
   0.0000000000000000E+00
   0.0000000000000000E+00
   0.0000000000000000E+00
   0.0000000000000000E+00
   0.0000000000000000E+00
   0.0000000000000000E+00
   0.0000000000000000E+00
  -0.9793387954387800E-01
  -0.4158652148307816E-01
  -0.2643203991869208E-03
   0.4776968880905550E-02
   0.2336530751534606E-02
   0.2066946050121548E-02
   0.3698109180722892E-02
   0.4497601583262366E-02
   0.8752498089314277E-03
   0.3710510072899302E-02
   0.4555783561135963E-01
   0.6454513470457926E-01
   0.1417952628396778E-02
  -0.2246873542870244E-01
   0.4383442894456069E-02
   0.1306963503901251E-01
   0.1014724315852019E-01
   0.4836323664693176E-01
   0.2042153125755878E-02
  -0.5983567884520723E-02
  -0.3671690186065583E-03
   0.6866344971253095E-03
   0.3705292037531224E-02
  -0.3772537574002238E-01
   0.1772882113801750E-01
   0.1080267791220750E-01
   0.3306513028791862E-01
   0.8295031821744209E-02
   0.4265551499413494E-02
   0.4617427832559828E-02
   0.4884783196552157E-02
   0.5663977692908519E-02
   0.1691087612209019E-02
  -0.4052102438032428E-01
  -0.9691550309475934E-01
  -0.1096890452794953E+00
   0.4373725551290977E-02
   0.2875302911312510E-02
  -0.9736388350549829E-01
  -0.9617761339934727E-01
  -0.9618032431467463E-01
  -0.9224873826969443E-01
  -0.6624934350750020E-01
   0.3937943017473073E-02
  -0.1958109091564631E-01
  -0.1613555036324708E-01
  -0.7363644454788965E-02
   0.5393789410142704E-02
  -0.7799400447460242E-01
  -0.2811874350745751E-01
  -0.7850874749659796E-01
  -0.5795367645837187E-01
   0.4480258437695606E-02
   0.3182641440849064E-02
   0.3181670246679931E-02
   0.4452986718042251E-02
   0.3707631436954736E-02
   0.9145222838332265E-03
   0.1024229712098729E-02
   0.3497665065277123E-02
   0.5421220683224415E-02
   0.4199488919228333E-02
   0.3488250553823665E-02
   0.1479916606706642E-02
   0.3869357600356865E-02
   0.1323526765884643E-02
   0.4042514317237721E-03
   0.5468667764626002E-02
   0.2804195972188827E-02
   0.2554744631035031E-02
   0.5857587069967672E-02
   0.1779115718886739E-02
   0.2308782570154254E-02
   0.2015539980003350E-02
   0.8912499311043764E-03
   0.8439718077731137E-01
   0.2689248651328217E-02
  -0.8532159991739825E-03
   0.2965012753006513E-03
   0.1406940835030664E+00
   0.1228215745529924E+00
  -0.1103850500760691E-02
  -0.4226934005370300E-02
   0.1938023434765247E-03
  -0.6072658494302121E-02
  -0.1406601270572639E-02
   0.1562297182060298E+00
   0.7533013557787034E-01
   0.2578699958097780E-01
   0.1655557627237274E+00