title="tecplot geometry and solution file"
variables = x y z rho u v w p mach temperature
zone t="boundary 1 bc-1", solutiontime= 0.7000000E+02, strandid=1001, i=32, j=46, f=feblock
  0.000000000000E+00  0.000000000000E+00  0.000000000000E+00  0.000000000000E+00  0.000000000000E+00  0.000000000000E+00  0.000000000000E+00
  0.000000000000E+00  0.000000000000E+00  0.000000000000E+00  0.000000000000E+00  0.000000000000E+00  0.000000000000E+00  0.000000000000E+00
  0.000000000000E+00  0.000000000000E+00  0.000000000000E+00  0.000000000000E+00  0.000000000000E+00  0.000000000000E+00  0.000000000000E+00
  0.000000000000E+00  0.000000000000E+00  0.000000000000E+00  0.000000000000E+00  0.000000000000E+00  0.000000000000E+00  0.000000000000E+00
  0.000000000000E+00  0.000000000000E+00  0.000000000000E+00  0.000000000000E+00
  0.250000000000E+01  0.250000000000E+01  0.125000000000E+01  0.146289271009E+01  0.157686156160E+01  0.308372018325E+00  0.000000000000E+00
 -0.125000000000E+01 -0.600232012419E+00  0.250000000000E+01  0.477386199275E+00  0.742988685424E+00 -0.739814786992E+00  0.177790177481E+01
  0.155830813274E+01  0.250000000000E+01 -0.250000000000E+01 -0.154800130438E+01 -0.487811078581E+00  0.250000000000E+01  0.627766083140E+00
 -0.345533899378E+00 -0.178862290564E+01 -0.158811787973E+01  0.125000000000E+01 -0.250000000000E+01 -0.144524380962E+01  0.000000000000E+00
 -0.125000000000E+01 -0.250000000000E+01 -0.250000000000E+01 -0.250000000000E+01
  0.000000000000E+00  0.125000000000E+01  0.000000000000E+00  0.103724302461E+01  0.219251206392E+01  0.922061490191E+00  0.000000000000E+00
  0.000000000000E+00  0.715990576545E+00  0.250000000000E+01  0.202479342020E+01  0.324151231464E+01  0.175434191980E+01  0.310152362409E+01
  0.404200324774E+01  0.375000000000E+01  0.000000000000E+00  0.930412228790E+00  0.299062775774E+01  0.500000000000E+01  0.429310310915E+01
  0.409252726285E+01  0.187029682677E+01  0.284428995242E+01  0.500000000000E+01  0.125000000000E+01  0.394624082883E+01  0.500000000000E+01
  0.500000000000E+01  0.250000000000E+01  0.375000000000E+01  0.500000000000E+01
  0.134427143047E+01  0.106355395577E+01  0.142583203818E+01  0.108608796964E+01  0.103229115249E+01  0.120095363976E+01  0.164466726225E+01
  0.149409063308E+01  0.123520366642E+01  0.102389313725E+01  0.102809523572E+01  0.101301828636E+01  0.103252946642E+01  0.101471891561E+01
  0.100663883720E+01  0.100830818967E+01  0.144945744016E+01  0.116393552051E+01  0.101462863928E+01  0.100426040806E+01  0.100679807390E+01
  0.100724553304E+01  0.104668119074E+01  0.101938460898E+01  0.100424800552E+01  0.106442280072E+01  0.100789341899E+01  0.100288843752E+01
  0.100334542029E+01  0.102847362079E+01  0.100958665704E+01  0.100399273171E+01
  0.000000000000E+00  0.445481415952E+00  0.000000000000E+00  0.468737857024E+00  0.462182265231E+00  0.443613740376E+00  0.000000000000E+00
  0.000000000000E+00  0.379272524502E+00  0.471738850059E+00  0.466574954163E+00  0.479355158229E+00  0.490159653216E+00  0.484514724570E+00
  0.488524784693E+00  0.489830188741E+00  0.000000000000E+00  0.450653305510E+00  0.474814030476E+00  0.495784888269E+00  0.490899471874E+00
  0.486835368654E+00  0.448668669721E+00  0.465807175249E+00  0.496536482071E+00  0.444686658399E+00  0.487701045996E+00  0.497534090582E+00
  0.496384264641E+00  0.470002878583E+00  0.489199905960E+00  0.495522026957E+00
  0.000000000000E+00  0.000000000000E+00  0.000000000000E+00  0.186085477759E-01 -0.276688501094E-02  0.332952480008E-01  0.000000000000E+00
  0.000000000000E+00 -0.594701628874E-02  0.000000000000E+00  0.356648466925E-02 -0.566638317627E-02 -0.416060179273E-02  0.305513893218E-04
 -0.106175911219E-02  0.000000000000E+00  0.000000000000E+00 -0.764112891600E-02  0.359618993535E-03  0.000000000000E+00 -0.203512294041E-02
 -0.138312912142E-02  0.156561486664E-02 -0.158521017230E-02 -0.638374139622E-04  0.000000000000E+00 -0.283455218399E-04 -0.196339456811E-03
  0.807126784897E-03  0.000000000000E+00  0.000000000000E+00  0.000000000000E+00
  0.000000000000E+00  0.452181749501E-01  0.000000000000E+00  0.123933293920E+00  0.247647170611E-01  0.165644510303E+00  0.000000000000E+00
  0.000000000000E+00  0.155763095695E+00  0.351822593284E-02  0.259783171288E-01 -0.651224685645E-02  0.748997912349E-01  0.371839285062E-02
 -0.149294598495E-03  0.459062461492E-03  0.000000000000E+00  0.140954083044E+00 -0.808565311052E-02  0.237177354976E-02 -0.304305818482E-03
 -0.438193608262E-02  0.255017489157E-01 -0.194957035818E-02  0.308362559599E-02  0.837461424265E-01 -0.121909333204E-02  0.268514639293E-02
  0.264043109814E-02  0.279387069755E-02 -0.834662822282E-03  0.345019183170E-02
  0.960184566652E+00  0.782340561701E+00  0.101844204661E+01  0.808726657484E+00  0.746125891552E+00  0.879446498004E+00  0.117475225076E+01
  0.106719924034E+01  0.916620145451E+00  0.737395238356E+00  0.743553972032E+00  0.725759210985E+00  0.757455250360E+00  0.729188343323E+00
  0.720785048008E+00  0.722781670651E+00  0.103531921110E+01  0.858317139981E+00  0.728065072981E+00  0.718615293725E+00  0.721013448557E+00
  0.721151586903E+00  0.760018785747E+00  0.732628403125E+00  0.718531161473E+00  0.791043235093E+00  0.722107949573E+00  0.717199382914E+00
  0.717636870721E+00  0.741799736973E+00  0.724056579846E+00  0.718400634481E+00
  0.000000000000E+00  0.441238348997E+00  0.000000000000E+00  0.475214987161E+00  0.460123709645E+00  0.468827815932E+00  0.000000000000E+00
  0.000000000000E+00  0.402302517758E+00  0.469814975118E+00  0.464411129738E+00  0.478714034809E+00  0.489298241883E+00  0.483068558416E+00
  0.487930073496E+00  0.488961655025E+00  0.000000000000E+00  0.464775722046E+00  0.473795652511E+00  0.495346592281E+00  0.490266103765E+00
  0.486286084274E+00  0.445717618847E+00  0.464382275274E+00  0.496127395149E+00  0.443624104203E+00  0.486964462332E+00  0.497246279980E+00
  0.496059271115E+00  0.467732356029E+00  0.488212087734E+00  0.495098265053E+00
  0.999990301695E+00  0.102982719442E+01  0.999990761236E+00  0.104247294153E+01  0.101190080498E+01  0.102520618319E+01  0.999991420034E+00
  0.999992171429E+00  0.103891223651E+01  0.100826277288E+01  0.101252833850E+01  0.100300548279E+01  0.102702865632E+01  0.100605563270E+01
  0.100244400466E+01  0.100355660033E+01  0.999992725125E+00  0.103239739212E+01  0.100459524077E+01  0.100179336270E+01  0.100260305830E+01
  0.100234966406E+01  0.101657153053E+01  0.100617544678E+01  0.100168844801E+01  0.104043292607E+01  0.100303376364E+01  0.100118726920E+01
  0.100134171014E+01  0.100976788395E+01  0.100405369338E+01  0.100176112487E+01
        12        19        11        11
        11         5        12        12
        10        14         5         5
        19        13        11        11
        19        24        13        13
        30        23        24        24
        19        12        22        22
        28        22        21        21
        11        13         6         6
         7         6         9         9
        15        12        14        14
        18        13        23        23
        15        25        21        21
        27        19        22        22
        18         8         9         9
        27        31        24        24
         4        11         6         6
         5        14        12        12
         4         2         5         5
        21        12        15        15
        14        16        15        15
        24        19        27        27
        22        29        27        27
        23        26        18        18
        17         8        18        18
         5        11         4         4
         6         3         4         4
        26        23        30        30
         5         2        10        10
        16        14        10        10
         3         6         7         7
        21        25        28        28
        29        22        28        28
         6        13         9         9
         2         4         1         1
        31        27        32        32
        25        15        20        20
        24        23        13        13
         8         7         9         9
        13        18         9         9
        31        30        24        24
        12        21        22        22
        29        32        27        27
         3         1         4         4
        26        17        18        18
        16        20        15        15
zone t="boundary 2 bc-2", solutiontime= 0.7000000E+02, strandid=1002, i=33, j=48, f=feblock
  0.500000000000E+01  0.375000000000E+01  0.250000000000E+01  0.288078410721E+01  0.125000000000E+01  0.190974100652E+01  0.326683758169E+01
  0.201431602454E+01  0.000000000000E+00  0.963108083381E+00  0.500000000000E+01  0.403552511878E+01  0.423153924130E+01  0.500000000000E+01
  0.385533350601E+01  0.500000000000E+01  0.398173246726E+01  0.315249557942E+01  0.267000324704E+01  0.154774304040E+01  0.218329375016E+01
  0.893127759452E+00  0.000000000000E+00  0.698517061619E+00  0.964171764089E+00  0.310324758057E+01  0.000000000000E+00  0.000000000000E+00
  0.125000000000E+01  0.500000000000E+01  0.375000000000E+01  0.250000000000E+01  0.000000000000E+00
 -0.250000000000E+01 -0.250000000000E+01 -0.250000000000E+01 -0.250000000000E+01 -0.250000000000E+01 -0.250000000000E+01 -0.250000000000E+01
 -0.250000000000E+01 -0.250000000000E+01 -0.250000000000E+01 -0.250000000000E+01 -0.250000000000E+01 -0.250000000000E+01 -0.250000000000E+01
 -0.250000000000E+01 -0.250000000000E+01 -0.250000000000E+01 -0.250000000000E+01 -0.250000000000E+01 -0.250000000000E+01 -0.250000000000E+01
 -0.250000000000E+01 -0.250000000000E+01 -0.250000000000E+01 -0.250000000000E+01 -0.250000000000E+01 -0.250000000000E+01 -0.250000000000E+01
 -0.250000000000E+01 -0.250000000000E+01 -0.250000000000E+01 -0.250000000000E+01 -0.250000000000E+01
  0.000000000000E+00  0.000000000000E+00  0.000000000000E+00  0.904659890645E+00  0.000000000000E+00  0.717002441913E+00  0.188609243358E+01
  0.176246431481E+01  0.000000000000E+00  0.961328577125E+00  0.125000000000E+01  0.101201586758E+01  0.191586535653E+01  0.250000000000E+01
  0.293121848150E+01  0.375000000000E+01  0.406975391361E+01  0.363585050272E+01  0.285047954584E+01  0.292817774674E+01  0.395907379566E+01
  0.205246550326E+01  0.125000000000E+01  0.306828197606E+01  0.397245519226E+01  0.433168271247E+01  0.250000000000E+01  0.375000000000E+01
  0.500000000000E+01  0.500000000000E+01  0.500000000000E+01  0.500000000000E+01  0.500000000000E+01
  0.830787399174E+00  0.935297252615E+00  0.934221979132E+00  0.968087711357E+00  0.961719525544E+00  0.964848330665E+00  0.984136200807E+00
  0.991412446814E+00  0.144945744016E+01  0.102921689190E+01  0.955878695006E+00  0.960692918191E+00  0.981487961156E+00  0.100642910901E+01
  0.997912123342E+00  0.100977863887E+01  0.100199481622E+01  0.998063237113E+00  0.991085838722E+00  0.100132719312E+01  0.100094600669E+01
  0.101224609862E+01  0.106442280072E+01  0.101082190503E+01  0.100685258253E+01  0.100118414317E+01  0.102847362079E+01  0.100958665704E+01
  0.100510171594E+01  0.100179475822E+01  0.100266315977E+01  0.100321164492E+01  0.100399273171E+01
  0.000000000000E+00  0.000000000000E+00  0.000000000000E+00  0.378986941608E+00  0.000000000000E+00  0.340639444354E+00  0.582179008822E+00
  0.575195820546E+00  0.000000000000E+00  0.489449421120E+00  0.494741336592E+00  0.431507388082E+00  0.568961825482E+00  0.536179830295E+00
  0.568879739404E+00  0.516235684845E+00  0.508555697338E+00  0.527399281786E+00  0.566648549232E+00  0.531828923417E+00  0.506096460125E+00
  0.520701999439E+00  0.444686658399E+00  0.491339919898E+00  0.492734936391E+00  0.501504484317E+00  0.470002878583E+00  0.489199905960E+00
  0.490458183457E+00  0.491426954412E+00  0.486218276694E+00  0.490304438883E+00  0.495522026957E+00
  0.000000000000E+00  0.000000000000E+00  0.000000000000E+00  0.000000000000E+00  0.000000000000E+00  0.000000000000E+00  0.000000000000E+00
  0.000000000000E+00  0.000000000000E+00  0.000000000000E+00  0.000000000000E+00  0.000000000000E+00  0.000000000000E+00  0.000000000000E+00
  0.000000000000E+00  0.000000000000E+00  0.000000000000E+00  0.000000000000E+00  0.000000000000E+00  0.000000000000E+00  0.000000000000E+00
  0.000000000000E+00  0.000000000000E+00  0.000000000000E+00  0.000000000000E+00  0.000000000000E+00  0.000000000000E+00  0.000000000000E+00
  0.000000000000E+00  0.000000000000E+00  0.000000000000E+00  0.000000000000E+00  0.000000000000E+00
  0.000000000000E+00  0.000000000000E+00  0.000000000000E+00 -0.229669073945E-02  0.000000000000E+00  0.183565245339E-01  0.121122184152E-01
  0.454986540098E-01  0.000000000000E+00  0.870789623830E-01 -0.995426195918E-01 -0.211864970538E-01 -0.306441475959E-01 -0.414442964652E-01
 -0.137883095669E-02  0.259919154988E-02  0.609478350551E-03  0.503572635803E-03  0.150967298838E-01  0.284025715709E-01  0.564163841166E-02
  0.553419828191E-01  0.837461424265E-01  0.110441019456E-01  0.679169169117E-02 -0.758116105905E-03  0.279387069755E-02 -0.834662822282E-03
  0.400708361850E-02  0.602719164166E-02 -0.143884777431E-03  0.120121414166E-02  0.345019183170E-02
  0.593415708100E+00  0.668065252900E+00  0.667297107202E+00  0.684257572167E+00  0.686937806243E+00  0.679201335829E+00  0.695811645171E+00
  0.702343852945E+00  0.103531921110E+01  0.723694676140E+00  0.672591690162E+00  0.675702733940E+00  0.694093188604E+00  0.720959962381E+00
  0.712691281664E+00  0.724770829728E+00  0.716580562804E+00  0.713298991860E+00  0.706429557369E+00  0.717737238678E+00  0.715376602242E+00
  0.730937674588E+00  0.791043235093E+00  0.724372849605E+00  0.721010721124E+00  0.715457540539E+00  0.741799736973E+00  0.724056579846E+00
  0.719312937851E+00  0.715892799079E+00  0.716608904840E+00  0.717367939256E+00  0.718400634481E+00
  0.000000000000E+00  0.000000000000E+00  0.000000000000E+00  0.380991906904E+00  0.000000000000E+00  0.343629824819E+00  0.585286157663E+00
  0.579373264076E+00  0.000000000000E+00  0.501056068182E+00  0.508460363801E+00  0.435373027604E+00  0.572640041588E+00  0.537002098735E+00
  0.568922553785E+00  0.514994090372E+00  0.508247257174E+00  0.527252853166E+00  0.567446661062E+00  0.531657143961E+00  0.505981016822E+00
  0.520795579558E+00  0.443624104203E+00  0.490663730802E+00  0.492155874085E+00  0.501390784901E+00  0.467732356029E+00  0.488212087734E+00
  0.490002767521E+00  0.491352304725E+00  0.486075475541E+00  0.490036479664E+00  0.495098265053E+00
  0.999993490712E+00  0.999993693391E+00  0.999993546449E+00  0.989539057047E+00  0.999993140616E+00  0.985524708847E+00  0.989838908925E+00
  0.991798516634E+00  0.999992725125E+00  0.984411113504E+00  0.985091906689E+00  0.984689081812E+00  0.990058464804E+00  0.100289621822E+01
  0.999855369016E+00  0.100485306636E+01  0.100121554691E+01  0.100055642916E+01  0.997896793271E+00  0.100350029546E+01  0.100058068712E+01
  0.101093276212E+01  0.104043292607E+01  0.100326475357E+01  0.100254498730E+01  0.100045587377E+01  0.100976788395E+01  0.100405369338E+01
  0.100192656825E+01  0.100045434505E+01  0.100058774175E+01  0.100109993743E+01  0.100176112487E+01
        15         7        19        19
         8        20        19        19
        18        19        21        21
         7         4         8         8
         3         6         4         4
        19         7         8         8
        19        18        15        15
        14        13        15        15
         8        22        20        20
        27        24        22        22
        19        20        21        21
        32        26        21        21
        17        18        26        26
        17        16        15        15
        25        29        21        21
        12         7        13        13
        10         8         6         6
        25        20        24        24
         4         6         8         8
        12         2         4         4
        10        23        22        22
        26        31        17        17
        30        16        17        17
         4         7        12        12
        13        11        12        12
        21        20        25        25
        24        28        25        25
        22         8        10        10
         6         5        10        10
        31        26        32        32
         4         2         3         3
         5         6         3         3
        11        13        14        14
        22        23        27        27
        28        24        27        27
        15        13         7         7
         2        12         1         1
        29        25        33        33
        23        10         9         9
        21        26        18        18
        16        14        15        15
        18        17        15        15
        29        32        21        21
        22        24        20        20
        28        33        25        25
        11         1        12        12
        31        30        17        17
         5         9        10        10
zone t="boundary 3 bc-3", solutiontime= 0.7000000E+02, strandid=1003, i=33, j=48, f=feblock
  0.375000000000E+01  0.250000000000E+01  0.500000000000E+01  0.403552511878E+01  0.288078410721E+01  0.125000000000E+01  0.190974100652E+01
  0.500000000000E+01  0.326683758169E+01  0.423153924130E+01  0.201431602454E+01  0.000000000000E+00  0.963108083381E+00  0.500000000000E+01
  0.267000324704E+01  0.385533350601E+01  0.893127759452E+00  0.154774304040E+01  0.000000000000E+00  0.500000000000E+01  0.315249557942E+01
  0.218329375016E+01  0.398173246726E+01  0.000000000000E+00  0.698517061619E+00  0.964171764089E+00  0.125000000000E+01  0.000000000000E+00
  0.500000000000E+01  0.310324758057E+01  0.250000000000E+01  0.375000000000E+01  0.000000000000E+00
  0.250000000000E+01  0.250000000000E+01  0.250000000000E+01  0.250000000000E+01  0.250000000000E+01  0.250000000000E+01  0.250000000000E+01
  0.250000000000E+01  0.250000000000E+01  0.250000000000E+01  0.250000000000E+01  0.250000000000E+01  0.250000000000E+01  0.250000000000E+01
  0.250000000000E+01  0.250000000000E+01  0.250000000000E+01  0.250000000000E+01  0.250000000000E+01  0.250000000000E+01  0.250000000000E+01
  0.250000000000E+01  0.250000000000E+01  0.250000000000E+01  0.250000000000E+01  0.250000000000E+01  0.250000000000E+01  0.250000000000E+01
  0.250000000000E+01  0.250000000000E+01  0.250000000000E+01  0.250000000000E+01  0.250000000000E+01
  0.000000000000E+00  0.000000000000E+00  0.000000000000E+00  0.101201586758E+01  0.904659890645E+00  0.000000000000E+00  0.717002441913E+00
  0.125000000000E+01  0.188609243358E+01  0.191586535653E+01  0.176246431481E+01  0.000000000000E+00  0.961328577125E+00  0.250000000000E+01
  0.285047954584E+01  0.293121848150E+01  0.205246550326E+01  0.292817774674E+01  0.125000000000E+01  0.375000000000E+01  0.363585050272E+01
  0.395907379566E+01  0.406975391361E+01  0.250000000000E+01  0.306828197606E+01  0.397245519226E+01  0.500000000000E+01  0.375000000000E+01
  0.500000000000E+01  0.433168271247E+01  0.500000000000E+01  0.500000000000E+01  0.500000000000E+01
  0.941861268075E+00  0.946296417356E+00  0.843730484591E+00  0.964330991775E+00  0.978820739103E+00  0.956975888580E+00  0.983331401381E+00
  0.963500306271E+00  0.982689306688E+00  0.984243963532E+00  0.990263815520E+00  0.134427143047E+01  0.101918251104E+01  0.100829903937E+01
  0.993456155182E+00  0.997998684757E+00  0.100807808348E+01  0.100072116310E+01  0.106355395577E+01  0.100673529189E+01  0.100058356081E+01
  0.100234980685E+01  0.100178076628E+01  0.102389313725E+01  0.100874208341E+01  0.100528370869E+01  0.100522860269E+01  0.100830818967E+01
  0.100196461746E+01  0.100162012341E+01  0.100413205368E+01  0.100321958128E+01  0.100426040806E+01
  0.000000000000E+00  0.000000000000E+00  0.000000000000E+00  0.439071271171E+00  0.399865812717E+00  0.000000000000E+00  0.373794144324E+00
  0.495017684960E+00  0.573056190089E+00  0.569605109898E+00  0.559932658333E+00  0.000000000000E+00  0.483390703805E+00  0.533822129748E+00
  0.556458762956E+00  0.564688360704E+00  0.522615496530E+00  0.522533036356E+00  0.445481415952E+00  0.518326924381E+00  0.524750915708E+00
  0.503888174543E+00  0.509839746271E+00  0.471738850059E+00  0.496245454895E+00  0.494940396781E+00  0.489076358724E+00  0.489830188741E+00
  0.493064988016E+00  0.499146612183E+00  0.486766642792E+00  0.484757872256E+00  0.495784888269E+00
  0.000000000000E+00  0.000000000000E+00  0.000000000000E+00  0.000000000000E+00  0.000000000000E+00  0.000000000000E+00  0.000000000000E+00
  0.000000000000E+00  0.000000000000E+00  0.000000000000E+00  0.000000000000E+00  0.000000000000E+00  0.000000000000E+00  0.000000000000E+00
  0.000000000000E+00  0.000000000000E+00  0.000000000000E+00  0.000000000000E+00  0.000000000000E+00  0.000000000000E+00  0.000000000000E+00
  0.000000000000E+00  0.000000000000E+00  0.000000000000E+00  0.000000000000E+00  0.000000000000E+00  0.000000000000E+00  0.000000000000E+00
  0.000000000000E+00  0.000000000000E+00  0.000000000000E+00  0.000000000000E+00  0.000000000000E+00
  0.000000000000E+00  0.000000000000E+00  0.000000000000E+00 -0.226115186832E-01  0.111963818549E-01  0.000000000000E+00  0.179816806542E-01
 -0.100761230093E+00  0.390410701590E-02 -0.389325437410E-01  0.340377320661E-01  0.000000000000E+00  0.652293766151E-01 -0.424929721123E-01
  0.843880990619E-02 -0.650994147443E-02  0.490054836239E-01  0.135873481073E-01  0.452181749501E-01  0.737198320990E-03 -0.701222986684E-03
  0.243744330517E-02  0.868929510259E-03  0.351822593284E-02  0.103945253453E-01  0.431655336508E-02  0.337507283320E-02  0.459062461492E-03
  0.572579986535E-02  0.341101460618E-03  0.160978293687E-02  0.569905634593E-03  0.237177354976E-02
  0.672750878889E+00  0.675918855758E+00  0.602658382331E+00  0.676093764854E+00  0.691308921162E+00  0.683547254708E+00  0.690066482696E+00
  0.677274859780E+00  0.695201827551E+00  0.696250865589E+00  0.703344068384E+00  0.960184566652E+00  0.719726358708E+00  0.722866646063E+00
  0.709447758838E+00  0.713700946481E+00  0.726067413532E+00  0.716602922423E+00  0.782340561701E+00  0.722284532267E+00  0.716128636686E+00
  0.716551643490E+00  0.716546536045E+00  0.737395238356E+00  0.722682910568E+00  0.719441263879E+00  0.719566095113E+00  0.722781670651E+00
  0.716030181563E+00  0.715847821914E+00  0.718146782975E+00  0.717062470140E+00  0.718615293725E+00
  0.000000000000E+00  0.000000000000E+00  0.000000000000E+00  0.443767746411E+00  0.402286944544E+00  0.000000000000E+00  0.377550368401E+00
  0.509232130196E+00  0.575832179687E+00  0.573707405577E+00  0.562554063910E+00  0.000000000000E+00  0.490563298076E+00  0.534527096342E+00
  0.556586982129E+00  0.564391577636E+00  0.522730517623E+00  0.522052000338E+00  0.441238348997E+00  0.517182331441E+00  0.524228630841E+00
  0.503687457803E+00  0.509488571212E+00  0.469814975118E+00  0.495614442771E+00  0.494483780551E+00  0.488562428762E+00  0.488961655025E+00
  0.492980744792E+00  0.499005552479E+00  0.486460936957E+00  0.484596927886E+00  0.495346592281E+00
  0.999989342773E+00  0.999989412097E+00  0.999989630187E+00  0.981541896786E+00  0.988773991972E+00  0.999989830477E+00  0.982469464942E+00
  0.984104309589E+00  0.990427546068E+00  0.990355285824E+00  0.994362997319E+00  0.999990301695E+00  0.988652072889E+00  0.100368369400E+01
  0.999769196852E+00  0.100118501190E+01  0.100834885274E+01  0.100252111016E+01  0.102982719442E+01  0.100443319442E+01  0.100199536614E+01
  0.100082056587E+01  0.100138192330E+01  0.100826277288E+01  0.100298787117E+01  0.100192389544E+01  0.100215267499E+01  0.100355660033E+01
  0.100047670020E+01  0.100056591043E+01  0.100126820220E+01  0.100066573353E+01  0.100179336270E+01
        15         9        16        16
        15        18        11        11
        22        15        21        21
        11         5         9         9
         5         7         2         2
        11         9        15        15
        16        21        15        15
        16        10        14        14
        18        17        11        11
        17        25        24        24
        22        18        15        15
        22        30        31        31
        30        21        23        23
        16        20        23        23
        22        27        26        26
        10         9         4         4
         7        11        13        13
        25        18        26        26
        11         7         5         5
         5         1         4         4
        17        19        13        13
        23        32        30        30
        23        20        29        29
         4         9         5         5
         4         8        10        10
        26        18        22        22
        26        28        25        25
        13        11        17        17
        13         6         7         7
        31        30        32        32
         2         1         5         5
         2         7         6         6
        14        10         8         8
        24        19        17        17
        24        25        28        28
         9        10        16        16
         3         4         1         1
        33        26        27        27
        12        13        19        19
        21        30        22        22
        16        14        20        20
        16        23        21        21
        22        31        27        27
        18        25        17        17
        26        33        28        28
         4         3         8         8
        23        29        32        32
        13        12         6         6
zone t="boundary 4 bc-4", solutiontime= 0.7000000E+02, strandid=1004, i=32, j=46, f=feblock
  0.125000000000E+01  0.219251206392E+01  0.103724302461E+01  0.500000000000E+01  0.250000000000E+01  0.375000000000E+01  0.404200324774E+01
  0.500000000000E+01  0.000000000000E+00  0.310152362409E+01  0.202479342020E+01  0.324151231464E+01  0.922061490191E+00  0.000000000000E+00
  0.299062775774E+01  0.394624082883E+01  0.500000000000E+01  0.409252726285E+01  0.500000000000E+01  0.429310310915E+01  0.175434191980E+01
  0.284428995242E+01  0.000000000000E+00  0.000000000000E+00  0.715990576545E+00  0.930412228790E+00  0.125000000000E+01  0.187029682677E+01
  0.500000000000E+01  0.375000000000E+01  0.250000000000E+01  0.000000000000E+00
  0.250000000000E+01  0.157686156160E+01  0.146289271009E+01  0.250000000000E+01  0.250000000000E+01  0.250000000000E+01  0.155830813274E+01
  0.125000000000E+01  0.250000000000E+01  0.177790177481E+01  0.477386199275E+00  0.742988685424E+00  0.308372018325E+00  0.125000000000E+01
 -0.487811078581E+00 -0.144524380962E+01 -0.125000000000E+01 -0.345533899378E+00  0.000000000000E+00  0.627766083140E+00 -0.739814786992E+00
 -0.158811787973E+01  0.000000000000E+00 -0.125000000000E+01 -0.600232012419E+00 -0.154800130438E+01 -0.250000000000E+01 -0.178862290564E+01
 -0.250000000000E+01 -0.250000000000E+01 -0.250000000000E+01 -0.250000000000E+01
  0.500000000000E+01  0.500000000000E+01  0.500000000000E+01  0.500000000000E+01  0.500000000000E+01  0.500000000000E+01  0.500000000000E+01
  0.500000000000E+01  0.500000000000E+01  0.500000000000E+01  0.500000000000E+01  0.500000000000E+01  0.500000000000E+01  0.500000000000E+01
  0.500000000000E+01  0.500000000000E+01  0.500000000000E+01  0.500000000000E+01  0.500000000000E+01  0.500000000000E+01  0.500000000000E+01
  0.500000000000E+01  0.500000000000E+01  0.500000000000E+01  0.500000000000E+01  0.500000000000E+01  0.500000000000E+01  0.500000000000E+01
  0.500000000000E+01  0.500000000000E+01  0.500000000000E+01  0.500000000000E+01
  0.100522860269E+01  0.100432972618E+01  0.100432034583E+01  0.100196461746E+01  0.100413205368E+01  0.100321958128E+01  0.100258623119E+01
  0.100201175152E+01  0.100426040806E+01  0.100372310370E+01  0.100446502160E+01  0.100346952055E+01  0.100365984923E+01  0.100424800552E+01
  0.100362337509E+01  0.100164192016E+01  0.100227632640E+01  0.100227311577E+01  0.100213446554E+01  0.100254347538E+01  0.100442386322E+01
  0.100337264004E+01  0.100288843752E+01  0.100334542029E+01  0.100323222987E+01  0.100406087076E+01  0.100510171594E+01  0.100431307061E+01
  0.100179475822E+01  0.100266315977E+01  0.100321164492E+01  0.100399273171E+01
  0.489076358724E+00  0.489238598772E+00  0.490983331559E+00  0.493064988016E+00  0.486766642792E+00  0.484757872256E+00  0.485404956375E+00
  0.494262733274E+00  0.495784888269E+00  0.486800248442E+00  0.488139337363E+00  0.487244593496E+00  0.494423292838E+00  0.496536482071E+00
  0.487845783237E+00  0.483219469889E+00  0.492573587383E+00  0.487262277925E+00  0.494865946581E+00  0.488012491140E+00  0.490096717162E+00
  0.488269667298E+00  0.497534090582E+00  0.496384264641E+00  0.495259755909E+00  0.493216439092E+00  0.490458183457E+00  0.490400009440E+00
  0.491426954412E+00  0.486218276694E+00  0.490304438883E+00  0.495522026957E+00
  0.000000000000E+00 -0.893974700509E-04 -0.129755092681E-02  0.000000000000E+00  0.000000000000E+00  0.000000000000E+00  0.425702005895E-03
  0.797025457604E-03  0.000000000000E+00  0.274712855690E-03 -0.942430995628E-03 -0.820006422135E-03 -0.174523849116E-02 -0.638374139622E-04
 -0.110022751021E-02 -0.102277495970E-02 -0.133259274520E-02 -0.213434239153E-02 -0.132929467924E-02 -0.106401265870E-02 -0.624409180448E-03
 -0.761703309539E-03 -0.196339456811E-03  0.807126784897E-03  0.520225859099E-04  0.161630462188E-02  0.000000000000E+00  0.791646918219E-03
  0.000000000000E+00  0.000000000000E+00  0.000000000000E+00  0.000000000000E+00