title="tecplot geometry and solution file"
variables = x y z rho u v w p mach temperature
zone t="boundary 1 bc-1", solutiontime= 0.6000000E+02, strandid=1001, i=32, j=46, f=feblock
  0.000000000000E+00  0.000000000000E+00  0.000000000000E+00  0.000000000000E+00  0.000000000000E+00  0.000000000000E+00  0.000000000000E+00
  0.000000000000E+00  0.000000000000E+00  0.000000000000E+00  0.000000000000E+00  0.000000000000E+00  0.000000000000E+00  0.000000000000E+00
  0.000000000000E+00  0.000000000000E+00  0.000000000000E+00  0.000000000000E+00  0.000000000000E+00  0.000000000000E+00  0.000000000000E+00
  0.000000000000E+00  0.000000000000E+00  0.000000000000E+00  0.000000000000E+00  0.000000000000E+00  0.000000000000E+00  0.000000000000E+00
  0.000000000000E+00  0.000000000000E+00  0.000000000000E+00  0.000000000000E+00
  0.250000000000E+01  0.250000000000E+01  0.125000000000E+01  0.146289271009E+01  0.157686156160E+01  0.308372018325E+00  0.000000000000E+00
 -0.125000000000E+01 -0.600232012419E+00  0.250000000000E+01  0.477386199275E+00  0.742988685424E+00 -0.739814786992E+00  0.177790177481E+01
  0.155830813274E+01  0.250000000000E+01 -0.250000000000E+01 -0.154800130438E+01 -0.487811078581E+00  0.250000000000E+01  0.627766083140E+00
 -0.345533899378E+00 -0.178862290564E+01 -0.158811787973E+01  0.125000000000E+01 -0.250000000000E+01 -0.144524380962E+01  0.000000000000E+00
 -0.125000000000E+01 -0.250000000000E+01 -0.250000000000E+01 -0.250000000000E+01
  0.000000000000E+00  0.125000000000E+01  0.000000000000E+00  0.103724302461E+01  0.219251206392E+01  0.922061490191E+00  0.000000000000E+00
  0.000000000000E+00  0.715990576545E+00  0.250000000000E+01  0.202479342020E+01  0.324151231464E+01  0.175434191980E+01  0.310152362409E+01
  0.404200324774E+01  0.375000000000E+01  0.000000000000E+00  0.930412228790E+00  0.299062775774E+01  0.500000000000E+01  0.429310310915E+01
  0.409252726285E+01  0.187029682677E+01  0.284428995242E+01  0.500000000000E+01  0.125000000000E+01  0.394624082883E+01  0.500000000000E+01
  0.500000000000E+01  0.250000000000E+01  0.375000000000E+01  0.500000000000E+01
  0.134427143047E+01  0.106355395577E+01  0.142583203818E+01  0.108608796964E+01  0.103229115249E+01  0.120095363976E+01  0.164466726226E+01
  0.149409063308E+01  0.123520366643E+01  0.102389313725E+01  0.102809523572E+01  0.101301828636E+01  0.103252946642E+01  0.101471891561E+01
  0.100663883720E+01  0.100830818967E+01  0.144945744017E+01  0.116393552051E+01  0.101462863929E+01  0.100426040806E+01  0.100679807389E+01
  0.100724553304E+01  0.104668119074E+01  0.101938460898E+01  0.100424800552E+01  0.106442280074E+01  0.100789341899E+01  0.100288843752E+01
  0.100334542029E+01  0.102847362079E+01  0.100958665704E+01  0.100399273171E+01
  0.000000000000E+00  0.445481415948E+00  0.000000000000E+00  0.468737857033E+00  0.462182265222E+00  0.443613740366E+00  0.000000000000E+00
  0.000000000000E+00  0.379272524498E+00  0.471738850055E+00  0.466574954157E+00  0.479355158224E+00  0.490159653207E+00  0.484514724567E+00
  0.488524784694E+00  0.489830188741E+00  0.000000000000E+00  0.450653305525E+00  0.474814030474E+00  0.495784888253E+00  0.490899471865E+00
  0.486835368649E+00  0.448668669719E+00  0.465807175251E+00  0.496536482066E+00  0.444686658365E+00  0.487701045989E+00  0.497534090575E+00
  0.496384264638E+00  0.470002878584E+00  0.489199905956E+00  0.495522026952E+00
  0.000000000000E+00  0.000000000000E+00  0.000000000000E+00  0.186085477790E-01 -0.276688501057E-02  0.332952480022E-01  0.000000000000E+00
  0.000000000000E+00 -0.594701629009E-02  0.000000000000E+00  0.356648467129E-02 -0.566638317489E-02 -0.416060179510E-02  0.305513899429E-04
 -0.106175911508E-02  0.000000000000E+00  0.000000000000E+00 -0.764112891193E-02  0.359618993861E-03  0.000000000000E+00 -0.203512294339E-02
 -0.138312912253E-02  0.156561486599E-02 -0.158521017579E-02 -0.638374155218E-04  0.000000000000E+00 -0.283455204986E-04 -0.196339457569E-03
  0.807126786613E-03  0.000000000000E+00  0.000000000000E+00  0.000000000000E+00
  0.000000000000E+00  0.452181749488E-01  0.000000000000E+00  0.123933293922E+00  0.247647170588E-01  0.165644510303E+00  0.000000000000E+00
  0.000000000000E+00  0.155763095696E+00  0.351822593304E-02  0.259783171262E-01 -0.651224685484E-02  0.748997912352E-01  0.371839285130E-02
 -0.149294595410E-03  0.459062462216E-03  0.000000000000E+00  0.140954083044E+00 -0.808565310999E-02  0.237177355501E-02 -0.304305815361E-03
 -0.438193607811E-02  0.255017489164E-01 -0.194957035771E-02  0.308362559691E-02  0.837461424121E-01 -0.121909333110E-02  0.268514639890E-02
  0.264043110315E-02  0.279387069721E-02 -0.834662822214E-03  0.345019183472E-02
  0.960184566654E+00  0.782340561704E+00  0.101844204661E+01  0.808726657486E+00  0.746125891556E+00  0.879446498007E+00  0.117475225076E+01
  0.106719924035E+01  0.916620145455E+00  0.737395238360E+00  0.743553972037E+00  0.725759210990E+00  0.757455250364E+00  0.729188343326E+00
  0.720785048012E+00  0.722781670654E+00  0.103531921111E+01  0.858317139983E+00  0.728065072984E+00  0.718615293724E+00  0.721013448559E+00
  0.721151586906E+00  0.760018785750E+00  0.732628403128E+00  0.718531161473E+00  0.791043235099E+00  0.722107949576E+00  0.717199382914E+00
  0.717636870723E+00  0.741799736974E+00  0.724056579849E+00  0.718400634483E+00
  0.000000000000E+00  0.441238348992E+00  0.000000000000E+00  0.475214987169E+00  0.460123709637E+00  0.468827815923E+00  0.000000000000E+00
  0.000000000000E+00  0.402302517755E+00  0.469814975113E+00  0.464411129732E+00  0.478714034804E+00  0.489298241874E+00  0.483068558412E+00
  0.487930073496E+00  0.488961655025E+00  0.000000000000E+00  0.464775722059E+00  0.473795652509E+00  0.495346592265E+00  0.490266103756E+00
  0.486286084268E+00  0.445717618845E+00  0.464382275275E+00  0.496127395144E+00  0.443624104171E+00  0.486964462325E+00  0.497246279974E+00
  0.496059271111E+00  0.467732356029E+00  0.488212087730E+00  0.495098265048E+00
  0.999990301695E+00  0.102982719442E+01  0.999990761236E+00  0.104247294154E+01  0.101190080498E+01  0.102520618319E+01  0.999991420034E+00
  0.999992171429E+00  0.103891223651E+01  0.100826277289E+01  0.101252833850E+01  0.100300548279E+01  0.102702865632E+01  0.100605563270E+01
  0.100244400467E+01  0.100355660033E+01  0.999992725125E+00  0.103239739213E+01  0.100459524077E+01  0.100179336270E+01  0.100260305831E+01
  0.100234966406E+01  0.101657153054E+01  0.100617544678E+01  0.100168844801E+01  0.104043292606E+01  0.100303376364E+01  0.100118726920E+01
  0.100134171014E+01  0.100976788395E+01  0.100405369338E+01  0.100176112487E+01
        12        19        11        11
        11         5        12        12
        10        14         5         5
        19        13        11        11
        19        24        13        13
        30        23        24        24
        19        12        22        22
        28        22        21        21
        11        13         6         6
         7         6         9         9
        15        12        14        14
        18        13        23        23
        15        25        21        21
        27        19        22        22
        18         8         9         9
        27        31        24        24
         4        11         6         6
         5        14        12        12
         4         2         5         5
        21        12        15        15
        14        16        15        15
        24        19        27        27
        22        29        27        27
        23        26        18        18
        17         8        18        18
         5        11         4         4
         6         3         4         4
        26        23        30        30
         5         2        10        10
        16        14        10        10
         3         6         7         7
        21        25        28        28
        29        22        28        28
         6        13         9         9
         2         4         1         1
        31        27        32        32
        25        15        20        20
        24        23        13        13
         8         7         9         9
        13        18         9         9
        31        30        24        24
        12        21        22        22
        29        32        27        27
         3         1         4         4
        26        17        18        18
        16        20        15        15
zone t="boundary 2 bc-2", solutiontime= 0.6000000E+02, strandid=1002, i=33, j=48, f=feblock
  0.500000000000E+01  0.375000000000E+01  0.250000000000E+01  0.288078410721E+01  0.125000000000E+01  0.190974100652E+01  0.326683758169E+01
  0.201431602454E+01  0.000000000000E+00  0.963108083381E+00  0.500000000000E+01  0.403552511878E+01  0.423153924130E+01  0.500000000000E+01
  0.385533350601E+01  0.500000000000E+01  0.398173246726E+01  0.315249557942E+01  0.267000324704E+01  0.154774304040E+01  0.218329375016E+01
  0.893127759452E+00  0.000000000000E+00  0.698517061619E+00  0.964171764089E+00  0.310324758057E+01  0.000000000000E+00  0.000000000000E+00
  0.125000000000E+01  0.500000000000E+01  0.375000000000E+01  0.250000000000E+01  0.000000000000E+00
 -0.250000000000E+01 -0.250000000000E+01 -0.250000000000E+01 -0.250000000000E+01 -0.250000000000E+01 -0.250000000000E+01 -0.250000000000E+01
 -0.250000000000E+01 -0.250000000000E+01 -0.250000000000E+01 -0.250000000000E+01 -0.250000000000E+01 -0.250000000000E+01 -0.250000000000E+01
 -0.250000000000E+01 -0.250000000000E+01 -0.250000000000E+01 -0.250000000000E+01 -0.250000000000E+01 -0.250000000000E+01 -0.250000000000E+01
 -0.250000000000E+01 -0.250000000000E+01 -0.250000000000E+01 -0.250000000000E+01 -0.250000000000E+01 -0.250000000000E+01 -0.250000000000E+01
 -0.250000000000E+01 -0.250000000000E+01 -0.250000000000E+01 -0.250000000000E+01 -0.250000000000E+01
  0.000000000000E+00  0.000000000000E+00  0.000000000000E+00  0.904659890645E+00  0.000000000000E+00  0.717002441913E+00  0.188609243358E+01
  0.176246431481E+01  0.000000000000E+00  0.961328577125E+00  0.125000000000E+01  0.101201586758E+01  0.191586535653E+01  0.250000000000E+01
  0.293121848150E+01  0.375000000000E+01  0.406975391361E+01  0.363585050272E+01  0.285047954584E+01  0.292817774674E+01  0.395907379566E+01
  0.205246550326E+01  0.125000000000E+01  0.306828197606E+01  0.397245519226E+01  0.433168271247E+01  0.250000000000E+01  0.375000000000E+01
  0.500000000000E+01  0.500000000000E+01  0.500000000000E+01  0.500000000000E+01  0.500000000000E+01
  0.830787399176E+00  0.935297252621E+00  0.934221979138E+00  0.968087711372E+00  0.961719525552E+00  0.964848330677E+00  0.984136200814E+00
  0.991412446818E+00  0.144945744017E+01  0.102921689191E+01  0.955878695034E+00  0.960692918220E+00  0.981487961169E+00  0.100642910902E+01
  0.997912123346E+00  0.100977863889E+01  0.100199481623E+01  0.998063237109E+00  0.991085838726E+00  0.100132719313E+01  0.100094600669E+01
  0.101224609862E+01  0.106442280074E+01  0.101082190503E+01  0.100685258254E+01  0.100118414316E+01  0.102847362079E+01  0.100958665704E+01
  0.100510171594E+01  0.100179475822E+01  0.100266315976E+01  0.100321164492E+01  0.100399273171E+01
  0.000000000000E+00  0.000000000000E+00  0.000000000000E+00  0.378986941603E+00  0.000000000000E+00  0.340639444352E+00  0.582179008816E+00
  0.575195820539E+00  0.000000000000E+00  0.489449421115E+00  0.494741336562E+00  0.431507388078E+00  0.568961825475E+00  0.536179830296E+00
  0.568879739406E+00  0.516235684841E+00  0.508555697367E+00  0.527399281794E+00  0.566648549233E+00  0.531828923419E+00  0.506096460125E+00
  0.520701999432E+00  0.444686658365E+00  0.491339919898E+00  0.492734936386E+00  0.501504484329E+00  0.470002878584E+00  0.489199905956E+00
  0.490458183447E+00  0.491426954411E+00  0.486218276697E+00  0.490304438893E+00  0.495522026952E+00
  0.000000000000E+00  0.000000000000E+00  0.000000000000E+00  0.000000000000E+00  0.000000000000E+00  0.000000000000E+00  0.000000000000E+00
  0.000000000000E+00  0.000000000000E+00  0.000000000000E+00  0.000000000000E+00  0.000000000000E+00  0.000000000000E+00  0.000000000000E+00
  0.000000000000E+00  0.000000000000E+00  0.000000000000E+00  0.000000000000E+00  0.000000000000E+00  0.000000000000E+00  0.000000000000E+00
  0.000000000000E+00  0.000000000000E+00  0.000000000000E+00  0.000000000000E+00  0.000000000000E+00  0.000000000000E+00  0.000000000000E+00
  0.000000000000E+00  0.000000000000E+00  0.000000000000E+00  0.000000000000E+00  0.000000000000E+00
  0.000000000000E+00  0.000000000000E+00  0.000000000000E+00 -0.229669073974E-02  0.000000000000E+00  0.183565245342E-01  0.121122184153E-01
  0.454986540091E-01  0.000000000000E+00  0.870789623815E-01 -0.995426195879E-01 -0.211864970552E-01 -0.306441475928E-01 -0.414442964615E-01
 -0.137883094477E-02  0.259919157061E-02  0.609478383190E-03  0.503572646796E-03  0.150967298872E-01  0.284025715737E-01  0.564163841698E-02
  0.553419828178E-01  0.837461424121E-01  0.110441019450E-01  0.679169169163E-02 -0.758116097644E-03  0.279387069721E-02 -0.834662822214E-03
  0.400708362133E-02  0.602719167135E-02 -0.143884781591E-03  0.120121412611E-02  0.345019183472E-02
  0.593415708101E+00  0.668065252905E+00  0.667297107206E+00  0.684257572171E+00  0.686937806249E+00  0.679201335832E+00  0.695811645174E+00
  0.702343852949E+00  0.103531921111E+01  0.723694676144E+00  0.672591690176E+00  0.675702733941E+00  0.694093188606E+00  0.720959962384E+00
  0.712691281668E+00  0.724770829742E+00  0.716580562804E+00  0.713298991856E+00  0.706429557372E+00  0.717737238681E+00  0.715376602244E+00
  0.730937674591E+00  0.791043235099E+00  0.724372849609E+00  0.721010721127E+00  0.715457540538E+00  0.741799736974E+00  0.724056579849E+00
  0.719312937853E+00  0.715892799085E+00  0.716608904832E+00  0.717367939253E+00  0.718400634483E+00
  0.000000000000E+00  0.000000000000E+00  0.000000000000E+00  0.380991906902E+00  0.000000000000E+00  0.343629824819E+00  0.585286157658E+00
  0.579373264068E+00  0.000000000000E+00  0.501056068176E+00  0.508460363772E+00  0.435373027606E+00  0.572640041583E+00  0.537002098735E+00
  0.568922553786E+00  0.514994090369E+00  0.508247257206E+00  0.527252853174E+00  0.567446661063E+00  0.531657143964E+00  0.505981016820E+00
  0.520795579552E+00  0.443624104171E+00  0.490663730802E+00  0.492155874081E+00  0.501390784913E+00  0.467732356029E+00  0.488212087730E+00
  0.490002767511E+00  0.491352304724E+00  0.486075475544E+00  0.490036479676E+00  0.495098265048E+00
  0.999993490712E+00  0.999993693391E+00  0.999993546449E+00  0.989539057036E+00  0.999993140616E+00  0.985524708839E+00  0.989838908922E+00
  0.991798516636E+00  0.999992725125E+00  0.984411113505E+00  0.985091906680E+00  0.984689081782E+00  0.990058464794E+00  0.100289621822E+01
  0.999855369018E+00  0.100485306636E+01  0.100121554690E+01  0.100055642916E+01  0.997896793270E+00  0.100350029546E+01  0.100058068712E+01
  0.101093276212E+01  0.104043292606E+01  0.100326475357E+01  0.100254498731E+01  0.100045587377E+01  0.100976788395E+01  0.100405369338E+01
  0.100192656825E+01  0.100045434506E+01  0.100058774175E+01  0.100109993743E+01  0.100176112487E+01
        15         7        19        19
         8        20        19        19
        18        19        21        21
         7         4         8         8
         3         6         4         4
        19         7         8         8
        19        18        15        15
        14        13        15        15
         8        22        20        20
        27        24        22        22
        19        20        21        21
        32        26        21        21
        17        18        26        26
        17        16        15        15
        25        29        21        21
        12         7        13        13
        10         8         6         6
        25        20        24        24
         4         6         8         8
        12         2         4         4
        10        23        22        22
        26        31        17        17
        30        16        17        17
         4         7        12        12
        13        11        12        12
        21        20        25        25
        24        28        25        25
        22         8        10        10
         6         5        10        10
        31        26        32        32
         4         2         3         3
         5         6         3         3
        11        13        14        14
        22        23        27        27
        28        24        27        27
        15        13         7         7
         2        12         1         1
        29        25        33        33
        23        10         9         9
        21        26        18        18
        16        14        15        15
        18        17        15        15
        29        32        21        21
        22        24        20        20
        28        33        25        25
        11         1        12        12
        31        30        17        17
         5         9        10        10
zone t="boundary 3 bc-3", solutiontime= 0.6000000E+02, strandid=1003, i=33, j=48, f=feblock
  0.375000000000E+01  0.250000000000E+01  0.500000000000E+01  0.403552511878E+01  0.288078410721E+01  0.125000000000E+01  0.190974100652E+01
  0.500000000000E+01  0.326683758169E+01  0.423153924130E+01  0.201431602454E+01  0.000000000000E+00  0.963108083381E+00  0.500000000000E+01
  0.267000324704E+01  0.385533350601E+01  0.893127759452E+00  0.154774304040E+01  0.000000000000E+00  0.500000000000E+01  0.315249557942E+01
  0.218329375016E+01  0.398173246726E+01  0.000000000000E+00  0.698517061619E+00  0.964171764089E+00  0.125000000000E+01  0.000000000000E+00
  0.500000000000E+01  0.310324758057E+01  0.250000000000E+01  0.375000000000E+01  0.000000000000E+00
  0.250000000000E+01  0.250000000000E+01  0.250000000000E+01  0.250000000000E+01  0.250000000000E+01  0.250000000000E+01  0.250000000000E+01
  0.250000000000E+01  0.250000000000E+01  0.250000000000E+01  0.250000000000E+01  0.250000000000E+01  0.250000000000E+01  0.250000000000E+01
  0.250000000000E+01  0.250000000000E+01  0.250000000000E+01  0.250000000000E+01  0.250000000000E+01  0.250000000000E+01  0.250000000000E+01
  0.250000000000E+01  0.250000000000E+01  0.250000000000E+01  0.250000000000E+01  0.250000000000E+01  0.250000000000E+01  0.250000000000E+01
  0.250000000000E+01  0.250000000000E+01  0.250000000000E+01  0.250000000000E+01  0.250000000000E+01
  0.000000000000E+00  0.000000000000E+00  0.000000000000E+00  0.101201586758E+01  0.904659890645E+00  0.000000000000E+00  0.717002441913E+00
  0.125000000000E+01  0.188609243358E+01  0.191586535653E+01  0.176246431481E+01  0.000000000000E+00  0.961328577125E+00  0.250000000000E+01
  0.285047954584E+01  0.293121848150E+01  0.205246550326E+01  0.292817774674E+01  0.125000000000E+01  0.375000000000E+01  0.363585050272E+01
  0.395907379566E+01  0.406975391361E+01  0.250000000000E+01  0.306828197606E+01  0.397245519226E+01  0.500000000000E+01  0.375000000000E+01
  0.500000000000E+01  0.433168271247E+01  0.500000000000E+01  0.500000000000E+01  0.500000000000E+01
  0.941861268123E+00  0.946296417369E+00  0.843730484678E+00  0.964330992223E+00  0.978820739152E+00  0.956975888585E+00  0.983331401375E+00
  0.963500306585E+00  0.982689306670E+00  0.984243963570E+00  0.990263815518E+00  0.134427143047E+01  0.101918251104E+01  0.100829903934E+01
  0.993456155191E+00  0.997998684754E+00  0.100807808349E+01  0.100072116311E+01  0.106355395577E+01  0.100673529188E+01  0.100058356081E+01
  0.100234980686E+01  0.100178076628E+01  0.102389313725E+01  0.100874208341E+01  0.100528370870E+01  0.100522860269E+01  0.100830818967E+01
  0.100196461750E+01  0.100162012341E+01  0.100413205370E+01  0.100321958130E+01  0.100426040806E+01
  0.000000000000E+00  0.000000000000E+00  0.000000000000E+00  0.439071271203E+00  0.399865812777E+00  0.000000000000E+00  0.373794144332E+00
  0.495017684627E+00  0.573056190081E+00  0.569605109869E+00  0.559932658334E+00  0.000000000000E+00  0.483390703803E+00  0.533822129783E+00
  0.556458762935E+00  0.564688360688E+00  0.522615496524E+00  0.522533036349E+00  0.445481415948E+00  0.518326924356E+00  0.524750915671E+00
  0.503888174520E+00  0.509839746176E+00  0.471738850055E+00  0.496245454891E+00  0.494940396773E+00  0.489076358712E+00  0.489830188741E+00
  0.493064988034E+00  0.499146612147E+00  0.486766642817E+00  0.484757872308E+00  0.495784888253E+00
  0.000000000000E+00  0.000000000000E+00  0.000000000000E+00  0.000000000000E+00  0.000000000000E+00  0.000000000000E+00  0.000000000000E+00
  0.000000000000E+00  0.000000000000E+00  0.000000000000E+00  0.000000000000E+00  0.000000000000E+00  0.000000000000E+00  0.000000000000E+00
  0.000000000000E+00  0.000000000000E+00  0.000000000000E+00  0.000000000000E+00  0.000000000000E+00  0.000000000000E+00  0.000000000000E+00
  0.000000000000E+00  0.000000000000E+00  0.000000000000E+00  0.000000000000E+00  0.000000000000E+00  0.000000000000E+00  0.000000000000E+00
  0.000000000000E+00  0.000000000000E+00  0.000000000000E+00  0.000000000000E+00  0.000000000000E+00
  0.000000000000E+00  0.000000000000E+00  0.000000000000E+00 -0.226115187168E-01  0.111963818308E-01  0.000000000000E+00  0.179816806528E-01
 -0.100761229983E+00  0.390410700458E-02 -0.389325437028E-01  0.340377320517E-01  0.000000000000E+00  0.652293766148E-01 -0.424929720521E-01
  0.843880990095E-02 -0.650994146914E-02  0.490054836228E-01  0.135873481034E-01  0.452181749488E-01  0.737198294635E-03 -0.701222994703E-03
  0.243744330970E-02  0.868929512364E-03  0.351822593304E-02  0.103945253447E-01  0.431655337075E-02  0.337507284414E-02  0.459062462216E-03
  0.572579981830E-02  0.341101457874E-03  0.160978293017E-02  0.569905642054E-03  0.237177355501E-02
  0.672750878924E+00  0.675918855768E+00  0.602658382393E+00  0.676093764859E+00  0.691308921172E+00  0.683547254712E+00  0.690066482697E+00
  0.677274859912E+00  0.695201827566E+00  0.696250865613E+00  0.703344068390E+00  0.960184566654E+00  0.719726358714E+00  0.722866646053E+00
  0.709447758845E+00  0.713700946486E+00  0.726067413538E+00  0.716602922427E+00  0.782340561704E+00  0.722284532259E+00  0.716128636698E+00
  0.716551643497E+00  0.716546536057E+00  0.737395238360E+00  0.722682910574E+00  0.719441263885E+00  0.719566095111E+00  0.722781670654E+00
  0.716030181602E+00  0.715847821922E+00  0.718146782981E+00  0.717062470156E+00  0.718615293724E+00
  0.000000000000E+00  0.000000000000E+00  0.000000000000E+00  0.443767746546E+00  0.402286944611E+00  0.000000000000E+00  0.377550368408E+00
  0.509232129878E+00  0.575832179667E+00  0.573707405546E+00  0.562554063906E+00  0.000000000000E+00  0.490563298073E+00  0.534527096369E+00
  0.556586982108E+00  0.564391577618E+00  0.522730517617E+00  0.522052000331E+00  0.441238348992E+00  0.517182331415E+00  0.524228630801E+00
  0.503687457779E+00  0.509488571111E+00  0.469814975113E+00  0.495614442767E+00  0.494483780542E+00  0.488562428750E+00  0.488961655025E+00
  0.492980744806E+00  0.499005552442E+00  0.486460936983E+00  0.484596927938E+00  0.495346592265E+00
  0.999989342773E+00  0.999989412097E+00  0.999989630187E+00  0.981541896337E+00  0.988773991936E+00  0.999989830477E+00  0.982469464949E+00
  0.984104309461E+00  0.990427546109E+00  0.990355285820E+00  0.994362997331E+00  0.999990301695E+00  0.988652072892E+00  0.100368369401E+01
  0.999769196852E+00  0.100118501191E+01  0.100834885274E+01  0.100252111016E+01  0.102982719442E+01  0.100443319443E+01  0.100199536615E+01
  0.100082056587E+01  0.100138192332E+01  0.100826277289E+01  0.100298787117E+01  0.100192389544E+01  0.100215267499E+01  0.100355660033E+01
  0.100047670021E+01  0.100056591043E+01  0.100126820220E+01  0.100066573353E+01  0.100179336270E+01
        15         9        16        16
        15        18        11        11
        22        15        21        21
        11         5         9         9
         5         7         2         2
        11         9        15        15
        16        21        15        15
        16        10        14        14
        18        17        11        11
        17        25        24        24
        22        18        15        15
        22        30        31        31
        30        21        23        23
        16        20        23        23
        22        27        26        26
        10         9         4         4
         7        11        13        13
        25        18        26        26
        11         7         5         5
         5         1         4         4
        17        19        13        13
        23        32        30        30
        23        20        29        29
         4         9         5         5
         4         8        10        10
        26        18        22        22
        26        28        25        25
        13        11        17        17
        13         6         7         7
        31        30        32        32
         2         1         5         5
         2         7         6         6
        14        10         8         8
        24        19        17        17
        24        25        28        28
         9        10        16        16
         3         4         1         1
        33        26        27        27
        12        13        19        19
        21        30        22        22
        16        14        20        20
        16        23        21        21
        22        31        27        27
        18        25        17        17
        26        33        28        28
         4         3         8         8
        23        29        32        32
        13        12         6         6
zone t="boundary 4 bc-4", solutiontime= 0.6000000E+02, strandid=1004, i=32, j=46, f=feblock
  0.125000000000E+01  0.219251206392E+01  0.103724302461E+01  0.500000000000E+01  0.250000000000E+01  0.375000000000E+01  0.404200324774E+01
  0.500000000000E+01  0.000000000000E+00  0.310152362409E+01  0.202479342020E+01  0.324151231464E+01  0.922061490191E+00  0.000000000000E+00
  0.299062775774E+01  0.394624082883E+01  0.500000000000E+01  0.409252726285E+01  0.500000000000E+01  0.429310310915E+01  0.175434191980E+01
  0.284428995242E+01  0.000000000000E+00  0.000000000000E+00  0.715990576545E+00  0.930412228790E+00  0.125000000000E+01  0.187029682677E+01
  0.500000000000E+01  0.375000000000E+01  0.250000000000E+01  0.000000000000E+00
  0.250000000000E+01  0.157686156160E+01  0.146289271009E+01  0.250000000000E+01  0.250000000000E+01  0.250000000000E+01  0.155830813274E+01
  0.125000000000E+01  0.250000000000E+01  0.177790177481E+01  0.477386199275E+00  0.742988685424E+00  0.308372018325E+00  0.125000000000E+01
 -0.487811078581E+00 -0.144524380962E+01 -0.125000000000E+01 -0.345533899378E+00  0.000000000000E+00  0.627766083140E+00 -0.739814786992E+00
 -0.158811787973E+01  0.000000000000E+00 -0.125000000000E+01 -0.600232012419E+00 -0.154800130438E+01 -0.250000000000E+01 -0.178862290564E+01
 -0.250000000000E+01 -0.250000000000E+01 -0.250000000000E+01 -0.250000000000E+01
  0.500000000000E+01  0.500000000000E+01  0.500000000000E+01  0.500000000000E+01  0.500000000000E+01  0.500000000000E+01  0.500000000000E+01
  0.500000000000E+01  0.500000000000E+01  0.500000000000E+01  0.500000000000E+01  0.500000000000E+01  0.500000000000E+01  0.500000000000E+01
  0.500000000000E+01  0.500000000000E+01  0.500000000000E+01  0.500000000000E+01  0.500000000000E+01  0.500000000000E+01  0.500000000000E+01
  0.500000000000E+01  0.500000000000E+01  0.500000000000E+01  0.500000000000E+01  0.500000000000E+01  0.500000000000E+01  0.500000000000E+01
  0.500000000000E+01  0.500000000000E+01  0.500000000000E+01  0.500000000000E+01
  0.100522860269E+01  0.100432972619E+01  0.100432034583E+01  0.100196461750E+01  0.100413205370E+01  0.100321958130E+01  0.100258623124E+01
  0.100201175159E+01  0.100426040806E+01  0.100372310370E+01  0.100446502160E+01  0.100346952057E+01  0.100365984923E+01  0.100424800552E+01
  0.100362337508E+01  0.100164192015E+01  0.100227632641E+01  0.100227311579E+01  0.100213446559E+01  0.100254347545E+01  0.100442386322E+01
  0.100337264004E+01  0.100288843752E+01  0.100334542029E+01  0.100323222987E+01  0.100406087076E+01  0.100510171594E+01  0.100431307060E+01
  0.100179475822E+01  0.100266315976E+01  0.100321164492E+01  0.100399273171E+01
  0.489076358712E+00  0.489238598797E+00  0.490983331564E+00  0.493064988034E+00  0.486766642817E+00  0.484757872308E+00  0.485404956476E+00
  0.494262733318E+00  0.495784888253E+00  0.486800248481E+00  0.488139337404E+00  0.487244593578E+00  0.494423292842E+00  0.496536482066E+00
  0.487845783288E+00  0.483219469918E+00  0.492573587401E+00  0.487262278030E+00  0.494865946639E+00  0.488012491287E+00  0.490096717167E+00
  0.488269667301E+00  0.497534090575E+00  0.496384264638E+00  0.495259755906E+00  0.493216439091E+00  0.490458183447E+00  0.490400009439E+00
  0.491426954411E+00  0.486218276697E+00  0.490304438893E+00  0.495522026952E+00
  0.000000000000E+00 -0.893974675937E-04 -0.129755092442E-02  0.000000000000E+00  0.000000000000E+00  0.000000000000E+00  0.425702041801E-03
  0.797025501711E-03  0.000000000000E+00  0.274712861482E-03 -0.942430992447E-03 -0.820006399131E-03 -0.174523848856E-02 -0.638374155218E-04
 -0.110022747158E-02 -0.102277491939E-02 -0.133259271476E-02 -0.213434233730E-02 -0.132929462922E-02 -0.106401260330E-02 -0.624409164249E-03
 -0.761703270283E-03 -0.196339457569E-03  0.807126786613E-03  0.520225882322E-04  0.161630462208E-02  0.000000000000E+00  0.791646918446E-03
  0.000000000000E+00  0.000000000000E+00  0.000000000000E+00  0.000000000000E+00