# vtk DataFile Version 2.0
FUN3D:global_image_vtk
ASCII
DATASET UNSTRUCTURED_GRID
POINTS 213 double
    0.0000000000000000E+00    0.2500000000000000E+01    0.0000000000000000E+00
    0.1250000000000000E+01    0.2500000000000000E+01    0.0000000000000000E+00
    0.2500000000000000E+01    0.2500000000000000E+01    0.0000000000000000E+00
    0.3750000000000000E+01    0.2500000000000000E+01    0.0000000000000000E+00
    0.5000000000000000E+01    0.2500000000000000E+01    0.0000000000000000E+00
    0.5000000000000000E+01    0.1250000000000000E+01    0.0000000000000000E+00
    0.5000000000000000E+01    0.0000000000000000E+00    0.0000000000000000E+00
    0.5000000000000000E+01   -0.1250000000000000E+01    0.0000000000000000E+00
    0.5000000000000000E+01   -0.2500000000000000E+01    0.0000000000000000E+00
    0.3750000000000000E+01   -0.2500000000000000E+01    0.0000000000000000E+00
    0.2500000000000000E+01   -0.2500000000000000E+01    0.0000000000000000E+00
    0.1250000000000000E+01   -0.2500000000000000E+01    0.0000000000000000E+00
    0.0000000000000000E+00   -0.2500000000000000E+01    0.0000000000000000E+00
    0.0000000000000000E+00   -0.1250000000000000E+01    0.0000000000000000E+00
    0.0000000000000000E+00    0.0000000000000000E+00    0.0000000000000000E+00
    0.0000000000000000E+00    0.1250000000000000E+01    0.0000000000000000E+00
    0.9058375365086910E+00    0.1578994732800803E+01    0.0000000000000000E+00
    0.3982050490726493E+01   -0.1583989954232354E+01    0.0000000000000000E+00
    0.4033849428301197E+01    0.1453322699199022E+01    0.0000000000000000E+00
    0.1040505887381675E+01   -0.1479596339503735E+01    0.0000000000000000E+00
    0.1099454400140349E+01   -0.3227322616384110E+00    0.0000000000000000E+00
    0.7354504170366591E+00    0.6593508822075582E+00    0.0000000000000000E+00
    0.1622302608453282E+01    0.8256214013940779E+00    0.0000000000000000E+00
    0.2145871574390382E+01   -0.1650070333782557E+01    0.0000000000000000E+00
    0.4086422318222992E+01   -0.4612828702537229E+00    0.0000000000000000E+00
    0.2979540174134984E+01   -0.8579242121530853E+00    0.0000000000000000E+00
    0.3045064261640043E+01   -0.1836846154397680E+01    0.0000000000000000E+00
    0.3428197553792836E+01    0.3508002863614053E+00    0.0000000000000000E+00
    0.4309693860063405E+01    0.5185680230613409E+00    0.0000000000000000E+00
    0.1827272193562204E+01    0.1738996113203182E+01    0.0000000000000000E+00
    0.2808563282768077E+01    0.1325493893339706E+01    0.0000000000000000E+00
    0.1895995683864404E+01   -0.8731419609589618E+00    0.0000000000000000E+00
    0.2273179336307740E+01    0.4906150219227333E-01    0.0000000000000000E+00
    0.5000000000000000E+01    0.2500000000000000E+01    0.1250000000000000E+01
    0.5000000000000000E+01    0.2500000000000000E+01    0.2500000000000000E+01
    0.5000000000000000E+01    0.2500000000000000E+01    0.3750000000000000E+01
    0.5000000000000000E+01    0.2500000000000000E+01    0.5000000000000000E+01
    0.3750000000000000E+01    0.2500000000000000E+01    0.5000000000000000E+01
    0.2500000000000000E+01    0.2500000000000000E+01    0.5000000000000000E+01
    0.1250000000000000E+01    0.2500000000000000E+01    0.5000000000000000E+01
    0.0000000000000000E+00    0.2500000000000000E+01    0.5000000000000000E+01
    0.0000000000000000E+00    0.2500000000000000E+01    0.3750000000000000E+01
    0.0000000000000000E+00    0.2500000000000000E+01    0.2500000000000000E+01
    0.0000000000000000E+00    0.2500000000000000E+01    0.1250000000000000E+01
    0.9631080833812172E+00    0.2500000000000000E+01    0.9613285771248219E+00
    0.3981732467264904E+01    0.2500000000000000E+01    0.4069753913607991E+01
    0.4035525118777670E+01    0.2500000000000000E+01    0.1012015867579395E+01
    0.9641717640894248E+00    0.2500000000000000E+01    0.3972455192261839E+01
    0.1547743040396780E+01    0.2500000000000000E+01    0.2928177746738678E+01
    0.6985170616192014E+00    0.2500000000000000E+01    0.3068281976055466E+01
    0.8931277594515110E+00    0.2500000000000000E+01    0.2052465503257726E+01
    0.2183293750162785E+01    0.2500000000000000E+01    0.3959073795658649E+01
    0.3855333506014705E+01    0.2500000000000000E+01    0.2931218481500625E+01
    0.3152495579421047E+01    0.2500000000000000E+01    0.3635850502723324E+01
    0.3103247580566054E+01    0.2500000000000000E+01    0.4331682712472464E+01
    0.3266837581688852E+01    0.2500000000000000E+01    0.1886092433583972E+01
    0.4231539241296245E+01    0.2500000000000000E+01    0.1915865356532799E+01
    0.1909741006522088E+01    0.2500000000000000E+01    0.7170024419130505E+00
    0.2880784107213163E+01    0.2500000000000000E+01    0.9046598906449592E+00
    0.2014316024535771E+01    0.2500000000000000E+01    0.1762464314805728E+01
    0.2670003247036656E+01    0.2500000000000000E+01    0.2850479545835163E+01
    0.5000000000000000E+01    0.1250000000000000E+01    0.5000000000000000E+01
    0.5000000000000000E+01    0.0000000000000000E+00    0.5000000000000000E+01
    0.5000000000000000E+01   -0.1250000000000000E+01    0.5000000000000000E+01
    0.5000000000000000E+01   -0.2500000000000000E+01    0.5000000000000000E+01
    0.5000000000000000E+01   -0.2500000000000000E+01    0.3750000000000000E+01
    0.5000000000000000E+01   -0.2500000000000000E+01    0.2500000000000000E+01
    0.5000000000000000E+01   -0.2500000000000000E+01    0.1250000000000000E+01
    0.5000000000000000E+01    0.1578994732800803E+01    0.9058375365086910E+00
    0.5000000000000000E+01   -0.1583989954232354E+01    0.3982050490726493E+01
    0.5000000000000000E+01    0.1453322699199022E+01    0.4033849428301197E+01
    0.5000000000000000E+01   -0.1479596339503735E+01    0.1040505887381675E+01
    0.5000000000000000E+01   -0.3227322616384110E+00    0.1099454400140349E+01
    0.5000000000000000E+01    0.6593508822075582E+00    0.7354504170366591E+00
    0.5000000000000000E+01    0.8256214013940779E+00    0.1622302608453282E+01
    0.5000000000000000E+01   -0.1650070333782557E+01    0.2145871574390382E+01
    0.5000000000000000E+01   -0.4612828702537229E+00    0.4086422318222992E+01
    0.5000000000000000E+01   -0.8579242121530853E+00    0.2979540174134984E+01
    0.5000000000000000E+01   -0.1836846154397680E+01    0.3045064261640043E+01
    0.5000000000000000E+01    0.3508002863614053E+00    0.3428197553792836E+01
    0.5000000000000000E+01    0.5185680230613409E+00    0.4309693860063405E+01
    0.5000000000000000E+01    0.1738996113203182E+01    0.1827272193562204E+01
    0.5000000000000000E+01    0.1325493893339706E+01    0.2808563282768077E+01
    0.5000000000000000E+01   -0.8731419609589618E+00    0.1895995683864404E+01
    0.5000000000000000E+01    0.4906150219227333E-01    0.2273179336307740E+01
    0.0000000000000000E+00    0.1250000000000000E+01    0.5000000000000000E+01
    0.0000000000000000E+00    0.0000000000000000E+00    0.5000000000000000E+01
    0.0000000000000000E+00   -0.1250000000000000E+01    0.5000000000000000E+01
    0.0000000000000000E+00   -0.2500000000000000E+01    0.5000000000000000E+01
    0.1250000000000000E+01   -0.2500000000000000E+01    0.5000000000000000E+01
    0.2500000000000000E+01   -0.2500000000000000E+01    0.5000000000000000E+01
    0.3750000000000000E+01   -0.2500000000000000E+01    0.5000000000000000E+01
    0.4042003247744892E+01    0.1558308132739014E+01    0.5000000000000000E+01
    0.9304122287900499E+00   -0.1548001304379777E+01    0.5000000000000000E+01
    0.1037243024609388E+01    0.1462892710085612E+01    0.5000000000000000E+01
    0.3946240828834967E+01   -0.1445243809615570E+01    0.5000000000000000E+01
    0.4092527262848217E+01   -0.3455338993778935E+00    0.5000000000000000E+01
    0.4293103109154542E+01    0.6277660831404320E+00    0.5000000000000000E+01
    0.3241512314643519E+01    0.7429886854239611E+00    0.5000000000000000E+01
    0.2844289952419609E+01   -0.1588117879734118E+01    0.5000000000000000E+01
    0.7159905765450471E+00   -0.6002320124191652E+00    0.5000000000000000E+01
    0.1754341919796891E+01   -0.7398147869923652E+00    0.5000000000000000E+01
    0.1870296826774691E+01   -0.1788622905643739E+01    0.5000000000000000E+01
    0.9220614901912976E+00    0.3083720183248586E+00    0.5000000000000000E+01
    0.3101523624086016E+01    0.1777901774806180E+01    0.5000000000000000E+01
    0.2192512063922564E+01    0.1576861561598471E+01    0.5000000000000000E+01
    0.2024793420196460E+01    0.4773861992750707E+00    0.5000000000000000E+01
    0.2990627757741975E+01   -0.4878110785814084E+00    0.5000000000000000E+01
    0.0000000000000000E+00   -0.2500000000000000E+01    0.1250000000000000E+01
    0.0000000000000000E+00   -0.2500000000000000E+01    0.2500000000000000E+01
    0.0000000000000000E+00   -0.2500000000000000E+01    0.3750000000000000E+01
    0.0000000000000000E+00    0.1558308132739014E+01    0.4042003247744892E+01
    0.0000000000000000E+00   -0.1548001304379777E+01    0.9304122287900499E+00
    0.0000000000000000E+00    0.1462892710085612E+01    0.1037243024609388E+01
    0.0000000000000000E+00   -0.1445243809615570E+01    0.3946240828834967E+01
    0.0000000000000000E+00   -0.3455338993778935E+00    0.4092527262848217E+01
    0.0000000000000000E+00    0.6277660831404320E+00    0.4293103109154542E+01
    0.0000000000000000E+00    0.7429886854239611E+00    0.3241512314643519E+01
    0.0000000000000000E+00   -0.1588117879734118E+01    0.2844289952419609E+01
    0.0000000000000000E+00   -0.6002320124191652E+00    0.7159905765450471E+00
    0.0000000000000000E+00   -0.7398147869923652E+00    0.1754341919796891E+01
    0.0000000000000000E+00   -0.1788622905643739E+01    0.1870296826774691E+01
    0.0000000000000000E+00    0.3083720183248586E+00    0.9220614901912976E+00
    0.0000000000000000E+00    0.1777901774806180E+01    0.3101523624086016E+01
    0.0000000000000000E+00    0.1576861561598471E+01    0.2192512063922564E+01
[...]
POINT_DATA 213
SCALARS rho double 1
LOOKUP_TABLE default
   0.1344267000413715E+01
   0.9569620321927461E+00
   0.9462826811629627E+00
   0.9418683836252386E+00
   0.8437288240079941E+00
   0.7737784997629240E+00
   0.7629655331863003E+00
   0.7664231955177447E+00
   0.8307795745782567E+00
   0.9352921263226678E+00
   0.9341975934500203E+00
   0.9617063662286128E+00
   0.1449458135916293E+01
   0.1494082252813427E+01
   0.1644657568754002E+01
   0.1425833240325242E+01
   0.1009002243361442E+01
   0.9508646768781525E+00
   0.9436502641169053E+00
   0.9581489081107518E+00
   0.9415724158463793E+00
   0.1036366298644481E+01
   0.9255999301827587E+00
   0.9322179632313040E+00
   0.9537387285857972E+00
   0.9518642124435719E+00
   0.9348365642937497E+00
   0.9563934973986272E+00
   0.9376030619533129E+00
   0.9300513985963946E+00
   0.9445029129545577E+00
   0.8863352776443528E+00
   0.9423501352057243E+00
   0.9635378204638954E+00
   0.1008308816343060E+01
   0.1006769192212038E+01
   0.1001857477537768E+01
   0.1003124459328093E+01
   0.1004093802831528E+01
   0.1005222969898008E+01
   0.1004259124148540E+01
   0.1008292614617854E+01
   0.1023882347710323E+01
   0.1063537223787913E+01
   0.1019173465445529E+01
   0.1001771535004472E+01
   0.9644010163383681E+00
   0.1005265186488797E+01
   0.1000700066412648E+01
   0.1008724216224339E+01
   0.1008060749613010E+01
   0.1002336141488218E+01
   0.9980001409501451E+00
   0.1000580101589345E+01
   0.1001603197341999E+01
   0.9826720313099920E+00
   0.9842340556844853E+00
   0.9833218554689277E+00
   0.9788541655120943E+00
   0.9902494655013292E+00
   0.9934419868795787E+00
   0.1001926398200618E+01
   0.1002058846402942E+01
   0.1002230166198961E+01
   0.1001729288377737E+01
   0.1009794417352173E+01
   0.1006420935296500E+01
   0.9558518580103449E+00
   0.9249384785722156E+00
   0.1007036466054582E+01
   0.1004507811463337E+01
   0.9143645041649759E+00
   0.9089893957716221E+00
   0.8751868710948282E+00
   0.9766925958757517E+00
   0.1000419764214021E+01
   0.1005832486418156E+01
   0.1012901387426946E+01
   0.1011639591937782E+01
   0.1010468741155669E+01
   0.1005447286682219E+01
   0.9907369305293487E+00
   0.1005160984597714E+01
   0.9860350806759614E+00
   0.1005591815624508E+01
   0.1004242228680573E+01
   0.1002869574284103E+01
   0.1003327520863853E+01
   0.1003986596259359E+01
   0.1005087301763821E+01
   0.1003200196596604E+01
   0.1002632328417501E+01
   0.1002499085092177E+01
   0.1004049300742101E+01
   0.1004298169704862E+01
   0.1001608577157405E+01
   0.1002211483751281E+01
   0.1002464942544887E+01
   0.1003437273137231E+01
   0.1003363256529101E+01
   0.1003220434233248E+01
   0.1004417354375360E+01
   0.1004307315816279E+01
   0.1003649597999172E+01
   0.1003660287925278E+01
   0.1004304099793682E+01
   0.1004446788038073E+01
   0.1003592197236624E+01
   0.1064415892374476E+01
   0.1028463302940734E+01
   0.1009570537809690E+01
   0.1006630232969564E+01
   0.1163915950720112E+01
   0.1086088956502166E+01
   0.1007875703342812E+01
   0.1007229067285855E+01
   0.1006789465446998E+01
   0.1013007950762078E+01
   0.1019369738950207E+01
   0.1235197103073097E+01
   0.1032525198007338E+01
   0.1046663650513974E+01
   0.1200941082412715E+01
   0.1014711034182431E+01
   0.1032275202914683E+01
   0.1028080401630273E+01
   0.1014614952504624E+01
   0.1029208801615877E+01
   0.1001987058506234E+01
   0.9607032358623496E+00
   0.1006839685929777E+01
   0.1001310168271933E+01
   0.1010807273522362E+01
   0.1012236439277312E+01
   0.1000934542147116E+01
   0.9979042887993003E+00
   0.9980562526133494E+00
   0.1001168934069216E+01
   0.9841073308339945E+00
   0.9814616482374945E+00
   0.9648470890296386E+00
   0.9680776361026188E+00
   0.9914092086556349E+00
   0.9910730727632741E+00
   0.9925395475824568E+00
   0.1001710413747809E+01
   0.9993232977687161E+00
   0.9941281323140038E+00
   0.1007024421337205E+01
   0.1022528039149089E+01
   0.1001086544364274E+01
   0.1008782629873400E+01
   0.1004757532801872E+01
   0.1009029261708575E+01
   0.9966337568876191E+00
   0.1004979677136636E+01
   0.1003316804587169E+01
   0.9949326953659702E+00
   0.9832512907018441E+00
   0.9943801867415093E+00
   0.9973370813239902E+00
   0.9931993230846227E+00
   0.1001297996682581E+01
   0.1002993522330053E+01
   0.1002168356563920E+01
   0.9947060780042205E+00
   0.9937906937225250E+00
   0.1004853217117789E+01
   0.1020064253169438E+01
   0.1005353752620320E+01
   0.9816911513550676E+00
   0.1004961378543255E+01
   0.1012366190138056E+01
   0.9871320563544744E+00
   0.9551461646859666E+00
   0.9864982442936222E+00
   0.9864417854893777E+00
   0.9918881072213267E+00
   0.9933389886990007E+00
   0.9954305776741944E+00
   0.1037328900601407E+01
   0.1033524495912610E+01
   0.1001426029502351E+01
   0.1001912801686112E+01
   0.9912324224707054E+00
   0.9910790414669640E+00
   0.9648200231976433E+00
   0.9933159688155032E+00
   0.1006058190758502E+01
   0.1001951445833189E+01
   0.9908606841092561E+00
   0.9740756594256614E+00
   0.9418723936108829E+00
   0.9819200908476292E+00
   0.9794670295735391E+00
   0.9704193760228640E+00
   0.9720239413913906E+00
   0.9557222762851175E+00
   0.9496779678937549E+00
   0.9528788100499374E+00
   0.1002641724594169E+01
   0.1002466660775771E+01
   0.1000501760870143E+01
   0.1001691470567204E+01
   0.9607697470537234E+00
   0.9492033409113831E+00
   0.9584631968573195E+00
   0.1001115862681399E+01
   0.1000492359591275E+01
   0.1001169299545013E+01
   0.9807286206700940E+00
   0.9805902042940345E+00
   0.9628514380011839E+00
SCALARS u double 1
LOOKUP_TABLE default
   0.0000000000000000E+00
   0.0000000000000000E+00
   0.0000000000000000E+00
   0.0000000000000000E+00
   0.0000000000000000E+00
   0.0000000000000000E+00
   0.0000000000000000E+00
   0.0000000000000000E+00
   0.0000000000000000E+00
   0.0000000000000000E+00
   0.0000000000000000E+00
   0.0000000000000000E+00
   0.0000000000000000E+00
   0.0000000000000000E+00
   0.0000000000000000E+00
   0.0000000000000000E+00
   0.0000000000000000E+00
   0.0000000000000000E+00
   0.0000000000000000E+00
   0.0000000000000000E+00
   0.0000000000000000E+00
   0.0000000000000000E+00
   0.0000000000000000E+00
   0.0000000000000000E+00
   0.0000000000000000E+00
   0.0000000000000000E+00
   0.0000000000000000E+00
   0.0000000000000000E+00
   0.0000000000000000E+00
   0.0000000000000000E+00
   0.0000000000000000E+00
   0.0000000000000000E+00
   0.0000000000000000E+00
   0.4949278838886235E+00
   0.5338112571658506E+00
   0.5183807327604673E+00
   0.4930034841827050E+00
   0.4845359641436445E+00
   0.4867358496879588E+00
   0.4891296829757270E+00
   0.4958382996281006E+00
   0.4898330495029767E+00
   0.4717517668930579E+00
   0.4455021596235141E+00
   0.4833967739100514E+00
   0.5099454999022418E+00
   0.4390219943912883E+00
   0.4949635061653122E+00
   0.5225566256567968E+00
   0.4962573746844069E+00
   0.5226346094685524E+00
   0.5039535202597655E+00
   0.5647638573174900E+00
   0.5248437878025624E+00
   0.4992291382403130E+00
   0.5730321158582281E+00
   0.5695644891280417E+00
   0.3737818145058692E+00
   0.3998085540591878E+00
   0.5599353494209370E+00
   0.5565001965287796E+00
   0.4941813992181860E+00
   0.4948052120212447E+00
   0.4925088039979825E+00
   0.4913885557713154E+00
   0.5162950045836636E+00
   0.5361795625797623E+00
   0.4947210284423703E+00
   0.4523786190276335E+00
   0.5129045060773406E+00
   0.5118476408027233E+00
   0.4783159237273175E+00
   0.4931484088391275E+00
   0.4602858075064178E+00
   0.5245013195894250E+00
   0.5297469835591470E+00
   0.5129821420490333E+00
   0.5328335664653404E+00
   0.5309087779300933E+00
   0.5310009734335107E+00
   0.5063871071176781E+00
   0.5282251788891572E+00
   0.5410274023252434E+00
   0.5361270552941725E+00
   0.5374182777584716E+00
   0.4965531456137099E+00
   0.4975464782845018E+00
   0.4963925671873843E+00
   0.4955397965965377E+00
   0.4904527085099862E+00
   0.4902488186478987E+00
   0.4860455917962490E+00
   0.4851910958428344E+00
   0.4932252263475246E+00
   0.4910081432981497E+00
   0.4830821638194596E+00
   0.4871170095206624E+00
   0.4878477588411410E+00
   0.4871553985329596E+00
   0.4881579535957550E+00
   0.4952683142024827E+00
   0.4900944239839263E+00
   0.4903796503808822E+00
   0.4944436879196584E+00
   0.4866873873824023E+00
   0.4892339654547691E+00
   0.4881387705450987E+00
   0.4877631460398048E+00
   0.4446943047605742E+00
   0.4700133575612693E+00
   0.4892142244511648E+00
   0.4885079337314848E+00
   0.4506815303440950E+00
   0.4687225023682758E+00
   0.4877080643354474E+00
   0.4868379886617720E+00
   0.4909073559725154E+00
   0.4793680999700614E+00
   0.4658289092407555E+00
   0.3792814412280980E+00
   0.4901621222668165E+00
   0.4486862235521485E+00
   0.4436310729183204E+00
   0.4845238727744297E+00
   0.4622157396670182E+00
   0.4665991083430569E+00
   0.4748309160311472E+00
   0.4894644232878050E+00
   0.5086550539119681E+00
   0.4314870157578909E+00
   0.4927489960360956E+00
   0.5318444358916651E+00
   0.4913494634923723E+00
   0.5207125673764852E+00
   0.5061666753615153E+00
   0.5689355773517696E+00
   0.5274827394578077E+00
   0.5015535829568029E+00
   0.5821440463467349E+00
   0.5689329853998355E+00
   0.3406475286730369E+00
   0.3789657081710369E+00
   0.5751939189211202E+00
   0.5666642867598116E+00
   0.5704151782304034E+00
   0.5291209051864929E+00
   0.5452011432272468E+00
   0.5718763411607739E+00
   0.5389245378480925E+00
   0.5475596040436723E+00
   0.5821760118396260E+00
   0.4925752684044640E+00
   0.5042528470326192E+00
   0.4961885205255412E+00
   0.5565263681445977E+00
   0.4758940615707808E+00
   0.4950522659512869E+00
   0.5498882796083621E+00
   0.5891054195702813E+00
   0.5842296312038701E+00
   0.5469767084767140E+00
   0.5805360493007607E+00
   0.5106923149161822E+00
   0.5030846382474892E+00
   0.5034173153974927E+00
   0.5676683821523461E+00
   0.5564306285155571E+00
   0.4947552086843173E+00
   0.5505317346703537E+00
   0.5510885863172260E+00
   0.5657340317067776E+00
   0.4920277500882720E+00
   0.4927385200003958E+00
   0.3865374074092641E+00
   0.3688047611927549E+00
   0.5574785250486054E+00
   0.5763755108411441E+00
   0.4194224111877979E+00
   0.5824673329827640E+00
   0.4265483709187557E+00
   0.5392952491262470E+00
   0.5012211005872873E+00
   0.5120001187707588E+00
   0.5049940154710433E+00
   0.5751857645031453E+00
   0.5876531093115075E+00
   0.5379510678087368E+00
   0.5677452005539843E+00
   0.5351892298763011E+00
   0.5338507261128423E+00
   0.5580391325235842E+00
   0.5512159836356567E+00
   0.4261539341021355E+00
   0.5273063725990910E+00
   0.5795607660795344E+00
   0.3319009020639380E+00
   0.4760038871413141E+00
   0.5446177413264219E+00
   0.4798246984362773E+00
   0.3005436027316383E+00
   0.5031224202521021E+00
   0.5017683488362022E+00
   0.5129547810537981E+00
   0.5415535058552787E+00
   0.3437629136199112E+00
   0.3398105929893401E+00
   0.3189704050155595E+00
   0.5066520739847542E+00
   0.5124251027322039E+00
   0.5331277800715850E+00
   0.5879313268163970E+00
   0.4644225947064519E+00
   0.3531739655639431E+00
SCALARS v double 1
LOOKUP_TABLE default
   0.0000000000000000E+00
   0.0000000000000000E+00
   0.0000000000000000E+00
   0.0000000000000000E+00
   0.0000000000000000E+00
   0.0000000000000000E+00
   0.0000000000000000E+00
   0.0000000000000000E+00
   0.0000000000000000E+00
   0.0000000000000000E+00
   0.0000000000000000E+00
   0.0000000000000000E+00
   0.0000000000000000E+00
   0.0000000000000000E+00
   0.0000000000000000E+00
   0.0000000000000000E+00
   0.0000000000000000E+00
   0.0000000000000000E+00
   0.0000000000000000E+00
   0.0000000000000000E+00
   0.0000000000000000E+00
   0.0000000000000000E+00
   0.0000000000000000E+00
   0.0000000000000000E+00
   0.0000000000000000E+00
   0.0000000000000000E+00
   0.0000000000000000E+00
   0.0000000000000000E+00
   0.0000000000000000E+00
   0.0000000000000000E+00
   0.0000000000000000E+00
   0.0000000000000000E+00
   0.0000000000000000E+00
   0.0000000000000000E+00
   0.0000000000000000E+00
   0.0000000000000000E+00
   0.0000000000000000E+00
   0.0000000000000000E+00
   0.0000000000000000E+00
   0.0000000000000000E+00
   0.0000000000000000E+00
   0.0000000000000000E+00
   0.0000000000000000E+00
   0.0000000000000000E+00
   0.0000000000000000E+00
   0.0000000000000000E+00
   0.0000000000000000E+00
   0.0000000000000000E+00
   0.0000000000000000E+00
   0.0000000000000000E+00
   0.0000000000000000E+00
   0.0000000000000000E+00
   0.0000000000000000E+00
   0.0000000000000000E+00
   0.0000000000000000E+00
   0.0000000000000000E+00
   0.0000000000000000E+00
   0.0000000000000000E+00
   0.0000000000000000E+00
   0.0000000000000000E+00
   0.0000000000000000E+00
   0.8482662955375644E-03
  -0.1304809187136913E-02
  -0.1340582185986446E-02
   0.0000000000000000E+00
   0.0000000000000000E+00
   0.0000000000000000E+00
   0.0000000000000000E+00
  -0.1923078233563644E-01
   0.4847957965049759E-03
   0.2195886911765901E-02
   0.1426111877243474E-01
  -0.6492474223667125E-02
  -0.7805616136045968E-02
  -0.1326830756376242E-01
   0.4917522477315736E-02
   0.7041412384932162E-03
   0.3452769869357578E-02
   0.1930187670502586E-02
   0.3168879688564062E-02
   0.1729140275504899E-02
  -0.7321897478360846E-02
  -0.7611044982155419E-04
   0.4468149255517830E-02
  -0.4237845808291243E-03
  -0.6678084070372148E-04
  -0.1962045224738252E-03
   0.8183880525749381E-03
   0.0000000000000000E+00
   0.0000000000000000E+00
   0.0000000000000000E+00
   0.0000000000000000E+00
   0.4671037327013479E-03
   0.1639442470551777E-02
  -0.1311299468538911E-02
  -0.1035797615776159E-02
  -0.2155056632873236E-02
  -0.1051923480097616E-02
  -0.8338626303236855E-03
  -0.7493787365269177E-03
   0.6587514109744291E-04
  -0.5940800634534584E-03
   0.8051523377081355E-03
  -0.1744965064632634E-02
   0.2675505784360852E-03
  -0.1031848523621094E-03
  -0.9479562979458601E-03
  -0.1104273174603048E-02
   0.0000000000000000E+00
   0.0000000000000000E+00
   0.0000000000000000E+00
  -0.1062547040720485E-02
  -0.7643247143322890E-02
   0.1860875981801557E-01
  -0.2860873423220674E-04
  -0.1392507818103674E-02
  -0.2043723388436090E-02
  -0.5677095898856578E-02
  -0.1593403431839197E-02
  -0.5949643898028052E-02
  -0.4165078001322734E-02
   0.1565902416678785E-02
   0.3329587418913508E-01
   0.2717118077750037E-04
  -0.2767415801436515E-02
   0.3563870296147865E-02
   0.3507528262910451E-03
   0.0000000000000000E+00
   0.0000000000000000E+00
   0.0000000000000000E+00
   0.0000000000000000E+00
   0.0000000000000000E+00
   0.0000000000000000E+00
   0.0000000000000000E+00
   0.0000000000000000E+00
   0.0000000000000000E+00
   0.0000000000000000E+00
   0.0000000000000000E+00
   0.0000000000000000E+00
   0.0000000000000000E+00
   0.0000000000000000E+00
   0.0000000000000000E+00
   0.0000000000000000E+00
   0.0000000000000000E+00
   0.5062168348510493E-02
   0.3232573611102612E-02
   0.8161448018690299E-02
   0.6169393916080572E-02
   0.1123167005698495E-01
   0.1429342656468280E-01
  -0.2049565885823481E-03
   0.5112349466917379E-02
   0.2924181900218919E-02
   0.3374560011067098E-02
   0.3731860087687279E-02
  -0.1466846402849124E-01
  -0.6098932667235567E-03
   0.6672313336025045E-02
   0.1543590911986900E-02
   0.1983929142602964E-02
   0.4297978811312887E-02
  -0.2770261713636757E-02
   0.1248641026098183E-02
   0.2837719041072699E-02
   0.1523869532982748E-02
   0.2602701703379100E-02
   0.2047987073047230E-02
   0.2124922790102360E-02
   0.8698335894272800E-02
  -0.3737753639567008E-02
   0.6242120465503403E-02
   0.3334277672994053E-04
  -0.3946628922152955E-03
  -0.1677884895169217E-01
  -0.4892217902028743E-02
  -0.4720315582047880E-02
   0.3447899725831727E-02
  -0.6151600029635401E-02
   0.9568142492324948E-04
  -0.3292955266618280E-01
  -0.3045441299264936E-02
   0.4726500238757835E-02
   0.9418248327896444E-03
   0.2128824190189322E-02
   0.4537397741639370E-02
   0.2724989691846641E-02
   0.3212934134365578E-02
   0.5207172720476958E-02
   0.1947749604167355E-02
   0.7433350327859278E-03
  -0.2612153813757529E-04
  -0.5378989310307892E-02
  -0.6963751271431405E-02
  -0.9632105479059290E-03
   0.1118466675259739E-02
  -0.2075607279515877E-02
  -0.3192058408934704E-02
  -0.2523485479553132E-02
  -0.4120845436545179E-02
  -0.7597846678171805E-02
  -0.1995693145927374E-02
   0.6427049590315986E-03
  -0.2129251316727438E-03
   0.1239494516869235E-02
  -0.3507952687207669E-02
   0.5219762610319006E-02
  -0.8489354718691377E-02
   0.2876554071695211E-04
  -0.3440166955693355E-03
   0.2559417532930926E-02
   0.1663761845032125E-02
   0.2025161862218399E-02
  -0.5634429832455674E-02
SCALARS w double 1
LOOKUP_TABLE default
   0.0000000000000000E+00
   0.0000000000000000E+00
   0.0000000000000000E+00
   0.0000000000000000E+00
   0.0000000000000000E+00
   0.0000000000000000E+00
   0.0000000000000000E+00
   0.0000000000000000E+00
   0.0000000000000000E+00
   0.0000000000000000E+00
   0.0000000000000000E+00
   0.0000000000000000E+00
   0.0000000000000000E+00
   0.0000000000000000E+00
   0.0000000000000000E+00
   0.0000000000000000E+00
   0.0000000000000000E+00
   0.0000000000000000E+00
   0.0000000000000000E+00
   0.0000000000000000E+00
   0.0000000000000000E+00
   0.0000000000000000E+00
   0.0000000000000000E+00
   0.0000000000000000E+00
   0.0000000000000000E+00
   0.0000000000000000E+00
   0.0000000000000000E+00
   0.0000000000000000E+00
   0.0000000000000000E+00
   0.0000000000000000E+00
   0.0000000000000000E+00
   0.0000000000000000E+00
   0.0000000000000000E+00
  -0.1007682231897262E+00
  -0.4250163598490189E-01
   0.8003975443715141E-03
   0.5838626708435501E-02
   0.6843977690219580E-03
   0.1636365975235978E-02
   0.3339558687722794E-02
   0.2343076452162528E-02
   0.4494777429172919E-03
   0.3515597948386607E-02
   0.4522733711735414E-01
   0.6522545328965290E-01
   0.9260771825617530E-03
  -0.2263933884069024E-01
   0.4312180449645335E-02
   0.1361076497769242E-01
   0.1039593129338336E-01
   0.4901013719155168E-01
   0.2440223161145120E-02
  -0.6507074941693432E-02
  -0.6965276022933101E-03
   0.3399675618465616E-03
   0.3907621141596790E-02
  -0.3895810503009370E-01
   0.1798256865263011E-01
   0.1120032627396033E-01
   0.3404880288672437E-01
   0.8456288715323714E-02
   0.4998654364594379E-02
   0.5009528704699695E-02
   0.4891471922910563E-02
   0.6070359856316086E-02
   0.2618934061720013E-02
  -0.4147031509379445E-01
  -0.9954686180079371E-01
  -0.1121627063566297E+00
   0.5101983213451502E-02
   0.4315345167138391E-02
  -0.1004494785901782E+00
  -0.9891172246112051E-01
  -0.9872416240658025E-01
  -0.9459750277585775E-01
  -0.6807735246515165E-01
   0.5209471280632570E-02
  -0.1933491788768782E-01
  -0.1576566159705771E-01
  -0.5957718043977146E-02
   0.6898336969068626E-02
  -0.8011052447527936E-01
  -0.2780051423372030E-01
  -0.8093431562996395E-01
  -0.5870810953297531E-01
   0.3061935581020990E-02
   0.2691047374198436E-02
   0.2653917836385012E-02
   0.3447456387787361E-02
   0.4000658977285308E-02
   0.1202943242697665E-02
  -0.1419857664426256E-03
   0.2129885223887332E-02
   0.4886461027902031E-02
   0.3841657165462090E-02
   0.1118130734918951E-02
   0.1225644500684707E-02
   0.1515727638190481E-02
   0.1565463356069676E-05
   0.7662036148827898E-04
   0.4380883489811236E-02
   0.2696882880737204E-02
   0.2314565492642314E-02
   0.4995451923288080E-02
   0.1138644288122370E-02
   0.2713088911505997E-02
   0.1994183523601069E-02
   0.4315617695174297E-04
   0.8373818309799834E-01
   0.2783369640343128E-02
  -0.8384869781421187E-03
  -0.1612722281561383E-03
   0.1409485909112189E+00
   0.1239155911980449E+00
  -0.1198499681147886E-02
  -0.4382545482031412E-02
  -0.3167620886117680E-03
  -0.6515694402518318E-02
  -0.1956923997966441E-02
   0.1557643561571491E+00
   0.7489214542344180E-01
   0.2549333441073448E-01
   0.1656404319421251E+00