title="tecplot geometry and solution file"
variables = x y z rho u v w p mach temperature
zone t="boundary 1 bc-1", solutiontime= 0.5000000E+02, strandid=1001, i=32, j=46, f=feblock
  0.000000000000E+00  0.000000000000E+00  0.000000000000E+00  0.000000000000E+00  0.000000000000E+00  0.000000000000E+00  0.000000000000E+00
  0.000000000000E+00  0.000000000000E+00  0.000000000000E+00  0.000000000000E+00  0.000000000000E+00  0.000000000000E+00  0.000000000000E+00
  0.000000000000E+00  0.000000000000E+00  0.000000000000E+00  0.000000000000E+00  0.000000000000E+00  0.000000000000E+00  0.000000000000E+00
  0.000000000000E+00  0.000000000000E+00  0.000000000000E+00  0.000000000000E+00  0.000000000000E+00  0.000000000000E+00  0.000000000000E+00
  0.000000000000E+00  0.000000000000E+00  0.000000000000E+00  0.000000000000E+00
  0.250000000000E+01  0.250000000000E+01  0.125000000000E+01  0.146289271009E+01  0.157686156160E+01  0.308372018325E+00  0.000000000000E+00
 -0.125000000000E+01 -0.600232012419E+00  0.250000000000E+01  0.477386199275E+00  0.742988685424E+00 -0.739814786992E+00  0.177790177481E+01
  0.155830813274E+01  0.250000000000E+01 -0.250000000000E+01 -0.154800130438E+01 -0.487811078581E+00  0.250000000000E+01  0.627766083140E+00
 -0.345533899378E+00 -0.178862290564E+01 -0.158811787973E+01  0.125000000000E+01 -0.250000000000E+01 -0.144524380962E+01  0.000000000000E+00
 -0.125000000000E+01 -0.250000000000E+01 -0.250000000000E+01 -0.250000000000E+01
  0.000000000000E+00  0.125000000000E+01  0.000000000000E+00  0.103724302461E+01  0.219251206392E+01  0.922061490191E+00  0.000000000000E+00
  0.000000000000E+00  0.715990576545E+00  0.250000000000E+01  0.202479342020E+01  0.324151231464E+01  0.175434191980E+01  0.310152362409E+01
  0.404200324774E+01  0.375000000000E+01  0.000000000000E+00  0.930412228790E+00  0.299062775774E+01  0.500000000000E+01  0.429310310915E+01
  0.409252726285E+01  0.187029682677E+01  0.284428995242E+01  0.500000000000E+01  0.125000000000E+01  0.394624082883E+01  0.500000000000E+01
  0.500000000000E+01  0.250000000000E+01  0.375000000000E+01  0.500000000000E+01
  0.134427143070E+01  0.106355395580E+01  0.142583203832E+01  0.108608796948E+01  0.103229115262E+01  0.120095363991E+01  0.164466726241E+01
  0.149409063315E+01  0.123520366651E+01  0.102389313736E+01  0.102809523590E+01  0.101301828650E+01  0.103252946660E+01  0.101471891569E+01
  0.100663883723E+01  0.100830818975E+01  0.144945744044E+01  0.116393552034E+01  0.101462863937E+01  0.100426040797E+01  0.100679807388E+01
  0.100724553299E+01  0.104668119072E+01  0.101938460899E+01  0.100424800557E+01  0.106442280114E+01  0.100789341892E+01  0.100288843745E+01
  0.100334542014E+01  0.102847362077E+01  0.100958665707E+01  0.100399273171E+01
  0.000000000000E+00  0.445481415950E+00  0.000000000000E+00  0.468737857177E+00  0.462182265036E+00  0.443613740145E+00  0.000000000000E+00
  0.000000000000E+00  0.379272524403E+00  0.471738849927E+00  0.466574954091E+00  0.479355158145E+00  0.490159652982E+00  0.484514724477E+00
  0.488524784552E+00  0.489830188846E+00  0.000000000000E+00  0.450653305964E+00  0.474814030465E+00  0.495784887778E+00  0.490899471558E+00
  0.486835368506E+00  0.448668669720E+00  0.465807175413E+00  0.496536481962E+00  0.444686657512E+00  0.487701045736E+00  0.497534090463E+00
  0.496384264566E+00  0.470002878638E+00  0.489199905909E+00  0.495522026902E+00
  0.000000000000E+00  0.000000000000E+00  0.000000000000E+00  0.186085478609E-01 -0.276688499788E-02  0.332952479776E-01  0.000000000000E+00
  0.000000000000E+00 -0.594701633522E-02  0.000000000000E+00  0.356648472590E-02 -0.566638313007E-02 -0.416060183615E-02  0.305514094143E-04
 -0.106175919242E-02  0.000000000000E+00  0.000000000000E+00 -0.764112880045E-02  0.359618991611E-03  0.000000000000E+00 -0.203512303273E-02
 -0.138312917260E-02  0.156561485674E-02 -0.158521028779E-02 -0.638374658765E-04  0.000000000000E+00 -0.283455181084E-04 -0.196339535452E-03
  0.807126744264E-03  0.000000000000E+00  0.000000000000E+00  0.000000000000E+00
  0.000000000000E+00  0.452181749476E-01  0.000000000000E+00  0.123933293914E+00  0.247647169367E-01  0.165644510326E+00  0.000000000000E+00
  0.000000000000E+00  0.155763095703E+00  0.351822589926E-02  0.259783170516E-01 -0.651224684526E-02  0.748997912152E-01  0.371839284184E-02
 -0.149294524918E-03  0.459062404043E-03  0.000000000000E+00  0.140954083054E+00 -0.808565311295E-02  0.237177347182E-02 -0.304305783829E-03
 -0.438193609424E-02  0.255017488934E-01 -0.194957041089E-02  0.308362536420E-02  0.837461420211E-01 -0.121909323883E-02  0.268514635451E-02
  0.264043130901E-02  0.279387060793E-02 -0.834662814782E-03  0.345019193032E-02
  0.960184566819E+00  0.782340561769E+00  0.101844204671E+01  0.808726657525E+00  0.746125891643E+00  0.879446498088E+00  0.117475225087E+01
  0.106719924039E+01  0.916620145535E+00  0.737395238464E+00  0.743553972159E+00  0.725759211094E+00  0.757455250455E+00  0.729188343409E+00
  0.720785048067E+00  0.722781670749E+00  0.103531921130E+01  0.858317140023E+00  0.728065073049E+00  0.718615293618E+00  0.721013448555E+00
  0.721151586905E+00  0.760018785770E+00  0.732628403167E+00  0.718531161484E+00  0.791043235211E+00  0.722107949544E+00  0.717199382834E+00
  0.717636870640E+00  0.741799736974E+00  0.724056579873E+00  0.718400634485E+00
  0.000000000000E+00  0.441238348982E+00  0.000000000000E+00  0.475214987261E+00  0.460123709446E+00  0.468827815732E+00  0.000000000000E+00
  0.000000000000E+00  0.402302517667E+00  0.469814974977E+00  0.464411129665E+00  0.478714034722E+00  0.489298241663E+00  0.483068558315E+00
  0.487930073344E+00  0.488961655116E+00  0.000000000000E+00  0.464775722428E+00  0.473795652498E+00  0.495346591807E+00  0.490266103446E+00
  0.486286084113E+00  0.445717618835E+00  0.464382275427E+00  0.496127395048E+00  0.443624103328E+00  0.486964462065E+00  0.497246279872E+00
  0.496059271033E+00  0.467732356077E+00  0.488212087683E+00  0.495098264999E+00
  0.999990301695E+00  0.102982719448E+01  0.999990761236E+00  0.104247294174E+01  0.101190080497E+01  0.102520618316E+01  0.999991420034E+00
  0.999992171429E+00  0.103891223654E+01  0.100826277292E+01  0.101252833849E+01  0.100300548279E+01  0.102702865627E+01  0.100605563273E+01
  0.100244400471E+01  0.100355660039E+01  0.999992725125E+00  0.103239739232E+01  0.100459524078E+01  0.100179336264E+01  0.100260305832E+01
  0.100234966411E+01  0.101657153058E+01  0.100617544683E+01  0.100168844797E+01  0.104043292582E+01  0.100303376367E+01  0.100118726916E+01
  0.100134171017E+01  0.100976788397E+01  0.100405369338E+01  0.100176112487E+01
        12        19        11        11
        11         5        12        12
        10        14         5         5
        19        13        11        11
        19        24        13        13
        30        23        24        24
        19        12        22        22
        28        22        21        21
        11        13         6         6
         7         6         9         9
        15        12        14        14
        18        13        23        23
        15        25        21        21
        27        19        22        22
        18         8         9         9
        27        31        24        24
         4        11         6         6
         5        14        12        12
         4         2         5         5
        21        12        15        15
        14        16        15        15
        24        19        27        27
        22        29        27        27
        23        26        18        18
        17         8        18        18
         5        11         4         4
         6         3         4         4
        26        23        30        30
         5         2        10        10
        16        14        10        10
         3         6         7         7
        21        25        28        28
        29        22        28        28
         6        13         9         9
         2         4         1         1
        31        27        32        32
        25        15        20        20
        24        23        13        13
         8         7         9         9
        13        18         9         9
        31        30        24        24
        12        21        22        22
        29        32        27        27
         3         1         4         4
        26        17        18        18
        16        20        15        15
zone t="boundary 2 bc-2", solutiontime= 0.5000000E+02, strandid=1002, i=33, j=48, f=feblock
  0.500000000000E+01  0.375000000000E+01  0.250000000000E+01  0.288078410721E+01  0.125000000000E+01  0.190974100652E+01  0.326683758169E+01
  0.201431602454E+01  0.000000000000E+00  0.963108083381E+00  0.500000000000E+01  0.403552511878E+01  0.423153924130E+01  0.500000000000E+01
  0.385533350601E+01  0.500000000000E+01  0.398173246726E+01  0.315249557942E+01  0.267000324704E+01  0.154774304040E+01  0.218329375016E+01
  0.893127759452E+00  0.000000000000E+00  0.698517061619E+00  0.964171764089E+00  0.310324758057E+01  0.000000000000E+00  0.000000000000E+00
  0.125000000000E+01  0.500000000000E+01  0.375000000000E+01  0.250000000000E+01  0.000000000000E+00
 -0.250000000000E+01 -0.250000000000E+01 -0.250000000000E+01 -0.250000000000E+01 -0.250000000000E+01 -0.250000000000E+01 -0.250000000000E+01
 -0.250000000000E+01 -0.250000000000E+01 -0.250000000000E+01 -0.250000000000E+01 -0.250000000000E+01 -0.250000000000E+01 -0.250000000000E+01
 -0.250000000000E+01 -0.250000000000E+01 -0.250000000000E+01 -0.250000000000E+01 -0.250000000000E+01 -0.250000000000E+01 -0.250000000000E+01
 -0.250000000000E+01 -0.250000000000E+01 -0.250000000000E+01 -0.250000000000E+01 -0.250000000000E+01 -0.250000000000E+01 -0.250000000000E+01
 -0.250000000000E+01 -0.250000000000E+01 -0.250000000000E+01 -0.250000000000E+01 -0.250000000000E+01
  0.000000000000E+00  0.000000000000E+00  0.000000000000E+00  0.904659890645E+00  0.000000000000E+00  0.717002441913E+00  0.188609243358E+01
  0.176246431481E+01  0.000000000000E+00  0.961328577125E+00  0.125000000000E+01  0.101201586758E+01  0.191586535653E+01  0.250000000000E+01
  0.293121848150E+01  0.375000000000E+01  0.406975391361E+01  0.363585050272E+01  0.285047954584E+01  0.292817774674E+01  0.395907379566E+01
  0.205246550326E+01  0.125000000000E+01  0.306828197606E+01  0.397245519226E+01  0.433168271247E+01  0.250000000000E+01  0.375000000000E+01
  0.500000000000E+01  0.500000000000E+01  0.500000000000E+01  0.500000000000E+01  0.500000000000E+01
  0.830787399398E+00  0.935297252782E+00  0.934221979173E+00  0.968087711713E+00  0.961719525710E+00  0.964848331089E+00  0.984136200966E+00
  0.991412446925E+00  0.144945744044E+01  0.102921689200E+01  0.955878695739E+00  0.960692918900E+00  0.981487961520E+00  0.100642910915E+01
  0.997912123427E+00  0.100977863981E+01  0.100199481667E+01  0.998063236909E+00  0.991085838797E+00  0.100132719318E+01  0.100094600664E+01
  0.101224609871E+01  0.106442280114E+01  0.101082190502E+01  0.100685258254E+01  0.100118414296E+01  0.102847362077E+01  0.100958665707E+01
  0.100510171593E+01  0.100179475814E+01  0.100266315887E+01  0.100321164495E+01  0.100399273171E+01
  0.000000000000E+00  0.000000000000E+00  0.000000000000E+00  0.378986941386E+00  0.000000000000E+00  0.340639444276E+00  0.582179008640E+00
  0.575195820261E+00  0.000000000000E+00  0.489449420995E+00  0.494741335887E+00  0.431507388178E+00  0.568961825365E+00  0.536179830332E+00
  0.568879739558E+00  0.516235684794E+00  0.508555698964E+00  0.527399282559E+00  0.566648549367E+00  0.531828923578E+00  0.506096460614E+00
  0.520701999282E+00  0.444686657512E+00  0.491339919962E+00  0.492734936327E+00  0.501504485108E+00  0.470002878638E+00  0.489199905909E+00
  0.490458183298E+00  0.491426954048E+00  0.486218275881E+00  0.490304438982E+00  0.495522026902E+00
  0.000000000000E+00  0.000000000000E+00  0.000000000000E+00  0.000000000000E+00  0.000000000000E+00  0.000000000000E+00  0.000000000000E+00
  0.000000000000E+00  0.000000000000E+00  0.000000000000E+00  0.000000000000E+00  0.000000000000E+00  0.000000000000E+00  0.000000000000E+00
  0.000000000000E+00  0.000000000000E+00  0.000000000000E+00  0.000000000000E+00  0.000000000000E+00  0.000000000000E+00  0.000000000000E+00
  0.000000000000E+00  0.000000000000E+00  0.000000000000E+00  0.000000000000E+00  0.000000000000E+00  0.000000000000E+00  0.000000000000E+00
  0.000000000000E+00  0.000000000000E+00  0.000000000000E+00  0.000000000000E+00  0.000000000000E+00
  0.000000000000E+00  0.000000000000E+00  0.000000000000E+00 -0.229669069434E-02  0.000000000000E+00  0.183565245600E-01  0.121122185298E-01
  0.454986541365E-01  0.000000000000E+00  0.870789623490E-01 -0.995426194859E-01 -0.211864971820E-01 -0.306441475044E-01 -0.414442962873E-01
 -0.137883024000E-02  0.259919275197E-02  0.609480253366E-03  0.503573189579E-03  0.150967301743E-01  0.284025718916E-01  0.564163859417E-02
  0.553419828184E-01  0.837461420211E-01  0.110441019967E-01  0.679169171486E-02 -0.758115633942E-03  0.279387060793E-02 -0.834662814782E-03
  0.400708343637E-02  0.602719323792E-02 -0.143884418261E-03  0.120121345023E-02  0.345019193032E-02
  0.593415708260E+00  0.668065253020E+00  0.667297107231E+00  0.684257572232E+00  0.686937806362E+00  0.679201335884E+00  0.695811645220E+00
  0.702343853014E+00  0.103531921130E+01  0.723694676233E+00  0.672591690561E+00  0.675702733945E+00  0.694093188672E+00  0.720959962521E+00
  0.712691281776E+00  0.724770830405E+00  0.716580562752E+00  0.713298991650E+00  0.706429557394E+00  0.717737238719E+00  0.715376602202E+00
  0.730937674612E+00  0.791043235211E+00  0.724372849625E+00  0.721010721125E+00  0.715457540347E+00  0.741799736974E+00  0.724056579873E+00
  0.719312937866E+00  0.715892799068E+00  0.716608904254E+00  0.717367939097E+00  0.718400634485E+00
  0.000000000000E+00  0.000000000000E+00  0.000000000000E+00  0.380991906733E+00  0.000000000000E+00  0.343629824803E+00  0.585286157509E+00
  0.579373263804E+00  0.000000000000E+00  0.501056068043E+00  0.508460363128E+00  0.435373027867E+00  0.572640041543E+00  0.537002098743E+00
  0.568922553917E+00  0.514994090325E+00  0.508247258934E+00  0.527252853962E+00  0.567446661216E+00  0.531657144140E+00  0.505981017315E+00
  0.520795579417E+00  0.443624103328E+00  0.490663730860E+00  0.492155874022E+00  0.501390785707E+00  0.467732356077E+00  0.488212087683E+00
  0.490002767353E+00  0.491352304366E+00  0.486075474708E+00  0.490036479823E+00  0.495098264999E+00
  0.999993490712E+00  0.999993693391E+00  0.999993546449E+00  0.989539056777E+00  0.999993140616E+00  0.985524708494E+00  0.989838908834E+00
  0.991798516621E+00  0.999992725125E+00  0.984411113539E+00  0.985091906518E+00  0.984689081091E+00  0.990058464534E+00  0.100289621827E+01
  0.999855369087E+00  0.100485306637E+01  0.100121554639E+01  0.100055642907E+01  0.997896793230E+00  0.100350029546E+01  0.100058068711E+01
  0.101093276207E+01  0.104043292582E+01  0.100326475360E+01  0.100254498730E+01  0.100045587371E+01  0.100976788397E+01  0.100405369338E+01
  0.100192656828E+01  0.100045434512E+01  0.100058774183E+01  0.100109993718E+01  0.100176112487E+01
        15         7        19        19
         8        20        19        19
        18        19        21        21
         7         4         8         8
         3         6         4         4
        19         7         8         8
        19        18        15        15
        14        13        15        15
         8        22        20        20
        27        24        22        22
        19        20        21        21
        32        26        21        21
        17        18        26        26
        17        16        15        15
        25        29        21        21
        12         7        13        13
        10         8         6         6
        25        20        24        24
         4         6         8         8
        12         2         4         4
        10        23        22        22
        26        31        17        17
        30        16        17        17
         4         7        12        12
        13        11        12        12
        21        20        25        25
        24        28        25        25
        22         8        10        10
         6         5        10        10
        31        26        32        32
         4         2         3         3
         5         6         3         3
        11        13        14        14
        22        23        27        27
        28        24        27        27
        15        13         7         7
         2        12         1         1
        29        25        33        33
        23        10         9         9
        21        26        18        18
        16        14        15        15
        18        17        15        15
        29        32        21        21
        22        24        20        20
        28        33        25        25
        11         1        12        12
        31        30        17        17
         5         9        10        10
zone t="boundary 3 bc-3", solutiontime= 0.5000000E+02, strandid=1003, i=33, j=48, f=feblock
  0.375000000000E+01  0.250000000000E+01  0.500000000000E+01  0.403552511878E+01  0.288078410721E+01  0.125000000000E+01  0.190974100652E+01
  0.500000000000E+01  0.326683758169E+01  0.423153924130E+01  0.201431602454E+01  0.000000000000E+00  0.963108083381E+00  0.500000000000E+01
  0.267000324704E+01  0.385533350601E+01  0.893127759452E+00  0.154774304040E+01  0.000000000000E+00  0.500000000000E+01  0.315249557942E+01
  0.218329375016E+01  0.398173246726E+01  0.000000000000E+00  0.698517061619E+00  0.964171764089E+00  0.125000000000E+01  0.000000000000E+00
  0.500000000000E+01  0.310324758057E+01  0.250000000000E+01  0.375000000000E+01  0.000000000000E+00
  0.250000000000E+01  0.250000000000E+01  0.250000000000E+01  0.250000000000E+01  0.250000000000E+01  0.250000000000E+01  0.250000000000E+01
  0.250000000000E+01  0.250000000000E+01  0.250000000000E+01  0.250000000000E+01  0.250000000000E+01  0.250000000000E+01  0.250000000000E+01
  0.250000000000E+01  0.250000000000E+01  0.250000000000E+01  0.250000000000E+01  0.250000000000E+01  0.250000000000E+01  0.250000000000E+01
  0.250000000000E+01  0.250000000000E+01  0.250000000000E+01  0.250000000000E+01  0.250000000000E+01  0.250000000000E+01  0.250000000000E+01
  0.250000000000E+01  0.250000000000E+01  0.250000000000E+01  0.250000000000E+01  0.250000000000E+01
  0.000000000000E+00  0.000000000000E+00  0.000000000000E+00  0.101201586758E+01  0.904659890645E+00  0.000000000000E+00  0.717002441913E+00
  0.125000000000E+01  0.188609243358E+01  0.191586535653E+01  0.176246431481E+01  0.000000000000E+00  0.961328577125E+00  0.250000000000E+01
  0.285047954584E+01  0.293121848150E+01  0.205246550326E+01  0.292817774674E+01  0.125000000000E+01  0.375000000000E+01  0.363585050272E+01
  0.395907379566E+01  0.406975391361E+01  0.250000000000E+01  0.306828197606E+01  0.397245519226E+01  0.500000000000E+01  0.375000000000E+01
  0.500000000000E+01  0.433168271247E+01  0.500000000000E+01  0.500000000000E+01  0.500000000000E+01
  0.941861268758E+00  0.946296417488E+00  0.843730486629E+00  0.964331004543E+00  0.978820741611E+00  0.956975888717E+00  0.983331401238E+00
  0.963500315524E+00  0.982689306048E+00  0.984243964902E+00  0.990263815336E+00  0.134427143070E+01  0.101918251122E+01  0.100829903902E+01
  0.993456155262E+00  0.997998684770E+00  0.100807808362E+01  0.100072116324E+01  0.106355395580E+01  0.100673529115E+01  0.100058356125E+01
  0.100234980702E+01  0.100178076600E+01  0.102389313736E+01  0.100874208351E+01  0.100528370873E+01  0.100522860277E+01  0.100830818975E+01
  0.100196461965E+01  0.100162012340E+01  0.100413205334E+01  0.100321958183E+01  0.100426040797E+01
  0.000000000000E+00  0.000000000000E+00  0.000000000000E+00  0.439071270330E+00  0.399865813044E+00  0.000000000000E+00  0.373794144273E+00
  0.495017674662E+00  0.573056189813E+00  0.569605109245E+00  0.559932658293E+00  0.000000000000E+00  0.483390703724E+00  0.533822130814E+00
  0.556458762672E+00  0.564688361126E+00  0.522615496380E+00  0.522533036194E+00  0.445481415950E+00  0.518326923128E+00  0.524750914838E+00
  0.503888174168E+00  0.509839741713E+00  0.471738849927E+00  0.496245454831E+00  0.494940396589E+00  0.489076359276E+00  0.489830188846E+00
  0.493064989606E+00  0.499146610359E+00  0.486766643360E+00  0.484757875694E+00  0.495784887778E+00
  0.000000000000E+00  0.000000000000E+00  0.000000000000E+00  0.000000000000E+00  0.000000000000E+00  0.000000000000E+00  0.000000000000E+00
  0.000000000000E+00  0.000000000000E+00  0.000000000000E+00  0.000000000000E+00  0.000000000000E+00  0.000000000000E+00  0.000000000000E+00
  0.000000000000E+00  0.000000000000E+00  0.000000000000E+00  0.000000000000E+00  0.000000000000E+00  0.000000000000E+00  0.000000000000E+00
  0.000000000000E+00  0.000000000000E+00  0.000000000000E+00  0.000000000000E+00  0.000000000000E+00  0.000000000000E+00  0.000000000000E+00
  0.000000000000E+00  0.000000000000E+00  0.000000000000E+00  0.000000000000E+00  0.000000000000E+00
  0.000000000000E+00  0.000000000000E+00  0.000000000000E+00 -0.226115195091E-01  0.111963814685E-01  0.000000000000E+00  0.179816806273E-01
 -0.100761227350E+00  0.390410709079E-02 -0.389325424239E-01  0.340377319727E-01  0.000000000000E+00  0.652293766389E-01 -0.424929701480E-01
  0.843880980602E-02 -0.650994110623E-02  0.490054836070E-01  0.135873480706E-01  0.452181749476E-01  0.737197736592E-03 -0.701223354980E-03
  0.243744324819E-02  0.868930132585E-03  0.351822589926E-02  0.103945253337E-01  0.431655351477E-02  0.337507260721E-02  0.459062404043E-03
  0.572579784698E-02  0.341102095223E-03  0.160978400376E-02  0.569905593976E-03  0.237177347182E-02
  0.672750879377E+00  0.675918855852E+00  0.602658383787E+00  0.676093764869E+00  0.691308921258E+00  0.683547254806E+00  0.690066482824E+00
  0.677274863591E+00  0.695201827907E+00  0.696250866260E+00  0.703344068576E+00  0.960184566819E+00  0.719726358875E+00  0.722866645981E+00
  0.709447758953E+00  0.713700946604E+00  0.726067413668E+00  0.716602922523E+00  0.782340561769E+00  0.722284531856E+00  0.716128637030E+00
  0.716551643617E+00  0.716546536519E+00  0.737395238464E+00  0.722682910675E+00  0.719441263948E+00  0.719566095079E+00  0.722781670749E+00
  0.716030183309E+00  0.715847822205E+00  0.718146782815E+00  0.717062470268E+00  0.718615293618E+00
  0.000000000000E+00  0.000000000000E+00  0.000000000000E+00  0.443767748540E+00  0.402286945350E+00  0.000000000000E+00  0.377550368287E+00
  0.509232120485E+00  0.575832179075E+00  0.573707404954E+00  0.562554063735E+00  0.000000000000E+00  0.490563297986E+00  0.534527097186E+00
  0.556586981821E+00  0.564391578009E+00  0.522730517461E+00  0.522052000177E+00  0.441238348982E+00  0.517182330148E+00  0.524228629963E+00
  0.503687457427E+00  0.509488566417E+00  0.469814974977E+00  0.495614442694E+00  0.494483780347E+00  0.488562429343E+00  0.488961655116E+00
  0.492980746296E+00  0.499005550554E+00  0.486460937499E+00  0.484596931411E+00  0.495346591807E+00
  0.999989342773E+00  0.999989412097E+00  0.999989630187E+00  0.981541883810E+00  0.988773989575E+00  0.999989830477E+00  0.982469465266E+00
  0.984104305676E+00  0.990427547221E+00  0.990355285401E+00  0.994362997775E+00  0.999990301695E+00  0.988652072940E+00  0.100368369423E+01
  0.999769196934E+00  0.100118501206E+01  0.100834885278E+01  0.100252111016E+01  0.102982719448E+01  0.100443319459E+01  0.100199536617E+01
  0.100082056587E+01  0.100138192425E+01  0.100826277292E+01  0.100298787122E+01  0.100192389549E+01  0.100215267486E+01  0.100355660039E+01
  0.100047670045E+01  0.100056591084E+01  0.100126820232E+01  0.100066573317E+01  0.100179336264E+01
        15         9        16        16
        15        18        11        11
        22        15        21        21
        11         5         9         9
         5         7         2         2
        11         9        15        15
        16        21        15        15
        16        10        14        14
        18        17        11        11
        17        25        24        24
        22        18        15        15
        22        30        31        31
        30        21        23        23
        16        20        23        23
        22        27        26        26
        10         9         4         4
         7        11        13        13
        25        18        26        26
        11         7         5         5
         5         1         4         4
        17        19        13        13
        23        32        30        30
        23        20        29        29
         4         9         5         5
         4         8        10        10
        26        18        22        22
        26        28        25        25
        13        11        17        17
        13         6         7         7
        31        30        32        32
         2         1         5         5
         2         7         6         6
        14        10         8         8
        24        19        17        17
        24        25        28        28
         9        10        16        16
         3         4         1         1
        33        26        27        27
        12        13        19        19
        21        30        22        22
        16        14        20        20
        16        23        21        21
        22        31        27        27
        18        25        17        17
        26        33        28        28
         4         3         8         8
        23        29        32        32
        13        12         6         6
zone t="boundary 4 bc-4", solutiontime= 0.5000000E+02, strandid=1004, i=32, j=46, f=feblock
  0.125000000000E+01  0.219251206392E+01  0.103724302461E+01  0.500000000000E+01  0.250000000000E+01  0.375000000000E+01  0.404200324774E+01
  0.500000000000E+01  0.000000000000E+00  0.310152362409E+01  0.202479342020E+01  0.324151231464E+01  0.922061490191E+00  0.000000000000E+00
  0.299062775774E+01  0.394624082883E+01  0.500000000000E+01  0.409252726285E+01  0.500000000000E+01  0.429310310915E+01  0.175434191980E+01
  0.284428995242E+01  0.000000000000E+00  0.000000000000E+00  0.715990576545E+00  0.930412228790E+00  0.125000000000E+01  0.187029682677E+01
  0.500000000000E+01  0.375000000000E+01  0.250000000000E+01  0.000000000000E+00
  0.250000000000E+01  0.157686156160E+01  0.146289271009E+01  0.250000000000E+01  0.250000000000E+01  0.250000000000E+01  0.155830813274E+01
  0.125000000000E+01  0.250000000000E+01  0.177790177481E+01  0.477386199275E+00  0.742988685424E+00  0.308372018325E+00  0.125000000000E+01
 -0.487811078581E+00 -0.144524380962E+01 -0.125000000000E+01 -0.345533899378E+00  0.000000000000E+00  0.627766083140E+00 -0.739814786992E+00
 -0.158811787973E+01  0.000000000000E+00 -0.125000000000E+01 -0.600232012419E+00 -0.154800130438E+01 -0.250000000000E+01 -0.178862290564E+01
 -0.250000000000E+01 -0.250000000000E+01 -0.250000000000E+01 -0.250000000000E+01
  0.500000000000E+01  0.500000000000E+01  0.500000000000E+01  0.500000000000E+01  0.500000000000E+01  0.500000000000E+01  0.500000000000E+01
  0.500000000000E+01  0.500000000000E+01  0.500000000000E+01  0.500000000000E+01  0.500000000000E+01  0.500000000000E+01  0.500000000000E+01
  0.500000000000E+01  0.500000000000E+01  0.500000000000E+01  0.500000000000E+01  0.500000000000E+01  0.500000000000E+01  0.500000000000E+01
  0.500000000000E+01  0.500000000000E+01  0.500000000000E+01  0.500000000000E+01  0.500000000000E+01  0.500000000000E+01  0.500000000000E+01
  0.500000000000E+01  0.500000000000E+01  0.500000000000E+01  0.500000000000E+01
  0.100522860277E+01  0.100432972613E+01  0.100432034559E+01  0.100196461965E+01  0.100413205334E+01  0.100321958183E+01  0.100258623299E+01
  0.100201175420E+01  0.100426040797E+01  0.100372310357E+01  0.100446502163E+01  0.100346952052E+01  0.100365984913E+01  0.100424800557E+01
  0.100362337480E+01  0.100164191946E+01  0.100227632638E+01  0.100227311647E+01  0.100213446720E+01  0.100254347667E+01  0.100442386291E+01
  0.100337263974E+01  0.100288843745E+01  0.100334542014E+01  0.100323222997E+01  0.100406087089E+01  0.100510171593E+01  0.100431307050E+01
  0.100179475814E+01  0.100266315887E+01  0.100321164495E+01  0.100399273171E+01
  0.489076359276E+00  0.489238600126E+00  0.490983332147E+00  0.493064989606E+00  0.486766643360E+00  0.484757875694E+00  0.485404962495E+00
  0.494262736411E+00  0.495784887778E+00  0.486800249658E+00  0.488139338585E+00  0.487244596445E+00  0.494423293379E+00  0.496536481962E+00
  0.487845784852E+00  0.483219470754E+00  0.492573587974E+00  0.487262282353E+00  0.494865949239E+00  0.488012497638E+00  0.490096717276E+00
  0.488269667064E+00  0.497534090463E+00  0.496384264566E+00  0.495259756066E+00  0.493216439238E+00  0.490458183298E+00  0.490400009529E+00
  0.491426954048E+00  0.486218275881E+00  0.490304438982E+00  0.495522026902E+00
  0.000000000000E+00 -0.893973192638E-04 -0.129755081524E-02  0.000000000000E+00  0.000000000000E+00  0.000000000000E+00  0.425702046235E-03
  0.797025605213E-03  0.000000000000E+00  0.274713439713E-03 -0.942430795912E-03 -0.820004667066E-03 -0.174523845299E-02 -0.638374658765E-04
 -0.110022565080E-02 -0.102277308021E-02 -0.133259049683E-02 -0.213433858816E-02 -0.132929167677E-02 -0.106401013845E-02 -0.624408463596E-03
 -0.761701584735E-03 -0.196339535452E-03  0.807126744264E-03  0.520226529160E-04  0.161630473271E-02  0.000000000000E+00  0.791647255993E-03
  0.000000000000E+00  0.000000000000E+00  0.000000000000E+00  0.000000000000E+00