# vtk DataFile Version 2.0
FUN3D:global_image_vtk
ASCII
DATASET UNSTRUCTURED_GRID
POINTS 213 double
    0.0000000000000000E+00    0.2500000000000000E+01    0.0000000000000000E+00
    0.1250000000000000E+01    0.2500000000000000E+01    0.0000000000000000E+00
    0.2500000000000000E+01    0.2500000000000000E+01    0.0000000000000000E+00
    0.3750000000000000E+01    0.2500000000000000E+01    0.0000000000000000E+00
    0.5000000000000000E+01    0.2500000000000000E+01    0.0000000000000000E+00
    0.5000000000000000E+01    0.1250000000000000E+01    0.0000000000000000E+00
    0.5000000000000000E+01    0.0000000000000000E+00    0.0000000000000000E+00
    0.5000000000000000E+01   -0.1250000000000000E+01    0.0000000000000000E+00
    0.5000000000000000E+01   -0.2500000000000000E+01    0.0000000000000000E+00
    0.3750000000000000E+01   -0.2500000000000000E+01    0.0000000000000000E+00
    0.2500000000000000E+01   -0.2500000000000000E+01    0.0000000000000000E+00
    0.1250000000000000E+01   -0.2500000000000000E+01    0.0000000000000000E+00
    0.0000000000000000E+00   -0.2500000000000000E+01    0.0000000000000000E+00
    0.0000000000000000E+00   -0.1250000000000000E+01    0.0000000000000000E+00
    0.0000000000000000E+00    0.0000000000000000E+00    0.0000000000000000E+00
    0.0000000000000000E+00    0.1250000000000000E+01    0.0000000000000000E+00
    0.9058375365086910E+00    0.1578994732800803E+01    0.0000000000000000E+00
    0.3982050490726493E+01   -0.1583989954232354E+01    0.0000000000000000E+00
    0.4033849428301197E+01    0.1453322699199022E+01    0.0000000000000000E+00
    0.1040505887381675E+01   -0.1479596339503735E+01    0.0000000000000000E+00
    0.1099454400140349E+01   -0.3227322616384110E+00    0.0000000000000000E+00
    0.7354504170366591E+00    0.6593508822075582E+00    0.0000000000000000E+00
    0.1622302608453282E+01    0.8256214013940779E+00    0.0000000000000000E+00
    0.2145871574390382E+01   -0.1650070333782557E+01    0.0000000000000000E+00
    0.4086422318222992E+01   -0.4612828702537229E+00    0.0000000000000000E+00
    0.2979540174134984E+01   -0.8579242121530853E+00    0.0000000000000000E+00
    0.3045064261640043E+01   -0.1836846154397680E+01    0.0000000000000000E+00
    0.3428197553792836E+01    0.3508002863614053E+00    0.0000000000000000E+00
    0.4309693860063405E+01    0.5185680230613409E+00    0.0000000000000000E+00
    0.1827272193562204E+01    0.1738996113203182E+01    0.0000000000000000E+00
    0.2808563282768077E+01    0.1325493893339706E+01    0.0000000000000000E+00
    0.1895995683864404E+01   -0.8731419609589618E+00    0.0000000000000000E+00
    0.2273179336307740E+01    0.4906150219227333E-01    0.0000000000000000E+00
    0.5000000000000000E+01    0.2500000000000000E+01    0.1250000000000000E+01
    0.5000000000000000E+01    0.2500000000000000E+01    0.2500000000000000E+01
    0.5000000000000000E+01    0.2500000000000000E+01    0.3750000000000000E+01
    0.5000000000000000E+01    0.2500000000000000E+01    0.5000000000000000E+01
    0.3750000000000000E+01    0.2500000000000000E+01    0.5000000000000000E+01
    0.2500000000000000E+01    0.2500000000000000E+01    0.5000000000000000E+01
    0.1250000000000000E+01    0.2500000000000000E+01    0.5000000000000000E+01
    0.0000000000000000E+00    0.2500000000000000E+01    0.5000000000000000E+01
    0.0000000000000000E+00    0.2500000000000000E+01    0.3750000000000000E+01
    0.0000000000000000E+00    0.2500000000000000E+01    0.2500000000000000E+01
    0.0000000000000000E+00    0.2500000000000000E+01    0.1250000000000000E+01
    0.9631080833812172E+00    0.2500000000000000E+01    0.9613285771248219E+00
    0.3981732467264904E+01    0.2500000000000000E+01    0.4069753913607991E+01
    0.4035525118777670E+01    0.2500000000000000E+01    0.1012015867579395E+01
    0.9641717640894248E+00    0.2500000000000000E+01    0.3972455192261839E+01
    0.1547743040396780E+01    0.2500000000000000E+01    0.2928177746738678E+01
    0.6985170616192014E+00    0.2500000000000000E+01    0.3068281976055466E+01
    0.8931277594515110E+00    0.2500000000000000E+01    0.2052465503257726E+01
    0.2183293750162785E+01    0.2500000000000000E+01    0.3959073795658649E+01
    0.3855333506014705E+01    0.2500000000000000E+01    0.2931218481500625E+01
    0.3152495579421047E+01    0.2500000000000000E+01    0.3635850502723324E+01
    0.3103247580566054E+01    0.2500000000000000E+01    0.4331682712472464E+01
    0.3266837581688852E+01    0.2500000000000000E+01    0.1886092433583972E+01
    0.4231539241296245E+01    0.2500000000000000E+01    0.1915865356532799E+01
    0.1909741006522088E+01    0.2500000000000000E+01    0.7170024419130505E+00
    0.2880784107213163E+01    0.2500000000000000E+01    0.9046598906449592E+00
    0.2014316024535771E+01    0.2500000000000000E+01    0.1762464314805728E+01
    0.2670003247036656E+01    0.2500000000000000E+01    0.2850479545835163E+01
    0.5000000000000000E+01    0.1250000000000000E+01    0.5000000000000000E+01
    0.5000000000000000E+01    0.0000000000000000E+00    0.5000000000000000E+01
    0.5000000000000000E+01   -0.1250000000000000E+01    0.5000000000000000E+01
    0.5000000000000000E+01   -0.2500000000000000E+01    0.5000000000000000E+01
    0.5000000000000000E+01   -0.2500000000000000E+01    0.3750000000000000E+01
    0.5000000000000000E+01   -0.2500000000000000E+01    0.2500000000000000E+01
    0.5000000000000000E+01   -0.2500000000000000E+01    0.1250000000000000E+01
    0.5000000000000000E+01    0.1578994732800803E+01    0.9058375365086910E+00
    0.5000000000000000E+01   -0.1583989954232354E+01    0.3982050490726493E+01
    0.5000000000000000E+01    0.1453322699199022E+01    0.4033849428301197E+01
    0.5000000000000000E+01   -0.1479596339503735E+01    0.1040505887381675E+01
    0.5000000000000000E+01   -0.3227322616384110E+00    0.1099454400140349E+01
    0.5000000000000000E+01    0.6593508822075582E+00    0.7354504170366591E+00
    0.5000000000000000E+01    0.8256214013940779E+00    0.1622302608453282E+01
    0.5000000000000000E+01   -0.1650070333782557E+01    0.2145871574390382E+01
    0.5000000000000000E+01   -0.4612828702537229E+00    0.4086422318222992E+01
    0.5000000000000000E+01   -0.8579242121530853E+00    0.2979540174134984E+01
    0.5000000000000000E+01   -0.1836846154397680E+01    0.3045064261640043E+01
    0.5000000000000000E+01    0.3508002863614053E+00    0.3428197553792836E+01
    0.5000000000000000E+01    0.5185680230613409E+00    0.4309693860063405E+01
    0.5000000000000000E+01    0.1738996113203182E+01    0.1827272193562204E+01
    0.5000000000000000E+01    0.1325493893339706E+01    0.2808563282768077E+01
    0.5000000000000000E+01   -0.8731419609589618E+00    0.1895995683864404E+01
    0.5000000000000000E+01    0.4906150219227333E-01    0.2273179336307740E+01
    0.0000000000000000E+00    0.1250000000000000E+01    0.5000000000000000E+01
    0.0000000000000000E+00    0.0000000000000000E+00    0.5000000000000000E+01
    0.0000000000000000E+00   -0.1250000000000000E+01    0.5000000000000000E+01
    0.0000000000000000E+00   -0.2500000000000000E+01    0.5000000000000000E+01
    0.1250000000000000E+01   -0.2500000000000000E+01    0.5000000000000000E+01
    0.2500000000000000E+01   -0.2500000000000000E+01    0.5000000000000000E+01
    0.3750000000000000E+01   -0.2500000000000000E+01    0.5000000000000000E+01
    0.4042003247744892E+01    0.1558308132739014E+01    0.5000000000000000E+01
    0.9304122287900499E+00   -0.1548001304379777E+01    0.5000000000000000E+01
    0.1037243024609388E+01    0.1462892710085612E+01    0.5000000000000000E+01
    0.3946240828834967E+01   -0.1445243809615570E+01    0.5000000000000000E+01
    0.4092527262848217E+01   -0.3455338993778935E+00    0.5000000000000000E+01
    0.4293103109154542E+01    0.6277660831404320E+00    0.5000000000000000E+01
    0.3241512314643519E+01    0.7429886854239611E+00    0.5000000000000000E+01
    0.2844289952419609E+01   -0.1588117879734118E+01    0.5000000000000000E+01
    0.7159905765450471E+00   -0.6002320124191652E+00    0.5000000000000000E+01
    0.1754341919796891E+01   -0.7398147869923652E+00    0.5000000000000000E+01
    0.1870296826774691E+01   -0.1788622905643739E+01    0.5000000000000000E+01
    0.9220614901912976E+00    0.3083720183248586E+00    0.5000000000000000E+01
    0.3101523624086016E+01    0.1777901774806180E+01    0.5000000000000000E+01
    0.2192512063922564E+01    0.1576861561598471E+01    0.5000000000000000E+01
    0.2024793420196460E+01    0.4773861992750707E+00    0.5000000000000000E+01
    0.2990627757741975E+01   -0.4878110785814084E+00    0.5000000000000000E+01
    0.0000000000000000E+00   -0.2500000000000000E+01    0.1250000000000000E+01
    0.0000000000000000E+00   -0.2500000000000000E+01    0.2500000000000000E+01
    0.0000000000000000E+00   -0.2500000000000000E+01    0.3750000000000000E+01
    0.0000000000000000E+00    0.1558308132739014E+01    0.4042003247744892E+01
    0.0000000000000000E+00   -0.1548001304379777E+01    0.9304122287900499E+00
    0.0000000000000000E+00    0.1462892710085612E+01    0.1037243024609388E+01
    0.0000000000000000E+00   -0.1445243809615570E+01    0.3946240828834967E+01
    0.0000000000000000E+00   -0.3455338993778935E+00    0.4092527262848217E+01
    0.0000000000000000E+00    0.6277660831404320E+00    0.4293103109154542E+01
    0.0000000000000000E+00    0.7429886854239611E+00    0.3241512314643519E+01
    0.0000000000000000E+00   -0.1588117879734118E+01    0.2844289952419609E+01
    0.0000000000000000E+00   -0.6002320124191652E+00    0.7159905765450471E+00
    0.0000000000000000E+00   -0.7398147869923652E+00    0.1754341919796891E+01
    0.0000000000000000E+00   -0.1788622905643739E+01    0.1870296826774691E+01
    0.0000000000000000E+00    0.3083720183248586E+00    0.9220614901912976E+00
    0.0000000000000000E+00    0.1777901774806180E+01    0.3101523624086016E+01
    0.0000000000000000E+00    0.1576861561598471E+01    0.2192512063922564E+01
[...]
POINT_DATA 213
SCALARS rho double 1
LOOKUP_TABLE default
   0.1344271430467381E+01
   0.9569758885799695E+00
   0.9462964173561262E+00
   0.9418612680745476E+00
   0.8437304845908397E+00
   0.7738004270512734E+00
   0.7629818867146553E+00
   0.7664577863527512E+00
   0.8307873991744155E+00
   0.9352972526148927E+00
   0.9342219791323604E+00
   0.9617195255440130E+00
   0.1449457440159218E+01
   0.1494090633075756E+01
   0.1644667262253831E+01
   0.1425832038180831E+01
   0.1009014431176748E+01
   0.9508810825592843E+00
   0.9436508462133939E+00
   0.9581561006897829E+00
   0.9415852438572048E+00
   0.1036377236603210E+01
   0.9256161078232295E+00
   0.9322349844445239E+00
   0.9537479539641307E+00
   0.9518769532282481E+00
   0.9348583094412005E+00
   0.9564028382514028E+00
   0.9376098362967633E+00
   0.9300661505495990E+00
   0.9445157461982440E+00
   0.8863506497771216E+00
   0.9423579940201664E+00
   0.9635003062706061E+00
   0.1008299039369029E+01
   0.1006735291892107E+01
   0.1001964617455754E+01
   0.1003219581277408E+01
   0.1004132053682253E+01
   0.1005228602689463E+01
   0.1004260408059619E+01
   0.1008308189669481E+01
   0.1023893137247490E+01
   0.1063553955766596E+01
   0.1019182511039210E+01
   0.1001780766284164E+01
   0.9643309917747523E+00
   0.1005283708691657E+01
   0.1000721163099053E+01
   0.1008742083409007E+01
   0.1008078083479310E+01
   0.1002349806848940E+01
   0.9979986847570901E+00
   0.1000583560805075E+01
   0.1001620123406976E+01
   0.9826893066883341E+00
   0.9842439635318337E+00
   0.9833314013806987E+00
   0.9788207391025263E+00
   0.9902638155203566E+00
   0.9934561551815730E+00
   0.1002011751523221E+01
   0.1002134465538289E+01
   0.1002276326404557E+01
   0.1001794758216616E+01
   0.1009778638873729E+01
   0.1006429109014076E+01
   0.9558786950057744E+00
   0.9249398387830585E+00
   0.1007036755514246E+01
   0.1004504925166516E+01
   0.9143642060671766E+00
   0.9089667845969382E+00
   0.8751688877315354E+00
   0.9767271878503051E+00
   0.1000452621041458E+01
   0.1005831087486253E+01
   0.1012882803448566E+01
   0.1011618951360439E+01
   0.1010438648821511E+01
   0.1005468280896265E+01
   0.9907612672829756E+00
   0.1005140325760389E+01
   0.9860567244613873E+00
   0.1005609737821833E+01
   0.1004248005517250E+01
   0.1002888437522983E+01
   0.1003345420287205E+01
   0.1003992731705938E+01
   0.1005101715942806E+01
   0.1003211644917076E+01
   0.1002663159773348E+01
   0.1002586231188183E+01
   0.1004060870755985E+01
   0.1004320345833222E+01
   0.1001641920160154E+01
   0.1002273115767867E+01
   0.1002543475382110E+01
   0.1003469520551123E+01
   0.1003372640041182E+01
   0.1003232229868416E+01
   0.1004423863221671E+01
   0.1004313070606475E+01
   0.1003659849230263E+01
   0.1003723103696588E+01
   0.1004329726182031E+01
   0.1004465021597235E+01
   0.1003623375090267E+01
   0.1064422800724284E+01
   0.1028473620793343E+01
   0.1009586657035125E+01
   0.1006638837199674E+01
   0.1163935520512924E+01
   0.1086087969644416E+01
   0.1007893418991407E+01
   0.1007245533039620E+01
   0.1006798073895851E+01
   0.1013018286358415E+01
   0.1019384608977568E+01
   0.1235203666424414E+01
   0.1032529466416927E+01
   0.1046681190735215E+01
   0.1200953639755479E+01
   0.1014718915605609E+01
   0.1032291152489396E+01
   0.1028095235716767E+01
   0.1014628639283851E+01
   0.1029216891904068E+01
   0.1001994816222256E+01
   0.9606929181908284E+00
   0.1006852582533142E+01
   0.1001327193120592E+01
   0.1010821905029105E+01
   0.1012246098617907E+01
   0.1000946006688143E+01
   0.9979121233417443E+00
   0.9980632371134839E+00
   0.1001184143165141E+01
   0.9841362008065746E+00
   0.9814879611558665E+00
   0.9648483306648968E+00
   0.9680877113567373E+00
   0.9914124468139344E+00
   0.9910858387220268E+00
   0.9925545095853663E+00
   0.1001727533697759E+01
   0.9993409401927460E+00
   0.9941410835439867E+00
   0.1007038753681033E+01
   0.1022539493959313E+01
   0.1001088098138333E+01
   0.1008798495927672E+01
   0.1004773845796852E+01
   0.1009050237091696E+01
   0.9966470330076348E+00
   0.1004988555496194E+01
   0.1003325534926899E+01
   0.9949431084458797E+00
   0.9832680780004284E+00
   0.9943957454242468E+00
   0.9973420655848237E+00
   0.9932190085472987E+00
   0.1001306486916554E+01
   0.1003001636704598E+01
   0.1002183579426258E+01
   0.9947078545780198E+00
   0.9937965520765578E+00
   0.1004867865223733E+01
   0.1020077607253117E+01
   0.1005364552157361E+01
   0.9816998150672092E+00
   0.1004973030983296E+01
   0.1012382323077482E+01
   0.9871424279975892E+00
   0.9551513523469626E+00
   0.9865075698136884E+00
   0.9864532946691402E+00
   0.9918946925543267E+00
   0.9933508194646616E+00
   0.9954406174318721E+00
   0.1037336789389110E+01
   0.1033536796875189E+01
   0.1001443320680284E+01
   0.1001930499541214E+01
   0.9912478515992224E+00
   0.9910920508361436E+00
   0.9648489983240143E+00
   0.9933282603888174E+00
   0.1006058638626698E+01
   0.1001954027093830E+01
   0.9908735803199262E+00
   0.9740945202617994E+00
   0.9418802119819294E+00
   0.9819379680178526E+00
   0.9794803558820440E+00
   0.9704172048296795E+00
   0.9720478936965871E+00
   0.9557351696247357E+00
   0.9496731201439839E+00
   0.9528673552246765E+00
   0.1002659533758114E+01
   0.1002471631682264E+01
   0.1000509329125747E+01
   0.1001677321764193E+01
   0.9607931414237685E+00
   0.9491625484393945E+00
   0.9584503048932355E+00
   0.1001121207526500E+01
   0.1000496140385473E+01
   0.1001156644117868E+01
   0.9807376181588977E+00
   0.9806000799523549E+00
   0.9628476092581345E+00
SCALARS u double 1
LOOKUP_TABLE default
   0.0000000000000000E+00
   0.0000000000000000E+00
   0.0000000000000000E+00
   0.0000000000000000E+00
   0.0000000000000000E+00
   0.0000000000000000E+00
   0.0000000000000000E+00
   0.0000000000000000E+00
   0.0000000000000000E+00
   0.0000000000000000E+00
   0.0000000000000000E+00
   0.0000000000000000E+00
   0.0000000000000000E+00
   0.0000000000000000E+00
   0.0000000000000000E+00
   0.0000000000000000E+00
   0.0000000000000000E+00
   0.0000000000000000E+00
   0.0000000000000000E+00
   0.0000000000000000E+00
   0.0000000000000000E+00
   0.0000000000000000E+00
   0.0000000000000000E+00
   0.0000000000000000E+00
   0.0000000000000000E+00
   0.0000000000000000E+00
   0.0000000000000000E+00
   0.0000000000000000E+00
   0.0000000000000000E+00
   0.0000000000000000E+00
   0.0000000000000000E+00
   0.0000000000000000E+00
   0.0000000000000000E+00
   0.4950176849599873E+00
   0.5338221297480620E+00
   0.5183269243805885E+00
   0.4930649880162614E+00
   0.4847578722559613E+00
   0.4867666427915049E+00
   0.4890763587242400E+00
   0.4957848882685735E+00
   0.4898301887412046E+00
   0.4717388500588786E+00
   0.4454814159518766E+00
   0.4833907038047873E+00
   0.5098397462708426E+00
   0.4390712711705697E+00
   0.4949403967813537E+00
   0.5225330363555742E+00
   0.4962454548953122E+00
   0.5226154965300632E+00
   0.5038881745431415E+00
   0.5646883607035005E+00
   0.5247509157079744E+00
   0.4991466121825174E+00
   0.5730561900889540E+00
   0.5696051098982512E+00
   0.3737941443239293E+00
   0.3998658127167115E+00
   0.5599326583330181E+00
   0.5564587629561104E+00
   0.4942627332742001E+00
   0.4948659465811672E+00
   0.4925735873832078E+00
   0.4914269544115449E+00
   0.5162356848449018E+00
   0.5361798302952739E+00
   0.4947413365917349E+00
   0.4524112222746585E+00
   0.5128777323467107E+00
   0.5117942038208468E+00
   0.4783517519148459E+00
   0.4931696669635254E+00
   0.4603173615288441E+00
   0.5244892725894208E+00
   0.5297434246965163E+00
   0.5129579298322440E+00
   0.5328358315074888E+00
   0.5308941033622634E+00
   0.5309856165576985E+00
   0.5063656733424597E+00
   0.5282461958078679E+00
   0.5410312726236909E+00
   0.5361261482448914E+00
   0.5374105272798348E+00
   0.4965364820712455E+00
   0.4975340905817593E+00
   0.4963842646413985E+00
   0.4955220269569504E+00
   0.4904581834569437E+00
   0.4903044388827851E+00
   0.4862182766943798E+00
   0.4854049563753403E+00
   0.4932164390920356E+00
   0.4909833315592425E+00
   0.4832194698887582E+00
   0.4872622779251223E+00
   0.4880124911399027E+00
   0.4872445934955549E+00
   0.4882696672982852E+00
   0.4952597559090572E+00
   0.4900967171621960E+00
   0.4904000094401947E+00
   0.4944232928376978E+00
   0.4868002484421345E+00
   0.4892385987718185E+00
   0.4881393373629790E+00
   0.4878457832365587E+00
   0.4446866583985861E+00
   0.4700028785832333E+00
   0.4891999059595064E+00
   0.4885247846931522E+00
   0.4506533055095120E+00
   0.4687378570236449E+00
   0.4877010459960414E+00
   0.4868353686536583E+00
   0.4908994718735336E+00
   0.4793551582292899E+00
   0.4658071752485161E+00
   0.3792725245021339E+00
   0.4901596532156908E+00
   0.4486686697209873E+00
   0.4436137403764674E+00
   0.4845147245703987E+00
   0.4621822652305580E+00
   0.4665749541625403E+00
   0.4748140304764053E+00
   0.4894494211204932E+00
   0.5085556973383101E+00
   0.4315073880820139E+00
   0.4927349363907707E+00
   0.5318289234170683E+00
   0.4913399198979500E+00
   0.5207019994392779E+00
   0.5060964601252398E+00
   0.5688797394043437E+00
   0.5273992817864785E+00
   0.5015044843170893E+00
   0.5821790088223153E+00
   0.5689618254822191E+00
   0.3406394443538083E+00
   0.3789869416080968E+00
   0.5751958205461543E+00
   0.5666485492321919E+00
   0.5704108782619288E+00
   0.5291056376739000E+00
   0.5451902711486170E+00
   0.5718804314763871E+00
   0.5389079128138042E+00
   0.5475507506554911E+00
   0.5821713867011333E+00
   0.4925601786982727E+00
   0.5042157548430695E+00
   0.4961735439135467E+00
   0.5565207960104088E+00
   0.4758845197473411E+00
   0.4950268386316011E+00
   0.5498525443084634E+00
   0.5891202297069167E+00
   0.5841957607759618E+00
   0.5469097664090757E+00
   0.5805417616691861E+00
   0.5106251440041955E+00
   0.5030200515385425E+00
   0.5033624681495203E+00
   0.5676446094623707E+00
   0.5563943082567308E+00
   0.4947255976000311E+00
   0.5505243828181166E+00
   0.5510857280271318E+00
   0.5657350949744868E+00
   0.4920070020596185E+00
   0.4927299099143901E+00
   0.3865140571587216E+00
   0.3687754535763350E+00
   0.5574921718588260E+00
   0.5763755543441828E+00
   0.4194304388402981E+00
   0.5824843239747746E+00
   0.4265209605802585E+00
   0.5392799844060230E+00
   0.5012032759134939E+00
   0.5119513208304589E+00
   0.5049119465610714E+00
   0.5751974973035457E+00
   0.5876371359729254E+00
   0.5379907810548006E+00
   0.5677472539342594E+00
   0.5351248664707761E+00
   0.5338056378008713E+00
   0.5580313797627208E+00
   0.5512707864873779E+00
   0.4261852765050255E+00
   0.5273356177867902E+00
   0.5795712530841911E+00
   0.3318687137936878E+00
   0.4760283327403361E+00
   0.5446196258387436E+00
   0.4798331907195483E+00
   0.3005293513367187E+00
   0.5031051139954554E+00
   0.5017115979996494E+00
   0.5129033211427410E+00
   0.5414840106439024E+00
   0.3437603859578108E+00
   0.3397710726060676E+00
   0.3189928576711457E+00
   0.5065936053664061E+00
   0.5123483780331898E+00
   0.5330313518272701E+00
   0.5879309999721969E+00
   0.4644180533816970E+00
   0.3531270514599659E+00
SCALARS v double 1
LOOKUP_TABLE default
   0.0000000000000000E+00
   0.0000000000000000E+00
   0.0000000000000000E+00
   0.0000000000000000E+00
   0.0000000000000000E+00
   0.0000000000000000E+00
   0.0000000000000000E+00
   0.0000000000000000E+00
   0.0000000000000000E+00
   0.0000000000000000E+00
   0.0000000000000000E+00
   0.0000000000000000E+00
   0.0000000000000000E+00
   0.0000000000000000E+00
   0.0000000000000000E+00
   0.0000000000000000E+00
   0.0000000000000000E+00
   0.0000000000000000E+00
   0.0000000000000000E+00
   0.0000000000000000E+00
   0.0000000000000000E+00
   0.0000000000000000E+00
   0.0000000000000000E+00
   0.0000000000000000E+00
   0.0000000000000000E+00
   0.0000000000000000E+00
   0.0000000000000000E+00
   0.0000000000000000E+00
   0.0000000000000000E+00
   0.0000000000000000E+00
   0.0000000000000000E+00
   0.0000000000000000E+00
   0.0000000000000000E+00
   0.0000000000000000E+00
   0.0000000000000000E+00
   0.0000000000000000E+00
   0.0000000000000000E+00
   0.0000000000000000E+00
   0.0000000000000000E+00
   0.0000000000000000E+00
   0.0000000000000000E+00
   0.0000000000000000E+00
   0.0000000000000000E+00
   0.0000000000000000E+00
   0.0000000000000000E+00
   0.0000000000000000E+00
   0.0000000000000000E+00
   0.0000000000000000E+00
   0.0000000000000000E+00
   0.0000000000000000E+00
   0.0000000000000000E+00
   0.0000000000000000E+00
   0.0000000000000000E+00
   0.0000000000000000E+00
   0.0000000000000000E+00
   0.0000000000000000E+00
   0.0000000000000000E+00
   0.0000000000000000E+00
   0.0000000000000000E+00
   0.0000000000000000E+00
   0.0000000000000000E+00
   0.7970254576037678E-03
  -0.1329294679240163E-02
  -0.1332592745201400E-02
   0.0000000000000000E+00
   0.0000000000000000E+00
   0.0000000000000000E+00
   0.0000000000000000E+00
  -0.1922562546874660E-01
   0.4770618190153416E-03
   0.2183360206670975E-02
   0.1427333025454434E-01
  -0.6488281919245675E-02
  -0.7821622765312732E-02
  -0.1327725031397829E-01
   0.4914481802787730E-02
   0.6907122205909689E-03
   0.3434418460920601E-02
   0.1920847375674985E-02
   0.3147960321582371E-02
   0.1704778408695568E-02
  -0.7316187184537320E-02
  -0.7701888628296493E-04
   0.4468738109083978E-02
  -0.4387154775888844E-03
  -0.6383741396216623E-04
  -0.1963394568109019E-03
   0.8071267848967169E-03
   0.0000000000000000E+00
   0.0000000000000000E+00
   0.0000000000000000E+00
   0.0000000000000000E+00
   0.4257020058954182E-03
   0.1616304621883516E-02
  -0.1297550926806896E-02
  -0.1022774959697019E-02
  -0.2134342391532669E-02
  -0.1064012658701972E-02
  -0.8200064221347701E-03
  -0.7617033095388952E-03
   0.5202258590993372E-04
  -0.6244091804475643E-03
   0.7916469182191177E-03
  -0.1745238491159939E-02
   0.2747128556900562E-03
  -0.8939747005090922E-04
  -0.9424309956282181E-03
  -0.1100227510210203E-02
   0.0000000000000000E+00
   0.0000000000000000E+00
   0.0000000000000000E+00
  -0.1061759112194288E-02
  -0.7641128915998045E-02
   0.1860854777592926E-01
  -0.2834552183989593E-04
  -0.1383129121419524E-02
  -0.2035122940408953E-02
  -0.5666383176269420E-02
  -0.1585210172301463E-02
  -0.5947016288738977E-02
  -0.4160601792732492E-02
   0.1565614866642065E-02
   0.3329524800077571E-01
   0.3055138932181033E-04
  -0.2766885010943268E-02
   0.3566484669245407E-02
   0.3596189935349255E-03
   0.0000000000000000E+00
   0.0000000000000000E+00
   0.0000000000000000E+00
   0.0000000000000000E+00
   0.0000000000000000E+00
   0.0000000000000000E+00
   0.0000000000000000E+00
   0.0000000000000000E+00
   0.0000000000000000E+00
   0.0000000000000000E+00
   0.0000000000000000E+00
   0.0000000000000000E+00
   0.0000000000000000E+00
   0.0000000000000000E+00
   0.0000000000000000E+00
   0.0000000000000000E+00
   0.0000000000000000E+00
   0.5047032613494793E-02
   0.3230791948599277E-02
   0.8149134254092034E-02
   0.6168367031399211E-02
   0.1122928629995401E-01
   0.1429277498576796E-01
  -0.2038825155577446E-03
   0.5118221795874896E-02
   0.2914950523330117E-02
   0.3373611761356941E-02
   0.3728336479869613E-02
  -0.1465719806038941E-01
  -0.6159699727520520E-03
   0.6651630350111144E-02
   0.1542014383812753E-02
   0.1969646585438296E-02
   0.4266273557552987E-02
  -0.2790960828915974E-02
   0.1226887080373014E-02
   0.2819172478877259E-02
   0.1497449154310282E-02
   0.2575339116707227E-02
   0.2030646473274967E-02
   0.2118046062084624E-02
   0.8700410484356746E-02
  -0.3733396949472649E-02
   0.6241189098015452E-02
   0.2516489818486452E-04
  -0.3854044533868975E-03
  -0.1674678988573905E-01
  -0.4881976804039181E-02
  -0.4720000682934714E-02
   0.3445223123187151E-02
  -0.6135723909562850E-02
   0.9934533738272377E-04
  -0.3291372876293980E-01
  -0.3046196722813910E-02
   0.4722743211430548E-02
   0.9228368180474457E-03
   0.2112175223669791E-02
   0.4518755734399411E-02
   0.2720465275392469E-02
   0.3212576527718445E-02
   0.5200804231175179E-02
   0.1941838978277422E-02
   0.7315897716535522E-03
  -0.2555238254032832E-04
  -0.5374632713641157E-02
  -0.6959590870828314E-02
  -0.9443815182439259E-03
   0.1105268451948198E-02
  -0.2080554041798321E-02
  -0.3200035970724110E-02
  -0.2527833232711777E-02
  -0.4115193530273259E-02
  -0.7593954884277151E-02
  -0.1985686376521546E-02
   0.6240402998149124E-03
  -0.2239081508731057E-03
   0.1216949824595516E-02
  -0.3483958183717822E-02
   0.5229140113534755E-02
  -0.8487626122898526E-02
   0.2315171838627038E-04
  -0.3395192783714975E-03
   0.2542663565901584E-02
   0.1663457676689894E-02
   0.2021438688205727E-02
  -0.5620783859875686E-02
SCALARS w double 1
LOOKUP_TABLE default
   0.0000000000000000E+00
   0.0000000000000000E+00
   0.0000000000000000E+00
   0.0000000000000000E+00
   0.0000000000000000E+00
   0.0000000000000000E+00
   0.0000000000000000E+00
   0.0000000000000000E+00
   0.0000000000000000E+00
   0.0000000000000000E+00
   0.0000000000000000E+00
   0.0000000000000000E+00
   0.0000000000000000E+00
   0.0000000000000000E+00
   0.0000000000000000E+00
   0.0000000000000000E+00
   0.0000000000000000E+00
   0.0000000000000000E+00
   0.0000000000000000E+00
   0.0000000000000000E+00
   0.0000000000000000E+00
   0.0000000000000000E+00
   0.0000000000000000E+00
   0.0000000000000000E+00
   0.0000000000000000E+00
   0.0000000000000000E+00
   0.0000000000000000E+00
   0.0000000000000000E+00
   0.0000000000000000E+00
   0.0000000000000000E+00
   0.0000000000000000E+00
   0.0000000000000000E+00
   0.0000000000000000E+00
  -0.1007612300928260E+00
  -0.4249297211226093E-01
   0.7371983209903171E-03
   0.5725799865352725E-02
   0.5699056345934860E-03
   0.1609782936871501E-02
   0.3375072833203652E-02
   0.2371773549759885E-02
   0.4590624614924213E-03
   0.3518225932843234E-02
   0.4521817495007904E-01
   0.6522937661506709E-01
   0.8689295102585217E-03
  -0.2261151868321527E-01
   0.4316553365076494E-02
   0.1358734810734777E-01
   0.1039452534525987E-01
   0.4900548362394713E-01
   0.2437443305171479E-02
  -0.6509941474434186E-02
  -0.7012229866838443E-03
   0.3411014606178054E-03
   0.3904107015901139E-02
  -0.3893254374102269E-01
   0.1798168065421017E-01
   0.1119638185493727E-01
   0.3403773206608883E-01
   0.8438809906192713E-02
   0.4937312214160115E-02
   0.4970345530906574E-02
   0.4871517336870881E-02
   0.6027191641664837E-02
   0.2599191549877273E-02
  -0.4144429646517764E-01
  -0.9954261959177273E-01
  -0.1121678231163101E+00
   0.5070874861140673E-02
   0.4230770501535228E-02
  -0.1004732315370589E+00
  -0.9895252613005195E-01
  -0.9875451057002801E-01
  -0.9462509717256075E-01
  -0.6807133895881984E-01
   0.5154922032089485E-02
  -0.1935330787211219E-01
  -0.1575800327472083E-01
  -0.6002862712620893E-02
   0.6819057269186699E-02
  -0.8010050911825985E-01
  -0.2781092517195829E-01
  -0.8096457436958568E-01
  -0.5873277632247964E-01
   0.3083625595989007E-02
   0.2685146392928871E-02
   0.2640431098137604E-02
   0.3450191831701475E-02
   0.4007083618500052E-02
   0.1201214141661916E-02
  -0.1438847774308077E-03
   0.2039877218937879E-02
   0.4895693441927907E-02
   0.3857385413170391E-02
   0.1114201857062457E-02
   0.1182681970395521E-02
   0.1465296198016087E-02
  -0.1653650016142454E-04
   0.8996608128258201E-04
   0.4386667709258995E-02
   0.2715724056088463E-02
   0.2322755121282622E-02
   0.5010600850925318E-02
   0.1071689178442589E-02
   0.2712217531414385E-02
   0.2013963930699172E-02
   0.2879071416592494E-04
   0.8374614242651565E-01
   0.2793870697548644E-02
  -0.8346628222823673E-03
  -0.1492945984949290E-03
   0.1409540830435877E+00
   0.1239332939195227E+00
  -0.1219093332042190E-02
  -0.4381936082620531E-02
  -0.3043058184820518E-03
  -0.6512246856445365E-02
  -0.1949570358181280E-02
   0.1557630956953451E+00
   0.7489979123490136E-01
   0.2550174891569639E-01
   0.1656445103025045E+00