# vtk DataFile Version 2.0
FUN3D:global_image_vtk
ASCII
DATASET UNSTRUCTURED_GRID
POINTS 213 double
    0.0000000000000000E+00    0.2500000000000000E+01    0.0000000000000000E+00
    0.1250000000000000E+01    0.2500000000000000E+01    0.0000000000000000E+00
    0.2500000000000000E+01    0.2500000000000000E+01    0.0000000000000000E+00
    0.3750000000000000E+01    0.2500000000000000E+01    0.0000000000000000E+00
    0.5000000000000000E+01    0.2500000000000000E+01    0.0000000000000000E+00
    0.5000000000000000E+01    0.1250000000000000E+01    0.0000000000000000E+00
    0.5000000000000000E+01    0.0000000000000000E+00    0.0000000000000000E+00
    0.5000000000000000E+01   -0.1250000000000000E+01    0.0000000000000000E+00
    0.5000000000000000E+01   -0.2500000000000000E+01    0.0000000000000000E+00
    0.3750000000000000E+01   -0.2500000000000000E+01    0.0000000000000000E+00
    0.2500000000000000E+01   -0.2500000000000000E+01    0.0000000000000000E+00
    0.1250000000000000E+01   -0.2500000000000000E+01    0.0000000000000000E+00
    0.0000000000000000E+00   -0.2500000000000000E+01    0.0000000000000000E+00
    0.0000000000000000E+00   -0.1250000000000000E+01    0.0000000000000000E+00
    0.0000000000000000E+00    0.0000000000000000E+00    0.0000000000000000E+00
    0.0000000000000000E+00    0.1250000000000000E+01    0.0000000000000000E+00
    0.9058375365086910E+00    0.1578994732800803E+01    0.0000000000000000E+00
    0.3982050490726493E+01   -0.1583989954232354E+01    0.0000000000000000E+00
    0.4033849428301197E+01    0.1453322699199022E+01    0.0000000000000000E+00
    0.1040505887381675E+01   -0.1479596339503735E+01    0.0000000000000000E+00
    0.1099454400140349E+01   -0.3227322616384110E+00    0.0000000000000000E+00
    0.7354504170366591E+00    0.6593508822075582E+00    0.0000000000000000E+00
    0.1622302608453282E+01    0.8256214013940779E+00    0.0000000000000000E+00
    0.2145871574390382E+01   -0.1650070333782557E+01    0.0000000000000000E+00
    0.4086422318222992E+01   -0.4612828702537229E+00    0.0000000000000000E+00
    0.2979540174134984E+01   -0.8579242121530853E+00    0.0000000000000000E+00
    0.3045064261640043E+01   -0.1836846154397680E+01    0.0000000000000000E+00
    0.3428197553792836E+01    0.3508002863614053E+00    0.0000000000000000E+00
    0.4309693860063405E+01    0.5185680230613409E+00    0.0000000000000000E+00
    0.1827272193562204E+01    0.1738996113203182E+01    0.0000000000000000E+00
    0.2808563282768077E+01    0.1325493893339706E+01    0.0000000000000000E+00
    0.1895995683864404E+01   -0.8731419609589618E+00    0.0000000000000000E+00
    0.2273179336307740E+01    0.4906150219227333E-01    0.0000000000000000E+00
    0.5000000000000000E+01    0.2500000000000000E+01    0.1250000000000000E+01
    0.5000000000000000E+01    0.2500000000000000E+01    0.2500000000000000E+01
    0.5000000000000000E+01    0.2500000000000000E+01    0.3750000000000000E+01
    0.5000000000000000E+01    0.2500000000000000E+01    0.5000000000000000E+01
    0.3750000000000000E+01    0.2500000000000000E+01    0.5000000000000000E+01
    0.2500000000000000E+01    0.2500000000000000E+01    0.5000000000000000E+01
    0.1250000000000000E+01    0.2500000000000000E+01    0.5000000000000000E+01
    0.0000000000000000E+00    0.2500000000000000E+01    0.5000000000000000E+01
    0.0000000000000000E+00    0.2500000000000000E+01    0.3750000000000000E+01
    0.0000000000000000E+00    0.2500000000000000E+01    0.2500000000000000E+01
    0.0000000000000000E+00    0.2500000000000000E+01    0.1250000000000000E+01
    0.9631080833812172E+00    0.2500000000000000E+01    0.9613285771248219E+00
    0.3981732467264904E+01    0.2500000000000000E+01    0.4069753913607991E+01
    0.4035525118777670E+01    0.2500000000000000E+01    0.1012015867579395E+01
    0.9641717640894248E+00    0.2500000000000000E+01    0.3972455192261839E+01
    0.1547743040396780E+01    0.2500000000000000E+01    0.2928177746738678E+01
    0.6985170616192014E+00    0.2500000000000000E+01    0.3068281976055466E+01
    0.8931277594515110E+00    0.2500000000000000E+01    0.2052465503257726E+01
    0.2183293750162785E+01    0.2500000000000000E+01    0.3959073795658649E+01
    0.3855333506014705E+01    0.2500000000000000E+01    0.2931218481500625E+01
    0.3152495579421047E+01    0.2500000000000000E+01    0.3635850502723324E+01
    0.3103247580566054E+01    0.2500000000000000E+01    0.4331682712472464E+01
    0.3266837581688852E+01    0.2500000000000000E+01    0.1886092433583972E+01
    0.4231539241296245E+01    0.2500000000000000E+01    0.1915865356532799E+01
    0.1909741006522088E+01    0.2500000000000000E+01    0.7170024419130505E+00
    0.2880784107213163E+01    0.2500000000000000E+01    0.9046598906449592E+00
    0.2014316024535771E+01    0.2500000000000000E+01    0.1762464314805728E+01
    0.2670003247036656E+01    0.2500000000000000E+01    0.2850479545835163E+01
    0.5000000000000000E+01    0.1250000000000000E+01    0.5000000000000000E+01
    0.5000000000000000E+01    0.0000000000000000E+00    0.5000000000000000E+01
    0.5000000000000000E+01   -0.1250000000000000E+01    0.5000000000000000E+01
    0.5000000000000000E+01   -0.2500000000000000E+01    0.5000000000000000E+01
    0.5000000000000000E+01   -0.2500000000000000E+01    0.3750000000000000E+01
    0.5000000000000000E+01   -0.2500000000000000E+01    0.2500000000000000E+01
    0.5000000000000000E+01   -0.2500000000000000E+01    0.1250000000000000E+01
    0.5000000000000000E+01    0.1578994732800803E+01    0.9058375365086910E+00
    0.5000000000000000E+01   -0.1583989954232354E+01    0.3982050490726493E+01
    0.5000000000000000E+01    0.1453322699199022E+01    0.4033849428301197E+01
    0.5000000000000000E+01   -0.1479596339503735E+01    0.1040505887381675E+01
    0.5000000000000000E+01   -0.3227322616384110E+00    0.1099454400140349E+01
    0.5000000000000000E+01    0.6593508822075582E+00    0.7354504170366591E+00
    0.5000000000000000E+01    0.8256214013940779E+00    0.1622302608453282E+01
    0.5000000000000000E+01   -0.1650070333782557E+01    0.2145871574390382E+01
    0.5000000000000000E+01   -0.4612828702537229E+00    0.4086422318222992E+01
    0.5000000000000000E+01   -0.8579242121530853E+00    0.2979540174134984E+01
    0.5000000000000000E+01   -0.1836846154397680E+01    0.3045064261640043E+01
    0.5000000000000000E+01    0.3508002863614053E+00    0.3428197553792836E+01
    0.5000000000000000E+01    0.5185680230613409E+00    0.4309693860063405E+01
    0.5000000000000000E+01    0.1738996113203182E+01    0.1827272193562204E+01
    0.5000000000000000E+01    0.1325493893339706E+01    0.2808563282768077E+01
    0.5000000000000000E+01   -0.8731419609589618E+00    0.1895995683864404E+01
    0.5000000000000000E+01    0.4906150219227333E-01    0.2273179336307740E+01
    0.0000000000000000E+00    0.1250000000000000E+01    0.5000000000000000E+01
    0.0000000000000000E+00    0.0000000000000000E+00    0.5000000000000000E+01
    0.0000000000000000E+00   -0.1250000000000000E+01    0.5000000000000000E+01
    0.0000000000000000E+00   -0.2500000000000000E+01    0.5000000000000000E+01
    0.1250000000000000E+01   -0.2500000000000000E+01    0.5000000000000000E+01
    0.2500000000000000E+01   -0.2500000000000000E+01    0.5000000000000000E+01
    0.3750000000000000E+01   -0.2500000000000000E+01    0.5000000000000000E+01
    0.4042003247744892E+01    0.1558308132739014E+01    0.5000000000000000E+01
    0.9304122287900499E+00   -0.1548001304379777E+01    0.5000000000000000E+01
    0.1037243024609388E+01    0.1462892710085612E+01    0.5000000000000000E+01
    0.3946240828834967E+01   -0.1445243809615570E+01    0.5000000000000000E+01
    0.4092527262848217E+01   -0.3455338993778935E+00    0.5000000000000000E+01
    0.4293103109154542E+01    0.6277660831404320E+00    0.5000000000000000E+01
    0.3241512314643519E+01    0.7429886854239611E+00    0.5000000000000000E+01
    0.2844289952419609E+01   -0.1588117879734118E+01    0.5000000000000000E+01
    0.7159905765450471E+00   -0.6002320124191652E+00    0.5000000000000000E+01
    0.1754341919796891E+01   -0.7398147869923652E+00    0.5000000000000000E+01
    0.1870296826774691E+01   -0.1788622905643739E+01    0.5000000000000000E+01
    0.9220614901912976E+00    0.3083720183248586E+00    0.5000000000000000E+01
    0.3101523624086016E+01    0.1777901774806180E+01    0.5000000000000000E+01
    0.2192512063922564E+01    0.1576861561598471E+01    0.5000000000000000E+01
    0.2024793420196460E+01    0.4773861992750707E+00    0.5000000000000000E+01
    0.2990627757741975E+01   -0.4878110785814084E+00    0.5000000000000000E+01
    0.0000000000000000E+00   -0.2500000000000000E+01    0.1250000000000000E+01
    0.0000000000000000E+00   -0.2500000000000000E+01    0.2500000000000000E+01
    0.0000000000000000E+00   -0.2500000000000000E+01    0.3750000000000000E+01
    0.0000000000000000E+00    0.1558308132739014E+01    0.4042003247744892E+01
    0.0000000000000000E+00   -0.1548001304379777E+01    0.9304122287900499E+00
    0.0000000000000000E+00    0.1462892710085612E+01    0.1037243024609388E+01
    0.0000000000000000E+00   -0.1445243809615570E+01    0.3946240828834967E+01
    0.0000000000000000E+00   -0.3455338993778935E+00    0.4092527262848217E+01
    0.0000000000000000E+00    0.6277660831404320E+00    0.4293103109154542E+01
    0.0000000000000000E+00    0.7429886854239611E+00    0.3241512314643519E+01
    0.0000000000000000E+00   -0.1588117879734118E+01    0.2844289952419609E+01
    0.0000000000000000E+00   -0.6002320124191652E+00    0.7159905765450471E+00
    0.0000000000000000E+00   -0.7398147869923652E+00    0.1754341919796891E+01
    0.0000000000000000E+00   -0.1788622905643739E+01    0.1870296826774691E+01
    0.0000000000000000E+00    0.3083720183248586E+00    0.9220614901912976E+00
    0.0000000000000000E+00    0.1777901774806180E+01    0.3101523624086016E+01
    0.0000000000000000E+00    0.1576861561598471E+01    0.2192512063922564E+01
[...]
POINT_DATA 213
SCALARS rho double 1
LOOKUP_TABLE default
   0.1344271430467348E+01
   0.9569758885797844E+00
   0.9462964173554219E+00
   0.9418612680722102E+00
   0.8437304845874591E+00
   0.7738004270508602E+00
   0.7629818867144533E+00
   0.7664577863525983E+00
   0.8307873991742953E+00
   0.9352972526146234E+00
   0.9342219791320638E+00
   0.9617195255436020E+00
   0.1449457440158777E+01
   0.1494090633075558E+01
   0.1644667262253543E+01
   0.1425832038180793E+01
   0.1009014431176535E+01
   0.9508810825591159E+00
   0.9436508462115868E+00
   0.9581561006893576E+00
   0.9415852438569742E+00
   0.1036377236603044E+01
   0.9256161078228651E+00
   0.9322349844442333E+00
   0.9537479539640028E+00
   0.9518769532279759E+00
   0.9348583094409159E+00
   0.9564028382509562E+00
   0.9376098362968464E+00
   0.9300661505492192E+00
   0.9445157461972454E+00
   0.8863506497768237E+00
   0.9423579940199029E+00
   0.9635003062614672E+00
   0.1008299039369372E+01
   0.1006735291892768E+01
   0.1001964617454716E+01
   0.1003219581276337E+01
   0.1004132053681777E+01
   0.1005228602689434E+01
   0.1004260408059535E+01
   0.1008308189669328E+01
   0.1023893137247277E+01
   0.1063553955766367E+01
   0.1019182511039060E+01
   0.1001780766284627E+01
   0.9643309917616667E+00
   0.1005283708691402E+01
   0.1000721163098685E+01
   0.1008742083408806E+01
   0.1008078083479096E+01
   0.1002349806848547E+01
   0.9979986847568552E+00
   0.1000583560804770E+01
   0.1001620123406767E+01
   0.9826893066888442E+00
   0.9842439635306227E+00
   0.9833314013807173E+00
   0.9788207391027198E+00
   0.9902638155201823E+00
   0.9934561551811096E+00
   0.1002011751521205E+01
   0.1002134465536504E+01
   0.1002276326404092E+01
   0.1001794758216189E+01
   0.1009778638873500E+01
   0.1006429109013795E+01
   0.9558786950046619E+00
   0.9249398387808284E+00
   0.1007036755514130E+01
   0.1004504925167018E+01
   0.9143642060675835E+00
   0.9089667845967840E+00
   0.8751688877328813E+00
   0.9767271878510405E+00
   0.1000452621041362E+01
   0.1005831087486500E+01
   0.1012882803448774E+01
   0.1011618951360414E+01
   0.1010438648821882E+01
   0.1005468280896640E+01
   0.9907612672847806E+00
   0.1005140325760177E+01
   0.9860567244614663E+00
   0.1005609737821232E+01
   0.1004248005517270E+01
   0.1002888437522808E+01
   0.1003345420286990E+01
   0.1003992731705965E+01
   0.1005101715942567E+01
   0.1003211644916907E+01
   0.1002663159773104E+01
   0.1002586231186451E+01
   0.1004060870755767E+01
   0.1004320345832945E+01
   0.1001641920159889E+01
   0.1002273115766531E+01
   0.1002543475379457E+01
   0.1003469520550156E+01
   0.1003372640040885E+01
   0.1003232229868194E+01
   0.1004423863221354E+01
   0.1004313070606374E+01
   0.1003659849230054E+01
   0.1003723103696212E+01
   0.1004329726181713E+01
   0.1004465021596831E+01
   0.1003623375090005E+01
   0.1064422800723523E+01
   0.1028473620793256E+01
   0.1009586657034933E+01
   0.1006638837199428E+01
   0.1163935520513199E+01
   0.1086087969644461E+01
   0.1007893418991168E+01
   0.1007245533039445E+01
   0.1006798073895748E+01
   0.1013018286358164E+01
   0.1019384608977441E+01
   0.1235203666424238E+01
   0.1032529466416609E+01
   0.1046681190735052E+01
   0.1200953639755223E+01
   0.1014718915605423E+01
   0.1032291152489160E+01
   0.1028095235716480E+01
   0.1014628639283683E+01
   0.1029216891903823E+01
   0.1001994816222097E+01
   0.9606929181897711E+00
   0.1006852582532899E+01
   0.1001327193120253E+01
   0.1010821905028913E+01
   0.1012246098617652E+01
   0.1000946006687979E+01
   0.9979121233415074E+00
   0.9980632371134155E+00
   0.1001184143165035E+01
   0.9841362008062443E+00
   0.9814879611553078E+00
   0.9648483306644140E+00
   0.9680877113561661E+00
   0.9914124468137232E+00
   0.9910858387217917E+00
   0.9925545095851729E+00
   0.1001727533697535E+01
   0.9993409401924749E+00
   0.9941410835436958E+00
   0.1007038753680841E+01
   0.1022539493959103E+01
   0.1001088098138144E+01
   0.1008798495927445E+01
   0.1004773845796571E+01
   0.1009050237091448E+01
   0.9966470330074068E+00
   0.1004988555496049E+01
   0.1003325534926669E+01
   0.9949431084456574E+00
   0.9832680779996095E+00
   0.9943957454233311E+00
   0.9973420655845995E+00
   0.9932190085471005E+00
   0.1001306486916208E+01
   0.1003001636704313E+01
   0.1002183579425983E+01
   0.9947078545779168E+00
   0.9937965520763823E+00
   0.1004867865223542E+01
   0.1020077607252882E+01
   0.1005364552157132E+01
   0.9816998150670253E+00
   0.1004973030983093E+01
   0.1012382323077251E+01
   0.9871424279972755E+00
   0.9551513523467295E+00
   0.9865075698134670E+00
   0.9864532946687518E+00
   0.9918946925542793E+00
   0.9933508194643811E+00
   0.9954406174316892E+00
   0.1037336789389011E+01
   0.1033536796875069E+01
   0.1001443320680377E+01
   0.1001930499540969E+01
   0.9912478515991640E+00
   0.9910920508359512E+00
   0.9648489983239878E+00
   0.9933282603887255E+00
   0.1006058638626665E+01
   0.1001954027093743E+01
   0.9908735803197271E+00
   0.9740945202636975E+00
   0.9418802119814937E+00
   0.9819379680169008E+00
   0.9794803558819550E+00
   0.9704172048297099E+00
   0.9720478936963792E+00
   0.9557351696240520E+00
   0.9496731201441116E+00
   0.9528673552249105E+00
   0.1002659533757989E+01
   0.1002471631682141E+01
   0.1000509329125579E+01
   0.1001677321764016E+01
   0.9607931414235085E+00
   0.9491625484394374E+00
   0.9584503048935910E+00
   0.1001121207526297E+01
   0.1000496140385401E+01
   0.1001156644117591E+01
   0.9807376181587054E+00
   0.9806000799522681E+00
   0.9628476092580935E+00
SCALARS u double 1
LOOKUP_TABLE default
   0.0000000000000000E+00
   0.0000000000000000E+00
   0.0000000000000000E+00
   0.0000000000000000E+00
   0.0000000000000000E+00
   0.0000000000000000E+00
   0.0000000000000000E+00
   0.0000000000000000E+00
   0.0000000000000000E+00
   0.0000000000000000E+00
   0.0000000000000000E+00
   0.0000000000000000E+00
   0.0000000000000000E+00
   0.0000000000000000E+00
   0.0000000000000000E+00
   0.0000000000000000E+00
   0.0000000000000000E+00
   0.0000000000000000E+00
   0.0000000000000000E+00
   0.0000000000000000E+00
   0.0000000000000000E+00
   0.0000000000000000E+00
   0.0000000000000000E+00
   0.0000000000000000E+00
   0.0000000000000000E+00
   0.0000000000000000E+00
   0.0000000000000000E+00
   0.0000000000000000E+00
   0.0000000000000000E+00
   0.0000000000000000E+00
   0.0000000000000000E+00
   0.0000000000000000E+00
   0.0000000000000000E+00
   0.4950176849684718E+00
   0.5338221297472033E+00
   0.5183269243810907E+00
   0.4930649880167323E+00
   0.4847578722570484E+00
   0.4867666427926889E+00
   0.4890763587250394E+00
   0.4957848882685554E+00
   0.4898301887413549E+00
   0.4717388500590853E+00
   0.4454814159521276E+00
   0.4833907038049101E+00
   0.5098397462737527E+00
   0.4390712711668316E+00
   0.4949403967815743E+00
   0.5225330363558267E+00
   0.4962454548955489E+00
   0.5226154965303096E+00
   0.5038881745439474E+00
   0.5646883607043242E+00
   0.5247509157090744E+00
   0.4991466121844711E+00
   0.5730561900890018E+00
   0.5696051098984558E+00
   0.3737941443234915E+00
   0.3998658127132813E+00
   0.5599326583331787E+00
   0.5564587629567332E+00
   0.4942627332739013E+00
   0.4948659465800904E+00
   0.4925735873830114E+00
   0.4914269544118764E+00
   0.5162356848449656E+00
   0.5361798302952061E+00
   0.4947413365926976E+00
   0.4524112222756912E+00
   0.5128777323469166E+00
   0.5117942038214693E+00
   0.4783517519140907E+00
   0.4931696669633731E+00
   0.4603173615272480E+00
   0.5244892725886487E+00
   0.5297434246963584E+00
   0.5129579298326310E+00
   0.5328358315074126E+00
   0.5308941033621407E+00
   0.5309856165579679E+00
   0.5063656733425121E+00
   0.5282461958048957E+00
   0.5410312726237930E+00
   0.5361261482446318E+00
   0.5374105272803570E+00
   0.4965364820713338E+00
   0.4975340905819482E+00
   0.4963842646415228E+00
   0.4955220269569811E+00
   0.4904581834573506E+00
   0.4903044388830232E+00
   0.4862182766947648E+00
   0.4854049563746419E+00
   0.4932164390922964E+00
   0.4909833315595110E+00
   0.4832194698885641E+00
   0.4872622779232919E+00
   0.4880124911369358E+00
   0.4872445934945493E+00
   0.4882696672987505E+00
   0.4952597559093264E+00
   0.4900967171626779E+00
   0.4904000094405744E+00
   0.4944232928381035E+00
   0.4868002484430632E+00
   0.4892385987723910E+00
   0.4881393373628205E+00
   0.4878457832361125E+00
   0.4446866583999425E+00
   0.4700028785832853E+00
   0.4891999059597174E+00
   0.4885247846931678E+00
   0.4506533055089135E+00
   0.4687378570233999E+00
   0.4877010459962727E+00
   0.4868353686536769E+00
   0.4908994718736002E+00
   0.4793551582295736E+00
   0.4658071752485466E+00
   0.3792725245023462E+00
   0.4901596532160790E+00
   0.4486686697211595E+00
   0.4436137403769322E+00
   0.4845147245705783E+00
   0.4621822652308907E+00
   0.4665749541628208E+00
   0.4748140304765929E+00
   0.4894494211207417E+00
   0.5085556973383206E+00
   0.4315073880819933E+00
   0.4927349363910310E+00
   0.5318289234171950E+00
   0.4913399198980833E+00
   0.5207019994396245E+00
   0.5060964601255707E+00
   0.5688797394043051E+00
   0.5273992817866369E+00
   0.5015044843173961E+00
   0.5821790088225062E+00
   0.5689618254822668E+00
   0.3406394443538467E+00
   0.3789869416081714E+00
   0.5751958205465272E+00
   0.5666485492323131E+00
   0.5704108782621192E+00
   0.5291056376741996E+00
   0.5451902711488454E+00
   0.5718804314765985E+00
   0.5389079128140281E+00
   0.5475507506557745E+00
   0.5821713867014283E+00
   0.4925601786984746E+00
   0.5042157548434901E+00
   0.4961735439137910E+00
   0.5565207960105752E+00
   0.4758845197474540E+00
   0.4950268386320180E+00
   0.5498525443089346E+00
   0.5891202297075611E+00
   0.5841957607766057E+00
   0.5469097664097125E+00
   0.5805417616696645E+00
   0.5106251440050386E+00
   0.5030200515393177E+00
   0.5033624681510547E+00
   0.5676446094623993E+00
   0.5563943082571977E+00
   0.4947255976003962E+00
   0.5505243828183617E+00
   0.5510857280273505E+00
   0.5657350949746538E+00
   0.4920070020599832E+00
   0.4927299099145468E+00
   0.3865140571593612E+00
   0.3687754535766275E+00
   0.5574921718590742E+00
   0.5763755543445259E+00
   0.4194304388401930E+00
   0.5824843239751100E+00
   0.4265209605805590E+00
   0.5392799844061559E+00
   0.5012032759136199E+00
   0.5119513208320734E+00
   0.5049119465621846E+00
   0.5751974973037574E+00
   0.5876371359728783E+00
   0.5379907810547420E+00
   0.5677472539341445E+00
   0.5351248664708615E+00
   0.5338056378015968E+00
   0.5580313797627919E+00
   0.5512707864870819E+00
   0.4261852765056395E+00
   0.5273356177869336E+00
   0.5795712530842509E+00
   0.3318687137939439E+00
   0.4760283327404484E+00
   0.5446196258392050E+00
   0.4798331907194640E+00
   0.3005293513366645E+00
   0.5031051139956553E+00
   0.5017115980003332E+00
   0.5129033211437591E+00
   0.5414840106447989E+00
   0.3437603859587883E+00
   0.3397710726062340E+00
   0.3189928576711138E+00
   0.5065936053669847E+00
   0.5123483780334259E+00
   0.5330313518278635E+00
   0.5879309999723381E+00
   0.4644180533818251E+00
   0.3531270514604404E+00
SCALARS v double 1
LOOKUP_TABLE default
   0.0000000000000000E+00
   0.0000000000000000E+00
   0.0000000000000000E+00
   0.0000000000000000E+00
   0.0000000000000000E+00
   0.0000000000000000E+00
   0.0000000000000000E+00
   0.0000000000000000E+00
   0.0000000000000000E+00
   0.0000000000000000E+00
   0.0000000000000000E+00
   0.0000000000000000E+00
   0.0000000000000000E+00
   0.0000000000000000E+00
   0.0000000000000000E+00
   0.0000000000000000E+00
   0.0000000000000000E+00
   0.0000000000000000E+00
   0.0000000000000000E+00
   0.0000000000000000E+00
   0.0000000000000000E+00
   0.0000000000000000E+00
   0.0000000000000000E+00
   0.0000000000000000E+00
   0.0000000000000000E+00
   0.0000000000000000E+00
   0.0000000000000000E+00
   0.0000000000000000E+00
   0.0000000000000000E+00
   0.0000000000000000E+00
   0.0000000000000000E+00
   0.0000000000000000E+00
   0.0000000000000000E+00
   0.0000000000000000E+00
   0.0000000000000000E+00
   0.0000000000000000E+00
   0.0000000000000000E+00
   0.0000000000000000E+00
   0.0000000000000000E+00
   0.0000000000000000E+00
   0.0000000000000000E+00
   0.0000000000000000E+00
   0.0000000000000000E+00
   0.0000000000000000E+00
   0.0000000000000000E+00
   0.0000000000000000E+00
   0.0000000000000000E+00
   0.0000000000000000E+00
   0.0000000000000000E+00
   0.0000000000000000E+00
   0.0000000000000000E+00
   0.0000000000000000E+00
   0.0000000000000000E+00
   0.0000000000000000E+00
   0.0000000000000000E+00
   0.0000000000000000E+00
   0.0000000000000000E+00
   0.0000000000000000E+00
   0.0000000000000000E+00
   0.0000000000000000E+00
   0.0000000000000000E+00
   0.7970254563238190E-03
  -0.1329294679277421E-02
  -0.1332592745188338E-02
   0.0000000000000000E+00
   0.0000000000000000E+00
   0.0000000000000000E+00
   0.0000000000000000E+00
  -0.1922562546406745E-01
   0.4770618192839883E-03
   0.2183360206870114E-02
   0.1427333025429337E-01
  -0.6488281918847977E-02
  -0.7821622762430844E-02
  -0.1327725031284540E-01
   0.4914481802572672E-02
   0.6907122216036789E-03
   0.3434418461182498E-02
   0.1920847375792627E-02
   0.3147960322045652E-02
   0.1704778409376339E-02
  -0.7316187182680845E-02
  -0.7701888642740718E-04
   0.4468738109089865E-02
  -0.4387154778607588E-03
  -0.6383741391800914E-04
  -0.1963394568194066E-03
   0.8071267849080416E-03
   0.0000000000000000E+00
   0.0000000000000000E+00
   0.0000000000000000E+00
   0.0000000000000000E+00
   0.4257020048778056E-03
   0.1616304621994342E-02
  -0.1297550926884439E-02
  -0.1022774960374979E-02
  -0.2134342391965701E-02
  -0.1064012659459363E-02
  -0.8200064225662977E-03
  -0.7617033101568054E-03
   0.5202258591094397E-04
  -0.6244091806675206E-03
   0.7916469184021326E-03
  -0.1745238491255072E-02
   0.2747128556785585E-03
  -0.8939747023625267E-04
  -0.9424309958659733E-03
  -0.1100227511062955E-02
   0.0000000000000000E+00
   0.0000000000000000E+00
   0.0000000000000000E+00
  -0.1061759112132131E-02
  -0.7641128916167052E-02
   0.1860854777591313E-01
  -0.2834552186284776E-04
  -0.1383129121425598E-02
  -0.2035122940356118E-02
  -0.5666383176267311E-02
  -0.1585210172200871E-02
  -0.5947016288681218E-02
  -0.4160601792627275E-02
   0.1565614866644370E-02
   0.3329524800072570E-01
   0.3055138930438842E-04
  -0.2766885010914440E-02
   0.3566484669221141E-02
   0.3596189935129242E-03
   0.0000000000000000E+00
   0.0000000000000000E+00
   0.0000000000000000E+00
   0.0000000000000000E+00
   0.0000000000000000E+00
   0.0000000000000000E+00
   0.0000000000000000E+00
   0.0000000000000000E+00
   0.0000000000000000E+00
   0.0000000000000000E+00
   0.0000000000000000E+00
   0.0000000000000000E+00
   0.0000000000000000E+00
   0.0000000000000000E+00
   0.0000000000000000E+00
   0.0000000000000000E+00
   0.0000000000000000E+00
   0.5047032613553529E-02
   0.3230791948673381E-02
   0.8149134254138778E-02
   0.6168367031369890E-02
   0.1122928629994908E-01
   0.1429277498571150E-01
  -0.2038825155964118E-03
   0.5118221795889812E-02
   0.2914950523320992E-02
   0.3373611761348104E-02
   0.3728336479804448E-02
  -0.1465719806053728E-01
  -0.6159699725777757E-03
   0.6651630350209173E-02
   0.1542014383291789E-02
   0.1969646585226052E-02
   0.4266273557863214E-02
  -0.2790960829695875E-02
   0.1226887080719717E-02
   0.2819172478959580E-02
   0.1497449154497460E-02
   0.2575339116763563E-02
   0.2030646473553213E-02
   0.2118046062084531E-02
   0.8700410484350843E-02
  -0.3733396949442080E-02
   0.6241189097983770E-02
   0.2516489824412696E-04
  -0.3854044533687816E-03
  -0.1674678988619744E-01
  -0.4881976804134475E-02
  -0.4720000682970420E-02
   0.3445223122980646E-02
  -0.6135723910041295E-02
   0.9934533710319182E-04
  -0.3291372876303175E-01
  -0.3046196722774491E-02
   0.4722743211381797E-02
   0.9228368187377293E-03
   0.2112175223862623E-02
   0.4518755734369361E-02
   0.2720465275523518E-02
   0.3212576527666218E-02
   0.5200804231208838E-02
   0.1941838978549797E-02
   0.7315897722177076E-03
  -0.2555238245238204E-04
  -0.5374632713596765E-02
  -0.6959590868798553E-02
  -0.9443815192539812E-03
   0.1105268451920061E-02
  -0.2080554041882573E-02
  -0.3200035970710759E-02
  -0.2527833232925192E-02
  -0.4115193530181695E-02
  -0.7593954884087675E-02
  -0.1985686376470295E-02
   0.6240403000750094E-03
  -0.2239081501754553E-03
   0.1216949824966982E-02
  -0.3483958183417866E-02
   0.5229140114107881E-02
  -0.8487626122823945E-02
   0.2315171878694951E-04
  -0.3395192781364182E-03
   0.2542663566030475E-02
   0.1663457676744373E-02
   0.2021438688202782E-02
  -0.5620783859607935E-02
SCALARS w double 1
LOOKUP_TABLE default
   0.0000000000000000E+00
   0.0000000000000000E+00
   0.0000000000000000E+00
   0.0000000000000000E+00
   0.0000000000000000E+00
   0.0000000000000000E+00
   0.0000000000000000E+00
   0.0000000000000000E+00
   0.0000000000000000E+00
   0.0000000000000000E+00
   0.0000000000000000E+00
   0.0000000000000000E+00
   0.0000000000000000E+00
   0.0000000000000000E+00
   0.0000000000000000E+00
   0.0000000000000000E+00
   0.0000000000000000E+00
   0.0000000000000000E+00
   0.0000000000000000E+00
   0.0000000000000000E+00
   0.0000000000000000E+00
   0.0000000000000000E+00
   0.0000000000000000E+00
   0.0000000000000000E+00
   0.0000000000000000E+00
   0.0000000000000000E+00
   0.0000000000000000E+00
   0.0000000000000000E+00
   0.0000000000000000E+00
   0.0000000000000000E+00
   0.0000000000000000E+00
   0.0000000000000000E+00
   0.0000000000000000E+00
  -0.1007612300962901E+00
  -0.4249297211401717E-01
   0.7371983216315020E-03
   0.5725799867136940E-02
   0.5699056347211915E-03
   0.1609782936333821E-02
   0.3375072832360119E-02
   0.2371773549663471E-02
   0.4590624614170944E-03
   0.3518225932834101E-02
   0.4521817495016965E-01
   0.6522937661510395E-01
   0.8689295102745038E-03
  -0.2261151868194082E-01
   0.4316553364982015E-02
   0.1358734810746505E-01
   0.1039452534524496E-01
   0.4900548362394572E-01
   0.2437443305073136E-02
  -0.6509941474404695E-02
  -0.7012229863990018E-03
   0.3411014605401546E-03
   0.3904107016673338E-02
  -0.3893254374184254E-01
   0.1798168065427976E-01
   0.1119638185602431E-01
   0.3403773206683101E-01
   0.8438809906573561E-02
   0.4937312216925323E-02
   0.4970345532959489E-02
   0.4871517336889259E-02
   0.6027191641502694E-02
   0.2599191549719898E-02
  -0.4144429646523144E-01
  -0.9954261959176933E-01
  -0.1121678231169677E+00
   0.5070874861409029E-02
   0.4230770503243387E-02
  -0.1004732315369596E+00
  -0.9895252613014921E-01
  -0.9875451057018220E-01
  -0.9462509717317777E-01
  -0.6807133895874429E-01
   0.5154922033162345E-02
  -0.1935330787161605E-01
  -0.1575800327452603E-01
  -0.6002862711847223E-02
   0.6819057271424750E-02
  -0.8010050912047678E-01
  -0.2781092517189865E-01
  -0.8096457436948090E-01
  -0.5873277632238698E-01
   0.3083625595755133E-02
   0.2685146392835534E-02
   0.2640431098095372E-02
   0.3450191831400906E-02
   0.4007083618223086E-02
   0.1201214141554752E-02
  -0.1438847772101721E-03
   0.2039877220275970E-02
   0.4895693441721586E-02
   0.3857385412854405E-02
   0.1114201856731411E-02
   0.1182681971322503E-02
   0.1465296200619209E-02
  -0.1653649994733865E-04
   0.8996608125507835E-04
   0.4386667709095408E-02
   0.2715724056020496E-02
   0.2322755120906139E-02
   0.5010600850731278E-02
   0.1071689177702310E-02
   0.2712217530940986E-02
   0.2013963930628756E-02
   0.2879071390260893E-04
   0.8374614242708968E-01
   0.2793870697550183E-02
  -0.8346628223447330E-03
  -0.1492945985412752E-03
   0.1409540830435536E+00
   0.1239332939193492E+00
  -0.1219093331988652E-02
  -0.4381936082643366E-02
  -0.3043058185528391E-03
  -0.6512246856478191E-02
  -0.1949570358237515E-02
   0.1557630956953163E+00
   0.7489979123486057E-01
   0.2550174891567353E-01
   0.1656445103024828E+00