# vtk DataFile Version 2.0
FUN3D:global_image_vtk
ASCII
DATASET UNSTRUCTURED_GRID
POINTS 213 double
    0.0000000000000000E+00    0.2500000000000000E+01    0.0000000000000000E+00
    0.1250000000000000E+01    0.2500000000000000E+01    0.0000000000000000E+00
    0.2500000000000000E+01    0.2500000000000000E+01    0.0000000000000000E+00
    0.3750000000000000E+01    0.2500000000000000E+01    0.0000000000000000E+00
    0.5000000000000000E+01    0.2500000000000000E+01    0.0000000000000000E+00
    0.5000000000000000E+01    0.1250000000000000E+01    0.0000000000000000E+00
    0.5000000000000000E+01    0.0000000000000000E+00    0.0000000000000000E+00
    0.5000000000000000E+01   -0.1250000000000000E+01    0.0000000000000000E+00
    0.5000000000000000E+01   -0.2500000000000000E+01    0.0000000000000000E+00
    0.3750000000000000E+01   -0.2500000000000000E+01    0.0000000000000000E+00
    0.2500000000000000E+01   -0.2500000000000000E+01    0.0000000000000000E+00
    0.1250000000000000E+01   -0.2500000000000000E+01    0.0000000000000000E+00
    0.0000000000000000E+00   -0.2500000000000000E+01    0.0000000000000000E+00
    0.0000000000000000E+00   -0.1250000000000000E+01    0.0000000000000000E+00
    0.0000000000000000E+00    0.0000000000000000E+00    0.0000000000000000E+00
    0.0000000000000000E+00    0.1250000000000000E+01    0.0000000000000000E+00
    0.9058375365086910E+00    0.1578994732800803E+01    0.0000000000000000E+00
    0.3982050490726493E+01   -0.1583989954232354E+01    0.0000000000000000E+00
    0.4033849428301197E+01    0.1453322699199022E+01    0.0000000000000000E+00
    0.1040505887381675E+01   -0.1479596339503735E+01    0.0000000000000000E+00
    0.1099454400140349E+01   -0.3227322616384110E+00    0.0000000000000000E+00
    0.7354504170366591E+00    0.6593508822075582E+00    0.0000000000000000E+00
    0.1622302608453282E+01    0.8256214013940779E+00    0.0000000000000000E+00
    0.2145871574390382E+01   -0.1650070333782557E+01    0.0000000000000000E+00
    0.4086422318222992E+01   -0.4612828702537229E+00    0.0000000000000000E+00
    0.2979540174134984E+01   -0.8579242121530853E+00    0.0000000000000000E+00
    0.3045064261640043E+01   -0.1836846154397680E+01    0.0000000000000000E+00
    0.3428197553792836E+01    0.3508002863614053E+00    0.0000000000000000E+00
    0.4309693860063405E+01    0.5185680230613409E+00    0.0000000000000000E+00
    0.1827272193562204E+01    0.1738996113203182E+01    0.0000000000000000E+00
    0.2808563282768077E+01    0.1325493893339706E+01    0.0000000000000000E+00
    0.1895995683864404E+01   -0.8731419609589618E+00    0.0000000000000000E+00
    0.2273179336307740E+01    0.4906150219227333E-01    0.0000000000000000E+00
    0.5000000000000000E+01    0.2500000000000000E+01    0.1250000000000000E+01
    0.5000000000000000E+01    0.2500000000000000E+01    0.2500000000000000E+01
    0.5000000000000000E+01    0.2500000000000000E+01    0.3750000000000000E+01
    0.5000000000000000E+01    0.2500000000000000E+01    0.5000000000000000E+01
    0.3750000000000000E+01    0.2500000000000000E+01    0.5000000000000000E+01
    0.2500000000000000E+01    0.2500000000000000E+01    0.5000000000000000E+01
    0.1250000000000000E+01    0.2500000000000000E+01    0.5000000000000000E+01
    0.0000000000000000E+00    0.2500000000000000E+01    0.5000000000000000E+01
    0.0000000000000000E+00    0.2500000000000000E+01    0.3750000000000000E+01
    0.0000000000000000E+00    0.2500000000000000E+01    0.2500000000000000E+01
    0.0000000000000000E+00    0.2500000000000000E+01    0.1250000000000000E+01
    0.9631080833812172E+00    0.2500000000000000E+01    0.9613285771248219E+00
    0.3981732467264904E+01    0.2500000000000000E+01    0.4069753913607991E+01
    0.4035525118777670E+01    0.2500000000000000E+01    0.1012015867579395E+01
    0.9641717640894248E+00    0.2500000000000000E+01    0.3972455192261839E+01
    0.1547743040396780E+01    0.2500000000000000E+01    0.2928177746738678E+01
    0.6985170616192014E+00    0.2500000000000000E+01    0.3068281976055466E+01
    0.8931277594515110E+00    0.2500000000000000E+01    0.2052465503257726E+01
    0.2183293750162785E+01    0.2500000000000000E+01    0.3959073795658649E+01
    0.3855333506014705E+01    0.2500000000000000E+01    0.2931218481500625E+01
    0.3152495579421047E+01    0.2500000000000000E+01    0.3635850502723324E+01
    0.3103247580566054E+01    0.2500000000000000E+01    0.4331682712472464E+01
    0.3266837581688852E+01    0.2500000000000000E+01    0.1886092433583972E+01
    0.4231539241296245E+01    0.2500000000000000E+01    0.1915865356532799E+01
    0.1909741006522088E+01    0.2500000000000000E+01    0.7170024419130505E+00
    0.2880784107213163E+01    0.2500000000000000E+01    0.9046598906449592E+00
    0.2014316024535771E+01    0.2500000000000000E+01    0.1762464314805728E+01
    0.2670003247036656E+01    0.2500000000000000E+01    0.2850479545835163E+01
    0.5000000000000000E+01    0.1250000000000000E+01    0.5000000000000000E+01
    0.5000000000000000E+01    0.0000000000000000E+00    0.5000000000000000E+01
    0.5000000000000000E+01   -0.1250000000000000E+01    0.5000000000000000E+01
    0.5000000000000000E+01   -0.2500000000000000E+01    0.5000000000000000E+01
    0.5000000000000000E+01   -0.2500000000000000E+01    0.3750000000000000E+01
    0.5000000000000000E+01   -0.2500000000000000E+01    0.2500000000000000E+01
    0.5000000000000000E+01   -0.2500000000000000E+01    0.1250000000000000E+01
    0.5000000000000000E+01    0.1578994732800803E+01    0.9058375365086910E+00
    0.5000000000000000E+01   -0.1583989954232354E+01    0.3982050490726493E+01
    0.5000000000000000E+01    0.1453322699199022E+01    0.4033849428301197E+01
    0.5000000000000000E+01   -0.1479596339503735E+01    0.1040505887381675E+01
    0.5000000000000000E+01   -0.3227322616384110E+00    0.1099454400140349E+01
    0.5000000000000000E+01    0.6593508822075582E+00    0.7354504170366591E+00
    0.5000000000000000E+01    0.8256214013940779E+00    0.1622302608453282E+01
    0.5000000000000000E+01   -0.1650070333782557E+01    0.2145871574390382E+01
    0.5000000000000000E+01   -0.4612828702537229E+00    0.4086422318222992E+01
    0.5000000000000000E+01   -0.8579242121530853E+00    0.2979540174134984E+01
    0.5000000000000000E+01   -0.1836846154397680E+01    0.3045064261640043E+01
    0.5000000000000000E+01    0.3508002863614053E+00    0.3428197553792836E+01
    0.5000000000000000E+01    0.5185680230613409E+00    0.4309693860063405E+01
    0.5000000000000000E+01    0.1738996113203182E+01    0.1827272193562204E+01
    0.5000000000000000E+01    0.1325493893339706E+01    0.2808563282768077E+01
    0.5000000000000000E+01   -0.8731419609589618E+00    0.1895995683864404E+01
    0.5000000000000000E+01    0.4906150219227333E-01    0.2273179336307740E+01
    0.0000000000000000E+00    0.1250000000000000E+01    0.5000000000000000E+01
    0.0000000000000000E+00    0.0000000000000000E+00    0.5000000000000000E+01
    0.0000000000000000E+00   -0.1250000000000000E+01    0.5000000000000000E+01
    0.0000000000000000E+00   -0.2500000000000000E+01    0.5000000000000000E+01
    0.1250000000000000E+01   -0.2500000000000000E+01    0.5000000000000000E+01
    0.2500000000000000E+01   -0.2500000000000000E+01    0.5000000000000000E+01
    0.3750000000000000E+01   -0.2500000000000000E+01    0.5000000000000000E+01
    0.4042003247744892E+01    0.1558308132739014E+01    0.5000000000000000E+01
    0.9304122287900499E+00   -0.1548001304379777E+01    0.5000000000000000E+01
    0.1037243024609388E+01    0.1462892710085612E+01    0.5000000000000000E+01
    0.3946240828834967E+01   -0.1445243809615570E+01    0.5000000000000000E+01
    0.4092527262848217E+01   -0.3455338993778935E+00    0.5000000000000000E+01
    0.4293103109154542E+01    0.6277660831404320E+00    0.5000000000000000E+01
    0.3241512314643519E+01    0.7429886854239611E+00    0.5000000000000000E+01
    0.2844289952419609E+01   -0.1588117879734118E+01    0.5000000000000000E+01
    0.7159905765450471E+00   -0.6002320124191652E+00    0.5000000000000000E+01
    0.1754341919796891E+01   -0.7398147869923652E+00    0.5000000000000000E+01
    0.1870296826774691E+01   -0.1788622905643739E+01    0.5000000000000000E+01
    0.9220614901912976E+00    0.3083720183248586E+00    0.5000000000000000E+01
    0.3101523624086016E+01    0.1777901774806180E+01    0.5000000000000000E+01
    0.2192512063922564E+01    0.1576861561598471E+01    0.5000000000000000E+01
    0.2024793420196460E+01    0.4773861992750707E+00    0.5000000000000000E+01
    0.2990627757741975E+01   -0.4878110785814084E+00    0.5000000000000000E+01
    0.0000000000000000E+00   -0.2500000000000000E+01    0.1250000000000000E+01
    0.0000000000000000E+00   -0.2500000000000000E+01    0.2500000000000000E+01
    0.0000000000000000E+00   -0.2500000000000000E+01    0.3750000000000000E+01
    0.0000000000000000E+00    0.1558308132739014E+01    0.4042003247744892E+01
    0.0000000000000000E+00   -0.1548001304379777E+01    0.9304122287900499E+00
    0.0000000000000000E+00    0.1462892710085612E+01    0.1037243024609388E+01
    0.0000000000000000E+00   -0.1445243809615570E+01    0.3946240828834967E+01
    0.0000000000000000E+00   -0.3455338993778935E+00    0.4092527262848217E+01
    0.0000000000000000E+00    0.6277660831404320E+00    0.4293103109154542E+01
    0.0000000000000000E+00    0.7429886854239611E+00    0.3241512314643519E+01
    0.0000000000000000E+00   -0.1588117879734118E+01    0.2844289952419609E+01
    0.0000000000000000E+00   -0.6002320124191652E+00    0.7159905765450471E+00
    0.0000000000000000E+00   -0.7398147869923652E+00    0.1754341919796891E+01
    0.0000000000000000E+00   -0.1788622905643739E+01    0.1870296826774691E+01
    0.0000000000000000E+00    0.3083720183248586E+00    0.9220614901912976E+00
    0.0000000000000000E+00    0.1777901774806180E+01    0.3101523624086016E+01
    0.0000000000000000E+00    0.1576861561598471E+01    0.2192512063922564E+01
[...]
POINT_DATA 213
SCALARS rho double 1
LOOKUP_TABLE default
   0.1344271430700963E+01
   0.9569758887168264E+00
   0.9462964174875332E+00
   0.9418612687575998E+00
   0.8437304866291532E+00
   0.7738004272099765E+00
   0.7629818868982106E+00
   0.7664577864090446E+00
   0.8307873993978397E+00
   0.9352972527823872E+00
   0.9342219791726143E+00
   0.9617195257104173E+00
   0.1449457440441072E+01
   0.1494090633147417E+01
   0.1644667262406097E+01
   0.1425832038320912E+01
   0.1009014431316907E+01
   0.9508810826552726E+00
   0.9436508469383419E+00
   0.9581561008964247E+00
   0.9415852439616703E+00
   0.1036377236718266E+01
   0.9256161080177182E+00
   0.9322349845350514E+00
   0.9537479540414487E+00
   0.9518769533516163E+00
   0.9348583094841985E+00
   0.9564028385135981E+00
   0.9376098361401560E+00
   0.9300661507414351E+00
   0.9445157465005428E+00
   0.8863506498683275E+00
   0.9423579941605889E+00
   0.9635003155239207E+00
   0.1008299039024618E+01
   0.1006735291154733E+01
   0.1001964619650488E+01
   0.1003219581826127E+01
   0.1004132053338499E+01
   0.1005228602771843E+01
   0.1004260407973162E+01
   0.1008308189749966E+01
   0.1023893137359369E+01
   0.1063553955795354E+01
   0.1019182511222859E+01
   0.1001780765995557E+01
   0.9643310045434065E+00
   0.1005283708733855E+01
   0.1000721163244634E+01
   0.1008742083505730E+01
   0.1008078083622420E+01
   0.1002349807021014E+01
   0.9979986847702726E+00
   0.1000583561253163E+01
   0.1001620123402124E+01
   0.9826893060478140E+00
   0.9842439649017394E+00
   0.9833314012382078E+00
   0.9788207416107744E+00
   0.9902638153362427E+00
   0.9934561552618473E+00
   0.1002011754195235E+01
   0.1002134467201199E+01
   0.1002276326383676E+01
   0.1001794758138561E+01
   0.1009778639807108E+01
   0.1006429109151649E+01
   0.9558786957392071E+00
   0.9249398413860946E+00
   0.1007036756080259E+01
   0.1004504925205424E+01
   0.9143642059718403E+00
   0.9089667849897013E+00
   0.8751688865902044E+00
   0.9767271869559918E+00
   0.1000452620983524E+01
   0.1005831087812180E+01
   0.1012882803226907E+01
   0.1011618951441493E+01
   0.1010438648717538E+01
   0.1005468281463168E+01
   0.9907612662649989E+00
   0.1005140325750550E+01
   0.9860567244287337E+00
   0.1005609737951354E+01
   0.1004248005570767E+01
   0.1002888437454930E+01
   0.1003345420141497E+01
   0.1003992731711590E+01
   0.1005101715929304E+01
   0.1003211644946896E+01
   0.1002663158873975E+01
   0.1002586232988153E+01
   0.1004060870889177E+01
   0.1004320345593512E+01
   0.1001641919459107E+01
   0.1002273116474751E+01
   0.1002543476669749E+01
   0.1003469520519041E+01
   0.1003372639739324E+01
   0.1003232229969658E+01
   0.1004423862911306E+01
   0.1004313070500172E+01
   0.1003659849134064E+01
   0.1003723103567140E+01
   0.1004329726130804E+01
   0.1004465021630053E+01
   0.1003623374796519E+01
   0.1064422801135050E+01
   0.1028473620773100E+01
   0.1009586657072287E+01
   0.1006638837234847E+01
   0.1163935520339117E+01
   0.1086087969481981E+01
   0.1007893418924911E+01
   0.1007245532990301E+01
   0.1006798073875208E+01
   0.1013018286500295E+01
   0.1019384608986233E+01
   0.1235203666508177E+01
   0.1032529466595875E+01
   0.1046681190719528E+01
   0.1200953639905055E+01
   0.1014718915693396E+01
   0.1032291152617278E+01
   0.1028095235904397E+01
   0.1014628639369445E+01
   0.1029216891998842E+01
   0.1001994816671474E+01
   0.9606929189004009E+00
   0.1006852582535013E+01
   0.1001327193181982E+01
   0.1010821905024108E+01
   0.1012246098706397E+01
   0.1000946006642366E+01
   0.9979121234271752E+00
   0.9980632369091189E+00
   0.1001184142958707E+01
   0.9841362009660729E+00
   0.9814879615196542E+00
   0.9648483310885083E+00
   0.9680877117125456E+00
   0.9914124469251365E+00
   0.9910858387969049E+00
   0.9925545096302100E+00
   0.1001727533743805E+01
   0.9993409402373373E+00
   0.9941410836247305E+00
   0.1007038753735962E+01
   0.1022539494043742E+01
   0.1001088098318467E+01
   0.1008798495977927E+01
   0.1004773845903251E+01
   0.1009050237185644E+01
   0.9966470331581067E+00
   0.1004988555672691E+01
   0.1003325534950069E+01
   0.9949431084971019E+00
   0.9832680784614611E+00
   0.9943957458293400E+00
   0.9973420658433950E+00
   0.9932190084908872E+00
   0.1001306487093291E+01
   0.1003001636808499E+01
   0.1002183579489346E+01
   0.9947078546253647E+00
   0.9937965521537792E+00
   0.1004867865281271E+01
   0.1020077607331791E+01
   0.1005364552232810E+01
   0.9816998151609083E+00
   0.1004973030967672E+01
   0.1012382323060372E+01
   0.9871424283670016E+00
   0.9551513524709464E+00
   0.9865075698140477E+00
   0.9864532948734093E+00
   0.9918946924194167E+00
   0.9933508196542814E+00
   0.9954406175701753E+00
   0.1037336789425102E+01
   0.1033536796916120E+01
   0.1001443321113522E+01
   0.1001930499758021E+01
   0.9912478515220540E+00
   0.9910920508611777E+00
   0.9648489982425179E+00
   0.9933282603364563E+00
   0.1006058638733061E+01
   0.1001954027378271E+01
   0.9908735803500812E+00
   0.9740945191878426E+00
   0.9418802124307711E+00
   0.9819379681824674E+00
   0.9794803558178512E+00
   0.9704172047726206E+00
   0.9720478937475037E+00
   0.9557351700668097E+00
   0.9496731202510148E+00
   0.9528673552611010E+00
   0.1002659533670945E+01
   0.1002471631653822E+01
   0.1000509329187328E+01
   0.1001677322013121E+01
   0.9607931411149103E+00
   0.9491625486191678E+00
   0.9584503047739639E+00
   0.1001121207614044E+01
   0.1000496140282755E+01
   0.1001156644413410E+01
   0.9807376182238029E+00
   0.9806000799920837E+00
   0.9628476095559214E+00
SCALARS u double 1
LOOKUP_TABLE default
   0.0000000000000000E+00
   0.0000000000000000E+00
   0.0000000000000000E+00
   0.0000000000000000E+00
   0.0000000000000000E+00
   0.0000000000000000E+00
   0.0000000000000000E+00
   0.0000000000000000E+00
   0.0000000000000000E+00
   0.0000000000000000E+00
   0.0000000000000000E+00
   0.0000000000000000E+00
   0.0000000000000000E+00
   0.0000000000000000E+00
   0.0000000000000000E+00
   0.0000000000000000E+00
   0.0000000000000000E+00
   0.0000000000000000E+00
   0.0000000000000000E+00
   0.0000000000000000E+00
   0.0000000000000000E+00
   0.0000000000000000E+00
   0.0000000000000000E+00
   0.0000000000000000E+00
   0.0000000000000000E+00
   0.0000000000000000E+00
   0.0000000000000000E+00
   0.0000000000000000E+00
   0.0000000000000000E+00
   0.0000000000000000E+00
   0.0000000000000000E+00
   0.0000000000000000E+00
   0.0000000000000000E+00
   0.4950176746620144E+00
   0.5338221308135416E+00
   0.5183269231278675E+00
   0.4930649896059529E+00
   0.4847578756937573E+00
   0.4867666433596531E+00
   0.4890763592757653E+00
   0.4957848877782816E+00
   0.4898301888462394E+00
   0.4717388499268652E+00
   0.4454814159502520E+00
   0.4833907037243845E+00
   0.5098397417134142E+00
   0.4390712703303035E+00
   0.4949403965889811E+00
   0.5225330361937341E+00
   0.4962454548309668E+00
   0.5226154963802628E+00
   0.5038881741679286E+00
   0.5646883611260906E+00
   0.5247509148378198E+00
   0.4991466103587254E+00
   0.5730561898133716E+00
   0.5696051092450167E+00
   0.3737941442734502E+00
   0.3998658130444975E+00
   0.5599326582929779E+00
   0.5564587626722991E+00
   0.4942627364114748E+00
   0.4948659492389766E+00
   0.4925735879735059E+00
   0.4914269540483845E+00
   0.5162356847944418E+00
   0.5361798303323373E+00
   0.4947413358873605E+00
   0.4524112197669145E+00
   0.5128777319786754E+00
   0.5117942013271780E+00
   0.4783517520270670E+00
   0.4931696667419332E+00
   0.4603173625854579E+00
   0.5244892733248701E+00
   0.5297434247446381E+00
   0.5129579285913674E+00
   0.5328358315221525E+00
   0.5308941035380268E+00
   0.5309856155355248E+00
   0.5063656720607931E+00
   0.5282461971921978E+00
   0.5410312729108571E+00
   0.5361261482188614E+00
   0.5374105273797538E+00
   0.4965364819622395E+00
   0.4975340904626925E+00
   0.4963842645662567E+00
   0.4955220269016700E+00
   0.4904581832982812E+00
   0.4903044389818763E+00
   0.4862182758807538E+00
   0.4854049624946829E+00
   0.4932164392384352E+00
   0.4909833321465631E+00
   0.4832194707541792E+00
   0.4872622823528447E+00
   0.4880124976384482E+00
   0.4872445964447615E+00
   0.4882696670642045E+00
   0.4952597560662932E+00
   0.4900967172758932E+00
   0.4904000095285149E+00
   0.4944232933794407E+00
   0.4868002496576744E+00
   0.4892386001257201E+00
   0.4881393385845319E+00
   0.4878457848515477E+00
   0.4446866575119696E+00
   0.4700028786376009E+00
   0.4891999059091805E+00
   0.4885247845522623E+00
   0.4506533059644096E+00
   0.4687378571773254E+00
   0.4877010457357833E+00
   0.4868353685055046E+00
   0.4908994715584922E+00
   0.4793551581449711E+00
   0.4658071754133657E+00
   0.3792725244032648E+00
   0.4901596529816267E+00
   0.4486686697200791E+00
   0.4436137401454640E+00
   0.4845147244773513E+00
   0.4621822650362253E+00
   0.4665749540908133E+00
   0.4748140304648037E+00
   0.4894494209954435E+00
   0.5085556989639107E+00
   0.4315073881782490E+00
   0.4927349363265257E+00
   0.5318289235781102E+00
   0.4913399199624603E+00
   0.5207019992820606E+00
   0.5060964606135178E+00
   0.5688797395576224E+00
   0.5273992825585957E+00
   0.5015044851080963E+00
   0.5821790086395747E+00
   0.5689618253653109E+00
   0.3406394442755340E+00
   0.3789869413859247E+00
   0.5751958202609945E+00
   0.5666485493668127E+00
   0.5704108782341646E+00
   0.5291056374857610E+00
   0.5451902710588661E+00
   0.5718804314230270E+00
   0.5389079127357008E+00
   0.5475507505049572E+00
   0.5821713865555102E+00
   0.4925601785811403E+00
   0.5042157544574860E+00
   0.4961735437872818E+00
   0.5565207959418649E+00
   0.4758845196513678E+00
   0.4950268387857799E+00
   0.5498525440328360E+00
   0.5891202295144872E+00
   0.5841957608923914E+00
   0.5469097656441345E+00
   0.5805417618565355E+00
   0.5106251432881733E+00
   0.5030200511282167E+00
   0.5033624667486261E+00
   0.5676446093036408E+00
   0.5563943078406696E+00
   0.4947255973866480E+00
   0.5505243827564251E+00
   0.5510857279280815E+00
   0.5657350949051917E+00
   0.4920070019711673E+00
   0.4927299098404164E+00
   0.3865140567259567E+00
   0.3687754534776783E+00
   0.5574921717776383E+00
   0.5763755542142213E+00
   0.4194304387123413E+00
   0.5824843237790049E+00
   0.4265209604274515E+00
   0.5392799844080636E+00
   0.5012032759316136E+00
   0.5119513185558058E+00
   0.5049119460488553E+00
   0.5751974968905881E+00
   0.5876371359350832E+00
   0.5379907809393454E+00
   0.5677472538158873E+00
   0.5351248666786371E+00
   0.5338056370229469E+00
   0.5580313796048586E+00
   0.5512707860993690E+00
   0.4261852750399663E+00
   0.5273356175500657E+00
   0.5795712529329157E+00
   0.3318687138659083E+00
   0.4760283326832533E+00
   0.5446196256993564E+00
   0.4798331905635952E+00
   0.3005293514025004E+00
   0.5031051140914886E+00
   0.5017115977595075E+00
   0.5129033207056213E+00
   0.5414840092507138E+00
   0.3437603848605134E+00
   0.3397710726499059E+00
   0.3189928576418754E+00
   0.5065936057275201E+00
   0.5123483789569879E+00
   0.5330313512130809E+00
   0.5879309998631549E+00
   0.4644180533580738E+00
   0.3531270513106828E+00
SCALARS v double 1
LOOKUP_TABLE default
   0.0000000000000000E+00
   0.0000000000000000E+00
   0.0000000000000000E+00
   0.0000000000000000E+00
   0.0000000000000000E+00
   0.0000000000000000E+00
   0.0000000000000000E+00
   0.0000000000000000E+00
   0.0000000000000000E+00
   0.0000000000000000E+00
   0.0000000000000000E+00
   0.0000000000000000E+00
   0.0000000000000000E+00
   0.0000000000000000E+00
   0.0000000000000000E+00
   0.0000000000000000E+00
   0.0000000000000000E+00
   0.0000000000000000E+00
   0.0000000000000000E+00
   0.0000000000000000E+00
   0.0000000000000000E+00
   0.0000000000000000E+00
   0.0000000000000000E+00
   0.0000000000000000E+00
   0.0000000000000000E+00
   0.0000000000000000E+00
   0.0000000000000000E+00
   0.0000000000000000E+00
   0.0000000000000000E+00
   0.0000000000000000E+00
   0.0000000000000000E+00
   0.0000000000000000E+00
   0.0000000000000000E+00
   0.0000000000000000E+00
   0.0000000000000000E+00
   0.0000000000000000E+00
   0.0000000000000000E+00
   0.0000000000000000E+00
   0.0000000000000000E+00
   0.0000000000000000E+00
   0.0000000000000000E+00
   0.0000000000000000E+00
   0.0000000000000000E+00
   0.0000000000000000E+00
   0.0000000000000000E+00
   0.0000000000000000E+00
   0.0000000000000000E+00
   0.0000000000000000E+00
   0.0000000000000000E+00
   0.0000000000000000E+00
   0.0000000000000000E+00
   0.0000000000000000E+00
   0.0000000000000000E+00
   0.0000000000000000E+00
   0.0000000000000000E+00
   0.0000000000000000E+00
   0.0000000000000000E+00
   0.0000000000000000E+00
   0.0000000000000000E+00
   0.0000000000000000E+00
   0.0000000000000000E+00
   0.7970256052134924E-03
  -0.1329291676774836E-02
  -0.1332590496826480E-02
   0.0000000000000000E+00
   0.0000000000000000E+00
   0.0000000000000000E+00
   0.0000000000000000E+00
  -0.1922562894402098E-01
   0.4770615822814952E-03
   0.2183359833436808E-02
   0.1427333044138243E-01
  -0.6488281843460781E-02
  -0.7821624403744655E-02
  -0.1327725133019643E-01
   0.4914481599334000E-02
   0.6907109102890223E-03
   0.3434417441233931E-02
   0.1920846953634901E-02
   0.3147959052198484E-02
   0.1704777649729618E-02
  -0.7316189036458590E-02
  -0.7701933474982834E-04
   0.4468737874775268E-02
  -0.4387157871961529E-03
  -0.6383746587645194E-04
  -0.1963395354521970E-03
   0.8071267442635043E-03
   0.0000000000000000E+00
   0.0000000000000000E+00
   0.0000000000000000E+00
   0.0000000000000000E+00
   0.4257020462352865E-03
   0.1616304732714803E-02
  -0.1297550815241191E-02
  -0.1022773080206426E-02
  -0.2134338588155142E-02
  -0.1064010138449222E-02
  -0.8200046670656665E-03
  -0.7617015847347879E-03
   0.5202265291604234E-04
  -0.6244084635964688E-03
   0.7916472559929535E-03
  -0.1745238452986743E-02
   0.2747134397134327E-03
  -0.8939731926381565E-04
  -0.9424307959119289E-03
  -0.1100225650796217E-02
   0.0000000000000000E+00
   0.0000000000000000E+00
   0.0000000000000000E+00
  -0.1061759192415768E-02
  -0.7641128800446126E-02
   0.1860854786090597E-01
  -0.2834551810836946E-04
  -0.1383129172601104E-02
  -0.2035123032732335E-02
  -0.5666383130070049E-02
  -0.1585210287792791E-02
  -0.5947016335223049E-02
  -0.4160601836150293E-02
   0.1565614856741487E-02
   0.3329524797757785E-01
   0.3055140941428184E-04
  -0.2766884997877645E-02
   0.3566484725895771E-02
   0.3596189916112559E-03
   0.0000000000000000E+00
   0.0000000000000000E+00
   0.0000000000000000E+00
   0.0000000000000000E+00
   0.0000000000000000E+00
   0.0000000000000000E+00
   0.0000000000000000E+00
   0.0000000000000000E+00
   0.0000000000000000E+00
   0.0000000000000000E+00
   0.0000000000000000E+00
   0.0000000000000000E+00
   0.0000000000000000E+00
   0.0000000000000000E+00
   0.0000000000000000E+00
   0.0000000000000000E+00
   0.0000000000000000E+00
   0.5047032565411952E-02
   0.3230791870135361E-02
   0.8149134209278552E-02
   0.6168367038875324E-02
   0.1122928630659801E-01
   0.1429277497763400E-01
  -0.2038825698661320E-03
   0.5118221745005769E-02
   0.2914950448893621E-02
   0.3373611719584805E-02
   0.3728336483721528E-02
  -0.1465719808378494E-01
  -0.6159700706430232E-03
   0.6651630206348105E-02
   0.1542014648419156E-02
   0.1969646669164157E-02
   0.4266273050206848E-02
  -0.2790960600968935E-02
   0.1226886406210662E-02
   0.2819172275816909E-02
   0.1497448853246516E-02
   0.2575338549465576E-02
   0.2030646057921236E-02
   0.2118046025011809E-02
   0.8700410460382689E-02
  -0.3733396976406485E-02
   0.6241189103309098E-02
   0.2516482509800533E-04
  -0.3854045163320038E-03
  -0.1674678994002039E-01
  -0.4881976890754042E-02
  -0.4720000730335309E-02
   0.3445223097980025E-02
  -0.6135723853442045E-02
   0.9934531454962049E-04
  -0.3291372881743890E-01
  -0.3046196750300106E-02
   0.4722743207911013E-02
   0.9228358901601190E-03
   0.2112174990889328E-02
   0.4518755308073318E-02
   0.2720464959543891E-02
   0.3212576480801749E-02
   0.5200803951259853E-02
   0.1941838592864216E-02
   0.7315887888885222E-03
  -0.2555254697227815E-04
  -0.5374632930983936E-02
  -0.6959592098113766E-02
  -0.9443811155687756E-03
   0.1105268420584522E-02
  -0.2080554160421760E-02
  -0.3200036100430366E-02
  -0.2527832985337652E-02
  -0.4115193462613249E-02
  -0.7593954883410145E-02
  -0.1985686456738853E-02
   0.6240397791298322E-03
  -0.2239090024476471E-03
   0.1216949057197442E-02
  -0.3483958468345718E-02
   0.5229139927493597E-02
  -0.8487626215113207E-02
   0.2315109882545135E-04
  -0.3395197040589686E-03
   0.2542663293841348E-02
   0.1663457570812373E-02
   0.2021438649800625E-02
  -0.5620784075995379E-02
SCALARS w double 1
LOOKUP_TABLE default
   0.0000000000000000E+00
   0.0000000000000000E+00
   0.0000000000000000E+00
   0.0000000000000000E+00
   0.0000000000000000E+00
   0.0000000000000000E+00
   0.0000000000000000E+00
   0.0000000000000000E+00
   0.0000000000000000E+00
   0.0000000000000000E+00
   0.0000000000000000E+00
   0.0000000000000000E+00
   0.0000000000000000E+00
   0.0000000000000000E+00
   0.0000000000000000E+00
   0.0000000000000000E+00
   0.0000000000000000E+00
   0.0000000000000000E+00
   0.0000000000000000E+00
   0.0000000000000000E+00
   0.0000000000000000E+00
   0.0000000000000000E+00
   0.0000000000000000E+00
   0.0000000000000000E+00
   0.0000000000000000E+00
   0.0000000000000000E+00
   0.0000000000000000E+00
   0.0000000000000000E+00
   0.0000000000000000E+00
   0.0000000000000000E+00
   0.0000000000000000E+00
   0.0000000000000000E+00
   0.0000000000000000E+00
  -0.1007612273497463E+00
  -0.4249297014802194E-01
   0.7371977365916625E-03
   0.5725797846984638E-02
   0.5699055939763536E-03
   0.1609784003758585E-02
   0.3375072607206230E-02
   0.2371773471822459E-02
   0.4590624040431539E-03
   0.3518225899259160E-02
   0.4521817494762233E-01
   0.6522937663888514E-01
   0.8689301325849274E-03
  -0.2261151950909937E-01
   0.4316553514773920E-02
   0.1358734807060588E-01
   0.1039452533369251E-01
   0.4900548360697957E-01
   0.2437443248186242E-02
  -0.6509941106227062E-02
  -0.7012233549799742E-03
   0.3411020952226355E-03
   0.3904107090789795E-02
  -0.3893254242385371E-01
   0.1798168062728634E-01
   0.1119638146848393E-01
   0.3403773197266852E-01
   0.8438809806016589E-02
   0.4937310868895490E-02
   0.4970345537919618E-02
   0.4871518484920408E-02
   0.6027193237923100E-02
   0.2599192751966625E-02
  -0.4144429628731938E-01
  -0.9954261948592885E-01
  -0.1121678231327702E+00
   0.5070875618341603E-02
   0.4230768931864430E-02
  -0.1004732315710363E+00
  -0.9895252595850050E-01
  -0.9875451056209070E-01
  -0.9462509658846201E-01
  -0.6807133897681732E-01
   0.5154921552259674E-02
  -0.1935330851872038E-01
  -0.1575800328585998E-01
  -0.6002863603129640E-02
   0.6819055930067189E-02
  -0.8010050700437334E-01
  -0.2781092524468978E-01
  -0.8096457445055916E-01
  -0.5873277638228130E-01
   0.3083625364202132E-02
   0.2685146354505411E-02
   0.2640431309006897E-02
   0.3450191930322740E-02
   0.4007083436365529E-02
   0.1201213450232091E-02
  -0.1438844182609936E-03
   0.2039875960082008E-02
   0.4895693185313852E-02
   0.3857385648588575E-02
   0.1114203083068601E-02
   0.1182681526868250E-02
   0.1465296500243150E-02
  -0.1653577520889169E-04
   0.8996611431238833E-04
   0.4386667542075442E-02
   0.2715724414834841E-02
   0.2322755067820977E-02
   0.5010600870746174E-02
   0.1071689849063958E-02
   0.2712217805011495E-02
   0.2013963906644835E-02
   0.2879087515619854E-04
   0.8374614202106578E-01
   0.2793870607933675E-02
  -0.8346628147819166E-03
  -0.1492945249180741E-03
   0.1409540830535121E+00
   0.1239332939141434E+00
  -0.1219093238826125E-02
  -0.4381936094241591E-02
  -0.3043057838288260E-03
  -0.6512246845260253E-02
  -0.1949570410889888E-02
   0.1557630957027493E+00
   0.7489979121522682E-01
   0.2550174889342550E-01
   0.1656445103262935E+00