# vtk DataFile Version 2.0
FUN3D:global_image_vtk
ASCII
DATASET UNSTRUCTURED_GRID
POINTS 213 double
    0.0000000000000000E+00    0.2500000000000000E+01    0.0000000000000000E+00
    0.1250000000000000E+01    0.2500000000000000E+01    0.0000000000000000E+00
    0.2500000000000000E+01    0.2500000000000000E+01    0.0000000000000000E+00
    0.3750000000000000E+01    0.2500000000000000E+01    0.0000000000000000E+00
    0.5000000000000000E+01    0.2500000000000000E+01    0.0000000000000000E+00
    0.5000000000000000E+01    0.1250000000000000E+01    0.0000000000000000E+00
    0.5000000000000000E+01    0.0000000000000000E+00    0.0000000000000000E+00
    0.5000000000000000E+01   -0.1250000000000000E+01    0.0000000000000000E+00
    0.5000000000000000E+01   -0.2500000000000000E+01    0.0000000000000000E+00
    0.3750000000000000E+01   -0.2500000000000000E+01    0.0000000000000000E+00
    0.2500000000000000E+01   -0.2500000000000000E+01    0.0000000000000000E+00
    0.1250000000000000E+01   -0.2500000000000000E+01    0.0000000000000000E+00
    0.0000000000000000E+00   -0.2500000000000000E+01    0.0000000000000000E+00
    0.0000000000000000E+00   -0.1250000000000000E+01    0.0000000000000000E+00
    0.0000000000000000E+00    0.0000000000000000E+00    0.0000000000000000E+00
    0.0000000000000000E+00    0.1250000000000000E+01    0.0000000000000000E+00
    0.9058375365086910E+00    0.1578994732800803E+01    0.0000000000000000E+00
    0.3982050490726493E+01   -0.1583989954232354E+01    0.0000000000000000E+00
    0.4033849428301197E+01    0.1453322699199022E+01    0.0000000000000000E+00
    0.1040505887381675E+01   -0.1479596339503735E+01    0.0000000000000000E+00
    0.1099454400140349E+01   -0.3227322616384110E+00    0.0000000000000000E+00
    0.7354504170366591E+00    0.6593508822075582E+00    0.0000000000000000E+00
    0.1622302608453282E+01    0.8256214013940779E+00    0.0000000000000000E+00
    0.2145871574390382E+01   -0.1650070333782557E+01    0.0000000000000000E+00
    0.4086422318222992E+01   -0.4612828702537229E+00    0.0000000000000000E+00
    0.2979540174134984E+01   -0.8579242121530853E+00    0.0000000000000000E+00
    0.3045064261640043E+01   -0.1836846154397680E+01    0.0000000000000000E+00
    0.3428197553792836E+01    0.3508002863614053E+00    0.0000000000000000E+00
    0.4309693860063405E+01    0.5185680230613409E+00    0.0000000000000000E+00
    0.1827272193562204E+01    0.1738996113203182E+01    0.0000000000000000E+00
    0.2808563282768077E+01    0.1325493893339706E+01    0.0000000000000000E+00
    0.1895995683864404E+01   -0.8731419609589618E+00    0.0000000000000000E+00
    0.2273179336307740E+01    0.4906150219227333E-01    0.0000000000000000E+00
    0.5000000000000000E+01    0.2500000000000000E+01    0.1250000000000000E+01
    0.5000000000000000E+01    0.2500000000000000E+01    0.2500000000000000E+01
    0.5000000000000000E+01    0.2500000000000000E+01    0.3750000000000000E+01
    0.5000000000000000E+01    0.2500000000000000E+01    0.5000000000000000E+01
    0.3750000000000000E+01    0.2500000000000000E+01    0.5000000000000000E+01
    0.2500000000000000E+01    0.2500000000000000E+01    0.5000000000000000E+01
    0.1250000000000000E+01    0.2500000000000000E+01    0.5000000000000000E+01
    0.0000000000000000E+00    0.2500000000000000E+01    0.5000000000000000E+01
    0.0000000000000000E+00    0.2500000000000000E+01    0.3750000000000000E+01
    0.0000000000000000E+00    0.2500000000000000E+01    0.2500000000000000E+01
    0.0000000000000000E+00    0.2500000000000000E+01    0.1250000000000000E+01
    0.9631080833812172E+00    0.2500000000000000E+01    0.9613285771248219E+00
    0.3981732467264904E+01    0.2500000000000000E+01    0.4069753913607991E+01
    0.4035525118777670E+01    0.2500000000000000E+01    0.1012015867579395E+01
    0.9641717640894248E+00    0.2500000000000000E+01    0.3972455192261839E+01
    0.1547743040396780E+01    0.2500000000000000E+01    0.2928177746738678E+01
    0.6985170616192014E+00    0.2500000000000000E+01    0.3068281976055466E+01
    0.8931277594515110E+00    0.2500000000000000E+01    0.2052465503257726E+01
    0.2183293750162785E+01    0.2500000000000000E+01    0.3959073795658649E+01
    0.3855333506014705E+01    0.2500000000000000E+01    0.2931218481500625E+01
    0.3152495579421047E+01    0.2500000000000000E+01    0.3635850502723324E+01
    0.3103247580566054E+01    0.2500000000000000E+01    0.4331682712472464E+01
    0.3266837581688852E+01    0.2500000000000000E+01    0.1886092433583972E+01
    0.4231539241296245E+01    0.2500000000000000E+01    0.1915865356532799E+01
    0.1909741006522088E+01    0.2500000000000000E+01    0.7170024419130505E+00
    0.2880784107213163E+01    0.2500000000000000E+01    0.9046598906449592E+00
    0.2014316024535771E+01    0.2500000000000000E+01    0.1762464314805728E+01
    0.2670003247036656E+01    0.2500000000000000E+01    0.2850479545835163E+01
    0.5000000000000000E+01    0.1250000000000000E+01    0.5000000000000000E+01
    0.5000000000000000E+01    0.0000000000000000E+00    0.5000000000000000E+01
    0.5000000000000000E+01   -0.1250000000000000E+01    0.5000000000000000E+01
    0.5000000000000000E+01   -0.2500000000000000E+01    0.5000000000000000E+01
    0.5000000000000000E+01   -0.2500000000000000E+01    0.3750000000000000E+01
    0.5000000000000000E+01   -0.2500000000000000E+01    0.2500000000000000E+01
    0.5000000000000000E+01   -0.2500000000000000E+01    0.1250000000000000E+01
    0.5000000000000000E+01    0.1578994732800803E+01    0.9058375365086910E+00
    0.5000000000000000E+01   -0.1583989954232354E+01    0.3982050490726493E+01
    0.5000000000000000E+01    0.1453322699199022E+01    0.4033849428301197E+01
    0.5000000000000000E+01   -0.1479596339503735E+01    0.1040505887381675E+01
    0.5000000000000000E+01   -0.3227322616384110E+00    0.1099454400140349E+01
    0.5000000000000000E+01    0.6593508822075582E+00    0.7354504170366591E+00
    0.5000000000000000E+01    0.8256214013940779E+00    0.1622302608453282E+01
    0.5000000000000000E+01   -0.1650070333782557E+01    0.2145871574390382E+01
    0.5000000000000000E+01   -0.4612828702537229E+00    0.4086422318222992E+01
    0.5000000000000000E+01   -0.8579242121530853E+00    0.2979540174134984E+01
    0.5000000000000000E+01   -0.1836846154397680E+01    0.3045064261640043E+01
    0.5000000000000000E+01    0.3508002863614053E+00    0.3428197553792836E+01
    0.5000000000000000E+01    0.5185680230613409E+00    0.4309693860063405E+01
    0.5000000000000000E+01    0.1738996113203182E+01    0.1827272193562204E+01
    0.5000000000000000E+01    0.1325493893339706E+01    0.2808563282768077E+01
    0.5000000000000000E+01   -0.8731419609589618E+00    0.1895995683864404E+01
    0.5000000000000000E+01    0.4906150219227333E-01    0.2273179336307740E+01
    0.0000000000000000E+00    0.1250000000000000E+01    0.5000000000000000E+01
    0.0000000000000000E+00    0.0000000000000000E+00    0.5000000000000000E+01
    0.0000000000000000E+00   -0.1250000000000000E+01    0.5000000000000000E+01
    0.0000000000000000E+00   -0.2500000000000000E+01    0.5000000000000000E+01
    0.1250000000000000E+01   -0.2500000000000000E+01    0.5000000000000000E+01
    0.2500000000000000E+01   -0.2500000000000000E+01    0.5000000000000000E+01
    0.3750000000000000E+01   -0.2500000000000000E+01    0.5000000000000000E+01
    0.4042003247744892E+01    0.1558308132739014E+01    0.5000000000000000E+01
    0.9304122287900499E+00   -0.1548001304379777E+01    0.5000000000000000E+01
    0.1037243024609388E+01    0.1462892710085612E+01    0.5000000000000000E+01
    0.3946240828834967E+01   -0.1445243809615570E+01    0.5000000000000000E+01
    0.4092527262848217E+01   -0.3455338993778935E+00    0.5000000000000000E+01
    0.4293103109154542E+01    0.6277660831404320E+00    0.5000000000000000E+01
    0.3241512314643519E+01    0.7429886854239611E+00    0.5000000000000000E+01
    0.2844289952419609E+01   -0.1588117879734118E+01    0.5000000000000000E+01
    0.7159905765450471E+00   -0.6002320124191652E+00    0.5000000000000000E+01
    0.1754341919796891E+01   -0.7398147869923652E+00    0.5000000000000000E+01
    0.1870296826774691E+01   -0.1788622905643739E+01    0.5000000000000000E+01
    0.9220614901912976E+00    0.3083720183248586E+00    0.5000000000000000E+01
    0.3101523624086016E+01    0.1777901774806180E+01    0.5000000000000000E+01
    0.2192512063922564E+01    0.1576861561598471E+01    0.5000000000000000E+01
    0.2024793420196460E+01    0.4773861992750707E+00    0.5000000000000000E+01
    0.2990627757741975E+01   -0.4878110785814084E+00    0.5000000000000000E+01
    0.0000000000000000E+00   -0.2500000000000000E+01    0.1250000000000000E+01
    0.0000000000000000E+00   -0.2500000000000000E+01    0.2500000000000000E+01
    0.0000000000000000E+00   -0.2500000000000000E+01    0.3750000000000000E+01
    0.0000000000000000E+00    0.1558308132739014E+01    0.4042003247744892E+01
    0.0000000000000000E+00   -0.1548001304379777E+01    0.9304122287900499E+00
    0.0000000000000000E+00    0.1462892710085612E+01    0.1037243024609388E+01
    0.0000000000000000E+00   -0.1445243809615570E+01    0.3946240828834967E+01
    0.0000000000000000E+00   -0.3455338993778935E+00    0.4092527262848217E+01
    0.0000000000000000E+00    0.6277660831404320E+00    0.4293103109154542E+01
    0.0000000000000000E+00    0.7429886854239611E+00    0.3241512314643519E+01
    0.0000000000000000E+00   -0.1588117879734118E+01    0.2844289952419609E+01
    0.0000000000000000E+00   -0.6002320124191652E+00    0.7159905765450471E+00
    0.0000000000000000E+00   -0.7398147869923652E+00    0.1754341919796891E+01
    0.0000000000000000E+00   -0.1788622905643739E+01    0.1870296826774691E+01
    0.0000000000000000E+00    0.3083720183248586E+00    0.9220614901912976E+00
    0.0000000000000000E+00    0.1777901774806180E+01    0.3101523624086016E+01
    0.0000000000000000E+00    0.1576861561598471E+01    0.2192512063922564E+01
[...]
POINT_DATA 213
SCALARS rho double 1
LOOKUP_TABLE default
   0.1218184581890527E+01
   0.9219514815208265E+00
   0.9105761164894572E+00
   0.8963907334180542E+00
   0.7821487719009264E+00
   0.7113148804528823E+00
   0.6992893410269694E+00
   0.7032404036284018E+00
   0.7684421095484580E+00
   0.8894678484524259E+00
   0.8985900671739300E+00
   0.9250023123979234E+00
   0.1301121345776388E+01
   0.1347022930848493E+01
   0.1454831679564496E+01
   0.1286189666940841E+01
   0.9613233422461634E+00
   0.9044690315305202E+00
   0.8971043743660368E+00
   0.9254347189591261E+00
   0.9126297800996972E+00
   0.9860043933845919E+00
   0.8972396622410400E+00
   0.8999329548639324E+00
   0.9066948827343690E+00
   0.9110930459449386E+00
   0.8941461930117535E+00
   0.9124640133428653E+00
   0.8900158782687476E+00
   0.9016131266076559E+00
   0.9062422379182985E+00
   0.8624504173837124E+00
   0.9077459314572327E+00
   0.9505888743216608E+00
   0.1008474469591681E+01
   0.1007001766162398E+01
   0.1000146970772907E+01
   0.1000490537106843E+01
   0.1001017262785359E+01
   0.1002483472943084E+01
   0.1001954919561000E+01
   0.1004920219258902E+01
   0.1016635445279037E+01
   0.1058262378584931E+01
   0.1005081954999365E+01
   0.1000008945910421E+01
   0.9454894105951862E+00
   0.1002056195938929E+01
   0.9982585752830884E+00
   0.1004522101140625E+01
   0.1005397571241406E+01
   0.9993043477743243E+00
   0.9977967441156185E+00
   0.9987969981879455E+00
   0.9987175316196423E+00
   0.9780104284137566E+00
   0.9795698599113017E+00
   0.9637898417023103E+00
   0.9599288576601610E+00
   0.9865823596091970E+00
   0.9921847844089695E+00
   0.1000341740315447E+01
   0.1000540467489934E+01
   0.1000672443183921E+01
   0.9998319989283108E+00
   0.1009742277967817E+01
   0.1007075843275215E+01
   0.9445329146225934E+00
   0.9031883708645893E+00
   0.1007020049240749E+01
   0.1004204467312466E+01
   0.8963263484135453E+00
   0.8924644431937964E+00
   0.8470158310105399E+00
   0.9708136060029152E+00
   0.1000084619825383E+01
   0.1006090913301090E+01
   0.1015615766803840E+01
   0.1012917766769556E+01
   0.1012882989231642E+01
   0.1005125324209057E+01
   0.9862694329275761E+00
   0.1006604372918310E+01
   0.9849226272109991E+00
   0.1008160798379546E+01
   0.1001910649424079E+01
   0.1000781019669355E+01
   0.1001299339898168E+01
   0.1001841425557379E+01
   0.1002341947699719E+01
   0.1000279181098045E+01
   0.1000188339870784E+01
   0.9997695335640752E+00
   0.1001742065309938E+01
   0.1001919936389248E+01
   0.9986513020736913E+00
   0.9995291870964149E+00
   0.9999173770978786E+00
   0.1000195475712008E+01
   0.1000438389102814E+01
   0.1001059545689408E+01
   0.1001455920749635E+01
   0.1001325224944559E+01
   0.1001532757149155E+01
   0.1000861904868742E+01
   0.1001351223263578E+01
   0.1001109623173604E+01
   0.1000539043822584E+01
   0.1060293782148849E+01
   0.1020473082398262E+01
   0.1005927663299955E+01
   0.1003473871523141E+01
   0.1142180864256022E+01
   0.1083603186534270E+01
   0.1004373984227820E+01
   0.1003910149910814E+01
   0.1003792817203903E+01
   0.1006642291162443E+01
   0.1012290406231856E+01
   0.1193353157308132E+01
   0.1027982030248553E+01
   0.1034896014453647E+01
   0.1168960269395303E+01
   0.1009916641325940E+01
   0.1023538181502944E+01
   0.1017047822369398E+01
   0.1007880005551453E+01
   0.1014167767821613E+01
   0.1000108753396683E+01
   0.9441675595724113E+00
   0.1003511641376724E+01
   0.9988708198021966E+00
   0.1006459273329892E+01
   0.1009161605933578E+01
   0.9979472547772564E+00
   0.9977523780282334E+00
   0.9961553770332516E+00
   0.9984680784363278E+00
   0.9809396725904702E+00
   0.9780369729348976E+00
   0.9479395352183591E+00
   0.9505452942501368E+00
   0.9878129777739180E+00
   0.9899097236446583E+00
   0.9925449500295763E+00
   0.9998092597684537E+00
   0.9986253873332648E+00
   0.9946413675562551E+00
   0.1006842000447632E+01
   0.1021139433011873E+01
   0.9979987587853674E+00
   0.1004800060043895E+01
   0.1001439399943703E+01
   0.1004887519118494E+01
   0.9952170299977335E+00
   0.9849387898784264E+00
   0.1000227400975292E+01
   0.9938607750137278E+00
   0.9819042775818541E+00
   0.9943162775326021E+00
   0.9968742997903672E+00
   0.9937021710410964E+00
   0.9986959087184376E+00
   0.1000032869860738E+01
   0.9996633751644178E+00
   0.9958429947578112E+00
   0.9933664241073847E+00
   0.1001382433696911E+01
   0.1018313230219647E+01
   0.1002795502364613E+01
   0.9806267457528540E+00
   0.1001874115375089E+01
   0.1008214252743101E+01
   0.9700874904598612E+00
   0.9431491562338614E+00
   0.9846668272173240E+00
   0.9842469266484480E+00
   0.9754066304933980E+00
   0.9907875198043505E+00
   0.9774391229420590E+00
   0.1033916606771980E+01
   0.1021948940532493E+01
   0.1000030936822425E+01
   0.9991729250773111E+00
   0.9919133319629859E+00
   0.9906924275365924E+00
   0.9572797177694836E+00
   0.9929856553887126E+00
   0.1006251253030914E+01
   0.1002026055436620E+01
   0.9896510213917330E+00
   0.9651975045158796E+00
   0.9202300919277354E+00
   0.9722612462522424E+00
   0.9781735212230663E+00
   0.9559296812654706E+00
   0.9616922189513324E+00
   0.9489803082835968E+00
   0.9365305552435867E+00
   0.9301822353576273E+00
   0.9993117040722014E+00
   0.9994570489846527E+00
   0.9987948520925285E+00
   0.1002021355271654E+01
   0.9390086125205638E+00
   0.9238505618283592E+00
   0.9356685594583037E+00
   0.9984099367760201E+00
   0.9983353534069315E+00
   0.1000450245276870E+01
   0.9793722043883650E+00
   0.9713568983540818E+00
   0.9446673794919084E+00
SCALARS u double 1
LOOKUP_TABLE default
   0.0000000000000000E+00
   0.0000000000000000E+00
   0.0000000000000000E+00
   0.0000000000000000E+00
   0.0000000000000000E+00
   0.0000000000000000E+00
   0.0000000000000000E+00
   0.0000000000000000E+00
   0.0000000000000000E+00
   0.0000000000000000E+00
   0.0000000000000000E+00
   0.0000000000000000E+00
   0.0000000000000000E+00
   0.0000000000000000E+00
   0.0000000000000000E+00
   0.0000000000000000E+00
   0.0000000000000000E+00
   0.0000000000000000E+00
   0.0000000000000000E+00
   0.0000000000000000E+00
   0.0000000000000000E+00
   0.0000000000000000E+00
   0.0000000000000000E+00
   0.0000000000000000E+00
   0.0000000000000000E+00
   0.0000000000000000E+00
   0.0000000000000000E+00
   0.0000000000000000E+00
   0.0000000000000000E+00
   0.0000000000000000E+00
   0.0000000000000000E+00
   0.0000000000000000E+00
   0.0000000000000000E+00
   0.5047928958280807E+00
   0.5291701152920042E+00
   0.5145241515121581E+00
   0.4932180790322614E+00
   0.4880834429094092E+00
   0.4911716960157602E+00
   0.4931445389127774E+00
   0.4982220358498084E+00
   0.4935126092719194E+00
   0.4788318709292610E+00
   0.4523419379871556E+00
   0.4740735423379164E+00
   0.5098351780509638E+00
   0.4500828907433597E+00
   0.4980687549440900E+00
   0.5234863737433367E+00
   0.4995022510569923E+00
   0.5242312301952791E+00
   0.5063102214620704E+00
   0.5624076729049420E+00
   0.5248402043482367E+00
   0.5014802469323393E+00
   0.5725843813554404E+00
   0.5709259376753218E+00
   0.3684576627826913E+00
   0.4025764590245884E+00
   0.5559094081608940E+00
   0.5552217831085030E+00
   0.4941844238209718E+00
   0.4946255948192126E+00
   0.4922724899382594E+00
   0.4917288858701806E+00
   0.5126154992592638E+00
   0.5318524891083294E+00
   0.5048408394039918E+00
   0.4703373479157926E+00
   0.5096869377749781E+00
   0.5089820931889587E+00
   0.4952365304669605E+00
   0.5091887723936211E+00
   0.4862648530704882E+00
   0.5291950357126264E+00
   0.5274800498278143E+00
   0.5095339526720135E+00
   0.5264634384216075E+00
   0.5255255558453188E+00
   0.5249345941135668E+00
   0.5039127329748470E+00
   0.5286659743972479E+00
   0.5354669705834958E+00
   0.5369248060161355E+00
   0.5323896831402032E+00
   0.4987529396319909E+00
   0.4995655683690350E+00
   0.4985678082502397E+00
   0.4978572939344837E+00
   0.4945660703534551E+00
   0.4946835207890749E+00
   0.4895517685442520E+00
   0.4881800373058841E+00
   0.4965847190870822E+00
   0.4946166745541485E+00
   0.4861180961866464E+00
   0.4896995886259052E+00
   0.4900485949697551E+00
   0.4911865147218099E+00
   0.4926665578766198E+00
   0.4981839163644781E+00
   0.4946487721554851E+00
   0.4948708352019288E+00
   0.4976279084505186E+00
   0.4907740264044489E+00
   0.4935708944858998E+00
   0.4927548941620378E+00
   0.4920713869612612E+00
   0.4510868371187972E+00
   0.4773580877284332E+00
   0.4929695194477092E+00
   0.4921378781965995E+00
   0.4641002300884072E+00
   0.4734530029327814E+00
   0.4915432293132381E+00
   0.4906761087419129E+00
   0.4939912843169295E+00
   0.4854534347976527E+00
   0.4731583063475510E+00
   0.4016577348263690E+00
   0.4924195388375333E+00
   0.4585268852819174E+00
   0.4598476705696646E+00
   0.4894589888930022E+00
   0.4701566817443809E+00
   0.4743778812616377E+00
   0.4816559614860884E+00
   0.4810457486898135E+00
   0.5082081012333458E+00
   0.4446041984352491E+00
   0.4960951887525797E+00
   0.5313147350995766E+00
   0.4949412888664659E+00
   0.5217270979938488E+00
   0.5081102281642749E+00
   0.5662469585657807E+00
   0.5268455004526599E+00
   0.5035542151026162E+00
   0.5834438349103672E+00
   0.5718246482020458E+00
   0.3411247019133514E+00
   0.3855186826268660E+00
   0.5716303700211463E+00
   0.5643417478534296E+00
   0.5690296687553743E+00
   0.5291016396427081E+00
   0.5451151393903073E+00
   0.5701785195676162E+00
   0.5407582129142734E+00
   0.5488015352919425E+00
   0.5791064449291294E+00
   0.4955345361055307E+00
   0.5065531781414240E+00
   0.4994962386552396E+00
   0.5535725811563936E+00
   0.4600163335552361E+00
   0.4983856953467828E+00
   0.5491948316974516E+00
   0.5896067322961467E+00
   0.5824004034831564E+00
   0.5457918908804676E+00
   0.5786601914153610E+00
   0.5122204611819821E+00
   0.5055660285918954E+00
   0.5049404973872553E+00
   0.5645526247485131E+00
   0.5551709592904459E+00
   0.4977656832493994E+00
   0.5487063243624047E+00
   0.5484601118422474E+00
   0.5642517225820559E+00
   0.4955199311612206E+00
   0.4958333883848662E+00
   0.3908651523753561E+00
   0.3725868122602404E+00
   0.5585540928071590E+00
   0.5741421448445387E+00
   0.4178225230195785E+00
   0.5815128829325721E+00
   0.4184792555372283E+00
   0.5387779569790653E+00
   0.4989424357161078E+00
   0.5114107426382434E+00
   0.5070753474977587E+00
   0.5731982987308550E+00
   0.5855978135230677E+00
   0.5445612508890333E+00
   0.5655111434262601E+00
   0.5319819555935869E+00
   0.5310076936158855E+00
   0.5560282647292308E+00
   0.5553413469213346E+00
   0.4405969294479227E+00
   0.5283756031228828E+00
   0.5806205739995209E+00
   0.3397270718909912E+00
   0.4810706716151509E+00
   0.5509774509780863E+00
   0.4922018350888256E+00
   0.3107819156200358E+00
   0.5051410599860612E+00
   0.5043523774859618E+00
   0.5129575964664932E+00
   0.5386471449909209E+00
   0.3522137222067864E+00
   0.3560014203267031E+00
   0.3307776171289331E+00
   0.5084434515030324E+00
   0.5125446855949889E+00
   0.5315367349503117E+00
   0.5856162401702243E+00
   0.4639610643123561E+00
   0.3629044723740928E+00
SCALARS v double 1
LOOKUP_TABLE default
   0.0000000000000000E+00
   0.0000000000000000E+00
   0.0000000000000000E+00
   0.0000000000000000E+00
   0.0000000000000000E+00
   0.0000000000000000E+00
   0.0000000000000000E+00
   0.0000000000000000E+00
   0.0000000000000000E+00
   0.0000000000000000E+00
   0.0000000000000000E+00
   0.0000000000000000E+00
   0.0000000000000000E+00
   0.0000000000000000E+00
   0.0000000000000000E+00
   0.0000000000000000E+00
   0.0000000000000000E+00
   0.0000000000000000E+00
   0.0000000000000000E+00
   0.0000000000000000E+00
   0.0000000000000000E+00
   0.0000000000000000E+00
   0.0000000000000000E+00
   0.0000000000000000E+00
   0.0000000000000000E+00
   0.0000000000000000E+00
   0.0000000000000000E+00
   0.0000000000000000E+00
   0.0000000000000000E+00
   0.0000000000000000E+00
   0.0000000000000000E+00
   0.0000000000000000E+00
   0.0000000000000000E+00
   0.0000000000000000E+00
   0.0000000000000000E+00
   0.0000000000000000E+00
   0.0000000000000000E+00
   0.0000000000000000E+00
   0.0000000000000000E+00
   0.0000000000000000E+00
   0.0000000000000000E+00
   0.0000000000000000E+00
   0.0000000000000000E+00
   0.0000000000000000E+00
   0.0000000000000000E+00
   0.0000000000000000E+00
   0.0000000000000000E+00
   0.0000000000000000E+00
   0.0000000000000000E+00
   0.0000000000000000E+00
   0.0000000000000000E+00
   0.0000000000000000E+00
   0.0000000000000000E+00
   0.0000000000000000E+00
   0.0000000000000000E+00
   0.0000000000000000E+00
   0.0000000000000000E+00
   0.0000000000000000E+00
   0.0000000000000000E+00
   0.0000000000000000E+00
   0.0000000000000000E+00
   0.5973770180360598E-03
  -0.1453037655898340E-02
  -0.1410752412999261E-02
   0.0000000000000000E+00
   0.0000000000000000E+00
   0.0000000000000000E+00
   0.0000000000000000E+00
  -0.1862688204149481E-01
   0.2590459022937520E-03
   0.2184863122889584E-02
   0.1493479462397053E-01
  -0.5165910944992313E-02
  -0.6348485416445433E-02
  -0.1151148871793008E-01
   0.4678714720554688E-02
   0.5054346457426592E-03
   0.3138064176517256E-02
   0.1498677652514550E-02
   0.3450179158475182E-02
   0.1670616946856909E-02
  -0.6418272596877684E-02
   0.7426978370786057E-03
   0.4730575183814051E-02
   0.5432740756420444E-03
   0.7211860412277168E-04
  -0.1710423631007810E-03
   0.6076417508112742E-03
   0.0000000000000000E+00
   0.0000000000000000E+00
   0.0000000000000000E+00
   0.0000000000000000E+00
   0.8932551438239123E-04
   0.1417875748174490E-02
  -0.1128796243213576E-02
  -0.9280319867204094E-03
  -0.2135242462524827E-02
  -0.1265023670023079E-02
  -0.9477255470331461E-03
  -0.6550996134092676E-03
  -0.3215634932897040E-04
  -0.5534881075624757E-03
   0.7175532125196202E-03
  -0.1583357761256786E-02
   0.7446138629769238E-04
  -0.1440814465003310E-03
  -0.9131630635856056E-03
  -0.9197549268192024E-03
   0.0000000000000000E+00
   0.0000000000000000E+00
   0.0000000000000000E+00
  -0.1114202503530613E-02
  -0.8501209377423274E-02
   0.1598695252213653E-01
   0.2135326138914535E-03
  -0.1060652025760877E-02
  -0.1681468730630838E-02
  -0.5324889450947529E-02
  -0.1198151857048940E-02
  -0.3589100002958966E-02
  -0.2889280605453669E-02
   0.2194673649589304E-02
   0.2886836559813355E-01
  -0.1843347318232480E-03
  -0.4269945804006764E-02
   0.2463630804581445E-02
   0.9342555413036178E-03
   0.0000000000000000E+00
   0.0000000000000000E+00
   0.0000000000000000E+00
   0.0000000000000000E+00
   0.0000000000000000E+00
   0.0000000000000000E+00
   0.0000000000000000E+00
   0.0000000000000000E+00
   0.0000000000000000E+00
   0.0000000000000000E+00
   0.0000000000000000E+00
   0.0000000000000000E+00
   0.0000000000000000E+00
   0.0000000000000000E+00
   0.0000000000000000E+00
   0.0000000000000000E+00
   0.0000000000000000E+00
   0.4720880815215537E-02
   0.2800732108188792E-02
   0.6931772509823782E-02
   0.5693218562839810E-02
   0.8743812987892745E-02
   0.1260041056861274E-01
   0.5564567160933326E-03
   0.4345743764121980E-02
   0.2401795999464205E-02
   0.2335596626494297E-02
   0.3192159915445043E-02
  -0.1060505374019934E-01
  -0.4824284507909122E-03
   0.6062051574975155E-02
   0.2666152046554512E-02
   0.2278078768017161E-02
   0.3852490700368445E-02
  -0.2022236272037862E-02
   0.8975295373293740E-03
   0.2354717874824670E-02
   0.1133535044160104E-02
   0.2687939896888133E-02
   0.1770981156375337E-02
   0.1778502256447799E-02
   0.8115691849585587E-02
  -0.3275629864140761E-02
   0.5538589531182310E-02
   0.5298823332934568E-04
   0.1499964144597331E-04
  -0.1332819363940869E-01
  -0.3243049263349041E-02
  -0.3473213194131874E-02
   0.3723250843978307E-02
  -0.4046181477746259E-02
   0.9481903215384809E-03
  -0.2602190050372557E-01
  -0.2947929548462244E-02
   0.4204246051288429E-02
   0.6903083255096780E-03
   0.1814502492215202E-02
   0.4398457229258463E-02
   0.2321179391924849E-02
   0.3328572205682129E-02
   0.5031518283189861E-02
   0.1842702976144862E-02
   0.5722415909063519E-03
  -0.2970031300753989E-03
  -0.4695990870801882E-02
  -0.5525946352142613E-02
   0.4723569632071118E-03
   0.9679767865071503E-03
  -0.7304175267311457E-03
  -0.3860172548175515E-02
  -0.1246753719465949E-02
  -0.3692908510565892E-02
  -0.6963419249214359E-02
  -0.1674636683098205E-02
   0.5263385060521874E-03
  -0.3688020711902610E-03
   0.1105396909666202E-02
  -0.1829338367198225E-02
   0.7320301203732739E-02
  -0.9620678444240839E-02
  -0.1164912005451393E-04
  -0.4079881036128291E-03
   0.2399172529084870E-02
   0.1168413748937935E-02
   0.1278392575345062E-02
  -0.3842457388346350E-02
SCALARS w double 1
LOOKUP_TABLE default
   0.0000000000000000E+00
   0.0000000000000000E+00
   0.0000000000000000E+00
   0.0000000000000000E+00
   0.0000000000000000E+00
   0.0000000000000000E+00
   0.0000000000000000E+00
   0.0000000000000000E+00
   0.0000000000000000E+00
   0.0000000000000000E+00
   0.0000000000000000E+00
   0.0000000000000000E+00
   0.0000000000000000E+00
   0.0000000000000000E+00
   0.0000000000000000E+00
   0.0000000000000000E+00
   0.0000000000000000E+00
   0.0000000000000000E+00
   0.0000000000000000E+00
   0.0000000000000000E+00
   0.0000000000000000E+00
   0.0000000000000000E+00
   0.0000000000000000E+00
   0.0000000000000000E+00
   0.0000000000000000E+00
   0.0000000000000000E+00
   0.0000000000000000E+00
   0.0000000000000000E+00
   0.0000000000000000E+00
   0.0000000000000000E+00
   0.0000000000000000E+00
   0.0000000000000000E+00
   0.0000000000000000E+00
  -0.1144975420070478E+00
  -0.5030761560824278E-01
  -0.2192909529799618E-02
   0.5089386194369629E-02
  -0.6917853196360226E-03
  -0.6003810958063215E-03
   0.5817871884542607E-03
   0.1149204782378345E-02
   0.2335064038620162E-03
   0.3430510835519518E-02
   0.3874613007665380E-01
   0.5321491023170859E-01
  -0.1473829072626657E-02
  -0.2786380863641854E-01
   0.2114557197906331E-02
   0.1071746820944630E-01
   0.8121938309875608E-02
   0.4420194979069768E-01
  -0.3684171986052589E-03
  -0.1057521761462955E-01
  -0.3659677780259414E-02
  -0.2078616120995596E-02
   0.5026606771909958E-03
  -0.4609594024452018E-01
   0.1604944465161687E-01
   0.1236646944559567E-01
   0.2998352660520722E-01
   0.5092695901268898E-02
   0.4334694842574567E-02
   0.4379606792047873E-02
   0.3993561646902339E-02
   0.5439384586393652E-02
  -0.2606447010350231E-03
  -0.4852190662538684E-01
  -0.1125343593021579E+00
  -0.1281342172049383E+00
   0.2718472068686138E-02
   0.1946434983595799E-02
  -0.1153299898235295E+00
  -0.1133410908768815E+00
  -0.1137208718151504E+00
  -0.1074826956481952E+00
  -0.7766769916940325E-01
   0.2988785353428065E-02
  -0.2459653136818292E-01
  -0.2053690401542151E-01
  -0.9963889834327680E-02
   0.5237957144132652E-02
  -0.9138920222660996E-01
  -0.3410129582256282E-01
  -0.9191487261639743E-01
  -0.6787035044380450E-01
   0.1816194909677945E-02
   0.1561602707981028E-02
   0.1425838883734170E-02
   0.2114538571137289E-02
   0.1365276621695643E-02
  -0.1246142791163849E-02
  -0.1484791574901026E-02
   0.1125069160559523E-02
   0.2221271578243416E-02
   0.1197350205647857E-02
  -0.7717542714184324E-04
   0.1826031572792084E-03
   0.8242392063635611E-03
  -0.1578027792042235E-02
  -0.1947503134408266E-02
   0.1967964349236539E-02
  -0.4240284004962570E-04
  -0.4343080209998540E-03
   0.2232605583106460E-02
  -0.1069027836461245E-02
  -0.1979180733029524E-03
  -0.4900813099042176E-03
  -0.1811372924708671E-02
   0.6874631403812496E-01
   0.2311553971511526E-02
  -0.1097204623606215E-02
  -0.8082495184738201E-03
   0.1154872789915277E+00
   0.1041618804349691E+00
  -0.1760367673076152E-02
  -0.4417406197206293E-02
  -0.7678068505292498E-03
  -0.7114754549177311E-02
  -0.2685190531532052E-02
   0.1267472868871126E+00
   0.6334450953097900E-01
   0.2227099912163409E-01
   0.1349682382811778E+00