title="tecplot geometry and solution file"
variables = x y z mach temperature lambda1 lambda2 lambda3 lambda4 lambda5
zone t="boundary 1 bc-1", solutiontime= 0.3000000E+02, strandid=1001, i=121, j=100, f=feblock
  0.000000000000E+00  0.000000000000E+00  0.000000000000E+00  0.000000000000E+00  0.000000000000E+00  0.000000000000E+00  0.000000000000E+00
  0.000000000000E+00  0.000000000000E+00  0.000000000000E+00  0.000000000000E+00  0.000000000000E+00  0.000000000000E+00  0.000000000000E+00
  0.000000000000E+00  0.000000000000E+00  0.000000000000E+00  0.000000000000E+00  0.000000000000E+00  0.000000000000E+00  0.000000000000E+00
  0.000000000000E+00  0.000000000000E+00  0.000000000000E+00  0.000000000000E+00  0.000000000000E+00  0.000000000000E+00  0.000000000000E+00
  0.000000000000E+00  0.000000000000E+00  0.000000000000E+00  0.000000000000E+00  0.000000000000E+00  0.000000000000E+00  0.000000000000E+00
  0.000000000000E+00  0.000000000000E+00  0.000000000000E+00  0.000000000000E+00  0.000000000000E+00  0.000000000000E+00  0.000000000000E+00
  0.000000000000E+00  0.000000000000E+00  0.000000000000E+00  0.000000000000E+00  0.000000000000E+00  0.000000000000E+00  0.000000000000E+00
  0.000000000000E+00  0.000000000000E+00  0.000000000000E+00  0.000000000000E+00  0.000000000000E+00  0.000000000000E+00  0.000000000000E+00
  0.000000000000E+00  0.000000000000E+00  0.000000000000E+00  0.000000000000E+00  0.000000000000E+00  0.000000000000E+00  0.000000000000E+00
  0.000000000000E+00  0.000000000000E+00  0.000000000000E+00  0.000000000000E+00  0.000000000000E+00  0.000000000000E+00  0.000000000000E+00
  0.000000000000E+00  0.000000000000E+00  0.000000000000E+00  0.000000000000E+00  0.000000000000E+00  0.000000000000E+00  0.000000000000E+00
  0.000000000000E+00  0.000000000000E+00  0.000000000000E+00  0.000000000000E+00  0.000000000000E+00  0.000000000000E+00  0.000000000000E+00
  0.000000000000E+00  0.000000000000E+00  0.000000000000E+00  0.000000000000E+00  0.000000000000E+00  0.000000000000E+00  0.000000000000E+00
  0.000000000000E+00  0.000000000000E+00  0.000000000000E+00  0.000000000000E+00  0.000000000000E+00  0.000000000000E+00  0.000000000000E+00
  0.000000000000E+00  0.000000000000E+00  0.000000000000E+00  0.000000000000E+00  0.000000000000E+00  0.000000000000E+00  0.000000000000E+00
  0.000000000000E+00  0.000000000000E+00  0.000000000000E+00  0.000000000000E+00  0.000000000000E+00  0.000000000000E+00  0.000000000000E+00
  0.000000000000E+00  0.000000000000E+00  0.000000000000E+00  0.000000000000E+00  0.000000000000E+00  0.000000000000E+00  0.000000000000E+00
  0.000000000000E+00  0.000000000000E+00
  0.250000000000E+01  0.250000000000E+01  0.200000000000E+01  0.250000000000E+01  0.200000000000E+01  0.150000000000E+01  0.250000000000E+01
  0.200000000000E+01  0.150000000000E+01  0.100000000000E+01  0.250000000000E+01  0.200000000000E+01  0.150000000000E+01  0.100000000000E+01
  0.500000000000E+00  0.250000000000E+01  0.200000000000E+01  0.150000000000E+01  0.100000000000E+01  0.500000000000E+00  0.000000000000E+00
  0.250000000000E+01  0.200000000000E+01  0.150000000000E+01  0.100000000000E+01  0.500000000000E+00  0.000000000000E+00 -0.500000000000E+00
  0.250000000000E+01  0.200000000000E+01  0.150000000000E+01  0.100000000000E+01  0.500000000000E+00  0.000000000000E+00 -0.500000000000E+00
 -0.100000000000E+01  0.250000000000E+01  0.200000000000E+01  0.150000000000E+01  0.100000000000E+01  0.500000000000E+00  0.000000000000E+00
 -0.500000000000E+00 -0.100000000000E+01 -0.150000000000E+01  0.250000000000E+01  0.200000000000E+01  0.150000000000E+01  0.100000000000E+01
  0.500000000000E+00  0.000000000000E+00 -0.500000000000E+00 -0.100000000000E+01 -0.150000000000E+01 -0.200000000000E+01  0.250000000000E+01
  0.200000000000E+01  0.150000000000E+01  0.100000000000E+01  0.500000000000E+00  0.000000000000E+00 -0.500000000000E+00 -0.100000000000E+01
 -0.150000000000E+01 -0.200000000000E+01 -0.250000000000E+01  0.200000000000E+01  0.150000000000E+01  0.100000000000E+01  0.500000000000E+00
  0.000000000000E+00 -0.500000000000E+00 -0.100000000000E+01 -0.150000000000E+01 -0.200000000000E+01 -0.250000000000E+01  0.150000000000E+01
  0.100000000000E+01  0.500000000000E+00  0.000000000000E+00 -0.500000000000E+00 -0.100000000000E+01 -0.150000000000E+01 -0.200000000000E+01
 -0.250000000000E+01  0.100000000000E+01  0.500000000000E+00  0.000000000000E+00 -0.500000000000E+00 -0.100000000000E+01 -0.150000000000E+01
 -0.200000000000E+01 -0.250000000000E+01  0.500000000000E+00  0.000000000000E+00 -0.500000000000E+00 -0.100000000000E+01 -0.150000000000E+01
 -0.200000000000E+01 -0.250000000000E+01  0.000000000000E+00 -0.500000000000E+00 -0.100000000000E+01 -0.150000000000E+01 -0.200000000000E+01
 -0.250000000000E+01 -0.500000000000E+00 -0.100000000000E+01 -0.150000000000E+01 -0.200000000000E+01 -0.250000000000E+01 -0.100000000000E+01
 -0.150000000000E+01 -0.200000000000E+01 -0.250000000000E+01 -0.150000000000E+01 -0.200000000000E+01 -0.250000000000E+01 -0.200000000000E+01
 -0.250000000000E+01 -0.250000000000E+01
  0.000000000000E+00  0.500000000000E+00  0.000000000000E+00  0.100000000000E+01  0.500000000000E+00  0.000000000000E+00  0.150000000000E+01
  0.100000000000E+01  0.500000000000E+00  0.000000000000E+00  0.200000000000E+01  0.150000000000E+01  0.100000000000E+01  0.500000000000E+00
  0.000000000000E+00  0.250000000000E+01  0.200000000000E+01  0.150000000000E+01  0.100000000000E+01  0.500000000000E+00  0.000000000000E+00
  0.300000000000E+01  0.250000000000E+01  0.200000000000E+01  0.150000000000E+01  0.100000000000E+01  0.500000000000E+00  0.000000000000E+00
  0.350000000000E+01  0.300000000000E+01  0.250000000000E+01  0.200000000000E+01  0.150000000000E+01  0.100000000000E+01  0.500000000000E+00
  0.000000000000E+00  0.400000000000E+01  0.350000000000E+01  0.300000000000E+01  0.250000000000E+01  0.200000000000E+01  0.150000000000E+01
  0.100000000000E+01  0.500000000000E+00  0.000000000000E+00  0.450000000000E+01  0.400000000000E+01  0.350000000000E+01  0.300000000000E+01
  0.250000000000E+01  0.200000000000E+01  0.150000000000E+01  0.100000000000E+01  0.500000000000E+00  0.000000000000E+00  0.500000000000E+01
  0.450000000000E+01  0.400000000000E+01  0.350000000000E+01  0.300000000000E+01  0.250000000000E+01  0.200000000000E+01  0.150000000000E+01
  0.100000000000E+01  0.500000000000E+00  0.000000000000E+00  0.500000000000E+01  0.450000000000E+01  0.400000000000E+01  0.350000000000E+01
  0.300000000000E+01  0.250000000000E+01  0.200000000000E+01  0.150000000000E+01  0.100000000000E+01  0.500000000000E+00  0.500000000000E+01
  0.450000000000E+01  0.400000000000E+01  0.350000000000E+01  0.300000000000E+01  0.250000000000E+01  0.200000000000E+01  0.150000000000E+01
  0.100000000000E+01  0.500000000000E+01  0.450000000000E+01  0.400000000000E+01  0.350000000000E+01  0.300000000000E+01  0.250000000000E+01
  0.200000000000E+01  0.150000000000E+01  0.500000000000E+01  0.450000000000E+01  0.400000000000E+01  0.350000000000E+01  0.300000000000E+01
  0.250000000000E+01  0.200000000000E+01  0.500000000000E+01  0.450000000000E+01  0.400000000000E+01  0.350000000000E+01  0.300000000000E+01
  0.250000000000E+01  0.500000000000E+01  0.450000000000E+01  0.400000000000E+01  0.350000000000E+01  0.300000000000E+01  0.500000000000E+01
  0.450000000000E+01  0.400000000000E+01  0.350000000000E+01  0.500000000000E+01  0.450000000000E+01  0.400000000000E+01  0.500000000000E+01
  0.450000000000E+01  0.500000000000E+01
  0.000000000000E+00  0.531072553149E+00  0.000000000000E+00  0.470416162098E+00  0.524251588705E+00  0.000000000000E+00  0.476603000148E+00
  0.470294912218E+00  0.524019959372E+00  0.000000000000E+00  0.489886033325E+00  0.476939722569E+00  0.470158762834E+00  0.524205390564E+00
  0.000000000000E+00  0.495353612356E+00  0.490000246697E+00  0.476881675212E+00  0.470240893682E+00  0.524231064363E+00  0.000000000000E+00
  0.498057607182E+00  0.495389368302E+00  0.489974003431E+00  0.476955627789E+00  0.470249189143E+00  0.524244644762E+00  0.000000000000E+00
  0.499053948469E+00  0.498070598735E+00  0.495377048974E+00  0.490006711417E+00  0.476960325257E+00  0.470259648311E+00  0.524231055999E+00
  0.000000000000E+00  0.499598853315E+00  0.499059485168E+00  0.498064337213E+00  0.495392317018E+00  0.490005848270E+00  0.476969754431E+00
  0.470249187819E+00  0.524205367288E+00  0.000000000000E+00  0.499814616584E+00  0.499601757585E+00  0.499055990337E+00  0.498071398325E+00
  0.495390706232E+00  0.490011277142E+00  0.476960350520E+00  0.470240889186E+00  0.524019910623E+00  0.000000000000E+00  0.499907395111E+00
  0.499816097339E+00  0.499599667380E+00  0.499059490274E+00  0.498069963821E+00  0.495394242858E+00  0.490005861458E+00  0.476955680365E+00
  0.470158746295E+00  0.524251464272E+00  0.000000000000E+00  0.499908054918E+00  0.499814968119E+00  0.499601592171E+00  0.499058282350E+00
  0.498072013574E+00  0.495390713671E+00  0.490006738477E+00  0.476881755396E+00  0.470294880312E+00  0.531072364238E+00  0.499907549531E+00
  0.499815958122E+00  0.499600709349E+00  0.499059617260E+00  0.498069967907E+00  0.495392331804E+00  0.489974043866E+00  0.476939828832E+00
  0.470416121474E+00  0.499907998068E+00  0.499815441326E+00  0.499601578820E+00  0.499058284884E+00  0.498071406361E+00  0.495377070420E+00
  0.490000301490E+00  0.476603132555E+00  0.499907764567E+00  0.499815918175E+00  0.499600710979E+00  0.499059495169E+00  0.498064348725E+00
  0.495389394762E+00  0.489886099977E+00  0.499907984842E+00  0.499815442380E+00  0.499601595298E+00  0.499055997259E+00  0.498070612515E+00
  0.495353643149E+00  0.499907765216E+00  0.499815960134E+00  0.499599671765E+00  0.499059493267E+00  0.498057622970E+00  0.499907999303E+00
  0.499814970930E+00  0.499601762690E+00  0.499053957649E+00  0.499907551256E+00  0.499816100608E+00  0.499598859021E+00  0.499908056922E+00
  0.499814620187E+00  0.499907397316E+00
  0.999980624329E+00  0.100959953566E+01  0.999980559199E+00  0.103108501963E+01  0.100902127495E+01  0.999980507008E+00  0.101143945367E+01
  0.103087724937E+01  0.100905306317E+01  0.999980477444E+00  0.100396174721E+01  0.101134211168E+01  0.103089736007E+01  0.100897309532E+01
  0.999980484423E+00  0.100163237908E+01  0.100393526499E+01  0.101134486192E+01  0.103085757138E+01  0.100896296995E+01  0.999980546794E+00
  0.100060734342E+01  0.100162425859E+01  0.100393950776E+01  0.101132521965E+01  0.103085330717E+01  0.100895928996E+01  0.999980687804E+00
  0.100027377422E+01  0.100060402036E+01  0.100162678446E+01  0.100393168699E+01  0.101132347951E+01  0.103085019186E+01  0.100896299209E+01
  0.999980931553E+00  0.100010465872E+01  0.100027214467E+01  0.100060586959E+01  0.100162335680E+01  0.100393172863E+01  0.101132154334E+01
  0.103085327712E+01  0.100897314798E+01  0.999981294547E+00  0.100004314096E+01  0.100010366493E+01  0.100027327842E+01  0.100060410337E+01
  0.100162373104E+01  0.100393054148E+01  0.101132346346E+01  0.103085750721E+01  0.100905316105E+01  0.999981772736E+00  0.100001762599E+01
  0.100004255227E+01  0.100010442371E+01  0.100027237442E+01  0.100060463233E+01  0.100162301276E+01  0.100393172297E+01  0.101132518600E+01
  0.103089725705E+01  0.100902145406E+01  0.999982330801E+00  0.100001733832E+01  0.100004302440E+01  0.100010384465E+01  0.100027273954E+01
  0.100060408185E+01  0.100162372808E+01  0.100393167534E+01  0.101134481004E+01  0.103087709103E+01  0.100959979975E+01  0.100001757343E+01
  0.100004265872E+01  0.100010414494E+01  0.100027243554E+01  0.100060463084E+01  0.100162335085E+01  0.100393949057E+01  0.101134203660E+01
  0.103108480818E+01  0.100001739075E+01  0.100004288149E+01  0.100010390494E+01  0.100027273863E+01  0.100060410041E+01  0.100162677593E+01
  0.100393524084E+01  0.101143935889E+01  0.100001750890E+01  0.100004270055E+01  0.100010414436E+01  0.100027237265E+01  0.100060586541E+01
  0.100162424762E+01  0.100396171827E+01  0.100001741244E+01  0.100004288111E+01  0.100010384354E+01  0.100027327595E+01  0.100060401523E+01
  0.100163236636E+01  0.100001750868E+01  0.100004265800E+01  0.100010442216E+01  0.100027214174E+01  0.100060733754E+01  0.100001739034E+01
  0.100004302340E+01  0.100010366311E+01  0.100027377091E+01  0.100001757285E+01  0.100004255111E+01  0.100010465670E+01  0.100001733764E+01
  0.100004313968E+01  0.100001762525E+01
  0.195945663345E-01  0.230198444439E+00  0.196701848364E-01 -0.317487501055E-01  0.230800114011E+00  0.197175168034E-01 -0.125547927685E-01
 -0.329191673123E-01  0.231203374577E+00  0.197858287713E-01 -0.741775483223E-02 -0.126103760203E-01 -0.327718912988E-01  0.232609631126E+00
  0.198395619748E-01 -0.639990202448E-02 -0.738295410728E-02 -0.124502914183E-01 -0.328057778896E-01  0.233547866811E+00  0.198442872770E-01
 -0.545928714966E-02 -0.640378485276E-02 -0.739196636633E-02 -0.125775152926E-01 -0.329457066189E-01  0.233752506349E+00  0.197651000506E-01
 -0.486266987246E-02 -0.547285601039E-02 -0.641166514443E-02 -0.744603084655E-02 -0.125901800406E-01 -0.329959999333E-01  0.232894286089E+00
  0.195556699856E-01 -0.405440317237E-02 -0.485995572868E-02 -0.545791516481E-02 -0.640485761576E-02 -0.739888946868E-02 -0.125599821301E-01
 -0.328876763560E-01  0.230337340890E+00  0.191316522136E-01 -0.346108880218E-02 -0.404630670124E-02 -0.486124452319E-02 -0.546262586473E-02
 -0.637901695657E-02 -0.741037253404E-02 -0.124873650412E-01 -0.326910620100E-01  0.225302466821E+00  0.185522496218E-01 -0.147498920660E-01
 -0.344971330238E-02 -0.405283451146E-02 -0.486069258896E-02 -0.544685558353E-02 -0.639199404548E-02 -0.737754388805E-02 -0.124568183919E-01
 -0.320624850552E-01  0.217507943140E+00  0.182311241835E-01 -0.147203207261E-01 -0.345816659906E-02 -0.404724551376E-02 -0.486346122321E-02
 -0.545869719893E-02 -0.639380829924E-02 -0.735512394860E-02 -0.124617699133E-01 -0.309860001889E-01  0.214872102361E+00 -0.147420341653E-01
 -0.344779728787E-02 -0.405272140247E-02 -0.485516446881E-02 -0.544611626461E-02 -0.638335676009E-02 -0.733191719280E-02 -0.122743311933E-01
 -0.312593724739E-01 -0.147221322766E-01 -0.345486807232E-02 -0.404288971652E-02 -0.484918693810E-02 -0.545751200209E-02 -0.635101916835E-02
 -0.737130929096E-02 -0.122326534970E-01 -0.147326587260E-01 -0.344431563105E-02 -0.404468357263E-02 -0.484272530809E-02 -0.543791369508E-02
 -0.636370662392E-02 -0.727735211073E-02 -0.147195851961E-01 -0.345276263662E-02 -0.403463884289E-02 -0.484163301387E-02 -0.545278875801E-02
 -0.633206786460E-02 -0.147312027176E-01 -0.344126169957E-02 -0.403831007719E-02 -0.483870076091E-02 -0.543157947987E-02 -0.147213982241E-01
 -0.344906102598E-02 -0.403097330830E-02 -0.483519480742E-02 -0.147235681969E-01 -0.343968083500E-02 -0.403338873593E-02 -0.147248778080E-01
 -0.344701749330E-02 -0.147197024161E-01
  0.144950569976E-03  0.338382927755E-01  0.297613673722E-03 -0.775294915321E-02  0.343166023594E-01  0.298263183716E-03 -0.222358709868E-02
 -0.777425316207E-02  0.343869854765E-01  0.299839560271E-03 -0.240659143255E-02 -0.216554309214E-02 -0.775567942715E-02  0.346698182923E-01
  0.300301697133E-03 -0.210080267467E-02 -0.238091460029E-02 -0.215461468172E-02 -0.777475224361E-02  0.348318151491E-01  0.285225919678E-03
 -0.175174369209E-02 -0.208767528067E-02 -0.239437628480E-02 -0.215918012733E-02 -0.780031040051E-02  0.348814542562E-01  0.298220296430E-03
 -0.155072241814E-02 -0.174646746370E-02 -0.209983200994E-02 -0.239508644531E-02 -0.215851975741E-02 -0.780396371260E-02  0.347604720357E-01
  0.295345574333E-03 -0.125703217347E-02 -0.154335116324E-02 -0.175116687775E-02 -0.208761672239E-02 -0.238845131688E-02 -0.214768998496E-02
 -0.777637454233E-02  0.343693248221E-01  0.289327201496E-03 -0.883391314923E-03 -0.125116206836E-02 -0.155040130155E-02 -0.174396467592E-02
 -0.208780855861E-02 -0.238579596990E-02 -0.214033031090E-02 -0.771993016022E-02  0.335877825347E-01  0.280961929932E-03 -0.308105900471E-02
 -0.880858949461E-03 -0.125674894012E-02 -0.154285534623E-02 -0.174628845438E-02 -0.208341917393E-02 -0.238170096529E-02 -0.213683381810E-02
 -0.757691513582E-02  0.323390143268E-01  0.134318124675E-03 -0.307301802537E-02 -0.882859364307E-03 -0.125076298834E-02 -0.154940771002E-02
 -0.174263776216E-02 -0.208833692433E-02 -0.237119656729E-02 -0.214273671316E-02 -0.739120006372E-02  0.325064316718E-01 -0.307953462482E-02
 -0.880115535115E-03 -0.125621114050E-02 -0.154149037433E-02 -0.174506363947E-02 -0.207872883622E-02 -0.236589643625E-02 -0.213634688077E-02
 -0.752835346540E-02 -0.307318269999E-02 -0.882066667439E-03 -0.124966124629E-02 -0.154562190292E-02 -0.174106055922E-02 -0.207602171462E-02
 -0.236997068253E-02 -0.207648809570E-02 -0.307772765546E-02 -0.879422968900E-03 -0.125358877335E-02 -0.153826158970E-02 -0.174140786190E-02
 -0.207260808961E-02 -0.234812597787E-02 -0.307277865161E-02 -0.880812806635E-03 -0.124726299829E-02 -0.154291558656E-02 -0.173872632435E-02
 -0.207132438333E-02 -0.307677205498E-02 -0.878351416219E-03 -0.125147475694E-02 -0.153648398808E-02 -0.174152881332E-02 -0.307287445624E-02
 -0.879596722216E-03 -0.124567012482E-02 -0.154276047469E-02 -0.307506311125E-02 -0.877421453241E-03 -0.125104112395E-02 -0.307316455832E-02
 -0.879430409881E-03 -0.307431327440E-02
 -0.184829143973E-05  0.250573203389E-04 -0.116083333806E-05 -0.244813559952E-05  0.238386479849E-03 -0.319945642400E-05  0.253058450894E-05
 -0.951724758884E-05  0.229519743810E-04 -0.411636966704E-05  0.192191208392E-06  0.355858649968E-04 -0.124872137089E-04 -0.720961430930E-05
 -0.256893903479E-05 -0.203937643351E-06  0.676164415807E-05 -0.448049170519E-07 -0.186565983087E-04 -0.417972305127E-04  0.128367303372E-05
 -0.292107540274E-06 -0.303623527271E-05  0.918429377335E-06 -0.227287409012E-04  0.101087236445E-05 -0.606358345922E-04  0.766525128024E-05
 -0.275376721445E-06 -0.359283959433E-05 -0.617061507959E-05 -0.299430985050E-05 -0.462549259472E-04  0.393273515843E-04 -0.607364546347E-04
  0.192240208012E-04 -0.201392870854E-06 -0.351920990073E-05 -0.390733623265E-05 -0.126488163516E-04 -0.677385438570E-05 -0.687065091255E-04
  0.968568047636E-04 -0.121759882494E-04  0.337230393051E-04 -0.788429121124E-07 -0.294550727670E-05 -0.425908522096E-05 -0.856287651972E-05
 -0.209097593894E-04 -0.662941734671E-05 -0.946032175550E-04  0.171428890306E-03  0.878856296463E-04  0.341035644939E-04 -0.404104592462E-07
 -0.311544686259E-05 -0.395651350187E-05 -0.838919852976E-05 -0.145636871228E-04 -0.251698857934E-04 -0.809444747125E-05 -0.118719032967E-03
  0.230298388677E-03  0.350588841476E-03  0.655301334110E-05 -0.274319368104E-05 -0.460628099185E-05 -0.716869318631E-05 -0.124160401853E-04
 -0.183696529141E-04 -0.271846668631E-04 -0.177510314058E-04 -0.130684630648E-03  0.185409055905E-03  0.214169934086E-04 -0.421244885503E-05
 -0.779608705689E-05 -0.946750024243E-05 -0.151975706454E-04 -0.199197623983E-04 -0.310724322913E-04 -0.283059756954E-04 -0.938348569164E-04
  0.591207509881E-05 -0.676986222577E-05 -0.957357226452E-05 -0.110036595519E-04 -0.162072793241E-04 -0.211837714274E-04 -0.316067277549E-04
 -0.341413691437E-04  0.118354376795E-05 -0.801627892138E-05 -0.107524844458E-04 -0.113902348422E-04 -0.163057406226E-04 -0.188490057051E-04
 -0.284946598807E-04 -0.261826737793E-06 -0.891714136480E-05 -0.108725324137E-04 -0.111667427572E-04 -0.131509201024E-04 -0.159069622415E-04
 -0.319100513201E-06 -0.886696462365E-05 -0.103917858674E-04 -0.849685913694E-05 -0.996516144606E-05 -0.165400698510E-06 -0.840018658431E-05
 -0.762759999309E-05 -0.604225918899E-05 -0.460768868005E-07 -0.598037220008E-05 -0.505278577158E-05 -0.289593983796E-07 -0.369560170703E-05
 -0.128549590568E-06 -0.357300345899E-07
 -0.545410959298E-03  0.529374165279E-02 -0.111381369748E-02  0.509161113970E-02  0.565975955077E-02 -0.111535059509E-02  0.828277893364E-03
  0.548426707134E-02  0.563254264114E-02 -0.112119023404E-02  0.275037342370E-02  0.905878066810E-03  0.546714847685E-02  0.568201075387E-02
 -0.112470213846E-02  0.250946668978E-02  0.276700677250E-02  0.886075023003E-03  0.553041204926E-02  0.569198466809E-02 -0.112526429416E-02
  0.256172408344E-02  0.250260372247E-02  0.275754653638E-02  0.922276743892E-03  0.552152218350E-02  0.568857929693E-02 -0.112109507301E-02
  0.228173171474E-02  0.255312138281E-02  0.249851508267E-02  0.279185541158E-02  0.903650758683E-03  0.551520601582E-02  0.566664311921E-02
 -0.110958950052E-02  0.195601265727E-02  0.227503098410E-02  0.255184492006E-02  0.252086892225E-02  0.277318745407E-02  0.903225148863E-03
  0.550363358275E-02  0.563034990589E-02 -0.108803529158E-02  0.152349934342E-02  0.195036936312E-02  0.227484757822E-02  0.256518845484E-02
  0.250422759970E-02  0.277215483739E-02  0.909392195276E-03  0.548912128144E-02  0.555937084932E-02 -0.105428292807E-02  0.741342975587E-03
  0.152035479850E-02  0.195166205903E-02  0.228192038349E-02  0.255147242549E-02  0.250677940207E-02  0.276290952694E-02  0.940490729356E-03
  0.543577545074E-02  0.538488450739E-02 -0.529189264473E-03  0.740575446693E-03  0.152101161193E-02  0.195372977453E-02  0.227133224457E-02
  0.255535167719E-02  0.249456273474E-02  0.277279296675E-02  0.934803414858E-03  0.526041059177E-02  0.543049147463E-02  0.740667003446E-03
  0.152173048725E-02  0.194777302803E-02  0.227519927294E-02  0.254364607794E-02  0.250058422461E-02  0.274934898095E-02  0.917426827291E-03
  0.521426300918E-02  0.740749998588E-03  0.151820673114E-02  0.194943739261E-02  0.226632028891E-02  0.254709158998E-02  0.247906659684E-02
  0.274249842339E-02  0.785757317518E-03  0.739841577374E-03  0.151932126639E-02  0.194467309711E-02  0.226924187925E-02  0.252916252427E-02
  0.248739770585E-02  0.264135562175E-02  0.740474324607E-03  0.151628569314E-02  0.194564645642E-02  0.225577850472E-02  0.254007411056E-02
  0.241941145419E-02  0.739245529884E-03  0.151708643460E-02  0.193759340040E-02  0.226595741479E-02  0.249728188083E-02  0.740063896238E-03
  0.151206719468E-02  0.194395059272E-02  0.223955369463E-02  0.738075178783E-03  0.151624482646E-02  0.192965926450E-02  0.740088775751E-03
  0.150849879481E-02  0.737814809652E-03
 -0.121914726320E-02 -0.941872056150E-01 -0.227145020610E-02  0.137772589550E-01 -0.946793143735E-01 -0.227413807589E-02  0.432902709101E-02
  0.142187183291E-01 -0.948326726127E-01 -0.228783439363E-02  0.293271720653E-02  0.432435664330E-02  0.141618778199E-01 -0.954352546231E-01
 -0.229786108115E-02  0.244204311218E-02  0.291366352216E-02  0.426080227376E-02  0.141811170429E-01 -0.958226970940E-01 -0.230098780598E-02
  0.210654421887E-02  0.244222507439E-02  0.291857070985E-02  0.430781069684E-02  0.142385069623E-01 -0.959079353215E-01 -0.229337123827E-02
  0.185906116371E-02  0.211247860909E-02  0.244593815561E-02  0.294022225054E-02  0.431081385611E-02  0.142580172211E-01 -0.955582329509E-01
 -0.226871030024E-02  0.153454963585E-02  0.185824729765E-02  0.210623989165E-02  0.244228541214E-02  0.291994246606E-02  0.429914493938E-02
  0.142076192712E-01 -0.945131081764E-01 -0.221702890376E-02  0.124916561663E-02  0.153147667978E-02  0.185877910788E-02  0.210790040201E-02
  0.243129970202E-02  0.292518312347E-02  0.427131009815E-02  0.141164536031E-01 -0.924680875401E-01 -0.213925197862E-02  0.600955265386E-02
  0.124474579500E-02  0.153413872281E-02  0.185826706426E-02  0.210140548355E-02  0.243711735750E-02  0.291095688607E-02  0.426470139604E-02
  0.138407237413E-01 -0.892685795091E-01 -0.971152538686E-03  0.599720161596E-02  0.124815457574E-02  0.153165061444E-02  0.185972524074E-02
  0.210657131650E-02  0.243771873940E-02  0.290189246769E-02  0.427112571324E-02  0.133901411882E-01 -0.884198294692E-01  0.600642226787E-02
  0.124377464246E-02  0.153423648579E-02  0.185617430864E-02  0.210130809124E-02  0.243365100042E-02  0.289165041187E-02  0.420870962250E-02
  0.134817086427E-01  0.599785037377E-02  0.124699627546E-02  0.152997482049E-02  0.185392567462E-02  0.210609103599E-02  0.242027969109E-02
  0.290871147023E-02  0.417317393416E-02  0.600265852758E-02  0.124245171159E-02  0.153098932348E-02  0.185106852076E-02  0.209814952041E-02
  0.242555223425E-02  0.286949570729E-02  0.599685245201E-02  0.124619943801E-02  0.152659919625E-02  0.185106494968E-02  0.210383978853E-02
  0.241423857025E-02  0.600213111678E-02  0.124122852095E-02  0.152858100407E-02  0.184919331586E-02  0.209680983311E-02  0.599767049195E-02
  0.124488725566E-02  0.152492794525E-02  0.184913776955E-02  0.599914965488E-02  0.124045108406E-02  0.152693120609E-02  0.599905171494E-02
  0.124430319881E-02  0.599765492209E-02
        67        57        46        56
        57        47        37        46
        47        38        29        37
        38        30        22        29
        30        23        16        22
        23        17        11        16
        17        12         7        11
        12         8         4         7
         8         5         2         4
         5         3         1         2
        77        68        57        67
        68        58        47        57
        58        48        38        47
        48        39        30        38
        39        31        23        30
        31        24        17        23
        24        18        12        17
        18        13         8        12
        13         9         5         8
         9         6         3         5
        86        78        68        77
        78        69        58        68
        69        59        48        58
        59        49        39        48
        49        40        31        39
        40        32        24        31
        32        25        18        24
        25        19        13        18
        19        14         9        13
        14        10         6         9
        94        87        78        86
        87        79        69        78
        79        70        59        69
        70        60        49        59
        60        50        40        49
        50        41        32        40
        41        33        25        32
        33        26        19        25
        26        20        14        19
        20        15        10        14
       101        95        87        94
        95        88        79        87
        88        80        70        79
        80        71        60        70
        71        61        50        60
        61        51        41        50
        51        42        33        41
        42        34        26        33
        34        27        20        26
        27        21        15        20
       107       102        95       101
       102        96        88        95
        96        89        80        88
        89        81        71        80
        81        72        61        71
        72        62        51        61
        62        52        42        51
        52        43        34        42
        43        35        27        34
        35        28        21        27
       112       108       102       107
       108       103        96       102
       103        97        89        96
        97        90        81        89
        90        82        72        81
        82        73        62        72
        73        63        52        62
        63        53        43        52
        53        44        35        43
        44        36        28        35
       116       113       108       112
       113       109       103       108
       109       104        97       103
       104        98        90        97
        98        91        82        90
        91        83        73        82
        83        74        63        73
        74        64        53        63
        64        54        44        53
        54        45        36        44
       119       117       113       116
       117       114       109       113
       114       110       104       109
       110       105        98       104
       105        99        91        98
        99        92        83        91
        92        84        74        83
        84        75        64        74
        75        65        54        64
        65        55        45        54
       121       120       117       119
       120       118       114       117
       118       115       110       114
       115       111       105       110
       111       106        99       105
       106       100        92        99
       100        93        84        92
        93        85        75        84
        85        76        65        75
        76        66        55        65
zone t="boundary 2 bc-2", solutiontime= 0.3000000E+02, strandid=1002, i=121, j=100, f=feblock
  0.000000000000E+00  0.500000000000E+00  0.000000000000E+00  0.100000000000E+01  0.500000000000E+00  0.000000000000E+00  0.150000000000E+01
  0.100000000000E+01  0.500000000000E+00  0.000000000000E+00  0.200000000000E+01  0.150000000000E+01  0.100000000000E+01  0.500000000000E+00
  0.000000000000E+00  0.250000000000E+01  0.200000000000E+01  0.150000000000E+01  0.100000000000E+01  0.500000000000E+00  0.000000000000E+00
  0.300000000000E+01  0.250000000000E+01  0.200000000000E+01  0.150000000000E+01  0.100000000000E+01  0.500000000000E+00  0.000000000000E+00
  0.350000000000E+01  0.300000000000E+01  0.250000000000E+01  0.200000000000E+01  0.150000000000E+01  0.100000000000E+01  0.500000000000E+00
  0.000000000000E+00  0.400000000000E+01  0.350000000000E+01  0.300000000000E+01  0.250000000000E+01  0.200000000000E+01  0.150000000000E+01
  0.100000000000E+01  0.500000000000E+00  0.000000000000E+00  0.450000000000E+01  0.400000000000E+01  0.350000000000E+01  0.300000000000E+01
  0.250000000000E+01  0.200000000000E+01  0.150000000000E+01  0.100000000000E+01  0.500000000000E+00  0.000000000000E+00  0.500000000000E+01