title="tecplot geometry and solution file"
variables = x y z mach temperature lambda1 lambda2 lambda3 lambda4 lambda5
zone t="boundary 1 bc-1", solutiontime= 0.7000000E+02, strandid=1001, i=121, j=100, f=feblock
  0.000000000000E+00  0.000000000000E+00  0.000000000000E+00  0.000000000000E+00  0.000000000000E+00  0.000000000000E+00  0.000000000000E+00
  0.000000000000E+00  0.000000000000E+00  0.000000000000E+00  0.000000000000E+00  0.000000000000E+00  0.000000000000E+00  0.000000000000E+00
  0.000000000000E+00  0.000000000000E+00  0.000000000000E+00  0.000000000000E+00  0.000000000000E+00  0.000000000000E+00  0.000000000000E+00
  0.000000000000E+00  0.000000000000E+00  0.000000000000E+00  0.000000000000E+00  0.000000000000E+00  0.000000000000E+00  0.000000000000E+00
  0.000000000000E+00  0.000000000000E+00  0.000000000000E+00  0.000000000000E+00  0.000000000000E+00  0.000000000000E+00  0.000000000000E+00
  0.000000000000E+00  0.000000000000E+00  0.000000000000E+00  0.000000000000E+00  0.000000000000E+00  0.000000000000E+00  0.000000000000E+00
  0.000000000000E+00  0.000000000000E+00  0.000000000000E+00  0.000000000000E+00  0.000000000000E+00  0.000000000000E+00  0.000000000000E+00
  0.000000000000E+00  0.000000000000E+00  0.000000000000E+00  0.000000000000E+00  0.000000000000E+00  0.000000000000E+00  0.000000000000E+00
  0.000000000000E+00  0.000000000000E+00  0.000000000000E+00  0.000000000000E+00  0.000000000000E+00  0.000000000000E+00  0.000000000000E+00
  0.000000000000E+00  0.000000000000E+00  0.000000000000E+00  0.000000000000E+00  0.000000000000E+00  0.000000000000E+00  0.000000000000E+00
  0.000000000000E+00  0.000000000000E+00  0.000000000000E+00  0.000000000000E+00  0.000000000000E+00  0.000000000000E+00  0.000000000000E+00
  0.000000000000E+00  0.000000000000E+00  0.000000000000E+00  0.000000000000E+00  0.000000000000E+00  0.000000000000E+00  0.000000000000E+00
  0.000000000000E+00  0.000000000000E+00  0.000000000000E+00  0.000000000000E+00  0.000000000000E+00  0.000000000000E+00  0.000000000000E+00
  0.000000000000E+00  0.000000000000E+00  0.000000000000E+00  0.000000000000E+00  0.000000000000E+00  0.000000000000E+00  0.000000000000E+00
  0.000000000000E+00  0.000000000000E+00  0.000000000000E+00  0.000000000000E+00  0.000000000000E+00  0.000000000000E+00  0.000000000000E+00
  0.000000000000E+00  0.000000000000E+00  0.000000000000E+00  0.000000000000E+00  0.000000000000E+00  0.000000000000E+00  0.000000000000E+00
  0.000000000000E+00  0.000000000000E+00  0.000000000000E+00  0.000000000000E+00  0.000000000000E+00  0.000000000000E+00  0.000000000000E+00
  0.000000000000E+00  0.000000000000E+00
  0.250000000000E+01  0.250000000000E+01  0.200000000000E+01  0.250000000000E+01  0.200000000000E+01  0.150000000000E+01  0.250000000000E+01
  0.200000000000E+01  0.150000000000E+01  0.100000000000E+01  0.250000000000E+01  0.200000000000E+01  0.150000000000E+01  0.100000000000E+01
  0.500000000000E+00  0.250000000000E+01  0.200000000000E+01  0.150000000000E+01  0.100000000000E+01  0.500000000000E+00  0.000000000000E+00
  0.250000000000E+01  0.200000000000E+01  0.150000000000E+01  0.100000000000E+01  0.500000000000E+00  0.000000000000E+00 -0.500000000000E+00
  0.250000000000E+01  0.200000000000E+01  0.150000000000E+01  0.100000000000E+01  0.500000000000E+00  0.000000000000E+00 -0.500000000000E+00
 -0.100000000000E+01  0.250000000000E+01  0.200000000000E+01  0.150000000000E+01  0.100000000000E+01  0.500000000000E+00  0.000000000000E+00
 -0.500000000000E+00 -0.100000000000E+01 -0.150000000000E+01  0.250000000000E+01  0.200000000000E+01  0.150000000000E+01  0.100000000000E+01
  0.500000000000E+00  0.000000000000E+00 -0.500000000000E+00 -0.100000000000E+01 -0.150000000000E+01 -0.200000000000E+01  0.250000000000E+01
  0.200000000000E+01  0.150000000000E+01  0.100000000000E+01  0.500000000000E+00  0.000000000000E+00 -0.500000000000E+00 -0.100000000000E+01
 -0.150000000000E+01 -0.200000000000E+01 -0.250000000000E+01  0.200000000000E+01  0.150000000000E+01  0.100000000000E+01  0.500000000000E+00
  0.000000000000E+00 -0.500000000000E+00 -0.100000000000E+01 -0.150000000000E+01 -0.200000000000E+01 -0.250000000000E+01  0.150000000000E+01
  0.100000000000E+01  0.500000000000E+00  0.000000000000E+00 -0.500000000000E+00 -0.100000000000E+01 -0.150000000000E+01 -0.200000000000E+01
 -0.250000000000E+01  0.100000000000E+01  0.500000000000E+00  0.000000000000E+00 -0.500000000000E+00 -0.100000000000E+01 -0.150000000000E+01
 -0.200000000000E+01 -0.250000000000E+01  0.500000000000E+00  0.000000000000E+00 -0.500000000000E+00 -0.100000000000E+01 -0.150000000000E+01
 -0.200000000000E+01 -0.250000000000E+01  0.000000000000E+00 -0.500000000000E+00 -0.100000000000E+01 -0.150000000000E+01 -0.200000000000E+01
 -0.250000000000E+01 -0.500000000000E+00 -0.100000000000E+01 -0.150000000000E+01 -0.200000000000E+01 -0.250000000000E+01 -0.100000000000E+01
 -0.150000000000E+01 -0.200000000000E+01 -0.250000000000E+01 -0.150000000000E+01 -0.200000000000E+01 -0.250000000000E+01 -0.200000000000E+01
 -0.250000000000E+01 -0.250000000000E+01
  0.000000000000E+00  0.500000000000E+00  0.000000000000E+00  0.100000000000E+01  0.500000000000E+00  0.000000000000E+00  0.150000000000E+01
  0.100000000000E+01  0.500000000000E+00  0.000000000000E+00  0.200000000000E+01  0.150000000000E+01  0.100000000000E+01  0.500000000000E+00
  0.000000000000E+00  0.250000000000E+01  0.200000000000E+01  0.150000000000E+01  0.100000000000E+01  0.500000000000E+00  0.000000000000E+00
  0.300000000000E+01  0.250000000000E+01  0.200000000000E+01  0.150000000000E+01  0.100000000000E+01  0.500000000000E+00  0.000000000000E+00
  0.350000000000E+01  0.300000000000E+01  0.250000000000E+01  0.200000000000E+01  0.150000000000E+01  0.100000000000E+01  0.500000000000E+00
  0.000000000000E+00  0.400000000000E+01  0.350000000000E+01  0.300000000000E+01  0.250000000000E+01  0.200000000000E+01  0.150000000000E+01
  0.100000000000E+01  0.500000000000E+00  0.000000000000E+00  0.450000000000E+01  0.400000000000E+01  0.350000000000E+01  0.300000000000E+01
  0.250000000000E+01  0.200000000000E+01  0.150000000000E+01  0.100000000000E+01  0.500000000000E+00  0.000000000000E+00  0.500000000000E+01
  0.450000000000E+01  0.400000000000E+01  0.350000000000E+01  0.300000000000E+01  0.250000000000E+01  0.200000000000E+01  0.150000000000E+01
  0.100000000000E+01  0.500000000000E+00  0.000000000000E+00  0.500000000000E+01  0.450000000000E+01  0.400000000000E+01  0.350000000000E+01
  0.300000000000E+01  0.250000000000E+01  0.200000000000E+01  0.150000000000E+01  0.100000000000E+01  0.500000000000E+00  0.500000000000E+01
  0.450000000000E+01  0.400000000000E+01  0.350000000000E+01  0.300000000000E+01  0.250000000000E+01  0.200000000000E+01  0.150000000000E+01
  0.100000000000E+01  0.500000000000E+01  0.450000000000E+01  0.400000000000E+01  0.350000000000E+01  0.300000000000E+01  0.250000000000E+01
  0.200000000000E+01  0.150000000000E+01  0.500000000000E+01  0.450000000000E+01  0.400000000000E+01  0.350000000000E+01  0.300000000000E+01
  0.250000000000E+01  0.200000000000E+01  0.500000000000E+01  0.450000000000E+01  0.400000000000E+01  0.350000000000E+01  0.300000000000E+01
  0.250000000000E+01  0.500000000000E+01  0.450000000000E+01  0.400000000000E+01  0.350000000000E+01  0.300000000000E+01  0.500000000000E+01
  0.450000000000E+01  0.400000000000E+01  0.350000000000E+01  0.500000000000E+01  0.450000000000E+01  0.400000000000E+01  0.500000000000E+01
  0.450000000000E+01  0.500000000000E+01
  0.000000000000E+00  0.531072553149E+00  0.000000000000E+00  0.470416162098E+00  0.524251588705E+00  0.000000000000E+00  0.476603000148E+00
  0.470294912218E+00  0.524019959372E+00  0.000000000000E+00  0.489886033325E+00  0.476939722569E+00  0.470158762834E+00  0.524205390564E+00
  0.000000000000E+00  0.495353612356E+00  0.490000246697E+00  0.476881675212E+00  0.470240893682E+00  0.524231064363E+00  0.000000000000E+00
  0.498057607182E+00  0.495389368302E+00  0.489974003431E+00  0.476955627789E+00  0.470249189143E+00  0.524244644762E+00  0.000000000000E+00
  0.499053948469E+00  0.498070598735E+00  0.495377048974E+00  0.490006711417E+00  0.476960325257E+00  0.470259648311E+00  0.524231055999E+00
  0.000000000000E+00  0.499598853315E+00  0.499059485168E+00  0.498064337213E+00  0.495392317018E+00  0.490005848270E+00  0.476969754431E+00
  0.470249187819E+00  0.524205367288E+00  0.000000000000E+00  0.499814616584E+00  0.499601757585E+00  0.499055990337E+00  0.498071398325E+00
  0.495390706232E+00  0.490011277142E+00  0.476960350520E+00  0.470240889186E+00  0.524019910623E+00  0.000000000000E+00  0.499907395111E+00
  0.499816097339E+00  0.499599667380E+00  0.499059490274E+00  0.498069963821E+00  0.495394242858E+00  0.490005861458E+00  0.476955680365E+00
  0.470158746295E+00  0.524251464272E+00  0.000000000000E+00  0.499908054918E+00  0.499814968119E+00  0.499601592171E+00  0.499058282350E+00
  0.498072013574E+00  0.495390713671E+00  0.490006738477E+00  0.476881755396E+00  0.470294880312E+00  0.531072364238E+00  0.499907549531E+00
  0.499815958122E+00  0.499600709349E+00  0.499059617260E+00  0.498069967907E+00  0.495392331804E+00  0.489974043866E+00  0.476939828832E+00
  0.470416121474E+00  0.499907998068E+00  0.499815441326E+00  0.499601578820E+00  0.499058284884E+00  0.498071406361E+00  0.495377070420E+00
  0.490000301490E+00  0.476603132555E+00  0.499907764567E+00  0.499815918175E+00  0.499600710979E+00  0.499059495169E+00  0.498064348725E+00
  0.495389394762E+00  0.489886099977E+00  0.499907984842E+00  0.499815442380E+00  0.499601595298E+00  0.499055997259E+00  0.498070612515E+00
  0.495353643149E+00  0.499907765216E+00  0.499815960134E+00  0.499599671765E+00  0.499059493267E+00  0.498057622970E+00  0.499907999303E+00
  0.499814970930E+00  0.499601762690E+00  0.499053957649E+00  0.499907551256E+00  0.499816100608E+00  0.499598859021E+00  0.499908056922E+00
  0.499814620187E+00  0.499907397316E+00
  0.999980624329E+00  0.100959953566E+01  0.999980559199E+00  0.103108501963E+01  0.100902127495E+01  0.999980507008E+00  0.101143945367E+01
  0.103087724937E+01  0.100905306317E+01  0.999980477444E+00  0.100396174721E+01  0.101134211168E+01  0.103089736007E+01  0.100897309532E+01
  0.999980484423E+00  0.100163237908E+01  0.100393526499E+01  0.101134486192E+01  0.103085757138E+01  0.100896296995E+01  0.999980546794E+00
  0.100060734342E+01  0.100162425859E+01  0.100393950776E+01  0.101132521965E+01  0.103085330717E+01  0.100895928996E+01  0.999980687804E+00
  0.100027377422E+01  0.100060402036E+01  0.100162678446E+01  0.100393168699E+01  0.101132347951E+01  0.103085019186E+01  0.100896299209E+01
  0.999980931553E+00  0.100010465872E+01  0.100027214467E+01  0.100060586959E+01  0.100162335680E+01  0.100393172863E+01  0.101132154334E+01
  0.103085327712E+01  0.100897314798E+01  0.999981294547E+00  0.100004314096E+01  0.100010366493E+01  0.100027327842E+01  0.100060410337E+01
  0.100162373104E+01  0.100393054148E+01  0.101132346346E+01  0.103085750721E+01  0.100905316105E+01  0.999981772736E+00  0.100001762599E+01
  0.100004255227E+01  0.100010442371E+01  0.100027237442E+01  0.100060463233E+01  0.100162301276E+01  0.100393172297E+01  0.101132518600E+01
  0.103089725705E+01  0.100902145406E+01  0.999982330801E+00  0.100001733832E+01  0.100004302440E+01  0.100010384465E+01  0.100027273954E+01
  0.100060408185E+01  0.100162372808E+01  0.100393167534E+01  0.101134481004E+01  0.103087709103E+01  0.100959979975E+01  0.100001757343E+01
  0.100004265872E+01  0.100010414494E+01  0.100027243554E+01  0.100060463084E+01  0.100162335085E+01  0.100393949057E+01  0.101134203660E+01
  0.103108480818E+01  0.100001739075E+01  0.100004288149E+01  0.100010390494E+01  0.100027273863E+01  0.100060410041E+01  0.100162677593E+01
  0.100393524084E+01  0.101143935889E+01  0.100001750890E+01  0.100004270055E+01  0.100010414436E+01  0.100027237265E+01  0.100060586541E+01
  0.100162424762E+01  0.100396171827E+01  0.100001741244E+01  0.100004288111E+01  0.100010384354E+01  0.100027327595E+01  0.100060401523E+01
  0.100163236636E+01  0.100001750868E+01  0.100004265800E+01  0.100010442216E+01  0.100027214174E+01  0.100060733754E+01  0.100001739034E+01
  0.100004302340E+01  0.100010366311E+01  0.100027377091E+01  0.100001757285E+01  0.100004255111E+01  0.100010465670E+01  0.100001733764E+01
  0.100004313968E+01  0.100001762525E+01
  0.196543749380E-01  0.231012749836E+00  0.196111973599E-01 -0.321495163026E-01  0.230249189653E+00  0.197030713405E-01 -0.129306953087E-01
 -0.324175492982E-01  0.231352906993E+00  0.197740696529E-01 -0.698523703761E-02 -0.129169843131E-01 -0.325952562828E-01  0.232658752803E+00
  0.198231174566E-01 -0.665398063606E-02 -0.698718749614E-02 -0.129266637925E-01 -0.326976349429E-01  0.233534028347E+00  0.198274018174E-01
 -0.544761673932E-02 -0.665583156744E-02 -0.698776768341E-02 -0.129466104542E-01 -0.327901952420E-01  0.233767548857E+00  0.197519218941E-01
 -0.481157169975E-02 -0.544355920684E-02 -0.665441682459E-02 -0.698549526820E-02 -0.129513897604E-01 -0.328144407165E-01  0.232909706406E+00
  0.195334303364E-01 -0.405676485254E-02 -0.480796123080E-02 -0.544472296104E-02 -0.665536271583E-02 -0.698467100272E-02 -0.129364751126E-01
 -0.327272589711E-01  0.230318056982E+00  0.191081544074E-01 -0.349004955321E-02 -0.405365337205E-02 -0.480878606884E-02 -0.544331253544E-02
 -0.664987782851E-02 -0.697630140361E-02 -0.129005615606E-01 -0.324514616469E-01  0.225202825592E+00  0.185696239711E-01 -0.146095696973E-01
 -0.348741031599E-02 -0.405482557340E-02 -0.480688635823E-02 -0.543955880542E-02 -0.664376627203E-02 -0.696724241919E-02 -0.128351617773E-01
 -0.319296263717E-01  0.217907304796E+00  0.181686674376E-01 -0.145941241821E-01 -0.348805913918E-02 -0.405278469124E-02 -0.480454962746E-02
 -0.543562563285E-02 -0.663633337320E-02 -0.695682455541E-02 -0.127497052079E-01 -0.310675057417E-01  0.214364731127E+00 -0.146027947376E-01
 -0.348718365054E-02 -0.405139210343E-02 -0.480168392213E-02 -0.543101673788E-02 -0.662631390471E-02 -0.694164203118E-02 -0.126607981614E-01
 -0.307638444261E-01 -0.145988094481E-01 -0.348499244770E-02 -0.404899874242E-02 -0.479717141536E-02 -0.542614764948E-02 -0.661404490822E-02
 -0.693440643059E-02 -0.125844521245E-01 -0.145951563522E-01 -0.348422574318E-02 -0.404663389817E-02 -0.479540600593E-02 -0.541874168278E-02
 -0.661161817964E-02 -0.690936527522E-02 -0.145972788774E-01 -0.348165772661E-02 -0.404479385455E-02 -0.478920218687E-02 -0.542075697784E-02
 -0.659096776271E-02 -0.145906048020E-01 -0.348081248711E-02 -0.404132953031E-02 -0.479149901688E-02 -0.540637096338E-02 -0.145963746685E-01
 -0.347736364563E-02 -0.404236800057E-02 -0.478243430170E-02 -0.145837413575E-01 -0.347940472689E-02 -0.403761975335E-02 -0.146005023904E-01
 -0.347487675896E-02 -0.145780495235E-01
  0.144983720976E-03  0.339056725068E-01  0.297858858795E-03 -0.779600515072E-02  0.342608863314E-01  0.298327512350E-03 -0.227928577516E-02
 -0.769065267059E-02  0.344052023338E-01  0.299863881037E-03 -0.233481508528E-02 -0.223614098698E-02 -0.772413694291E-02  0.346747838041E-01
  0.300369445421E-03 -0.210470833446E-02 -0.232629639838E-02 -0.223746587952E-02 -0.774994483514E-02  0.348295225024E-01  0.285426084548E-03
 -0.177895687152E-02 -0.210079083991E-02 -0.232885751497E-02 -0.222835023395E-02 -0.776671843679E-02  0.348822760737E-01  0.298345866521E-03
 -0.153731799073E-02 -0.177775409560E-02 -0.210159786098E-02 -0.232490028496E-02 -0.222494873650E-02 -0.776784069990E-02  0.347579470903E-01
  0.295532808416E-03 -0.124482286047E-02 -0.153698797549E-02 -0.177815635388E-02 -0.209882350314E-02 -0.232382383556E-02 -0.222004003589E-02
 -0.774127811932E-02  0.343628106600E-01  0.289291457187E-03 -0.887572196949E-03 -0.124467626714E-02 -0.153695373637E-02 -0.177645470996E-02
 -0.209752168466E-02 -0.232047432879E-02 -0.221477455257E-02 -0.767619716349E-02  0.335868085334E-01  0.280908452045E-03 -0.305882230248E-02
 -0.887869762165E-03 -0.124467459259E-02 -0.153581021140E-02 -0.177581199489E-02 -0.209507555925E-02 -0.231599046743E-02 -0.220916995547E-02
 -0.755208980584E-02  0.323694540065E-01  0.134342614263E-03 -0.305627757620E-02 -0.887502947079E-03 -0.124378102817E-02 -0.153527531031E-02
 -0.177413359598E-02 -0.209196122928E-02 -0.231185260663E-02 -0.219821860895E-02 -0.738653271733E-02  0.324637628682E-01 -0.305767684884E-02
 -0.887172767561E-03 -0.124360237303E-02 -0.153406262641E-02 -0.177252857519E-02 -0.208858553520E-02 -0.230504533077E-02 -0.220459530692E-02
 -0.745747887057E-02 -0.305678369851E-02 -0.886834457287E-03 -0.124256177842E-02 -0.153265589765E-02 -0.177026936790E-02 -0.208486715248E-02
 -0.230422545040E-02 -0.213927733655E-02 -0.305616368234E-02 -0.886273696571E-03 -0.124192926109E-02 -0.153138387335E-02 -0.176862298410E-02
 -0.208261386890E-02 -0.229399808230E-02 -0.305625443624E-02 -0.885771410132E-03 -0.124085472165E-02 -0.153013052806E-02 -0.176690550005E-02
 -0.208135971952E-02 -0.305502555735E-02 -0.885089045244E-03 -0.124044467818E-02 -0.152901210285E-02 -0.176771604290E-02 -0.305579446916E-02
 -0.884819445100E-03 -0.123939173583E-02 -0.152945994550E-02 -0.305362734395E-02 -0.884107072754E-03 -0.124004492515E-02 -0.305619347722E-02
 -0.884582567264E-03 -0.305260353756E-02
  0.153284930925E-05  0.245088168837E-04  0.193633073681E-05 -0.737823158823E-06  0.235022867213E-03 -0.536516318289E-05  0.245089079418E-05
  0.543089557946E-05  0.229900962864E-04 -0.385044148354E-05  0.419359538380E-06  0.290486460806E-04 -0.210186851898E-04 -0.486467038074E-05
 -0.232906360610E-05  0.945406908509E-07  0.658534284087E-05 -0.876390637244E-07 -0.252608833046E-04 -0.387865845744E-04  0.113856918075E-05
 -0.548456071177E-07 -0.216360563943E-05  0.175119327932E-05 -0.179093028445E-04 -0.236153973267E-05 -0.576437824208E-04  0.790424203002E-05
 -0.725495181869E-07 -0.330273443175E-05 -0.500983054601E-05 -0.277997389781E-05 -0.409785368682E-04  0.348121545450E-04 -0.562775874375E-04
  0.197844059623E-04 -0.687096782474E-07 -0.375022934558E-05 -0.392002342732E-05 -0.121523186396E-04 -0.944328169417E-05 -0.639785298342E-04
  0.926829690617E-04 -0.115344694705E-04  0.319835691392E-04 -0.675801676680E-07 -0.315366120125E-05 -0.491735464679E-05 -0.843818889870E-05
 -0.213416701793E-04 -0.108925097544E-04 -0.891284413634E-04  0.164751975607E-03  0.897958003983E-04  0.358291222390E-04 -0.276120171542E-07
 -0.307645442931E-05 -0.436072023645E-05 -0.900601738459E-05 -0.137672621222E-04 -0.258519828887E-04 -0.120277990651E-04 -0.112832424754E-03
  0.218479407086E-03  0.350210423533E-03  0.886426825215E-05 -0.254338969699E-05 -0.446582068404E-05 -0.760082071313E-05 -0.127519239255E-04
 -0.163486256091E-04 -0.287401729229E-04 -0.192453901275E-04 -0.125890169218E-03  0.192009155306E-03  0.205767165693E-04 -0.384299554698E-05
 -0.759549721856E-05 -0.996638222962E-05 -0.148434321075E-04 -0.178333160632E-04 -0.331631315246E-04 -0.269978860111E-04 -0.968269825181E-04
  0.713125929267E-05 -0.637565354067E-05 -0.947137166868E-05 -0.114176066866E-04 -0.158354305819E-04 -0.196758572514E-04 -0.332908495317E-04
 -0.316808265559E-04  0.591214649548E-06 -0.768803108960E-05 -0.107825905247E-04 -0.119311474220E-04 -0.161275223860E-04 -0.180311373136E-04
 -0.292522057947E-04 -0.435696892098E-06 -0.866918657920E-05 -0.110749293948E-04 -0.116452565191E-04 -0.132292030408E-04 -0.152779104167E-04
 -0.484946286255E-06 -0.871978956396E-05 -0.105558661589E-04 -0.892437070530E-05 -0.987637160039E-05 -0.301802762464E-06 -0.815817717859E-05
 -0.775522158496E-05 -0.617824530582E-05 -0.182099235946E-06 -0.583616940938E-05 -0.509211982174E-05 -0.109464190084E-06 -0.370510369721E-05
 -0.961586133362E-07 -0.341009186617E-07
 -0.546641174906E-03  0.536826750461E-02 -0.111121481749E-02  0.514656154199E-02  0.561257806352E-02 -0.111433410634E-02  0.837679430266E-03
  0.545868714719E-02  0.565251952309E-02 -0.112063132748E-02  0.277113603200E-02  0.888782226314E-03  0.548273841715E-02  0.568552192974E-02
 -0.112386141913E-02  0.250394491285E-02  0.277205991191E-02  0.892644132356E-03  0.553573825965E-02  0.569421763580E-02 -0.112442073000E-02
  0.255112317296E-02  0.248596545719E-02  0.277926673925E-02  0.918636635143E-03  0.552821484851E-02  0.569119099119E-02 -0.112030102596E-02
  0.230151779053E-02  0.253340934814E-02  0.249330619906E-02  0.280204781260E-02  0.902848888403E-03  0.552092746990E-02  0.567406771866E-02
 -0.110838217745E-02  0.195982938930E-02  0.228779362696E-02  0.254039360106E-02  0.250554985322E-02  0.278807527905E-02  0.898491005653E-03
  0.551523416272E-02  0.563419613101E-02 -0.108699057032E-02  0.152202618027E-02  0.195052464696E-02  0.229370110314E-02  0.254569768769E-02
  0.249468022604E-02  0.278201419369E-02  0.911120048064E-03  0.549577792036E-02  0.554412839402E-02 -0.105491866510E-02  0.737783854606E-03
  0.151655103855E-02  0.195492535308E-02  0.229503998103E-02  0.253795939902E-02  0.249192796900E-02  0.278031144198E-02  0.936653700001E-03
  0.543016005078E-02  0.542749926146E-02 -0.527684861342E-03  0.736573150413E-03  0.151932490727E-02  0.195453184894E-02  0.228978949189E-02
  0.253668093719E-02  0.248746255233E-02  0.278449214594E-02  0.929781547316E-03  0.528826322782E-02  0.538699481062E-02  0.737263199463E-03
  0.151849093448E-02  0.195129245798E-02  0.228922963998E-02  0.253089861005E-02  0.248930933211E-02  0.276006578586E-02  0.918401080159E-03
  0.519851683925E-02  0.736798223532E-03  0.151675535038E-02  0.195100106043E-02  0.228416405931E-02  0.253029875893E-02  0.247021377778E-02
  0.275405797935E-02  0.788206048128E-03  0.736503253891E-03  0.151656502973E-02  0.194723782116E-02  0.228337889164E-02  0.251524661348E-02
  0.247693035243E-02  0.264996733780E-02  0.736453812796E-03  0.151421870355E-02  0.194669288524E-02  0.227264823931E-02  0.252363272865E-02
  0.241148451208E-02  0.735880943433E-03  0.151402802898E-02  0.193962033888E-02  0.228011340406E-02  0.248449726464E-02  0.736024382459E-03
  0.150990466374E-02  0.194506739040E-02  0.225686695394E-02  0.735083049797E-03  0.151332496944E-02  0.193155674903E-02  0.736087518249E-03
  0.150606341608E-02  0.734612378860E-03
 -0.122385866821E-02 -0.945136833329E-01 -0.226369466696E-02  0.139347968995E-01 -0.944564637559E-01 -0.227442620185E-02  0.448345079635E-02
  0.140119675643E-01 -0.948932043796E-01 -0.228743611877E-02  0.275163852343E-02  0.445590826008E-02  0.140871310486E-01 -0.954548031734E-01
 -0.229673288270E-02  0.254718086430E-02  0.274855791146E-02  0.445986492762E-02  0.141330270468E-01 -0.958165610740E-01 -0.230000686295E-02
  0.210070162980E-02  0.254653795372E-02  0.274956421152E-02  0.446248796839E-02  0.141714911877E-01 -0.959140010153E-01 -0.229260422121E-02
  0.184007736941E-02  0.209916586502E-02  0.254629001607E-02  0.274747793346E-02  0.446298375772E-02  0.141802326144E-01 -0.955633233433E-01
 -0.226714644377E-02  0.153450568156E-02  0.183898935312E-02  0.209966268743E-02  0.254576783579E-02  0.274705742972E-02  0.445721570669E-02
  0.141386855568E-01 -0.945055033162E-01 -0.221495872038E-02  0.126092080292E-02  0.153364649126E-02  0.183921099314E-02  0.209869100873E-02
  0.254369154314E-02  0.274347749876E-02  0.444482357599E-02  0.140151844800E-01 -0.924269170121E-01 -0.214316110535E-02  0.595113767300E-02
  0.126033358342E-02  0.153395340293E-02  0.183826194310E-02  0.209741185483E-02  0.254123173414E-02  0.273933723969E-02  0.442359812304E-02
  0.137830514099E-01 -0.894299403815E-01 -0.967429214349E-03  0.594507127714E-02  0.126034078651E-02  0.153307932309E-02  0.183749912223E-02
  0.209580271465E-02  0.253818174210E-02  0.273483467709E-02  0.439411928321E-02  0.134176824141E-01 -0.882143786600E-01  0.594846957218E-02
  0.126004946870E-02  0.153265813824E-02  0.183629027489E-02  0.209395894702E-02  0.253414636861E-02  0.272828612811E-02  0.436926374144E-02
  0.132777335194E-01  0.594689738772E-02  0.125927438559E-02  0.153162831682E-02  0.183452218486E-02  0.209182932029E-02  0.252955724417E-02
  0.272541371575E-02  0.432354424571E-02  0.594544660059E-02  0.125891779959E-02  0.153077271902E-02  0.183369345075E-02  0.208919151937E-02
  0.252805553625E-02  0.271537506224E-02  0.594630569183E-02  0.125802069944E-02  0.152992353567E-02  0.183148443276E-02  0.208929892784E-02
  0.252200746830E-02  0.594364825857E-02  0.125756868263E-02  0.152880742943E-02  0.183183682311E-02  0.208535047450E-02  0.594597700026E-02
  0.125649353283E-02  0.152877173042E-02  0.182933782604E-02  0.594096197165E-02  0.125686768909E-02  0.152762393106E-02  0.594762358652E-02
  0.125572456180E-02  0.593873556672E-02
        67        57        46        56
        57        47        37        46
        47        38        29        37
        38        30        22        29
        30        23        16        22
        23        17        11        16
        17        12         7        11
        12         8         4         7
         8         5         2         4
         5         3         1         2
        77        68        57        67
        68        58        47        57
        58        48        38        47
        48        39        30        38
        39        31        23        30
        31        24        17        23
        24        18        12        17
        18        13         8        12
        13         9         5         8
         9         6         3         5
        86        78        68        77
        78        69        58        68
        69        59        48        58
        59        49        39        48
        49        40        31        39
        40        32        24        31
        32        25        18        24
        25        19        13        18
        19        14         9        13
        14        10         6         9
        94        87        78        86
        87        79        69        78
        79        70        59        69
        70        60        49        59
        60        50        40        49
        50        41        32        40
        41        33        25        32
        33        26        19        25
        26        20        14        19
        20        15        10        14
       101        95        87        94
        95        88        79        87
        88        80        70        79
        80        71        60        70
        71        61        50        60
        61        51        41        50
        51        42        33        41
        42        34        26        33
        34        27        20        26
        27        21        15        20
       107       102        95       101
       102        96        88        95
        96        89        80        88
        89        81        71        80
        81        72        61        71
        72        62        51        61
        62        52        42        51
        52        43        34        42
        43        35        27        34
        35        28        21        27
       112       108       102       107
       108       103        96       102
       103        97        89        96
        97        90        81        89
        90        82        72        81
        82        73        62        72
        73        63        52        62
        63        53        43        52
        53        44        35        43
        44        36        28        35
       116       113       108       112
       113       109       103       108
       109       104        97       103
       104        98        90        97
        98        91        82        90
        91        83        73        82
        83        74        63        73
        74        64        53        63
        64        54        44        53
        54        45        36        44
       119       117       113       116
       117       114       109       113
       114       110       104       109
       110       105        98       104
       105        99        91        98
        99        92        83        91
        92        84        74        83
        84        75        64        74
        75        65        54        64
        65        55        45        54
       121       120       117       119
       120       118       114       117
       118       115       110       114
       115       111       105       110
       111       106        99       105
       106       100        92        99
       100        93        84        92
        93        85        75        84
        85        76        65        75
        76        66        55        65
zone t="boundary 2 bc-2", solutiontime= 0.7000000E+02, strandid=1002, i=121, j=100, f=feblock
  0.000000000000E+00  0.500000000000E+00  0.000000000000E+00  0.100000000000E+01  0.500000000000E+00  0.000000000000E+00  0.150000000000E+01
  0.100000000000E+01  0.500000000000E+00  0.000000000000E+00  0.200000000000E+01  0.150000000000E+01  0.100000000000E+01  0.500000000000E+00
  0.000000000000E+00  0.250000000000E+01  0.200000000000E+01  0.150000000000E+01  0.100000000000E+01  0.500000000000E+00  0.000000000000E+00
  0.300000000000E+01  0.250000000000E+01  0.200000000000E+01  0.150000000000E+01  0.100000000000E+01  0.500000000000E+00  0.000000000000E+00
  0.350000000000E+01  0.300000000000E+01  0.250000000000E+01  0.200000000000E+01  0.150000000000E+01  0.100000000000E+01  0.500000000000E+00
  0.000000000000E+00  0.400000000000E+01  0.350000000000E+01  0.300000000000E+01  0.250000000000E+01  0.200000000000E+01  0.150000000000E+01
  0.100000000000E+01  0.500000000000E+00  0.000000000000E+00  0.450000000000E+01  0.400000000000E+01  0.350000000000E+01  0.300000000000E+01
  0.250000000000E+01  0.200000000000E+01  0.150000000000E+01  0.100000000000E+01  0.500000000000E+00  0.000000000000E+00  0.500000000000E+01