title="tecplot geometry and solution file"
variables = x y z mach temperature lambda1 lambda2 lambda3 lambda4 lambda5
zone t="boundary 1 bc-1", solutiontime= 0.1000000E+02, strandid=1001, i=121, j=100, f=feblock
  0.000000000000E+00  0.000000000000E+00  0.000000000000E+00  0.000000000000E+00  0.000000000000E+00  0.000000000000E+00  0.000000000000E+00
  0.000000000000E+00  0.000000000000E+00  0.000000000000E+00  0.000000000000E+00  0.000000000000E+00  0.000000000000E+00  0.000000000000E+00
  0.000000000000E+00  0.000000000000E+00  0.000000000000E+00  0.000000000000E+00  0.000000000000E+00  0.000000000000E+00  0.000000000000E+00
  0.000000000000E+00  0.000000000000E+00  0.000000000000E+00  0.000000000000E+00  0.000000000000E+00  0.000000000000E+00  0.000000000000E+00
  0.000000000000E+00  0.000000000000E+00  0.000000000000E+00  0.000000000000E+00  0.000000000000E+00  0.000000000000E+00  0.000000000000E+00
  0.000000000000E+00  0.000000000000E+00  0.000000000000E+00  0.000000000000E+00  0.000000000000E+00  0.000000000000E+00  0.000000000000E+00
  0.000000000000E+00  0.000000000000E+00  0.000000000000E+00  0.000000000000E+00  0.000000000000E+00  0.000000000000E+00  0.000000000000E+00
  0.000000000000E+00  0.000000000000E+00  0.000000000000E+00  0.000000000000E+00  0.000000000000E+00  0.000000000000E+00  0.000000000000E+00
  0.000000000000E+00  0.000000000000E+00  0.000000000000E+00  0.000000000000E+00  0.000000000000E+00  0.000000000000E+00  0.000000000000E+00
  0.000000000000E+00  0.000000000000E+00  0.000000000000E+00  0.000000000000E+00  0.000000000000E+00  0.000000000000E+00  0.000000000000E+00
  0.000000000000E+00  0.000000000000E+00  0.000000000000E+00  0.000000000000E+00  0.000000000000E+00  0.000000000000E+00  0.000000000000E+00
  0.000000000000E+00  0.000000000000E+00  0.000000000000E+00  0.000000000000E+00  0.000000000000E+00  0.000000000000E+00  0.000000000000E+00
  0.000000000000E+00  0.000000000000E+00  0.000000000000E+00  0.000000000000E+00  0.000000000000E+00  0.000000000000E+00  0.000000000000E+00
  0.000000000000E+00  0.000000000000E+00  0.000000000000E+00  0.000000000000E+00  0.000000000000E+00  0.000000000000E+00  0.000000000000E+00
  0.000000000000E+00  0.000000000000E+00  0.000000000000E+00  0.000000000000E+00  0.000000000000E+00  0.000000000000E+00  0.000000000000E+00
  0.000000000000E+00  0.000000000000E+00  0.000000000000E+00  0.000000000000E+00  0.000000000000E+00  0.000000000000E+00  0.000000000000E+00
  0.000000000000E+00  0.000000000000E+00  0.000000000000E+00  0.000000000000E+00  0.000000000000E+00  0.000000000000E+00  0.000000000000E+00
  0.000000000000E+00  0.000000000000E+00
  0.250000000000E+01  0.250000000000E+01  0.200000000000E+01  0.250000000000E+01  0.200000000000E+01  0.150000000000E+01  0.250000000000E+01
  0.200000000000E+01  0.150000000000E+01  0.100000000000E+01  0.250000000000E+01  0.200000000000E+01  0.150000000000E+01  0.100000000000E+01
  0.500000000000E+00  0.250000000000E+01  0.200000000000E+01  0.150000000000E+01  0.100000000000E+01  0.500000000000E+00  0.000000000000E+00
  0.250000000000E+01  0.200000000000E+01  0.150000000000E+01  0.100000000000E+01  0.500000000000E+00  0.000000000000E+00 -0.500000000000E+00
  0.250000000000E+01  0.200000000000E+01  0.150000000000E+01  0.100000000000E+01  0.500000000000E+00  0.000000000000E+00 -0.500000000000E+00
 -0.100000000000E+01  0.250000000000E+01  0.200000000000E+01  0.150000000000E+01  0.100000000000E+01  0.500000000000E+00  0.000000000000E+00
 -0.500000000000E+00 -0.100000000000E+01 -0.150000000000E+01  0.250000000000E+01  0.200000000000E+01  0.150000000000E+01  0.100000000000E+01
  0.500000000000E+00  0.000000000000E+00 -0.500000000000E+00 -0.100000000000E+01 -0.150000000000E+01 -0.200000000000E+01  0.250000000000E+01
  0.200000000000E+01  0.150000000000E+01  0.100000000000E+01  0.500000000000E+00  0.000000000000E+00 -0.500000000000E+00 -0.100000000000E+01
 -0.150000000000E+01 -0.200000000000E+01 -0.250000000000E+01  0.200000000000E+01  0.150000000000E+01  0.100000000000E+01  0.500000000000E+00
  0.000000000000E+00 -0.500000000000E+00 -0.100000000000E+01 -0.150000000000E+01 -0.200000000000E+01 -0.250000000000E+01  0.150000000000E+01
  0.100000000000E+01  0.500000000000E+00  0.000000000000E+00 -0.500000000000E+00 -0.100000000000E+01 -0.150000000000E+01 -0.200000000000E+01
 -0.250000000000E+01  0.100000000000E+01  0.500000000000E+00  0.000000000000E+00 -0.500000000000E+00 -0.100000000000E+01 -0.150000000000E+01
 -0.200000000000E+01 -0.250000000000E+01  0.500000000000E+00  0.000000000000E+00 -0.500000000000E+00 -0.100000000000E+01 -0.150000000000E+01
 -0.200000000000E+01 -0.250000000000E+01  0.000000000000E+00 -0.500000000000E+00 -0.100000000000E+01 -0.150000000000E+01 -0.200000000000E+01
 -0.250000000000E+01 -0.500000000000E+00 -0.100000000000E+01 -0.150000000000E+01 -0.200000000000E+01 -0.250000000000E+01 -0.100000000000E+01
 -0.150000000000E+01 -0.200000000000E+01 -0.250000000000E+01 -0.150000000000E+01 -0.200000000000E+01 -0.250000000000E+01 -0.200000000000E+01
 -0.250000000000E+01 -0.250000000000E+01
  0.000000000000E+00  0.500000000000E+00  0.000000000000E+00  0.100000000000E+01  0.500000000000E+00  0.000000000000E+00  0.150000000000E+01
  0.100000000000E+01  0.500000000000E+00  0.000000000000E+00  0.200000000000E+01  0.150000000000E+01  0.100000000000E+01  0.500000000000E+00
  0.000000000000E+00  0.250000000000E+01  0.200000000000E+01  0.150000000000E+01  0.100000000000E+01  0.500000000000E+00  0.000000000000E+00
  0.300000000000E+01  0.250000000000E+01  0.200000000000E+01  0.150000000000E+01  0.100000000000E+01  0.500000000000E+00  0.000000000000E+00
  0.350000000000E+01  0.300000000000E+01  0.250000000000E+01  0.200000000000E+01  0.150000000000E+01  0.100000000000E+01  0.500000000000E+00
  0.000000000000E+00  0.400000000000E+01  0.350000000000E+01  0.300000000000E+01  0.250000000000E+01  0.200000000000E+01  0.150000000000E+01
  0.100000000000E+01  0.500000000000E+00  0.000000000000E+00  0.450000000000E+01  0.400000000000E+01  0.350000000000E+01  0.300000000000E+01
  0.250000000000E+01  0.200000000000E+01  0.150000000000E+01  0.100000000000E+01  0.500000000000E+00  0.000000000000E+00  0.500000000000E+01
  0.450000000000E+01  0.400000000000E+01  0.350000000000E+01  0.300000000000E+01  0.250000000000E+01  0.200000000000E+01  0.150000000000E+01
  0.100000000000E+01  0.500000000000E+00  0.000000000000E+00  0.500000000000E+01  0.450000000000E+01  0.400000000000E+01  0.350000000000E+01
  0.300000000000E+01  0.250000000000E+01  0.200000000000E+01  0.150000000000E+01  0.100000000000E+01  0.500000000000E+00  0.500000000000E+01
  0.450000000000E+01  0.400000000000E+01  0.350000000000E+01  0.300000000000E+01  0.250000000000E+01  0.200000000000E+01  0.150000000000E+01
  0.100000000000E+01  0.500000000000E+01  0.450000000000E+01  0.400000000000E+01  0.350000000000E+01  0.300000000000E+01  0.250000000000E+01
  0.200000000000E+01  0.150000000000E+01  0.500000000000E+01  0.450000000000E+01  0.400000000000E+01  0.350000000000E+01  0.300000000000E+01
  0.250000000000E+01  0.200000000000E+01  0.500000000000E+01  0.450000000000E+01  0.400000000000E+01  0.350000000000E+01  0.300000000000E+01
  0.250000000000E+01  0.500000000000E+01  0.450000000000E+01  0.400000000000E+01  0.350000000000E+01  0.300000000000E+01  0.500000000000E+01
  0.450000000000E+01  0.400000000000E+01  0.350000000000E+01  0.500000000000E+01  0.450000000000E+01  0.400000000000E+01  0.500000000000E+01
  0.450000000000E+01  0.500000000000E+01
  0.000000000000E+00  0.531072553149E+00  0.000000000000E+00  0.470416162098E+00  0.524251588705E+00  0.000000000000E+00  0.476603000148E+00
  0.470294912218E+00  0.524019959372E+00  0.000000000000E+00  0.489886033325E+00  0.476939722569E+00  0.470158762834E+00  0.524205390564E+00
  0.000000000000E+00  0.495353612356E+00  0.490000246697E+00  0.476881675212E+00  0.470240893682E+00  0.524231064363E+00  0.000000000000E+00
  0.498057607182E+00  0.495389368302E+00  0.489974003431E+00  0.476955627789E+00  0.470249189143E+00  0.524244644762E+00  0.000000000000E+00
  0.499053948469E+00  0.498070598735E+00  0.495377048974E+00  0.490006711417E+00  0.476960325257E+00  0.470259648311E+00  0.524231055999E+00
  0.000000000000E+00  0.499598853315E+00  0.499059485168E+00  0.498064337213E+00  0.495392317018E+00  0.490005848270E+00  0.476969754431E+00
  0.470249187819E+00  0.524205367288E+00  0.000000000000E+00  0.499814616584E+00  0.499601757585E+00  0.499055990337E+00  0.498071398325E+00
  0.495390706232E+00  0.490011277142E+00  0.476960350520E+00  0.470240889186E+00  0.524019910623E+00  0.000000000000E+00  0.499907395111E+00
  0.499816097339E+00  0.499599667380E+00  0.499059490274E+00  0.498069963821E+00  0.495394242858E+00  0.490005861458E+00  0.476955680365E+00
  0.470158746295E+00  0.524251464272E+00  0.000000000000E+00  0.499908054918E+00  0.499814968119E+00  0.499601592171E+00  0.499058282350E+00
  0.498072013574E+00  0.495390713671E+00  0.490006738477E+00  0.476881755396E+00  0.470294880312E+00  0.531072364238E+00  0.499907549531E+00
  0.499815958122E+00  0.499600709349E+00  0.499059617260E+00  0.498069967907E+00  0.495392331804E+00  0.489974043866E+00  0.476939828832E+00
  0.470416121474E+00  0.499907998068E+00  0.499815441326E+00  0.499601578820E+00  0.499058284884E+00  0.498071406361E+00  0.495377070420E+00
  0.490000301490E+00  0.476603132555E+00  0.499907764567E+00  0.499815918175E+00  0.499600710979E+00  0.499059495169E+00  0.498064348725E+00
  0.495389394762E+00  0.489886099977E+00  0.499907984842E+00  0.499815442380E+00  0.499601595298E+00  0.499055997259E+00  0.498070612515E+00
  0.495353643149E+00  0.499907765216E+00  0.499815960134E+00  0.499599671765E+00  0.499059493267E+00  0.498057622970E+00  0.499907999303E+00
  0.499814970930E+00  0.499601762690E+00  0.499053957649E+00  0.499907551256E+00  0.499816100608E+00  0.499598859021E+00  0.499908056922E+00
  0.499814620187E+00  0.499907397316E+00
  0.999980624329E+00  0.100959953566E+01  0.999980559199E+00  0.103108501963E+01  0.100902127495E+01  0.999980507008E+00  0.101143945367E+01
  0.103087724937E+01  0.100905306317E+01  0.999980477444E+00  0.100396174721E+01  0.101134211168E+01  0.103089736007E+01  0.100897309532E+01
  0.999980484423E+00  0.100163237908E+01  0.100393526499E+01  0.101134486192E+01  0.103085757138E+01  0.100896296995E+01  0.999980546794E+00
  0.100060734342E+01  0.100162425859E+01  0.100393950776E+01  0.101132521965E+01  0.103085330717E+01  0.100895928996E+01  0.999980687804E+00
  0.100027377422E+01  0.100060402036E+01  0.100162678446E+01  0.100393168699E+01  0.101132347951E+01  0.103085019186E+01  0.100896299209E+01
  0.999980931553E+00  0.100010465872E+01  0.100027214467E+01  0.100060586959E+01  0.100162335680E+01  0.100393172863E+01  0.101132154334E+01
  0.103085327712E+01  0.100897314798E+01  0.999981294547E+00  0.100004314096E+01  0.100010366493E+01  0.100027327842E+01  0.100060410337E+01
  0.100162373104E+01  0.100393054148E+01  0.101132346346E+01  0.103085750721E+01  0.100905316105E+01  0.999981772736E+00  0.100001762599E+01
  0.100004255227E+01  0.100010442371E+01  0.100027237442E+01  0.100060463233E+01  0.100162301276E+01  0.100393172297E+01  0.101132518600E+01
  0.103089725705E+01  0.100902145406E+01  0.999982330801E+00  0.100001733832E+01  0.100004302440E+01  0.100010384465E+01  0.100027273954E+01
  0.100060408185E+01  0.100162372808E+01  0.100393167534E+01  0.101134481004E+01  0.103087709103E+01  0.100959979975E+01  0.100001757343E+01
  0.100004265872E+01  0.100010414494E+01  0.100027243554E+01  0.100060463084E+01  0.100162335085E+01  0.100393949057E+01  0.101134203660E+01
  0.103108480818E+01  0.100001739075E+01  0.100004288149E+01  0.100010390494E+01  0.100027273863E+01  0.100060410041E+01  0.100162677593E+01
  0.100393524084E+01  0.101143935889E+01  0.100001750890E+01  0.100004270055E+01  0.100010414436E+01  0.100027237265E+01  0.100060586541E+01
  0.100162424762E+01  0.100396171827E+01  0.100001741244E+01  0.100004288111E+01  0.100010384354E+01  0.100027327595E+01  0.100060401523E+01
  0.100163236636E+01  0.100001750868E+01  0.100004265800E+01  0.100010442216E+01  0.100027214174E+01  0.100060733754E+01  0.100001739034E+01
  0.100004302340E+01  0.100010366311E+01  0.100027377091E+01  0.100001757285E+01  0.100004255111E+01  0.100010465670E+01  0.100001733764E+01
  0.100004313968E+01  0.100001762525E+01
  0.143408881699E-01  0.179363794855E+00  0.145468700115E-01  0.171162880154E-01  0.182808203108E+00  0.146388668362E-01 -0.169887513676E-01
  0.167724738612E-01  0.183329969309E+00  0.146683502939E-01 -0.141559707706E-01 -0.170339276115E-01  0.166308332623E-01  0.184097358991E+00
  0.146913743394E-01 -0.759100336719E-02 -0.140508838598E-01 -0.172728961386E-01  0.168242639486E-01  0.184644542732E+00  0.146927937975E-01
 -0.428607764345E-02 -0.745035427357E-02 -0.142485739290E-01 -0.172096604904E-01  0.168562075355E-01  0.184827008549E+00  0.146234030959E-01
 -0.362700911385E-02 -0.414177156279E-02 -0.761366532910E-02 -0.141305133046E-01 -0.173447187803E-01  0.170597026763E-01  0.183980985309E+00
  0.144540376175E-01 -0.407321382551E-02 -0.349570247558E-02 -0.428291725074E-02 -0.746204237195E-02 -0.142868210360E-01 -0.171597060941E-01
  0.169306359536E-01  0.181836145311E+00  0.141361864600E-01 -0.365820548145E-02 -0.396192964332E-02 -0.362220075869E-02 -0.413239561696E-02
 -0.761626872726E-02 -0.141087990319E-01 -0.171920638584E-01  0.167306122903E-01  0.177690625431E+00  0.138343463680E-01 -0.149011081074E-01
 -0.357004430971E-02 -0.407081180904E-02 -0.348817793892E-02 -0.427640332891E-02 -0.745342221817E-02 -0.141856034109E-01 -0.169432485464E-01
  0.158793810398E-01  0.172810238430E+00  0.138211763109E-01 -0.150744807137E-01 -0.365680111042E-02 -0.395814306616E-02 -0.361761817558E-02
 -0.413377352266E-02 -0.758249771727E-02 -0.139100484695E-01 -0.170476193931E-01  0.150351791165E-01  0.173457779156E+00 -0.149005388780E-01
 -0.356706780150E-02 -0.406761153203E-02 -0.349158359324E-02 -0.428088116607E-02 -0.737415586350E-02 -0.139320772845E-01 -0.169526104847E-01
  0.139050090392E-01 -0.150700929065E-01 -0.365304970283E-02 -0.395824761158E-02 -0.362817056794E-02 -0.412996291238E-02 -0.746144353234E-02
 -0.136800352414E-01 -0.173615395633E-01 -0.148966356764E-01 -0.356340616898E-02 -0.407121415014E-02 -0.350515477516E-02 -0.426107977917E-02
 -0.724599029623E-02 -0.138399330775E-01 -0.150607686726E-01 -0.365065338076E-02 -0.396447898932E-02 -0.363784231126E-02 -0.409981229523E-02
 -0.738438375766E-02 -0.148953701277E-01 -0.356186680773E-02 -0.407661122892E-02 -0.350849219671E-02 -0.423677386849E-02 -0.150636723117E-01
 -0.364912294041E-02 -0.396759225089E-02 -0.363595795587E-02 -0.148979170892E-01 -0.356061313668E-02 -0.407677527684E-02 -0.150639251648E-01
 -0.364806455407E-02 -0.148956064891E-01
  0.147057703710E-03  0.269311231835E-01  0.299986219922E-03  0.109641827534E-02  0.278078458731E-01  0.299684351796E-03 -0.417204066384E-02
  0.113336203764E-02  0.278755073082E-01  0.301878132598E-03 -0.342340330031E-02 -0.412521227515E-02  0.109720022213E-02  0.280652111191E-01
  0.302287778265E-03 -0.229427287018E-02 -0.338420853311E-02 -0.417747922540E-02  0.114642396662E-02  0.281535443662E-01  0.293791693857E-03
 -0.149847458279E-02 -0.225788411223E-02 -0.343149139143E-02 -0.414669620509E-02  0.113893294095E-02  0.282002123483E-01  0.300583602926E-03
 -0.125060755361E-02 -0.146652420042E-02 -0.229495330248E-02 -0.339871557767E-02 -0.417966544389E-02  0.118836660040E-02  0.280588550550E-01
  0.298152734826E-03 -0.116194838085E-02 -0.122566823589E-02 -0.149653901100E-02 -0.226010336458E-02 -0.343611238947E-02 -0.413038299311E-02
  0.116334872376E-02  0.277317579304E-01  0.291331607435E-03 -0.939070978943E-03 -0.114382915254E-02 -0.124885462910E-02 -0.146475154493E-02
 -0.229445824462E-02 -0.339172787958E-02 -0.414476524198E-02  0.115828709635E-02  0.270745344537E-01  0.283175445429E-03 -0.319283028471E-02
 -0.927309694940E-03 -0.116092307791E-02 -0.122393024599E-02 -0.149487898355E-02 -0.225661455066E-02 -0.341555158222E-02 -0.408166909389E-02
  0.102696965111E-02  0.262803030851E-01  0.137393823134E-03 -0.323472345034E-02 -0.938416505184E-03 -0.114288402976E-02 -0.124767377840E-02
 -0.146412612219E-02 -0.228654332938E-02 -0.335355204319E-02 -0.409875526712E-02  0.905239345821E-03  0.268384794387E-01 -0.319240853806E-02
 -0.926578998765E-03 -0.116011846543E-02 -0.122398561438E-02 -0.149510498594E-02 -0.224013904373E-02 -0.336160680591E-02 -0.406701798199E-02
  0.676317159779E-03 -0.323377175553E-02 -0.937600789910E-03 -0.114260770475E-02 -0.124923633406E-02 -0.146308480653E-02 -0.225935280356E-02
 -0.330413079658E-02 -0.408441038870E-02 -0.319164125810E-02 -0.925724430764E-03 -0.116046382761E-02 -0.122626611822E-02 -0.149018061459E-02
 -0.221138935481E-02 -0.332555963804E-02 -0.323187682729E-02 -0.936900823145E-03 -0.114352192452E-02 -0.125070152233E-02 -0.145645077176E-02
 -0.223823780592E-02 -0.319119082011E-02 -0.925139775597E-03 -0.116138326327E-02 -0.122690941233E-02 -0.148491165315E-02 -0.323210357589E-02
 -0.936554706807E-03 -0.114443388358E-02 -0.125073805963E-02 -0.319162688990E-02 -0.925160416759E-03 -0.116192427293E-02 -0.323238931934E-02
 -0.936752349144E-03 -0.319152976201E-02
 -0.524959109476E-05  0.225620809703E-04 -0.840474315311E-05 -0.802459238250E-06  0.223899070236E-03 -0.306191495040E-05  0.272930421960E-05
 -0.197943166472E-04  0.281136172222E-04 -0.150337575235E-05  0.277432814768E-06  0.276654900051E-04 -0.335235108937E-04 -0.251663869224E-05
 -0.141094814239E-05  0.271145245900E-07  0.483149864511E-05  0.211748334053E-05 -0.234339609260E-04 -0.372747131051E-04  0.121927236208E-05
 -0.840553931527E-07  0.139662928206E-05 -0.228881632682E-05 -0.968840823271E-05 -0.912755748684E-05 -0.605210735591E-04  0.645090092917E-05
 -0.427843368169E-07 -0.271400191636E-06 -0.253599356257E-05 -0.852035939757E-05 -0.247323696476E-04  0.127718756651E-04 -0.749618770377E-04
  0.151610672074E-04  0.131929997637E-06 -0.146543205414E-05 -0.270989285073E-05 -0.881869069536E-05 -0.159735140070E-04 -0.395493537960E-04
  0.416553980512E-04 -0.580167407178E-04  0.211066369381E-04  0.274423882477E-06 -0.136050168795E-05 -0.372298665793E-05 -0.756955083761E-05
 -0.160418127818E-04 -0.216918336685E-04 -0.523084303930E-04  0.717717453819E-04  0.225836597900E-05  0.126457160454E-04  0.144636904292E-06
 -0.210250525553E-05 -0.298505444246E-05 -0.784290683052E-05 -0.128340047741E-04 -0.220572296638E-04 -0.262184741788E-04 -0.584021756533E-04
  0.812805032186E-04  0.285969583042E-03 -0.614520792138E-06 -0.236731952054E-05 -0.405566468446E-05 -0.594549737020E-05 -0.115915709352E-04
 -0.170231301132E-04 -0.267196730083E-04 -0.297317078187E-04 -0.538766349356E-04  0.620408956429E-04  0.268752430143E-04 -0.436130381810E-05
 -0.667069190949E-05 -0.846172893912E-05 -0.145824958840E-04 -0.200683912858E-04 -0.305056762902E-04 -0.295948153023E-04 -0.143567716908E-04
  0.346171949630E-05 -0.666543466126E-05 -0.856059628652E-05 -0.104896633704E-04 -0.163702082005E-04 -0.226944929644E-04 -0.295560417372E-04
 -0.182562880841E-04  0.294873571168E-05 -0.808054600595E-05 -0.990852870335E-05 -0.115625921549E-04 -0.178518269353E-04 -0.216708940487E-04
 -0.200175751752E-04  0.285663944700E-06 -0.884962694766E-05 -0.103357141079E-04 -0.124140354468E-04 -0.164587477733E-04 -0.147597801151E-04
 -0.871308387152E-07 -0.870598091931E-05 -0.104965693746E-04 -0.112491368896E-04 -0.108284007472E-04 -0.120476408075E-06 -0.849323672517E-05
 -0.914417723787E-05 -0.723956651944E-05 -0.109448843809E-06 -0.714713935150E-05 -0.566638987886E-05 -0.215552951178E-06 -0.435855322071E-05
 -0.321560728147E-06 -0.154044039864E-06
 -0.407024267674E-03  0.419781310405E-02 -0.840381139399E-03  0.525086886265E-02  0.459383844711E-02 -0.844013837063E-03  0.205672313868E-02
  0.557454528132E-02  0.457604308863E-02 -0.847709518262E-03  0.317340620283E-02  0.213003420046E-02  0.558472437626E-02  0.460051471192E-02
 -0.849526855025E-03  0.270071711303E-02  0.320543339564E-02  0.213801869145E-02  0.562285998678E-02  0.460828859536E-02 -0.849568980252E-03
  0.262213051971E-02  0.271340862798E-02  0.321441891269E-02  0.214969183816E-02  0.562417430655E-02  0.460965949704E-02 -0.845960523900E-03
  0.233307580049E-02  0.263280714367E-02  0.271623834229E-02  0.322380626326E-02  0.214545590165E-02  0.562249993794E-02  0.458912956719E-02
 -0.836428009443E-03  0.193791321954E-02  0.234741252642E-02  0.262944092189E-02  0.272454790510E-02  0.321954691920E-02  0.214198389221E-02
  0.560066106544E-02  0.456070431414E-02 -0.821758697318E-03  0.144599535110E-02  0.195482800733E-02  0.233612586253E-02  0.263925000615E-02
  0.271733387421E-02  0.321284546353E-02  0.214008791605E-02  0.556650344281E-02  0.449623045694E-02 -0.803500076232E-03  0.746691743373E-03
  0.146372442228E-02  0.193881139485E-02  0.235041081517E-02  0.262854897567E-02  0.271529211027E-02  0.320808255559E-02  0.213448759220E-02
  0.550912640013E-02  0.437542068018E-02 -0.411841217929E-03  0.756550794455E-03  0.144596381540E-02  0.195563221664E-02  0.233450576588E-02
  0.263132598271E-02  0.271048880348E-02  0.319634593281E-02  0.211676248501E-02  0.539139740538E-02  0.468786816980E-02  0.746442479213E-03
  0.146342463434E-02  0.193708360606E-02  0.234439449507E-02  0.262287377044E-02  0.270719163103E-02  0.317144920775E-02  0.207362206811E-02
  0.565530319845E-02  0.756315448958E-03  0.144460214151E-02  0.195130340706E-02  0.233050946332E-02  0.262537960173E-02  0.268618161366E-02
  0.313232382417E-02  0.208835010579E-02  0.746049696378E-03  0.146059778130E-02  0.193435644105E-02  0.234078107684E-02  0.260539365008E-02
  0.266337555706E-02  0.311630446437E-02  0.755542248072E-03  0.144290478612E-02  0.194914309749E-02  0.231984183888E-02  0.259538705824E-02
  0.264019946137E-02  0.745881776924E-03  0.145934285093E-02  0.192837812761E-02  0.232257069309E-02  0.257501903659E-02  0.755799533538E-03
  0.143995567080E-02  0.193904852790E-02  0.230212503682E-02  0.745851046872E-03  0.145447794508E-02  0.191888281383E-02  0.755368786764E-03
  0.143549103881E-02  0.745289735185E-03
 -0.882410782789E-03 -0.737226971630E-01 -0.162449438976E-02 -0.649949752675E-02 -0.753390770498E-01 -0.163045800793E-02  0.640194337758E-02
 -0.638773219121E-02 -0.755368848387E-01 -0.163704714671E-02  0.570423121407E-02  0.639499416876E-02 -0.632562546320E-02 -0.758781320486E-01
 -0.164260551122E-02  0.292522978510E-02  0.565603729771E-02  0.649429341738E-02 -0.640418032330E-02 -0.761051663489E-01 -0.164514396514E-02
  0.161046819576E-02  0.286523491857E-02  0.573877542030E-02  0.646468037377E-02 -0.641698812292E-02 -0.761814489453E-01 -0.163848537860E-02
  0.133849341050E-02  0.155022057439E-02  0.293292310380E-02  0.568927037191E-02  0.651933265359E-02 -0.650010616819E-02 -0.758341296727E-01
 -0.161913580553E-02  0.153786696203E-02  0.128408361140E-02  0.160873643209E-02  0.286990114240E-02  0.575385514636E-02  0.644364451642E-02
 -0.645102202823E-02 -0.749566635470E-01 -0.158032499579E-02  0.134125741810E-02  0.149120782264E-02  0.133629445483E-02  0.154622039038E-02
  0.293373823886E-02  0.568007420503E-02  0.645834368562E-02 -0.637470783753E-02 -0.732756533773E-01 -0.153878889142E-02  0.608535235013E-02
  0.130371395938E-02  0.153681041055E-02  0.128081016559E-02  0.160599055213E-02  0.286658270823E-02  0.571172033194E-02  0.635895314314E-02
 -0.604007501036E-02 -0.712565568589E-01 -0.691732957624E-03  0.615754348138E-02  0.134062712462E-02  0.148958595458E-02  0.133440339910E-02
  0.154700000904E-02  0.292011349469E-02  0.559763765407E-02  0.640225534039E-02 -0.570204616667E-02 -0.717664836482E-01  0.608514219412E-02
  0.130240521657E-02  0.153555334666E-02  0.128242595533E-02  0.160801117490E-02  0.283419531629E-02  0.560558110818E-02  0.637016651614E-02
 -0.526709949330E-02  0.615571469744E-02  0.133909988199E-02  0.148980244107E-02  0.133897688660E-02  0.154556949800E-02  0.287010645417E-02
  0.550217756321E-02  0.650715815181E-02  0.608356824465E-02  0.130100346531E-02  0.153714815842E-02  0.128826795341E-02  0.160000925034E-02
  0.278130927510E-02  0.556329874674E-02  0.615190909172E-02  0.133818347981E-02  0.149245011766E-02  0.134337790866E-02  0.153341877445E-02
  0.283774741916E-02  0.608304528876E-02  0.130041260869E-02  0.153957894000E-02  0.129017116525E-02  0.159060207007E-02  0.615304851146E-02
  0.133770960916E-02  0.149404823804E-02  0.134327365238E-02  0.608410916091E-02  0.130015867393E-02  0.154003535491E-02  0.615322027104E-02
  0.133755803499E-02  0.608324641761E-02
        67        57        46        56
        57        47        37        46
        47        38        29        37
        38        30        22        29
        30        23        16        22
        23        17        11        16
        17        12         7        11
        12         8         4         7
         8         5         2         4
         5         3         1         2
        77        68        57        67
        68        58        47        57
        58        48        38        47
        48        39        30        38
        39        31        23        30
        31        24        17        23
        24        18        12        17
        18        13         8        12
        13         9         5         8
         9         6         3         5
        86        78        68        77
        78        69        58        68
        69        59        48        58
        59        49        39        48
        49        40        31        39
        40        32        24        31
        32        25        18        24
        25        19        13        18
        19        14         9        13
        14        10         6         9
        94        87        78        86
        87        79        69        78
        79        70        59        69
        70        60        49        59
        60        50        40        49
        50        41        32        40
        41        33        25        32
        33        26        19        25
        26        20        14        19
        20        15        10        14
       101        95        87        94
        95        88        79        87
        88        80        70        79
        80        71        60        70
        71        61        50        60
        61        51        41        50
        51        42        33        41
        42        34        26        33
        34        27        20        26
        27        21        15        20
       107       102        95       101
       102        96        88        95
        96        89        80        88
        89        81        71        80
        81        72        61        71
        72        62        51        61
        62        52        42        51
        52        43        34        42
        43        35        27        34
        35        28        21        27
       112       108       102       107
       108       103        96       102
       103        97        89        96
        97        90        81        89
        90        82        72        81
        82        73        62        72
        73        63        52        62
        63        53        43        52
        53        44        35        43
        44        36        28        35
       116       113       108       112
       113       109       103       108
       109       104        97       103
       104        98        90        97
        98        91        82        90
        91        83        73        82
        83        74        63        73
        74        64        53        63
        64        54        44        53
        54        45        36        44
       119       117       113       116
       117       114       109       113
       114       110       104       109
       110       105        98       104
       105        99        91        98
        99        92        83        91
        92        84        74        83
        84        75        64        74
        75        65        54        64
        65        55        45        54
       121       120       117       119
       120       118       114       117
       118       115       110       114
       115       111       105       110
       111       106        99       105
       106       100        92        99
       100        93        84        92
        93        85        75        84
        85        76        65        75
        76        66        55        65
zone t="boundary 2 bc-2", solutiontime= 0.1000000E+02, strandid=1002, i=121, j=100, f=feblock
  0.000000000000E+00  0.500000000000E+00  0.000000000000E+00  0.100000000000E+01  0.500000000000E+00  0.000000000000E+00  0.150000000000E+01
  0.100000000000E+01  0.500000000000E+00  0.000000000000E+00  0.200000000000E+01  0.150000000000E+01  0.100000000000E+01  0.500000000000E+00
  0.000000000000E+00  0.250000000000E+01  0.200000000000E+01  0.150000000000E+01  0.100000000000E+01  0.500000000000E+00  0.000000000000E+00
  0.300000000000E+01  0.250000000000E+01  0.200000000000E+01  0.150000000000E+01  0.100000000000E+01  0.500000000000E+00  0.000000000000E+00
  0.350000000000E+01  0.300000000000E+01  0.250000000000E+01  0.200000000000E+01  0.150000000000E+01  0.100000000000E+01  0.500000000000E+00
  0.000000000000E+00  0.400000000000E+01  0.350000000000E+01  0.300000000000E+01  0.250000000000E+01  0.200000000000E+01  0.150000000000E+01
  0.100000000000E+01  0.500000000000E+00  0.000000000000E+00  0.450000000000E+01  0.400000000000E+01  0.350000000000E+01  0.300000000000E+01
  0.250000000000E+01  0.200000000000E+01  0.150000000000E+01  0.100000000000E+01  0.500000000000E+00  0.000000000000E+00  0.500000000000E+01