title="tecplot geometry and solution file"
variables = x y z mach temperature lambda1 lambda2 lambda3 lambda4 lambda5
zone t="boundary 1 bc-1", solutiontime= 0.1000000E+03, strandid=1001, i=121, j=100, f=feblock
  0.000000000000E+00  0.000000000000E+00  0.000000000000E+00  0.000000000000E+00  0.000000000000E+00  0.000000000000E+00  0.000000000000E+00
  0.000000000000E+00  0.000000000000E+00  0.000000000000E+00  0.000000000000E+00  0.000000000000E+00  0.000000000000E+00  0.000000000000E+00
  0.000000000000E+00  0.000000000000E+00  0.000000000000E+00  0.000000000000E+00  0.000000000000E+00  0.000000000000E+00  0.000000000000E+00
  0.000000000000E+00  0.000000000000E+00  0.000000000000E+00  0.000000000000E+00  0.000000000000E+00  0.000000000000E+00  0.000000000000E+00
  0.000000000000E+00  0.000000000000E+00  0.000000000000E+00  0.000000000000E+00  0.000000000000E+00  0.000000000000E+00  0.000000000000E+00
  0.000000000000E+00  0.000000000000E+00  0.000000000000E+00  0.000000000000E+00  0.000000000000E+00  0.000000000000E+00  0.000000000000E+00
  0.000000000000E+00  0.000000000000E+00  0.000000000000E+00  0.000000000000E+00  0.000000000000E+00  0.000000000000E+00  0.000000000000E+00
  0.000000000000E+00  0.000000000000E+00  0.000000000000E+00  0.000000000000E+00  0.000000000000E+00  0.000000000000E+00  0.000000000000E+00
  0.000000000000E+00  0.000000000000E+00  0.000000000000E+00  0.000000000000E+00  0.000000000000E+00  0.000000000000E+00  0.000000000000E+00
  0.000000000000E+00  0.000000000000E+00  0.000000000000E+00  0.000000000000E+00  0.000000000000E+00  0.000000000000E+00  0.000000000000E+00
  0.000000000000E+00  0.000000000000E+00  0.000000000000E+00  0.000000000000E+00  0.000000000000E+00  0.000000000000E+00  0.000000000000E+00
  0.000000000000E+00  0.000000000000E+00  0.000000000000E+00  0.000000000000E+00  0.000000000000E+00  0.000000000000E+00  0.000000000000E+00
  0.000000000000E+00  0.000000000000E+00  0.000000000000E+00  0.000000000000E+00  0.000000000000E+00  0.000000000000E+00  0.000000000000E+00
  0.000000000000E+00  0.000000000000E+00  0.000000000000E+00  0.000000000000E+00  0.000000000000E+00  0.000000000000E+00  0.000000000000E+00
  0.000000000000E+00  0.000000000000E+00  0.000000000000E+00  0.000000000000E+00  0.000000000000E+00  0.000000000000E+00  0.000000000000E+00
  0.000000000000E+00  0.000000000000E+00  0.000000000000E+00  0.000000000000E+00  0.000000000000E+00  0.000000000000E+00  0.000000000000E+00
  0.000000000000E+00  0.000000000000E+00  0.000000000000E+00  0.000000000000E+00  0.000000000000E+00  0.000000000000E+00  0.000000000000E+00
  0.000000000000E+00  0.000000000000E+00
  0.250000000000E+01  0.250000000000E+01  0.200000000000E+01  0.250000000000E+01  0.200000000000E+01  0.150000000000E+01  0.250000000000E+01
  0.200000000000E+01  0.150000000000E+01  0.100000000000E+01  0.250000000000E+01  0.200000000000E+01  0.150000000000E+01  0.100000000000E+01
  0.500000000000E+00  0.250000000000E+01  0.200000000000E+01  0.150000000000E+01  0.100000000000E+01  0.500000000000E+00  0.000000000000E+00
  0.250000000000E+01  0.200000000000E+01  0.150000000000E+01  0.100000000000E+01  0.500000000000E+00  0.000000000000E+00 -0.500000000000E+00
  0.250000000000E+01  0.200000000000E+01  0.150000000000E+01  0.100000000000E+01  0.500000000000E+00  0.000000000000E+00 -0.500000000000E+00
 -0.100000000000E+01  0.250000000000E+01  0.200000000000E+01  0.150000000000E+01  0.100000000000E+01  0.500000000000E+00  0.000000000000E+00
 -0.500000000000E+00 -0.100000000000E+01 -0.150000000000E+01  0.250000000000E+01  0.200000000000E+01  0.150000000000E+01  0.100000000000E+01
  0.500000000000E+00  0.000000000000E+00 -0.500000000000E+00 -0.100000000000E+01 -0.150000000000E+01 -0.200000000000E+01  0.250000000000E+01
  0.200000000000E+01  0.150000000000E+01  0.100000000000E+01  0.500000000000E+00  0.000000000000E+00 -0.500000000000E+00 -0.100000000000E+01
 -0.150000000000E+01 -0.200000000000E+01 -0.250000000000E+01  0.200000000000E+01  0.150000000000E+01  0.100000000000E+01  0.500000000000E+00
  0.000000000000E+00 -0.500000000000E+00 -0.100000000000E+01 -0.150000000000E+01 -0.200000000000E+01 -0.250000000000E+01  0.150000000000E+01
  0.100000000000E+01  0.500000000000E+00  0.000000000000E+00 -0.500000000000E+00 -0.100000000000E+01 -0.150000000000E+01 -0.200000000000E+01
 -0.250000000000E+01  0.100000000000E+01  0.500000000000E+00  0.000000000000E+00 -0.500000000000E+00 -0.100000000000E+01 -0.150000000000E+01
 -0.200000000000E+01 -0.250000000000E+01  0.500000000000E+00  0.000000000000E+00 -0.500000000000E+00 -0.100000000000E+01 -0.150000000000E+01
 -0.200000000000E+01 -0.250000000000E+01  0.000000000000E+00 -0.500000000000E+00 -0.100000000000E+01 -0.150000000000E+01 -0.200000000000E+01
 -0.250000000000E+01 -0.500000000000E+00 -0.100000000000E+01 -0.150000000000E+01 -0.200000000000E+01 -0.250000000000E+01 -0.100000000000E+01
 -0.150000000000E+01 -0.200000000000E+01 -0.250000000000E+01 -0.150000000000E+01 -0.200000000000E+01 -0.250000000000E+01 -0.200000000000E+01
 -0.250000000000E+01 -0.250000000000E+01
  0.000000000000E+00  0.500000000000E+00  0.000000000000E+00  0.100000000000E+01  0.500000000000E+00  0.000000000000E+00  0.150000000000E+01
  0.100000000000E+01  0.500000000000E+00  0.000000000000E+00  0.200000000000E+01  0.150000000000E+01  0.100000000000E+01  0.500000000000E+00
  0.000000000000E+00  0.250000000000E+01  0.200000000000E+01  0.150000000000E+01  0.100000000000E+01  0.500000000000E+00  0.000000000000E+00
  0.300000000000E+01  0.250000000000E+01  0.200000000000E+01  0.150000000000E+01  0.100000000000E+01  0.500000000000E+00  0.000000000000E+00
  0.350000000000E+01  0.300000000000E+01  0.250000000000E+01  0.200000000000E+01  0.150000000000E+01  0.100000000000E+01  0.500000000000E+00
  0.000000000000E+00  0.400000000000E+01  0.350000000000E+01  0.300000000000E+01  0.250000000000E+01  0.200000000000E+01  0.150000000000E+01
  0.100000000000E+01  0.500000000000E+00  0.000000000000E+00  0.450000000000E+01  0.400000000000E+01  0.350000000000E+01  0.300000000000E+01
  0.250000000000E+01  0.200000000000E+01  0.150000000000E+01  0.100000000000E+01  0.500000000000E+00  0.000000000000E+00  0.500000000000E+01
  0.450000000000E+01  0.400000000000E+01  0.350000000000E+01  0.300000000000E+01  0.250000000000E+01  0.200000000000E+01  0.150000000000E+01
  0.100000000000E+01  0.500000000000E+00  0.000000000000E+00  0.500000000000E+01  0.450000000000E+01  0.400000000000E+01  0.350000000000E+01
  0.300000000000E+01  0.250000000000E+01  0.200000000000E+01  0.150000000000E+01  0.100000000000E+01  0.500000000000E+00  0.500000000000E+01
  0.450000000000E+01  0.400000000000E+01  0.350000000000E+01  0.300000000000E+01  0.250000000000E+01  0.200000000000E+01  0.150000000000E+01
  0.100000000000E+01  0.500000000000E+01  0.450000000000E+01  0.400000000000E+01  0.350000000000E+01  0.300000000000E+01  0.250000000000E+01
  0.200000000000E+01  0.150000000000E+01  0.500000000000E+01  0.450000000000E+01  0.400000000000E+01  0.350000000000E+01  0.300000000000E+01
  0.250000000000E+01  0.200000000000E+01  0.500000000000E+01  0.450000000000E+01  0.400000000000E+01  0.350000000000E+01  0.300000000000E+01
  0.250000000000E+01  0.500000000000E+01  0.450000000000E+01  0.400000000000E+01  0.350000000000E+01  0.300000000000E+01  0.500000000000E+01
  0.450000000000E+01  0.400000000000E+01  0.350000000000E+01  0.500000000000E+01  0.450000000000E+01  0.400000000000E+01  0.500000000000E+01
  0.450000000000E+01  0.500000000000E+01
  0.000000000000E+00  0.531072553149E+00  0.000000000000E+00  0.470416162098E+00  0.524251588705E+00  0.000000000000E+00  0.476603000148E+00
  0.470294912218E+00  0.524019959372E+00  0.000000000000E+00  0.489886033325E+00  0.476939722569E+00  0.470158762834E+00  0.524205390564E+00
  0.000000000000E+00  0.495353612356E+00  0.490000246697E+00  0.476881675212E+00  0.470240893682E+00  0.524231064363E+00  0.000000000000E+00
  0.498057607182E+00  0.495389368302E+00  0.489974003431E+00  0.476955627789E+00  0.470249189143E+00  0.524244644762E+00  0.000000000000E+00
  0.499053948469E+00  0.498070598735E+00  0.495377048974E+00  0.490006711417E+00  0.476960325257E+00  0.470259648311E+00  0.524231055999E+00
  0.000000000000E+00  0.499598853315E+00  0.499059485168E+00  0.498064337213E+00  0.495392317018E+00  0.490005848270E+00  0.476969754431E+00
  0.470249187819E+00  0.524205367288E+00  0.000000000000E+00  0.499814616584E+00  0.499601757585E+00  0.499055990337E+00  0.498071398325E+00
  0.495390706232E+00  0.490011277142E+00  0.476960350520E+00  0.470240889186E+00  0.524019910623E+00  0.000000000000E+00  0.499907395111E+00
  0.499816097339E+00  0.499599667380E+00  0.499059490274E+00  0.498069963821E+00  0.495394242858E+00  0.490005861458E+00  0.476955680365E+00
  0.470158746295E+00  0.524251464272E+00  0.000000000000E+00  0.499908054918E+00  0.499814968119E+00  0.499601592171E+00  0.499058282350E+00
  0.498072013574E+00  0.495390713671E+00  0.490006738477E+00  0.476881755396E+00  0.470294880312E+00  0.531072364238E+00  0.499907549531E+00
  0.499815958122E+00  0.499600709349E+00  0.499059617260E+00  0.498069967907E+00  0.495392331804E+00  0.489974043866E+00  0.476939828832E+00
  0.470416121474E+00  0.499907998068E+00  0.499815441326E+00  0.499601578820E+00  0.499058284884E+00  0.498071406361E+00  0.495377070420E+00
  0.490000301490E+00  0.476603132555E+00  0.499907764567E+00  0.499815918175E+00  0.499600710979E+00  0.499059495169E+00  0.498064348725E+00
  0.495389394762E+00  0.489886099977E+00  0.499907984842E+00  0.499815442380E+00  0.499601595298E+00  0.499055997259E+00  0.498070612515E+00
  0.495353643149E+00  0.499907765216E+00  0.499815960134E+00  0.499599671765E+00  0.499059493267E+00  0.498057622970E+00  0.499907999303E+00
  0.499814970930E+00  0.499601762690E+00  0.499053957649E+00  0.499907551256E+00  0.499816100608E+00  0.499598859021E+00  0.499908056922E+00
  0.499814620187E+00  0.499907397316E+00
  0.999980624329E+00  0.100959953566E+01  0.999980559199E+00  0.103108501963E+01  0.100902127495E+01  0.999980507008E+00  0.101143945367E+01
  0.103087724937E+01  0.100905306317E+01  0.999980477444E+00  0.100396174721E+01  0.101134211168E+01  0.103089736007E+01  0.100897309532E+01
  0.999980484423E+00  0.100163237908E+01  0.100393526499E+01  0.101134486192E+01  0.103085757138E+01  0.100896296995E+01  0.999980546794E+00
  0.100060734342E+01  0.100162425859E+01  0.100393950776E+01  0.101132521965E+01  0.103085330717E+01  0.100895928996E+01  0.999980687804E+00
  0.100027377422E+01  0.100060402036E+01  0.100162678446E+01  0.100393168699E+01  0.101132347951E+01  0.103085019186E+01  0.100896299209E+01
  0.999980931553E+00  0.100010465872E+01  0.100027214467E+01  0.100060586959E+01  0.100162335680E+01  0.100393172863E+01  0.101132154334E+01
  0.103085327712E+01  0.100897314798E+01  0.999981294547E+00  0.100004314096E+01  0.100010366493E+01  0.100027327842E+01  0.100060410337E+01
  0.100162373104E+01  0.100393054148E+01  0.101132346346E+01  0.103085750721E+01  0.100905316105E+01  0.999981772736E+00  0.100001762599E+01
  0.100004255227E+01  0.100010442371E+01  0.100027237442E+01  0.100060463233E+01  0.100162301276E+01  0.100393172297E+01  0.101132518600E+01
  0.103089725705E+01  0.100902145406E+01  0.999982330801E+00  0.100001733832E+01  0.100004302440E+01  0.100010384465E+01  0.100027273954E+01
  0.100060408185E+01  0.100162372808E+01  0.100393167534E+01  0.101134481004E+01  0.103087709103E+01  0.100959979975E+01  0.100001757343E+01
  0.100004265872E+01  0.100010414494E+01  0.100027243554E+01  0.100060463084E+01  0.100162335085E+01  0.100393949057E+01  0.101134203660E+01
  0.103108480818E+01  0.100001739075E+01  0.100004288149E+01  0.100010390494E+01  0.100027273863E+01  0.100060410041E+01  0.100162677593E+01
  0.100393524084E+01  0.101143935889E+01  0.100001750890E+01  0.100004270055E+01  0.100010414436E+01  0.100027237265E+01  0.100060586541E+01
  0.100162424762E+01  0.100396171827E+01  0.100001741244E+01  0.100004288111E+01  0.100010384354E+01  0.100027327595E+01  0.100060401523E+01
  0.100163236636E+01  0.100001750868E+01  0.100004265800E+01  0.100010442216E+01  0.100027214174E+01  0.100060733754E+01  0.100001739034E+01
  0.100004302340E+01  0.100010366311E+01  0.100027377091E+01  0.100001757285E+01  0.100004255111E+01  0.100010465670E+01  0.100001733764E+01
  0.100004313968E+01  0.100001762525E+01
  0.196548172306E-01  0.231015549234E+00  0.196107937149E-01 -0.321531531007E-01  0.230246516284E+00  0.197033512231E-01 -0.129282526906E-01
 -0.324142682494E-01  0.231355055713E+00  0.197739478861E-01 -0.698587383458E-02 -0.129189527389E-01 -0.325978056585E-01  0.232657283110E+00
  0.198230630288E-01 -0.665498094269E-02 -0.698687240276E-02 -0.129253328739E-01 -0.326964952953E-01  0.233534473202E+00  0.198276039459E-01
 -0.544705250334E-02 -0.665485906929E-02 -0.698762823898E-02 -0.129465360200E-01 -0.327903785173E-01  0.233768072706E+00  0.197516469692E-01
 -0.481122188475E-02 -0.544403969840E-02 -0.665538289310E-02 -0.698648813836E-02 -0.129518396562E-01 -0.328149792873E-01  0.232908397398E+00
  0.195337383587E-01 -0.405711467312E-02 -0.480792115932E-02 -0.544452498675E-02 -0.665449203296E-02 -0.698373507733E-02 -0.129361790419E-01
 -0.327265697901E-01  0.230319717936E+00  0.191077182416E-01 -0.348993316423E-02 -0.405421298888E-02 -0.480843856442E-02 -0.544310056979E-02
 -0.665053882805E-02 -0.697643864135E-02 -0.129001818424E-01 -0.324527987422E-01  0.225200694790E+00  0.185701401062E-01 -0.146090132987E-01
 -0.348681186295E-02 -0.405497571800E-02 -0.480702632897E-02 -0.543979010546E-02 -0.664383311330E-02 -0.696801676472E-02 -0.128349588437E-01
 -0.319275505266E-01  0.217909664196E+00  0.181681286141E-01 -0.145935728831E-01 -0.348802495351E-02 -0.405350689279E-02 -0.480417026680E-02
 -0.543554598401E-02 -0.663592164828E-02 -0.695636050570E-02 -0.127506531143E-01 -0.310702891357E-01  0.214362121837E+00 -0.146024820568E-01
 -0.348649293301E-02 -0.405155675816E-02 -0.480133059261E-02 -0.543070352071E-02 -0.662671265040E-02 -0.694156926318E-02 -0.126590485370E-01
 -0.307610499127E-01 -0.145980507703E-01 -0.348494957926E-02 -0.404964260373E-02 -0.479751195524E-02 -0.542645842618E-02 -0.661368332918E-02
 -0.693502261344E-02 -0.125861474304E-01 -0.145948695738E-01 -0.348369124239E-02 -0.404695194828E-02 -0.479476898811E-02 -0.541883230930E-02
 -0.661202443684E-02 -0.690879440900E-02 -0.145966336334E-01 -0.348134079207E-02 -0.404525524712E-02 -0.478927924724E-02 -0.542049686615E-02
 -0.659055047519E-02 -0.145900470179E-01 -0.348047686312E-02 -0.404152123660E-02 -0.479101570612E-02 -0.540665490266E-02 -0.145959392103E-01
 -0.347726802080E-02 -0.404303261632E-02 -0.478261322859E-02 -0.145830921008E-01 -0.347900110023E-02 -0.403775227873E-02 -0.145998138853E-01
 -0.347470272124E-02 -0.145775456913E-01
  0.144981900653E-03  0.339055415010E-01  0.297861121849E-03 -0.779620092644E-02  0.342609727159E-01  0.298325596340E-03 -0.227911776612E-02
 -0.769051800731E-02  0.344052002982E-01  0.299862957044E-03 -0.233466478856E-02 -0.223619396391E-02 -0.772428549096E-02  0.346746971533E-01
  0.300369776345E-03 -0.210490761937E-02 -0.232652171361E-02 -0.223741177227E-02 -0.774990676833E-02  0.348296897923E-01  0.285425773742E-03
 -0.177900693600E-02 -0.210058083952E-02 -0.232868609326E-02 -0.222818274693E-02 -0.776678857489E-02  0.348819987177E-01  0.298344914716E-03
 -0.153723652703E-02 -0.177775637983E-02 -0.210172598492E-02 -0.232519399658E-02 -0.222502391865E-02 -0.776774891935E-02  0.347582676888E-01
  0.295531420931E-03 -0.124487682803E-02 -0.153689715811E-02 -0.177821924213E-02 -0.209871445155E-02 -0.232368200125E-02 -0.222002305156E-02
 -0.774145439466E-02  0.343624844665E-01  0.289292578241E-03 -0.887490153649E-03 -0.124488796656E-02 -0.153689010607E-02 -0.177642482051E-02
 -0.209755370306E-02 -0.232049482496E-02 -0.221457791023E-02 -0.767610860206E-02  0.335871876798E-01  0.280905421699E-03 -0.305868125369E-02
 -0.887751400425E-03 -0.124471495965E-02 -0.153571244837E-02 -0.177586767999E-02 -0.209503150138E-02 -0.231621368885E-02 -0.220923731982E-02
 -0.755218659298E-02  0.323689932042E-01  0.134344199618E-03 -0.305622970662E-02 -0.887447297114E-03 -0.124399291300E-02 -0.153520907030E-02
 -0.177423371014E-02 -0.209194551496E-02 -0.231169953438E-02 -0.219815162317E-02 -0.738649619995E-02  0.324642496224E-01 -0.305757819106E-02
 -0.887029036407E-03 -0.124365733707E-02 -0.153393020200E-02 -0.177240794820E-02 -0.208860382216E-02 -0.230522682319E-02 -0.220449850217E-02
 -0.745753535598E-02 -0.305669590612E-02 -0.886795649288E-03 -0.124274808677E-02 -0.153266823111E-02 -0.177041881390E-02 -0.208476488804E-02
 -0.230415286553E-02 -0.213931105514E-02 -0.305608314797E-02 -0.886136790156E-03 -0.124200443509E-02 -0.153121203945E-02 -0.176859047890E-02
 -0.208270789508E-02 -0.229414731243E-02 -0.305617408716E-02 -0.885688850272E-03 -0.124103838588E-02 -0.153011901056E-02 -0.176698029257E-02
 -0.208120259994E-02 -0.305490895159E-02 -0.884991995746E-03 -0.124049632583E-02 -0.152884528586E-02 -0.176772068151E-02 -0.305574046369E-02
 -0.884771504217E-03 -0.123959475525E-02 -0.152946182297E-02 -0.305348904920E-02 -0.883992745474E-03 -0.124008227110E-02 -0.305609838025E-02
 -0.884532114034E-03 -0.305250883359E-02
  0.155848821567E-05  0.244931525386E-04  0.194387580104E-05 -0.715151215958E-06  0.234982270828E-03 -0.537819910054E-05  0.243318792014E-05
  0.545975264930E-05  0.230563428804E-04 -0.383510564424E-05  0.431001900303E-06  0.290236813449E-04 -0.210803085641E-04 -0.494002935371E-05
 -0.234316198893E-05  0.922387084431E-07  0.661226268653E-05 -0.188974575164E-07 -0.252167182315E-04 -0.387005868889E-04  0.114772377111E-05
 -0.571094992619E-07 -0.217440322909E-05  0.171911130363E-05 -0.179685032593E-04 -0.240167434896E-05 -0.577247061961E-04  0.789906753735E-05
 -0.734664147085E-07 -0.330714237018E-05 -0.500638209569E-05 -0.275716367858E-05 -0.409054722287E-04  0.348465111314E-04 -0.562414179926E-04
  0.197920072639E-04 -0.662516134410E-07 -0.376341908813E-05 -0.389574966133E-05 -0.121619296270E-04 -0.946371596234E-05 -0.640442295434E-04
  0.926786338578E-04 -0.115718230220E-04  0.319742821715E-04 -0.670190664026E-07 -0.315226599647E-05 -0.492517960077E-05 -0.843319171194E-05
 -0.213628675413E-04 -0.108809418495E-04 -0.891180603022E-04  0.164777261880E-03  0.898407921206E-04  0.358339237905E-04 -0.261239503240E-07
 -0.307018633759E-05 -0.435883319715E-05 -0.901824983362E-05 -0.137547961226E-04 -0.258348739415E-04 -0.120214323615E-04 -0.112864842190E-03
  0.218428471662E-03  0.350178951138E-03  0.889674001324E-05 -0.254153394111E-05 -0.446331299105E-05 -0.760307722705E-05 -0.127505086219E-04
 -0.163471520572E-04 -0.287308461141E-04 -0.192287118889E-04 -0.125826214476E-03  0.192037760271E-03  0.205521754198E-04 -0.385254458676E-05
 -0.758947920539E-05 -0.996328472661E-05 -0.148418381184E-04 -0.178542027775E-04 -0.331771227239E-04 -0.270329421638E-04 -0.968292005566E-04
  0.715913174461E-05 -0.637575269460E-05 -0.946812246779E-05 -0.114200468430E-04 -0.158363065970E-04 -0.196754875773E-04 -0.332807264608E-04
 -0.316767679140E-04  0.567568151889E-06 -0.769225570186E-05 -0.107862822338E-04 -0.119219097300E-04 -0.161308588857E-04 -0.180189448324E-04
 -0.292523308287E-04 -0.426712663577E-06 -0.867674815105E-05 -0.110743386214E-04 -0.116395088332E-04 -0.132329870330E-04 -0.152698535938E-04
 -0.489290002859E-06 -0.872142591483E-05 -0.105529458967E-04 -0.892705179009E-05 -0.988724175498E-05 -0.305088147084E-06 -0.816158357458E-05
 -0.775465143128E-05 -0.618211185756E-05 -0.182556177829E-06 -0.583887290277E-05 -0.508998575391E-05 -0.111893215865E-06 -0.369976019010E-05
 -0.957966371956E-07 -0.348497641716E-07
 -0.546651033487E-03  0.536883644964E-02 -0.111119558606E-02  0.514670196019E-02  0.561204209306E-02 -0.111434622079E-02  0.837628842855E-03
  0.545856964258E-02  0.565288801303E-02 -0.112062680925E-02  0.277112586168E-02  0.888805414422E-03  0.548281016963E-02  0.568535686450E-02
 -0.112385729557E-02  0.250383873701E-02  0.277208136179E-02  0.892595011717E-03  0.553576719911E-02  0.569414617058E-02 -0.112442968731E-02
  0.255119334030E-02  0.248606216346E-02  0.277924036046E-02  0.918661757962E-03  0.552812199797E-02  0.569148628688E-02 -0.112028964507E-02
  0.230160861181E-02  0.253338347698E-02  0.249321255834E-02  0.280208864637E-02  0.902808792273E-03  0.552116735961E-02  0.567360968933E-02
 -0.110839471359E-02  0.195983698036E-02  0.228771088913E-02  0.254041542278E-02  0.250561553162E-02  0.278802611899E-02  0.898518597348E-03
  0.551494063895E-02  0.563473821245E-02 -0.108697047982E-02  0.152205148559E-02  0.195045415520E-02  0.229376663984E-02  0.254572962932E-02
  0.249465226131E-02  0.278207729122E-02  0.911045709449E-03  0.549611071436E-02  0.554345393870E-02 -0.105494263099E-02  0.737746248393E-03
  0.151656843286E-02  0.195494489573E-02  0.229500568372E-02  0.253794564844E-02  0.249191032951E-02  0.278024247070E-02  0.936709416294E-03
  0.542980356234E-02  0.542827885836E-02 -0.527672905464E-03  0.736572886529E-03  0.151936758723E-02  0.195445476261E-02  0.228980224714E-02
  0.253669195927E-02  0.248750516377E-02  0.278457544364E-02  0.929723197593E-03  0.528869942670E-02  0.538619423454E-02  0.737239737867E-03
  0.151848456716E-02  0.195129860764E-02  0.228924509798E-02  0.253093358591E-02  0.248925689532E-02  0.275998399532E-02  0.918440556077E-03
  0.519813229324E-02  0.736780859808E-03  0.151679924607E-02  0.195097540653E-02  0.228415110121E-02  0.253029857026E-02  0.247026327314E-02
  0.275415346266E-02  0.788148661881E-03  0.736489915162E-03  0.151658269120E-02  0.194718939271E-02  0.228337818315E-02  0.251525764546E-02
  0.247687460155E-02  0.264987827946E-02  0.736432490691E-03  0.151422121494E-02  0.194667940786E-02  0.227265188695E-02  0.252366112652E-02
  0.241153754340E-02  0.735858459845E-03  0.151407094862E-02  0.193959273046E-02  0.228012690116E-02  0.248448433267E-02  0.736017773418E-03
  0.150991766248E-02  0.194504965849E-02  0.225685635394E-02  0.735058778501E-03  0.151335117489E-02  0.193151549443E-02  0.736069271402E-03
  0.150607047104E-02  0.734597264708E-03
 -0.122388140781E-02 -0.945148146382E-01 -0.226365210181E-02  0.139362406293E-01 -0.944553678455E-01 -0.227445891255E-02  0.448244942563E-02
  0.140106596771E-01 -0.948940795631E-01 -0.228741716588E-02  0.275188209045E-02  0.445672127412E-02  0.140881410546E-01 -0.954542027600E-01
 -0.229673508787E-02  0.254759937401E-02  0.274843762406E-02  0.445932529948E-02  0.141325684394E-01 -0.958167388836E-01 -0.230001965226E-02
  0.210047937958E-02  0.254614167077E-02  0.274949430958E-02  0.446245224460E-02  0.141715654432E-01 -0.959142094879E-01 -0.229258181775E-02
  0.183993816021E-02  0.209934413874E-02  0.254669124110E-02  0.274788714444E-02  0.446318345979E-02  0.141804286783E-01 -0.955627896100E-01
 -0.226717420057E-02  0.153464539293E-02  0.183897167877E-02  0.209958683880E-02  0.254541902960E-02  0.274666840401E-02  0.445708497927E-02
  0.141384251138E-01 -0.945061815650E-01 -0.221492125656E-02  0.126087190018E-02  0.153388310531E-02  0.183907513815E-02  0.209859125359E-02
  0.254396602490E-02  0.274352725010E-02  0.444468742178E-02  0.140156961959E-01 -0.924260411163E-01 -0.214320441747E-02  0.595090287479E-02
  0.126009066607E-02  0.153401306980E-02  0.183831400659E-02  0.209750519844E-02  0.254125614532E-02  0.273965741269E-02  0.442349750943E-02
  0.137822373625E-01 -0.894309060382E-01 -0.967406271359E-03  0.594483711080E-02  0.126032703745E-02  0.153337903213E-02  0.183735067937E-02
  0.209576896985E-02  0.253802972315E-02  0.273463221773E-02  0.439453387560E-02  0.134187684444E-01 -0.882133250541E-01  0.594833501743E-02
  0.125976761143E-02  0.153272691174E-02  0.183614397028E-02  0.209381824259E-02  0.253430678583E-02  0.272826315998E-02  0.436852202181E-02
  0.132766319744E-01  0.594657809850E-02  0.125925912283E-02  0.153189341180E-02  0.183466662946E-02  0.209195721474E-02  0.252941817473E-02
  0.272565157947E-02  0.432427116697E-02  0.594532293819E-02  0.125869744682E-02  0.153090552339E-02  0.183342878185E-02  0.208921795007E-02
  0.252822389168E-02  0.271514819646E-02  0.594603246543E-02  0.125789310053E-02  0.153011509295E-02  0.183152344740E-02  0.208919360659E-02
  0.252184269539E-02  0.594341323703E-02  0.125743168657E-02  0.152888772196E-02  0.183163317283E-02  0.208545713876E-02  0.594578923027E-02
  0.125645720843E-02  0.152904584470E-02  0.182941990884E-02  0.594068885062E-02  0.125670205201E-02  0.152767899537E-02  0.594733113207E-02
  0.125565684094E-02  0.593852374059E-02
        67        57        46        56
        57        47        37        46
        47        38        29        37
        38        30        22        29
        30        23        16        22
        23        17        11        16
        17        12         7        11
        12         8         4         7
         8         5         2         4
         5         3         1         2
        77        68        57        67
        68        58        47        57
        58        48        38        47
        48        39        30        38
        39        31        23        30
        31        24        17        23
        24        18        12        17
        18        13         8        12
        13         9         5         8
         9         6         3         5
        86        78        68        77
        78        69        58        68
        69        59        48        58
        59        49        39        48
        49        40        31        39
        40        32        24        31
        32        25        18        24
        25        19        13        18
        19        14         9        13
        14        10         6         9
        94        87        78        86
        87        79        69        78
        79        70        59        69
        70        60        49        59
        60        50        40        49
        50        41        32        40
        41        33        25        32
        33        26        19        25
        26        20        14        19
        20        15        10        14
       101        95        87        94
        95        88        79        87
        88        80        70        79
        80        71        60        70
        71        61        50        60
        61        51        41        50
        51        42        33        41
        42        34        26        33
        34        27        20        26
        27        21        15        20
       107       102        95       101
       102        96        88        95
        96        89        80        88
        89        81        71        80
        81        72        61        71
        72        62        51        61
        62        52        42        51
        52        43        34        42
        43        35        27        34
        35        28        21        27
       112       108       102       107
       108       103        96       102
       103        97        89        96
        97        90        81        89
        90        82        72        81
        82        73        62        72
        73        63        52        62
        63        53        43        52
        53        44        35        43
        44        36        28        35
       116       113       108       112
       113       109       103       108
       109       104        97       103
       104        98        90        97
        98        91        82        90
        91        83        73        82
        83        74        63        73
        74        64        53        63
        64        54        44        53
        54        45        36        44
       119       117       113       116
       117       114       109       113
       114       110       104       109
       110       105        98       104
       105        99        91        98
        99        92        83        91
        92        84        74        83
        84        75        64        74
        75        65        54        64
        65        55        45        54
       121       120       117       119
       120       118       114       117
       118       115       110       114
       115       111       105       110
       111       106        99       105
       106       100        92        99
       100        93        84        92
        93        85        75        84
        85        76        65        75
        76        66        55        65
zone t="boundary 2 bc-2", solutiontime= 0.1000000E+03, strandid=1002, i=121, j=100, f=feblock
  0.000000000000E+00  0.500000000000E+00  0.000000000000E+00  0.100000000000E+01  0.500000000000E+00  0.000000000000E+00  0.150000000000E+01
  0.100000000000E+01  0.500000000000E+00  0.000000000000E+00  0.200000000000E+01  0.150000000000E+01  0.100000000000E+01  0.500000000000E+00
  0.000000000000E+00  0.250000000000E+01  0.200000000000E+01  0.150000000000E+01  0.100000000000E+01  0.500000000000E+00  0.000000000000E+00
  0.300000000000E+01  0.250000000000E+01  0.200000000000E+01  0.150000000000E+01  0.100000000000E+01  0.500000000000E+00  0.000000000000E+00
  0.350000000000E+01  0.300000000000E+01  0.250000000000E+01  0.200000000000E+01  0.150000000000E+01  0.100000000000E+01  0.500000000000E+00
  0.000000000000E+00  0.400000000000E+01  0.350000000000E+01  0.300000000000E+01  0.250000000000E+01  0.200000000000E+01  0.150000000000E+01
  0.100000000000E+01  0.500000000000E+00  0.000000000000E+00  0.450000000000E+01  0.400000000000E+01  0.350000000000E+01  0.300000000000E+01
  0.250000000000E+01  0.200000000000E+01  0.150000000000E+01  0.100000000000E+01  0.500000000000E+00  0.000000000000E+00  0.500000000000E+01