# vtk DataFile Version 2.0
FUN3D:global_image_vtk
ASCII
DATASET UNSTRUCTURED_GRID
POINTS 1331 double
    0.0000000000000000E+00    0.2500000000000000E+01    0.0000000000000000E+00
    0.5000000000000000E+00    0.2500000000000000E+01    0.0000000000000000E+00
    0.1000000000000000E+01    0.2500000000000000E+01    0.0000000000000000E+00
    0.1500000000000000E+01    0.2500000000000000E+01    0.0000000000000000E+00
    0.2000000000000000E+01    0.2500000000000000E+01    0.0000000000000000E+00
    0.2500000000000000E+01    0.2500000000000000E+01    0.0000000000000000E+00
    0.3000000000000000E+01    0.2500000000000000E+01    0.0000000000000000E+00
    0.3500000000000000E+01    0.2500000000000000E+01    0.0000000000000000E+00
    0.4000000000000000E+01    0.2500000000000000E+01    0.0000000000000000E+00
    0.4500000000000000E+01    0.2500000000000000E+01    0.0000000000000000E+00
    0.5000000000000000E+01    0.2500000000000000E+01    0.0000000000000000E+00
    0.0000000000000000E+00    0.2500000000000000E+01    0.4999999999999982E+00
    0.4999999999999998E+00    0.2500000000000000E+01    0.4999999999999984E+00
    0.9999999999999998E+00    0.2500000000000000E+01    0.4999999999999987E+00
    0.1500000000000000E+01    0.2500000000000000E+01    0.4999999999999989E+00
    0.2000000000000000E+01    0.2500000000000000E+01    0.4999999999999991E+00
    0.2500000000000000E+01    0.2500000000000000E+01    0.4999999999999993E+00
    0.3000000000000000E+01    0.2500000000000000E+01    0.4999999999999996E+00
    0.3500000000000000E+01    0.2500000000000000E+01    0.4999999999999998E+00
    0.4000000000000000E+01    0.2500000000000000E+01    0.5000000000000000E+00
    0.4500000000000002E+01    0.2500000000000000E+01    0.5000000000000002E+00
    0.5000000000000000E+01    0.2500000000000000E+01    0.5000000000000004E+00
    0.0000000000000000E+00    0.2500000000000000E+01    0.1000000000000001E+01
    0.4999999999999997E+00    0.2500000000000000E+01    0.1000000000000001E+01
    0.1000000000000000E+01    0.2500000000000000E+01    0.1000000000000001E+01
    0.1500000000000000E+01    0.2500000000000000E+01    0.1000000000000001E+01
    0.2000000000000000E+01    0.2500000000000000E+01    0.1000000000000001E+01
    0.2500000000000000E+01    0.2500000000000000E+01    0.1000000000000001E+01
    0.3000000000000000E+01    0.2500000000000000E+01    0.1000000000000001E+01
    0.3500000000000000E+01    0.2500000000000000E+01    0.1000000000000001E+01
    0.4000000000000000E+01    0.2500000000000000E+01    0.1000000000000001E+01
    0.4499999999999999E+01    0.2500000000000000E+01    0.1000000000000001E+01
    0.5000000000000000E+01    0.2500000000000000E+01    0.1000000000000001E+01
    0.0000000000000000E+00    0.2500000000000000E+01    0.1499999999999999E+01
    0.4999999999999994E+00    0.2500000000000000E+01    0.1499999999999999E+01
    0.1000000000000000E+01    0.2500000000000000E+01    0.1499999999999999E+01
    0.1500000000000000E+01    0.2500000000000000E+01    0.1499999999999999E+01
    0.2000000000000001E+01    0.2500000000000000E+01    0.1499999999999999E+01
    0.2500000000000000E+01    0.2500000000000000E+01    0.1499999999999999E+01
    0.2999999999999999E+01    0.2500000000000000E+01    0.1499999999999999E+01
    0.3500000000000000E+01    0.2500000000000000E+01    0.1499999999999999E+01
    0.4000000000000001E+01    0.2500000000000000E+01    0.1499999999999999E+01
    0.4500000000000001E+01    0.2500000000000000E+01    0.1499999999999999E+01
    0.5000000000000000E+01    0.2500000000000000E+01    0.1499999999999999E+01
    0.0000000000000000E+00    0.2500000000000000E+01    0.2000000000000002E+01
    0.4999999999999992E+00    0.2500000000000000E+01    0.2000000000000001E+01
    0.1000000000000000E+01    0.2500000000000000E+01    0.2000000000000001E+01
    0.1500000000000000E+01    0.2500000000000000E+01    0.2000000000000001E+01
    0.2000000000000001E+01    0.2500000000000000E+01    0.2000000000000001E+01
    0.2500000000000000E+01    0.2500000000000000E+01    0.2000000000000001E+01
    0.2999999999999999E+01    0.2500000000000000E+01    0.2000000000000000E+01
    0.3500000000000000E+01    0.2500000000000000E+01    0.2000000000000000E+01
    0.4000000000000000E+01    0.2500000000000000E+01    0.2000000000000000E+01
    0.4500000000000000E+01    0.2500000000000000E+01    0.2000000000000000E+01
    0.5000000000000000E+01    0.2500000000000000E+01    0.2000000000000000E+01
    0.0000000000000000E+00    0.2500000000000000E+01    0.2500000000000000E+01
    0.4999999999999991E+00    0.2500000000000000E+01    0.2500000000000000E+01
    0.1000000000000000E+01    0.2500000000000000E+01    0.2500000000000000E+01
    0.1500000000000000E+01    0.2500000000000000E+01    0.2500000000000000E+01
    0.2000000000000001E+01    0.2500000000000000E+01    0.2500000000000000E+01
    0.2500000000000000E+01    0.2500000000000000E+01    0.2500000000000000E+01
    0.2999999999999999E+01    0.2500000000000000E+01    0.2500000000000000E+01
    0.3500000000000001E+01    0.2500000000000000E+01    0.2500000000000000E+01
    0.4000000000000000E+01    0.2500000000000000E+01    0.2500000000000000E+01
    0.4500000000000001E+01    0.2500000000000000E+01    0.2500000000000000E+01
    0.5000000000000000E+01    0.2500000000000000E+01    0.2500000000000000E+01
    0.0000000000000000E+00    0.2500000000000000E+01    0.2999999999999998E+01
    0.4999999999999989E+00    0.2500000000000000E+01    0.2999999999999998E+01
    0.1000000000000000E+01    0.2500000000000000E+01    0.2999999999999999E+01
    0.1499999999999999E+01    0.2500000000000000E+01    0.2999999999999999E+01
    0.2000000000000001E+01    0.2500000000000000E+01    0.2999999999999999E+01
    0.2500000000000000E+01    0.2500000000000000E+01    0.2999999999999999E+01
    0.2999999999999999E+01    0.2500000000000000E+01    0.2999999999999999E+01
    0.3500000000000001E+01    0.2500000000000000E+01    0.3000000000000000E+01
    0.4000000000000000E+01    0.2500000000000000E+01    0.3000000000000000E+01
    0.4500000000000001E+01    0.2500000000000000E+01    0.3000000000000000E+01
    0.5000000000000000E+01    0.2500000000000000E+01    0.3000000000000000E+01
    0.0000000000000000E+00    0.2500000000000000E+01    0.3500000000000001E+01
    0.4999999999999988E+00    0.2500000000000000E+01    0.3500000000000001E+01
    0.1000000000000001E+01    0.2500000000000000E+01    0.3500000000000001E+01
    0.1499999999999999E+01    0.2500000000000000E+01    0.3500000000000001E+01
    0.2000000000000001E+01    0.2500000000000000E+01    0.3500000000000001E+01
    0.2500000000000000E+01    0.2500000000000000E+01    0.3500000000000001E+01
    0.2999999999999999E+01    0.2500000000000000E+01    0.3500000000000001E+01
    0.3500000000000001E+01    0.2500000000000000E+01    0.3500000000000001E+01
    0.4000000000000001E+01    0.2500000000000000E+01    0.3500000000000001E+01
    0.4500000000000001E+01    0.2500000000000000E+01    0.3500000000000001E+01
    0.5000000000000000E+01    0.2500000000000000E+01    0.3500000000000001E+01
    0.0000000000000000E+00    0.2500000000000000E+01    0.3999999999999999E+01
    0.4999999999999986E+00    0.2500000000000000E+01    0.4000000000000000E+01
    0.1000000000000001E+01    0.2500000000000000E+01    0.3999999999999999E+01
    0.1499999999999999E+01    0.2500000000000000E+01    0.3999999999999999E+01
    0.2000000000000001E+01    0.2500000000000000E+01    0.3999999999999999E+01
    0.2500000000000000E+01    0.2500000000000000E+01    0.3999999999999999E+01
    0.2999999999999998E+01    0.2500000000000000E+01    0.3999999999999999E+01
    0.3500000000000001E+01    0.2500000000000000E+01    0.3999999999999999E+01
    0.3999999999999999E+01    0.2500000000000000E+01    0.3999999999999999E+01
    0.4500000000000003E+01    0.2500000000000000E+01    0.3999999999999999E+01
    0.5000000000000000E+01    0.2500000000000000E+01    0.3999999999999999E+01
    0.0000000000000000E+00    0.2500000000000000E+01    0.4500000000000002E+01
    0.4999999999999984E+00    0.2500000000000000E+01    0.4500000000000002E+01
    0.1000000000000001E+01    0.2500000000000000E+01    0.4500000000000001E+01
    0.1499999999999999E+01    0.2500000000000000E+01    0.4500000000000003E+01
    0.2000000000000002E+01    0.2500000000000000E+01    0.4500000000000001E+01
    0.2500000000000000E+01    0.2500000000000000E+01    0.4500000000000001E+01
    0.2999999999999998E+01    0.2500000000000000E+01    0.4500000000000001E+01
    0.3500000000000001E+01    0.2500000000000000E+01    0.4499999999999999E+01
    0.3999999999999999E+01    0.2500000000000000E+01    0.4499999999999999E+01
    0.4500000000000002E+01    0.2500000000000000E+01    0.4500000000000000E+01
    0.5000000000000000E+01    0.2500000000000000E+01    0.4500000000000000E+01
    0.0000000000000000E+00    0.2500000000000000E+01    0.5000000000000000E+01
    0.4999999999999982E+00    0.2500000000000000E+01    0.5000000000000000E+01
    0.1000000000000001E+01    0.2500000000000000E+01    0.5000000000000000E+01
    0.1499999999999999E+01    0.2500000000000000E+01    0.5000000000000000E+01
    0.2000000000000002E+01    0.2500000000000000E+01    0.5000000000000000E+01
    0.2500000000000000E+01    0.2500000000000000E+01    0.5000000000000000E+01
    0.2999999999999998E+01    0.2500000000000000E+01    0.5000000000000000E+01
    0.3500000000000001E+01    0.2500000000000000E+01    0.5000000000000000E+01
    0.3999999999999999E+01    0.2500000000000000E+01    0.5000000000000000E+01
    0.4500000000000002E+01    0.2500000000000000E+01    0.5000000000000000E+01
    0.5000000000000000E+01    0.2500000000000000E+01    0.5000000000000000E+01
    0.0000000000000000E+00    0.2000000000000000E+01    0.0000000000000000E+00
    0.5000000000000000E+00    0.2000000000000000E+01    0.0000000000000000E+00
    0.1000000000000000E+01    0.2000000000000000E+01    0.0000000000000000E+00
    0.1500000000000000E+01    0.2000000000000000E+01    0.0000000000000000E+00
[...]
POINT_DATA 1331
SCALARS p double 1
LOOKUP_TABLE default
   0.1302004966976101E+01
   0.5732804843703726E+00
   0.6162096933397816E+00
   0.7149708290200859E+00
   0.7190868858488282E+00
   0.7081642113918580E+00
   0.7093659288531197E+00
   0.7139295708576648E+00
   0.7092672551624205E+00
   0.6467570424267030E+00
   0.4254849641183912E+00
   0.8057385580103217E+00
   0.6467246778670506E+00
   0.7013132416951829E+00
   0.7063296907474873E+00
   0.7089975606334739E+00
   0.7064402016160358E+00
   0.7062182691965447E+00
   0.7041549346829484E+00
   0.7010642140701114E+00
   0.6954376090911069E+00
   0.6981213512818015E+00
   0.7749343472935795E+00
   0.6978163937479204E+00
   0.6939457368856299E+00
   0.7046133708363452E+00
   0.7104896671572900E+00
   0.7092400728053657E+00
   0.7094888899014541E+00
   0.7102340588429013E+00
   0.7077865068344688E+00
   0.7098363366168183E+00
   0.6956148386636699E+00
   0.7414152729276372E+00
   0.7158395519269244E+00
   0.7121676494156264E+00
   0.7093640468737420E+00
   0.7101697661273437E+00
   0.7096941511386313E+00
   0.7098300374839177E+00
   0.7102972135788973E+00
   0.7109594970850400E+00
   0.7155484283033609E+00
   0.7174943293235574E+00
   0.7241944783970300E+00
   0.7164994152855896E+00
   0.7122704959277774E+00
   0.7111905393259249E+00
   0.7115159151523204E+00
   0.7112514746960905E+00
   0.7113153319716051E+00
   0.7119713955325706E+00
   0.7120730240379152E+00
   0.7146040789614652E+00
   0.7157548513938502E+00
   0.7183730793455766E+00
   0.7164660142812184E+00
   0.7141816764227017E+00
   0.7126368560229198E+00
   0.7121806895384929E+00
   0.7119414114295787E+00
   0.7119977285825886E+00
   0.7125894302941441E+00
   0.7131536913557069E+00
   0.7147298901014877E+00
   0.7159935110636371E+00
   0.7158061552866146E+00
   0.7153675029899741E+00
   0.7140749450503062E+00
   0.7132767617158050E+00
   0.7128640471237281E+00
   0.7126683652582518E+00
   0.7126593186412892E+00
   0.7130371383305153E+00
   0.7134013007396572E+00
   0.7142590621831804E+00
   0.7150915819434335E+00
   0.7149706813568976E+00
   0.7149242309916419E+00
   0.7142107562719150E+00
   0.7136332213516171E+00
   0.7132468626329052E+00
   0.7130801432032480E+00
   0.7130711858552743E+00
   0.7133379814877586E+00
   0.7136684066817444E+00
   0.7141854594923320E+00
   0.7147214920481192E+00
   0.7145474520542561E+00
   0.7145577755628503E+00
   0.7141665279665820E+00
   0.7138232088995901E+00
   0.7135295927400990E+00
   0.7133785252488901E+00
   0.7133399991782138E+00
   0.7134917788723928E+00
   0.7137271763957357E+00
   0.7140757610845755E+00
   0.7144709708798356E+00
   0.7143935450656088E+00
   0.7144181348176536E+00
   0.7141922460939416E+00
   0.7139479428809991E+00
   0.7137080902128975E+00
   0.7135615070350839E+00
   0.7135041314711693E+00
   0.7135867138569584E+00
   0.7137627438090032E+00
   0.7140264004217595E+00
   0.7143444094476876E+00
   0.7143297223327008E+00
   0.7143802791525190E+00
   0.7142489399853850E+00
   0.7140503457920396E+00
   0.7138239618592649E+00
   0.7136513698259542E+00
   0.7135532052198302E+00
   0.7135753253375408E+00
   0.7137049155046643E+00
   0.7139403272582682E+00
   0.7142558225236956E+00
   0.1300573148206176E+01
   0.5729013029661596E+00
   0.6162994596000048E+00
   0.7149869325218087E+00
   0.7191058011189327E+00
   0.7081721426986708E+00
   0.7093647967683101E+00
   0.7139084062080213E+00
   0.7092404815225951E+00
   0.6467411075390282E+00
   0.4254240487257190E+00
   0.8031861512771552E+00
   0.6461146477996782E+00
   0.7022484142191984E+00
   0.7063427474136416E+00
   0.7091012505664450E+00
   0.7064791958513922E+00
   0.7062937799797794E+00
   0.7041336385954790E+00
   0.7008926282755595E+00
   0.6951695551733826E+00
   0.6982079552497206E+00
   0.7745280650898395E+00
   0.6977710207367810E+00
   0.6941955566889122E+00
   0.7046201743573401E+00
   0.7105233008892612E+00
   0.7092608616908284E+00
   0.7095080028614571E+00
   0.7102366463701920E+00
   0.7077898722114456E+00
   0.7099300156166380E+00
   0.6959170674802680E+00
   0.7411911858457892E+00
   0.7157069267826656E+00
   0.7122549198654774E+00
   0.7093919374773069E+00
   0.7102048495033306E+00
   0.7097157808057103E+00
   0.7098523154673607E+00
   0.7103030728824037E+00
   0.7109454457278648E+00
   0.7154958719297765E+00
   0.7174578676902835E+00
   0.7241262114139161E+00
   0.7164007589000853E+00
   0.7122517904362379E+00
   0.7111810360227703E+00
   0.7115204605148034E+00
   0.7112570089744553E+00
   0.7113227415883790E+00
   0.7119755779877991E+00
   0.7120750188756148E+00
   0.7145944269261765E+00
   0.7157522177724946E+00
   0.7183524613021069E+00
   0.7164215442265810E+00
   0.7141575579256026E+00
   0.7126198860822595E+00
   0.7121730687769204E+00
   0.7119376541766983E+00
   0.7119969998925623E+00
   0.7125874932986157E+00
   0.7131502657662597E+00
   0.7147197185006852E+00
   0.7159838055457673E+00
   0.7157979595665346E+00
   0.7153466628239287E+00
   0.7140565273266327E+00
   0.7132614360073929E+00
   0.7128533687824969E+00
   0.7126606707096962E+00
   0.7126541514388467E+00
   0.7130326495065388E+00
   0.7133975082773135E+00
   0.7142538998804179E+00
   0.7150862368666772E+00
   0.7149664652766116E+00
   0.7149146232210618E+00
   0.7141995443059937E+00
   0.7136220985696101E+00
   0.7132373136458509E+00
   0.7130720778571539E+00
   0.7130646678435432E+00
   0.7133322608003055E+00
   0.7136634743701153E+00
   0.7141811248578238E+00
   0.7147181166989575E+00
   0.7145449354210961E+00
   0.7145527738968583E+00
   0.7141596917428633E+00
   0.7138155019044102E+00
   0.7135219365202572E+00
   0.7133712400352287E+00
   0.7133333459723538E+00
   0.7134856904026899E+00
   0.7137217765987771E+00
   0.7140715662856779E+00
   0.7144682966444209E+00
   0.7143921316430625E+00
   0.7144153492098949E+00
   0.7141879711138758E+00
   0.7139425498770965E+00
   0.7137020295575999E+00
   0.7135551087411741E+00
   0.7134978988400212E+00
   0.7135809546351425E+00
   0.7137575035544621E+00
   0.7140221478028866E+00
   0.7143418480537992E+00
   0.7143290157731798E+00
   0.7143784713559863E+00
   0.7142457872323942E+00
   0.7140458460234631E+00
   0.7138185672881414E+00
   0.7136456956618512E+00
   0.7135473312952080E+00
   0.7135690154668900E+00
   0.7136988423825216E+00
   0.7139362814999346E+00
   0.7142545272074382E+00
   0.1300321206120464E+01
   0.5729881281332267E+00
   0.6163605453099293E+00
   0.7149384958864980E+00
   0.7190705557641771E+00
   0.7081512990957129E+00
   0.7093513728113531E+00
   0.7139009321688438E+00
   0.7092454651806136E+00
   0.6467456448413995E+00
   0.4253964116492610E+00
   0.8032057969685737E+00
   0.6464548099682779E+00
   0.7022665257868329E+00
   0.7062668694676516E+00
   0.7090660133629719E+00
   0.7064469989872108E+00
   0.7062714370204172E+00
   0.7041284305879552E+00
   0.7009188381391527E+00
   0.6952519267219269E+00
   0.6982837033984522E+00
   0.7745929549641494E+00
   0.6978895380608685E+00
   0.6941995237884638E+00
   0.7045886538845573E+00
   0.7105068432315175E+00
   0.7092450305344362E+00
   0.7094988141051026E+00
   0.7102344172931635E+00
   0.7077981342660421E+00
   0.7099486694541780E+00
   0.6959196613042641E+00
   0.7412057389988761E+00
   0.7157854935946333E+00
   0.7122741880630662E+00
   0.7093783627607906E+00
   0.7101908753016902E+00
   0.7097001527086063E+00
   0.7098400752492670E+00
   0.7102970459799274E+00
   0.7109486208700323E+00
   0.7155165179744517E+00
   0.7174847018041678E+00
   0.7241375387491976E+00
   0.7164451979459546E+00
   0.7122788480928356E+00
   0.7111896088252488E+00
   0.7115228880116834E+00
   0.7112547987097869E+00
   0.7113200386034061E+00
   0.7119745097247808E+00
   0.7120763683500282E+00
   0.7146013178060965E+00
   0.7157598007333658E+00
   0.7183589700684146E+00
   0.7164443063275664E+00
   0.7141763654944276E+00
   0.7126295650268146E+00
   0.7121779526856870E+00
   0.7119388317459342E+00
   0.7119968849747933E+00
   0.7125878897317172E+00
   0.7131520708653766E+00
   0.7147247007735925E+00
   0.7159901644298449E+00
   0.7158024456849975E+00
   0.7153588809917747E+00
   0.7140700256990707E+00
   0.7132715185511559E+00
   0.7128604155189550E+00
   0.7126649221413056E+00
   0.7126568326530290E+00
   0.7130347836597026E+00
   0.7133995353021113E+00
   0.7142564546998008E+00
   0.7150887320391454E+00
   0.7149694387679396E+00
   0.7149210865246730E+00
   0.7142079436861353E+00
   0.7136298931662627E+00
   0.7132439531524700E+00
   0.7130772415249191E+00
   0.7130686626525400E+00
   0.7133355112484315E+00
   0.7136662639512236E+00
   0.7141835140019176E+00
   0.7147198667654430E+00
   0.7145468648669916E+00
   0.7145564764689470E+00
   0.7141650579338210E+00
   0.7138213223684272E+00
   0.7135276384866148E+00
   0.7133764150077642E+00
   0.7133379506038032E+00
   0.7134897397799430E+00
   0.7137252997276983E+00
   0.7140742422197536E+00
   0.7144699419714933E+00
   0.7143932536408392E+00
   0.7144175375413723E+00
   0.7141914283763761E+00
   0.7139468025183556E+00
   0.7137067609214548E+00
   0.7135599697276355E+00
   0.7135024981845558E+00
   0.7135850180649291E+00
   0.7137611101618063E+00
   0.7140251099479974E+00
   0.7143436729894697E+00
   0.7143295903235324E+00
   0.7143799217838435E+00
   0.7142483797208253E+00
   0.7140495159538623E+00
   0.7138229066731564E+00
   0.7136500881496091E+00
   0.7135517649080944E+00
   0.7135737814655910E+00
   0.7137033635191398E+00
   0.7139390563815364E+00
   0.7142551057256460E+00
   0.1300370153126439E+01
   0.5730816082898031E+00
   0.6164669829884040E+00
   0.7149457151144841E+00
   0.7190602987531587E+00
   0.7081461864781472E+00
   0.7093486975622004E+00
   0.7138956724243760E+00
   0.7092437982987614E+00
   0.6467619412332916E+00
   0.4254340296646104E+00
   0.8029871728718241E+00
   0.6463737583020820E+00
   0.7024269796605085E+00
   0.7062940262421907E+00
   0.7090948197303536E+00
   0.7064512043113086E+00
   0.7062733603274695E+00
   0.7041077289481323E+00
   0.7008756233348776E+00
   0.6951872313000752E+00
   0.6982533202755704E+00
   0.7745147798504060E+00
   0.6978827661215795E+00
   0.6942588029695383E+00
   0.7046003412990961E+00
   0.7105180933351284E+00
   0.7092466314142939E+00
   0.7095001486433904E+00
   0.7102298259424299E+00
   0.7077927422545808E+00
   0.7099453611363861E+00
   0.6959255323352191E+00
   0.7411570226692196E+00
   0.7157495189323434E+00
   0.7122999543461800E+00
   0.7093890326343961E+00
   0.7102038310093642E+00
   0.7097043110971513E+00
   0.7098420021476187E+00
   0.7102910151494519E+00
   0.7109357909920021E+00
   0.7154931699985724E+00
   0.7174642812220818E+00
   0.7241175802543512E+00
   0.7164192430824711E+00
   0.7122788380010648E+00
   0.7111897674902991E+00
   0.7115278071751707E+00
   0.7112576247087173E+00
   0.7113224699903556E+00
   0.7119739398913760E+00
   0.7120739161025859E+00
   0.7145949066016472E+00
   0.7157536760286919E+00
   0.7183502263553725E+00
   0.7164290620151739E+00
   0.7141724230806251E+00
   0.7126272562346395E+00
   0.7121791485392203E+00
   0.7119396487014779E+00
   0.7119977448406634E+00
   0.7125868753817970E+00
   0.7131494924468705E+00
   0.7147195036114290E+00
   0.7159851091192829E+00
   0.7157981633420921E+00
   0.7153498002768582E+00
   0.7140644153504218E+00
   0.7132674550553560E+00
   0.7128589032614786E+00
   0.7126640941707907E+00
   0.7126565413061731E+00
   0.7130339656534953E+00
   0.7133983150049178E+00
   0.7142542763691909E+00
   0.7150867328743508E+00
   0.7149670383749717E+00
   0.7149160998831211E+00
   0.7142034874019236E+00
   0.7136258788835150E+00
   0.7132412329593514E+00
   0.7130751867795119E+00
   0.7130672578957064E+00
   0.7133342044034766E+00
   0.7136650266510248E+00
   0.7141821486919618E+00
   0.7147187542886704E+00
   0.7145453843860355E+00
   0.7145535633565910E+00
   0.7141617506183956E+00
   0.7138178861937153E+00
   0.7135246506857177E+00
   0.7133737769772551E+00
   0.7133357215548994E+00
   0.7134877487914061E+00
   0.7137235506678227E+00
   0.7140728010091931E+00
   0.7144689196943549E+00
   0.7143923977456662E+00
   0.7144157960857006E+00
   0.7141890822893109E+00
   0.7139440471813708E+00
   0.7137039145160766E+00
   0.7135571210732978E+00
   0.7134999735143105E+00
   0.7135829401007910E+00
   0.7137593315903064E+00
   0.7140235062963151E+00
   0.7143425273087870E+00
   0.7143291470342780E+00
   0.7143787492162182E+00
   0.7142465183405992E+00
   0.7140469751814058E+00
   0.7138200909429767E+00
   0.7136474586251266E+00
   0.7135492431601321E+00
   0.7135709412741708E+00
   0.7137006919454300E+00
   0.7139377426312111E+00
   0.7142553180722021E+00
   0.1300392024552318E+01
   0.5731012393586575E+00
   0.6164897339393531E+00
   0.7149454756441725E+00
   0.7190574879575372E+00
   0.7081456055779282E+00
   0.7093497517485338E+00
   0.7138966592054803E+00
   0.7092463837014841E+00
   0.6467702624004734E+00
   0.4254492425651657E+00
   0.8029618628837285E+00
   0.6463565177166015E+00
   0.7024338833705331E+00
   0.7062883961156085E+00
   0.7090987455083145E+00
   0.7064510360527370E+00
   0.7062758686522940E+00
   0.7041105383991703E+00
   0.7008788035940390E+00
   0.6951845594545917E+00
   0.6982525712789206E+00
   0.7745062581695599E+00
   0.6978862043760462E+00
   0.6942644015112752E+00
   0.7045955912223013E+00
   0.7105168456210074E+00
   0.7092444172243721E+00
   0.7095005302402936E+00
   0.7102312545677739E+00
   0.7077957653292015E+00
   0.7099484299302524E+00
   0.6959302432887692E+00
   0.7411526464179620E+00
   0.7157527366307369E+00
   0.7123056474421673E+00
   0.7093874264629146E+00
   0.7102040025942372E+00
   0.7097026785775002E+00
   0.7098417449850809E+00
   0.7102914599415268E+00
   0.7109376008485592E+00
   0.7154942083408053E+00
   0.7174643587913919E+00
   0.7241176916156541E+00
   0.7164228792212927E+00
   0.7122818267284393E+00
   0.7111881451734161E+00
   0.7115267823973176E+00
   0.7112560839922158E+00
   0.7113220870986886E+00
   0.7119743364346721E+00
   0.7120753686754557E+00
   0.7145962445206527E+00
   0.7157544695759387E+00
   0.7183512590847160E+00
   0.7164324932351959E+00
   0.7141757685553036E+00
   0.7126272699386614E+00
   0.7121784301408682E+00
   0.7119380645513121E+00
   0.7119966496713935E+00
   0.7125863229073264E+00
   0.7131498148007298E+00
   0.7147203400821199E+00
   0.7159862553890327E+00
   0.7157993335617333E+00
   0.7153525013651454E+00
   0.7140673692369085E+00
   0.7132687376767745E+00
   0.7128594112167200E+00
   0.7126638027982878E+00
   0.7126562333865626E+00
   0.7130338077886113E+00
   0.7133985027890578E+00
   0.7142546361890318E+00
   0.7150867556627724E+00
   0.7149680888192186E+00
   0.7149180672070558E+00
   0.7142058491964683E+00
   0.7136274390509476E+00
   0.7132422052277309E+00
   0.7130755430720680E+00
   0.7130673643070587E+00
   0.7133341922812882E+00
   0.7136650974506812E+00
   0.7141823232626695E+00
   0.7147189601184032E+00
   0.7145461675030377E+00
   0.7145549615718110E+00
   0.7141636199095357E+00
   0.7138195557286323E+00
   0.7135260194723674E+00
   0.7133747419039335E+00
   0.7133364422490829E+00
   0.7134882819434883E+00
   0.7137240217900324E+00
   0.7140732136535142E+00
   0.7144693549089446E+00
   0.7143928964834158E+00
   0.7144167635157278E+00
   0.7141904832986874E+00
   0.7139455290651587E+00
   0.7137053810307790E+00
   0.7135584479985002E+00
   0.7135009807352704E+00
   0.7135835192410512E+00
   0.7137597527247473E+00
   0.7140240798423368E+00
   0.7143431623006914E+00
   0.7143294287248066E+00
   0.7143794329128369E+00
   0.7142476709395033E+00
   0.7140485042946224E+00
   0.7138216876452160E+00
   0.7136486766033246E+00
   0.7135502742883232E+00
   0.7135722724797804E+00
   0.7137019346912477E+00
   0.7139379297326006E+00
   0.7142545072388290E+00
   0.1300392342812750E+01
   0.5731022770182626E+00
   0.6164973726510028E+00
   0.7149477058935062E+00
   0.7190574138345379E+00
   0.7081445252440750E+00
   0.7093485211002183E+00
   0.7138951966152228E+00
   0.7092453837132776E+00
   0.6467704867303434E+00
   0.4254509011116235E+00
   0.8029532008525109E+00
   0.6463463917974563E+00
   0.7024497439588605E+00
   0.7062920896851118E+00
   0.7091019825473966E+00
   0.7064500537519861E+00
   0.7062732490740150E+00
   0.7041045501345912E+00
   0.7008710744445871E+00
   0.6951749196885929E+00
   0.6982478980577420E+00
   0.7744990678488662E+00
   0.6978831456145296E+00
   0.6942719142438933E+00
   0.7045975435867126E+00
   0.7105179063761052E+00
   0.7092432326063512E+00
   0.7094988954578135E+00
   0.7102284957494839E+00
   0.7077929684486965E+00
   0.7099456688611369E+00
   0.6959287666846726E+00
   0.7411475639079906E+00
   0.7157473807474434E+00
   0.7123107296379175E+00
   0.7093905021177699E+00
   0.7102067492267097E+00
   0.7097029847780080E+00
   0.7098407279464459E+00
   0.7102883936222020E+00
   0.7109333319233054E+00
   0.7154891382647469E+00
   0.7174612840220836E+00
   0.7241146755593221E+00
   0.7164189686523603E+00
   0.7122833992649639E+00
   0.7111896932626108E+00
   0.7115286176400007E+00
   0.7112567651745498E+00
   0.7113220362534624E+00
   0.7119731735085865E+00
   0.7120736696109048E+00
   0.7145942535532012E+00
   0.7157532823602782E+00
   0.7183493579707582E+00
   0.7164294335275454E+00
   0.7141759475990729E+00
   0.7126281326351366E+00
   0.7121798053052145E+00
   0.7119387745906919E+00
   0.7119967261943720E+00
   0.7125854779180082E+00
   0.7131483820118855E+00
   0.7147184807636194E+00
   0.7159847483487899E+00
   0.7157981058428635E+00
   0.7153501977581666E+00
   0.7140665356319648E+00
   0.7132686854781650E+00
   0.7128600450676413E+00
   0.7126643646776184E+00
   0.7126565128022063E+00
   0.7130335419901445E+00
   0.7133978673921993E+00
   0.7142537928408709E+00
   0.7150864481712034E+00
   0.7149671903769849E+00
   0.7149164731931142E+00
   0.7142047996559017E+00
   0.7136268961129243E+00
   0.7132422108678316E+00
   0.7130757080921059E+00
   0.7130675660904710E+00
   0.7133342434873183E+00
   0.7136649828979128E+00
   0.7141820308539052E+00
   0.7147186757231914E+00
   0.7145455345339935E+00
   0.7145538369225923E+00
   0.7141625600603140E+00
   0.7138187288907395E+00
   0.7135255524922747E+00
   0.7133744801022515E+00
   0.7133362813205177E+00
   0.7134881158373049E+00
   0.7137237967947877E+00
   0.7140729052102225E+00
   0.7144689233846958E+00
   0.7143925022565362E+00
   0.7144159803271241E+00
   0.7141895723083882E+00
   0.7139446659808696E+00
   0.7137046601506912E+00
   0.7135578458207007E+00
   0.7135006539377459E+00
   0.7135835100781048E+00
   0.7137597894485099E+00
   0.7140237922018485E+00
   0.7143426195893702E+00
   0.7143292018818974E+00
   0.7143788697075094E+00
   0.7142468607784566E+00
   0.7140474841655412E+00
   0.7138207525746550E+00
   0.7136481749838149E+00
   0.7135499594287024E+00
   0.7135715857936565E+00
   0.7137012421067566E+00
   0.7139381332993765E+00
   0.7142554889920371E+00
   0.1300391695704579E+01
   0.5731013284487072E+00
   0.6164897980295294E+00
   0.7149454829907952E+00
   0.7190574876496313E+00
   0.7081456095171139E+00
   0.7093497543038553E+00
   0.7138966596786622E+00
   0.7092463778143807E+00
   0.6467702209564690E+00
   0.4254490935222965E+00
   0.8029617398322694E+00
   0.6463565870444606E+00
   0.7024338846730015E+00
   0.7062884035827282E+00
   0.7090987440519599E+00
   0.7064510353401473E+00
   0.7062758647148483E+00
   0.7041105312824557E+00
   0.7008787914027906E+00
   0.6951845413970147E+00
   0.6982525499227171E+00
   0.7745062168291027E+00
   0.6978862234477287E+00
   0.6942644137914813E+00
   0.7045956004411774E+00
   0.7105168466434332E+00
   0.7092444190182282E+00
   0.7095005296359489E+00
   0.7102312520543465E+00
   0.7077957584541996E+00
   0.7099484204450029E+00
   0.6959302215754605E+00
   0.7411526109535570E+00
   0.7157527356487948E+00
   0.7123056449939742E+00
   0.7093874285231866E+00
   0.7102040021534041E+00
   0.7097026782175536E+00
   0.7098417429145453E+00
   0.7102914564534951E+00