# vtk DataFile Version 2.0
FUN3D:global_image_vtk
ASCII
DATASET UNSTRUCTURED_GRID
POINTS 357 double
    0.5000000000000000E+01    0.0000000000000000E+00    0.2500000000000000E+01
    0.5000000000000000E+01    0.0000000000000000E+00    0.1500000000000000E+01
    0.5000000000000000E+01    0.0000000000000000E+00    0.5000000000000000E+00
    0.5000000000000000E+01    0.0000000000000000E+00   -0.5000000000000000E+00
    0.5000000000000000E+01    0.0000000000000000E+00   -0.1500000000000000E+01
    0.5000000000000000E+01    0.0000000000000000E+00   -0.2500000000000000E+01
    0.4000000000000000E+01    0.0000000000000000E+00   -0.2500000000000000E+01
    0.3000000000000000E+01    0.0000000000000000E+00   -0.2500000000000000E+01
    0.2000000000000000E+01    0.0000000000000000E+00   -0.2500000000000000E+01
    0.9999999999999998E+00    0.0000000000000000E+00   -0.2500000000000000E+01
    0.0000000000000000E+00    0.0000000000000000E+00   -0.2500000000000000E+01
    0.0000000000000000E+00    0.0000000000000000E+00   -0.1500000000000000E+01
    0.0000000000000000E+00    0.0000000000000000E+00   -0.5000000000000000E+00
    0.0000000000000000E+00    0.0000000000000000E+00    0.5000000000000000E+00
    0.0000000000000000E+00    0.0000000000000000E+00    0.1500000000000000E+01
    0.0000000000000000E+00    0.0000000000000000E+00    0.2500000000000000E+01
    0.1000000000000000E+01    0.0000000000000000E+00    0.2500000000000000E+01
    0.2000000000000000E+01    0.0000000000000000E+00    0.2500000000000000E+01
    0.3000000000000000E+01    0.0000000000000000E+00    0.2500000000000000E+01
    0.4000000000000000E+01    0.0000000000000000E+00    0.2500000000000000E+01
    0.4251722454414101E+01    0.0000000000000000E+00    0.1683881519811194E+01
    0.6137332127746504E+00    0.0000000000000000E+00    0.1857879939968904E+01
    0.5055778377301318E+00    0.0000000000000000E+00   -0.1984051145810370E+01
    0.4417350419147004E+01    0.0000000000000000E+00   -0.1798049780917599E+01
    0.4277413896341787E+01    0.0000000000000000E+00    0.7849806286986014E+00
    0.4308949446070184E+01    0.0000000000000000E+00   -0.1030628045339280E+00
    0.3520446556869569E+01    0.0000000000000000E+00    0.1794049766750259E+00
    0.2591686382569276E+01    0.0000000000000000E+00    0.1667295362171870E+01
    0.1306794966956192E+01    0.0000000000000000E+00    0.1758138528035871E+01
    0.7010346092308208E+00    0.0000000000000000E+00    0.3961722714940701E-01
    0.2308484603929350E+01    0.0000000000000000E+00   -0.1644203313594280E+01
    0.2985842179142563E+01    0.0000000000000000E+00   -0.1902408850608312E+01
    0.7941286090671454E+00    0.0000000000000000E+00    0.1001771779085911E+01
    0.1020081380390785E+01    0.0000000000000000E+00   -0.1456956300840256E+01
    0.4356436167904402E+01    0.0000000000000000E+00   -0.1022551130153989E+01
    0.3730315927830617E+01    0.0000000000000000E+00   -0.1467697774434008E+01
    0.2084566650673803E+01    0.0000000000000000E+00   -0.2237556063676878E+00
    0.1900542590153839E+01    0.0000000000000000E+00   -0.1088755785946356E+01
    0.1324761360056765E+01    0.0000000000000000E+00   -0.5267852841860601E+00
    0.3681169751640886E+01    0.0000000000000000E+00    0.1040160628527462E+01
    0.3418876656618056E+01    0.0000000000000000E+00    0.1726168461930342E+01
    0.3751175205920376E+01    0.0000000000000000E+00   -0.6691259304140329E+00
    0.2889801815813465E+01    0.0000000000000000E+00   -0.8562661438192326E+00
    0.3017983410224082E+01    0.0000000000000000E+00    0.9231712184526961E+00
    0.1645821714894795E+01    0.0000000000000000E+00   -0.1837983080076178E+01
    0.1513509181197389E+01    0.0000000000000000E+00    0.1108836692078749E+01
    0.1919398798697967E+01    0.0000000000000000E+00    0.1580342757081665E+01
    0.2193859429875553E+01    0.0000000000000000E+00    0.7740897355665203E+00
    0.6091754699356742E+00    0.0000000000000000E+00   -0.7888248715753817E+00
    0.1441359832811715E+01    0.0000000000000000E+00    0.3490936567660688E+00
    0.2716632372076206E+01    0.0000000000000000E+00    0.1359772398136161E+00
    0.5000000000000000E+01   -0.8333333333333334E+00    0.2500000000000000E+01
    0.5000000000000000E+01   -0.8333333333333334E+00    0.1500000000000000E+01
    0.5000000000000000E+01   -0.8333333333333334E+00    0.5000000000000000E+00
    0.5000000000000000E+01   -0.8333333333333334E+00   -0.5000000000000000E+00
    0.5000000000000000E+01   -0.8333333333333334E+00   -0.1500000000000000E+01
    0.5000000000000000E+01   -0.8333333333333334E+00   -0.2500000000000000E+01
    0.4000000000000000E+01   -0.8333333333333334E+00   -0.2500000000000000E+01
    0.3000000000000000E+01   -0.8333333333333334E+00   -0.2500000000000000E+01
    0.2000000000000000E+01   -0.8333333333333334E+00   -0.2500000000000000E+01
    0.9999999999999998E+00   -0.8333333333333334E+00   -0.2500000000000000E+01
    0.0000000000000000E+00   -0.8333333333333334E+00   -0.2500000000000000E+01
    0.0000000000000000E+00   -0.8333333333333334E+00   -0.1500000000000000E+01
    0.0000000000000000E+00   -0.8333333333333334E+00   -0.5000000000000000E+00
    0.0000000000000000E+00   -0.8333333333333334E+00    0.5000000000000000E+00
    0.0000000000000000E+00   -0.8333333333333334E+00    0.1500000000000000E+01
    0.0000000000000000E+00   -0.8333333333333334E+00    0.2500000000000000E+01
    0.1000000000000000E+01   -0.8333333333333334E+00    0.2500000000000000E+01
    0.2000000000000000E+01   -0.8333333333333334E+00    0.2500000000000000E+01
    0.3000000000000000E+01   -0.8333333333333334E+00    0.2500000000000000E+01
    0.4000000000000000E+01   -0.8333333333333334E+00    0.2500000000000000E+01
    0.4251722454414101E+01   -0.8333333333333334E+00    0.1683881519811194E+01
    0.6137332127746504E+00   -0.8333333333333334E+00    0.1857879939968904E+01
    0.5055778377301318E+00   -0.8333333333333334E+00   -0.1984051145810370E+01
    0.4417350419147004E+01   -0.8333333333333334E+00   -0.1798049780917599E+01
    0.4277413896341787E+01   -0.8333333333333334E+00    0.7849806286986014E+00
    0.4308949446070184E+01   -0.8333333333333334E+00   -0.1030628045339280E+00
    0.3520446556869569E+01   -0.8333333333333334E+00    0.1794049766750259E+00
    0.2591686382569276E+01   -0.8333333333333334E+00    0.1667295362171870E+01
    0.1306794966956192E+01   -0.8333333333333334E+00    0.1758138528035871E+01
    0.7010346092308208E+00   -0.8333333333333334E+00    0.3961722714940701E-01
    0.2308484603929350E+01   -0.8333333333333334E+00   -0.1644203313594280E+01
    0.2985842179142563E+01   -0.8333333333333334E+00   -0.1902408850608312E+01
    0.7941286090671454E+00   -0.8333333333333334E+00    0.1001771779085911E+01
    0.1020081380390785E+01   -0.8333333333333334E+00   -0.1456956300840256E+01
    0.4356436167904402E+01   -0.8333333333333334E+00   -0.1022551130153989E+01
    0.3730315927830617E+01   -0.8333333333333334E+00   -0.1467697774434008E+01
    0.2084566650673803E+01   -0.8333333333333334E+00   -0.2237556063676878E+00
    0.1900542590153839E+01   -0.8333333333333334E+00   -0.1088755785946356E+01
    0.1324761360056765E+01   -0.8333333333333334E+00   -0.5267852841860601E+00
    0.3681169751640886E+01   -0.8333333333333334E+00    0.1040160628527462E+01
    0.3418876656618056E+01   -0.8333333333333334E+00    0.1726168461930342E+01
    0.3751175205920376E+01   -0.8333333333333334E+00   -0.6691259304140329E+00
    0.2889801815813465E+01   -0.8333333333333334E+00   -0.8562661438192326E+00
    0.3017983410224082E+01   -0.8333333333333334E+00    0.9231712184526961E+00
    0.1645821714894795E+01   -0.8333333333333334E+00   -0.1837983080076178E+01
    0.1513509181197389E+01   -0.8333333333333334E+00    0.1108836692078749E+01
    0.1919398798697967E+01   -0.8333333333333334E+00    0.1580342757081665E+01
    0.2193859429875553E+01   -0.8333333333333334E+00    0.7740897355665203E+00
    0.6091754699356742E+00   -0.8333333333333334E+00   -0.7888248715753817E+00
    0.1441359832811715E+01   -0.8333333333333334E+00    0.3490936567660688E+00
    0.2716632372076206E+01   -0.8333333333333334E+00    0.1359772398136161E+00
    0.5000000000000000E+01   -0.1666666666666667E+01    0.2500000000000000E+01
    0.5000000000000000E+01   -0.1666666666666667E+01    0.1500000000000000E+01
    0.5000000000000000E+01   -0.1666666666666667E+01    0.5000000000000000E+00
    0.5000000000000000E+01   -0.1666666666666667E+01   -0.5000000000000000E+00
    0.5000000000000000E+01   -0.1666666666666667E+01   -0.1500000000000000E+01
    0.5000000000000000E+01   -0.1666666666666667E+01   -0.2500000000000000E+01
    0.4000000000000000E+01   -0.1666666666666667E+01   -0.2500000000000000E+01
    0.3000000000000000E+01   -0.1666666666666667E+01   -0.2500000000000000E+01
    0.2000000000000000E+01   -0.1666666666666667E+01   -0.2500000000000000E+01
    0.9999999999999998E+00   -0.1666666666666667E+01   -0.2500000000000000E+01
    0.0000000000000000E+00   -0.1666666666666667E+01   -0.2500000000000000E+01
    0.0000000000000000E+00   -0.1666666666666667E+01   -0.1500000000000000E+01
    0.0000000000000000E+00   -0.1666666666666667E+01   -0.5000000000000000E+00
    0.0000000000000000E+00   -0.1666666666666667E+01    0.5000000000000000E+00
    0.0000000000000000E+00   -0.1666666666666667E+01    0.1500000000000000E+01
    0.0000000000000000E+00   -0.1666666666666667E+01    0.2500000000000000E+01
    0.1000000000000000E+01   -0.1666666666666667E+01    0.2500000000000000E+01
    0.2000000000000000E+01   -0.1666666666666667E+01    0.2500000000000000E+01
    0.3000000000000000E+01   -0.1666666666666667E+01    0.2500000000000000E+01
    0.4000000000000000E+01   -0.1666666666666667E+01    0.2500000000000000E+01
    0.4251722454414101E+01   -0.1666666666666667E+01    0.1683881519811194E+01
    0.6137332127746504E+00   -0.1666666666666667E+01    0.1857879939968904E+01
    0.5055778377301318E+00   -0.1666666666666667E+01   -0.1984051145810370E+01
[...]
POINT_DATA 357
SCALARS rho double 1
LOOKUP_TABLE default
   0.1001060641288670E+01
   0.1001046934629929E+01
   0.1009930124794903E+01
   0.1017618678071169E+01
   0.9600829547036595E+00
   0.7466028827313858E+00
   0.9289220270843114E+00
   0.9350745281326324E+00
   0.9288385704876833E+00
   0.9027817777995500E+00
   0.1345810589283406E+01
   0.1028599552209374E+01
   0.1022952161495562E+01
   0.1003618256212705E+01
   0.1003336047572193E+01
   0.1001308926412105E+01
   0.1001870019985433E+01
   0.1001261722360676E+01
   0.1000396432798352E+01
   0.1000092144386878E+01
   0.1000537121338713E+01
   0.1002022697152985E+01
   0.1049574249556849E+01
   0.9675342146199349E+00
   0.1001074833139216E+01
   0.1003995120586335E+01
   0.9944685516752831E+00
   0.1000105148574604E+01
   0.1001638229855553E+01
   0.1007202585776766E+01
   0.9913506628749655E+00
   0.9669851839548645E+00
   0.1002769434354931E+01
   0.1036159309793885E+01
   0.9808412785293535E+00
   0.9531322694561141E+00
   0.9952191878075743E+00
   0.9914743162989660E+00
   0.9978393354775695E+00
   0.1001059296128459E+01
   0.9997347609162687E+00
   0.9963783260075982E+00
   0.9986636914488874E+00
   0.9977626532296391E+00
   0.9531011613102333E+00
   0.1000813913550030E+01
   0.1000520375981927E+01
   0.1000179085752484E+01
   0.1001233202729975E+01
   0.1005080090988249E+01
   0.9928640840245421E+00
   0.1001019382518454E+01
   0.1000944552771784E+01
   0.1009830452396685E+01
   0.1019300504139549E+01
   0.9657996385465394E+00
   0.7474262454593812E+00
   0.9291070159014680E+00
   0.9359205822066281E+00
   0.9285679116252122E+00
   0.9006290494146010E+00
   0.1347482380628129E+01
   0.1025811215333623E+01
   0.1022610654000941E+01
   0.1003332267283566E+01
   0.1003281413335664E+01
   0.1001274110809753E+01
   0.1001802834186880E+01
   0.1001170450052451E+01
   0.1000287081532788E+01
   0.9999972638880616E+00
   0.1000473573760215E+01
   0.1001953849224278E+01
   0.1050152942335263E+01
   0.9712290193239549E+00
   0.1001035387425466E+01
   0.1004227531121287E+01
   0.9944978878620294E+00
   0.9999421055300930E+00
   0.1001528511852422E+01
   0.1006956303143090E+01
   0.9928963840202027E+00
   0.9692918958945737E+00
   0.1002580895800955E+01
   0.1036370005800613E+01
   0.9828421439824693E+00
   0.9550281412000835E+00
   0.9947487686244404E+00
   0.9915100639550086E+00
   0.9972593227901754E+00
   0.1001007896258848E+01
   0.9995849457632835E+00
   0.9970342517859997E+00
   0.9988841319999273E+00
   0.9976323801243024E+00
   0.9539267212413328E+00
   0.1000605138165975E+01
   0.1000354252801044E+01
   0.1000086090068154E+01
   0.1000110174217134E+01
   0.1004946496490074E+01
   0.9925241561444486E+00
   0.1001049588489597E+01
   0.1000959480551697E+01
   0.1009842162774355E+01
   0.1019295745347857E+01
   0.9657531280271566E+00
   0.7475900132177785E+00
   0.9291950763466171E+00
   0.9362103301287723E+00
   0.9287635624388612E+00
   0.9003714528993666E+00
   0.1348009316442772E+01
   0.1025801438797346E+01
   0.1022745278503353E+01
   0.1003397678516964E+01
   0.1003319080218291E+01
   0.1001295831186755E+01
   0.1001854004043853E+01
   0.1001245059408207E+01
   0.1000384506656371E+01
   0.1000065932761122E+01
   0.1000510341444112E+01
   0.1002003376095415E+01
   0.1050676439870925E+01
   0.9711568838916685E+00
   0.1001056565870645E+01
   0.1004228475722372E+01
   0.9945423064289419E+00
   0.1000019544693606E+01
   0.1001599357846982E+01
   0.1007097158447572E+01
   0.9931047458620299E+00
   0.9693884992619565E+00
   0.1002673788076786E+01
   0.1036761163454252E+01
   0.9829251623725792E+00
   0.9551113849892849E+00
   0.9948837717328434E+00
   0.9917027508006772E+00
   0.9974149376865629E+00
   0.1001050231191334E+01
   0.9996430106127454E+00
   0.9970608329497788E+00
   0.9990291354577763E+00
   0.9977043005817252E+00
   0.9542148146971866E+00
   0.1000707704576186E+01
   0.1000443164421213E+01
   0.1000182026384718E+01
   0.1000318713208295E+01
   0.1005084119554631E+01
   0.9926127334315217E+00
   0.1001039711995743E+01
   0.1000942426967843E+01
   0.1009831227346523E+01
   0.1019334696622504E+01
   0.9659810088995540E+00
   0.7475939220212906E+00
   0.9293273077291903E+00
   0.9362552186154635E+00
   0.9288076945259270E+00
   0.9003382187290981E+00
   0.1347900940284378E+01
   0.1025617301524306E+01
   0.1022633413595586E+01
   0.1003327501355120E+01
   0.1003283696284524E+01
   0.1001275340987291E+01
   0.1001813206282819E+01
   0.1001191887154155E+01
   0.1000338787084687E+01
   0.1000035879568008E+01
   0.1000493919157347E+01
   0.1001960048964629E+01
   0.1050408035278746E+01
   0.9713445456631089E+00
   0.1001057602062972E+01
   0.1004287300600455E+01
   0.9945782062680549E+00
   0.9999650192412065E+00
   0.1001542872340755E+01
   0.1006991180535741E+01
   0.9931363182371757E+00
   0.9693950695466421E+00
   0.1002605262829442E+01
   0.1036663650217292E+01
   0.9830166352563164E+00
   0.9551668727357744E+00
   0.9948454524855571E+00
   0.9916762840380920E+00
   0.9973462905806857E+00
   0.1001038460353971E+01
   0.9996011094253655E+00
   0.9971647790630871E+00
   0.9990639753366075E+00
   0.9976730298843245E+00
   0.9541236655718011E+00
   0.1000640031904443E+01
   0.1000385643062631E+01
   0.1000132103956991E+01
   0.1000181193037401E+01
   0.1005009883468741E+01
   0.9925939728930070E+00
   0.1001049587923715E+01
   0.1000959482036411E+01
   0.1009842162224920E+01
   0.1019295735203254E+01
   0.9657531178082912E+00
   0.7475900242959679E+00
   0.9291950761525223E+00
   0.9362103192439565E+00
   0.9287635588017275E+00
   0.9003714560696560E+00
   0.1348009321577950E+01
   0.1025801453228079E+01
   0.1022745277267081E+01
   0.1003397676563896E+01
   0.1003319079307479E+01
   0.1001295830421573E+01
   0.1001854003444888E+01
   0.1001245058829327E+01
   0.1000384508253520E+01
   0.1000065933197991E+01
   0.1000510341870318E+01
   0.1002003375323561E+01
   0.1050676434680035E+01
   0.9711568728410803E+00
   0.1001056563503620E+01
   0.1004228472134337E+01
   0.9945423121655627E+00
   0.1000019545813322E+01
   0.1001599356643574E+01
   0.1007097158093347E+01
   0.9931047356754774E+00
   0.9693884943333393E+00
   0.1002673786521015E+01
   0.1036761153488092E+01
   0.9829251568474143E+00
   0.9551113719263057E+00
   0.9948837715997487E+00
   0.9917027476298734E+00
   0.9974149337746432E+00
   0.1001050229600894E+01
   0.9996430119650712E+00
   0.9970608251030089E+00
   0.9990291329794597E+00
   0.9977043039266825E+00
   0.9542148133736601E+00
   0.1000707703847105E+01
   0.1000443163133118E+01
   0.1000182024826585E+01
   0.1000318714458891E+01
   0.1005084119343860E+01
   0.9926127371967399E+00
   0.1001019384230037E+01
   0.1000944553705710E+01
   0.1009830446875573E+01
   0.1019300471455862E+01
   0.9657995765793186E+00
   0.7474263576216268E+00
   0.9291070899560733E+00
   0.9359205989336439E+00
   0.9285679656483790E+00
   0.9006290879482401E+00
   0.1347482439862434E+01
   0.1025811290073870E+01
   0.1022610669873061E+01
   0.1003332267357790E+01
   0.1003281413321685E+01
   0.1001274108595681E+01
   0.1001802832969081E+01
   0.1001170445232601E+01
   0.1000287081979782E+01
   0.9999972623895358E+00
   0.1000473576356883E+01
   0.1001953847928050E+01
   0.1050152844344399E+01
   0.9712289886761126E+00
   0.1001035378249477E+01
   0.1004227520921476E+01
   0.9944978888331784E+00
   0.9999421055002308E+00
   0.1001528509838597E+01
   0.1006956299065774E+01
   0.9928963755312596E+00
   0.9692918934794390E+00
   0.1002580895405886E+01
   0.1036369972672303E+01
   0.9828421005581565E+00
   0.9550280761045232E+00
   0.9947487557084957E+00
   0.9915100425696632E+00
   0.9972593123455175E+00
   0.1001007896679306E+01
   0.9995849477108297E+00
   0.9970342077762677E+00
   0.9988840978705952E+00
   0.9976323889785924E+00
   0.9539267056890438E+00
   0.1000605137152996E+01
   0.1000354250218070E+01
   0.1000086081299826E+01
   0.1000110186424996E+01
   0.1004946491650941E+01
   0.9925241506792173E+00
   0.1001060651090995E+01
   0.1001046942256929E+01
   0.1009930116717906E+01
   0.1017618580668747E+01
   0.9600828146650863E+00
   0.7466031540298660E+00
   0.9289221798795774E+00
   0.9350745741086051E+00
   0.9288386869928313E+00
   0.9027818448521275E+00
   0.1345810767709044E+01
   0.1028599692846976E+01
   0.1022952165792510E+01
   0.1003618253785551E+01
   0.1003336047965676E+01
   0.1001308925235191E+01
   0.1001870018152200E+01
   0.1001261713374120E+01
   0.1000396434258087E+01
   0.1000092146359530E+01
   0.1000537130018170E+01
   0.1002022695909309E+01
   0.1049574092024372E+01
   0.9675341935547174E+00
   0.1001074815656351E+01
   0.1003995079025598E+01
   0.9944685455777972E+00
   0.1000105150476466E+01
   0.1001638224315192E+01
   0.1007202578141335E+01
   0.9913506442441318E+00
   0.9669851637740179E+00
   0.1002769433586246E+01
   0.1036159240180044E+01
   0.9808411486904147E+00
   0.9531321473473490E+00
   0.9952191592941541E+00
   0.9914742523084820E+00
   0.9978393162811453E+00
   0.1001059301390912E+01
   0.9997347687389909E+00
   0.9963782373439308E+00
   0.9986636198250388E+00
   0.9977626756923906E+00
   0.9531011224340649E+00
   0.1000813909027358E+01
   0.1000520371015730E+01
   0.1000179068276042E+01
   0.1001233225909820E+01
   0.1005080079717696E+01
   0.9928640730715552E+00
SCALARS u double 1
LOOKUP_TABLE default
   0.4978751113078550E+00
   0.4982711232713588E+00
   0.5105022696771302E+00
   0.5190865666560515E+00
   0.4888438629198619E+00
   0.0000000000000000E+00
   0.0000000000000000E+00
   0.0000000000000000E+00
   0.0000000000000000E+00
   0.0000000000000000E+00
   0.0000000000000000E+00
   0.4752999669034115E+00
   0.4782935035534887E+00
   0.4964881097775731E+00
   0.4971247347732491E+00
   0.4983323226706034E+00
   0.4980812078133424E+00
   0.5000849840560850E+00
   0.5018489297089204E+00
   0.5014939900478966E+00
   0.4969755645687990E+00
   0.4982180440931175E+00
   0.4307018094956142E+00
   0.4171556826057289E+00
   0.5074552189529706E+00
   0.5509878818407165E+00
   0.5410803889911840E+00
   0.5006339175237157E+00
   0.4988365495741031E+00
   0.4920251672661225E+00
   0.4260881129897982E+00
   0.3253344470952086E+00
   0.4964882017685396E+00
   0.5360796109950841E+00
   0.5570906493421467E+00
   0.4811975321166904E+00
   0.5428409837943896E+00
   0.5830677565606036E+00
   0.5357391791852116E+00
   0.5012517647461672E+00
   0.4996236273797930E+00
   0.5789386969859918E+00
   0.5763912893632944E+00
   0.5045897406897539E+00
   0.3865982793202994E+00
   0.4983335338400551E+00
   0.4994490601339479E+00
   0.5034927668616584E+00
   0.5053408851059435E+00
   0.4980347146046800E+00
   0.5318835224914731E+00
   0.4980347789982922E+00
   0.4979913537863148E+00
   0.5100985248921664E+00
   0.5205066594033700E+00
   0.4922260864453003E+00
   0.0000000000000000E+00
   0.0000000000000000E+00
   0.0000000000000000E+00
   0.0000000000000000E+00
   0.0000000000000000E+00
   0.0000000000000000E+00
   0.4764474544045910E+00
   0.4788638187409160E+00
   0.4968164958828914E+00
   0.4971838468756715E+00
   0.4983659466277490E+00
   0.4981724392020410E+00
   0.5002512787783253E+00
   0.5021941827939496E+00
   0.5018947410369485E+00
   0.4969169983837134E+00
   0.4983168480438993E+00
   0.4340421881909688E+00
   0.4252581779901776E+00
   0.5065241309716890E+00
   0.5510040523017233E+00
   0.5405479577440606E+00
   0.5009278358986903E+00
   0.4990245961125401E+00
   0.4922527447137223E+00
   0.4354126952395425E+00
   0.3317783445754976E+00
   0.4967433871622580E+00
   0.5413155383351251E+00
   0.5632610459878661E+00
   0.4913260103603254E+00
   0.5426285200388394E+00
   0.5881789241062575E+00
   0.5360603180860808E+00
   0.5006860735583158E+00
   0.4997336369331647E+00
   0.5824733805157538E+00
   0.5814202694235396E+00
   0.5040762248507691E+00
   0.3936052948633514E+00
   0.4985935977253517E+00
   0.4997123854926920E+00
   0.5034395368061491E+00
   0.5055408193295116E+00
   0.4979676181033841E+00
   0.5310503497521954E+00
   0.4980042625439183E+00
   0.4979981350954918E+00
   0.5101611041516013E+00
   0.5206854901078248E+00
   0.4923981454383593E+00
   0.0000000000000000E+00
   0.0000000000000000E+00
   0.0000000000000000E+00
   0.0000000000000000E+00
   0.0000000000000000E+00
   0.0000000000000000E+00
   0.4762502078491294E+00
   0.4787259336608033E+00
   0.4967483554508283E+00
   0.4971452266646342E+00
   0.4983459112516714E+00
   0.4980942849754139E+00
   0.5001171909361574E+00
   0.5020363909924648E+00
   0.5017728968917258E+00
   0.4968477587412890E+00
   0.4982451253072810E+00
   0.4340223855890881E+00
   0.4255346040724803E+00
   0.5065461737970639E+00
   0.5511611443734327E+00
   0.5405802952728312E+00
   0.5007868070683632E+00
   0.4989058175998385E+00
   0.4920577798167316E+00
   0.4356028395918630E+00
   0.3320948010678473E+00
   0.4966105217542549E+00
   0.5411220608833170E+00
   0.5635957407396366E+00
   0.4916435524158405E+00
   0.5424695284189023E+00
   0.5881213339442186E+00
   0.5358256542626348E+00
   0.5006290819777258E+00
   0.4996041569736988E+00
   0.5826513689563441E+00
   0.5814839594291201E+00
   0.5039671718165909E+00
   0.3935285154830718E+00
   0.4984392663520250E+00
   0.4995676356532668E+00
   0.5032959645489191E+00
   0.5051434656878223E+00
   0.4977746988842585E+00
   0.5309569558506105E+00
   0.4980105821357648E+00
   0.4979869338196465E+00
   0.5101136728383446E+00
   0.5205002682337723E+00
   0.4921070285012764E+00
   0.0000000000000000E+00
   0.0000000000000000E+00
   0.0000000000000000E+00
   0.0000000000000000E+00
   0.0000000000000000E+00
   0.0000000000000000E+00
   0.4764344026267361E+00
   0.4788699843371381E+00
   0.4968265175802151E+00
   0.4971842172970493E+00
   0.4983670606211771E+00
   0.4981602466915715E+00
   0.5002139948264513E+00
   0.5021331525641823E+00
   0.5018339335874410E+00
   0.4968487457022914E+00
   0.4983059134134590E+00
   0.4340304301200312E+00
   0.4251230463586374E+00
   0.5064703726744058E+00
   0.5509351280639568E+00
   0.5404117213295178E+00
   0.5008620123234547E+00
   0.4989899387313949E+00
   0.4921744422453579E+00
   0.4352353068215700E+00
   0.3317766928546816E+00
   0.4966996600958854E+00
   0.5410556851760217E+00
   0.5630577188544452E+00
   0.4911864817296209E+00
   0.5424234777758946E+00
   0.5879396854098426E+00
   0.5358308242297015E+00
   0.5005891496284535E+00
   0.4996434570058156E+00
   0.5823041154151108E+00
   0.5811988487383740E+00
   0.5039599080692525E+00
   0.3933076759654397E+00
   0.4985223055631560E+00
   0.4996499116578786E+00
   0.5033359908883336E+00
   0.5052597707282914E+00
   0.4978400922636294E+00
   0.5308828245383884E+00
   0.4980042591111338E+00
   0.4979981345494672E+00
   0.5101611129647311E+00
   0.5206855080685150E+00
   0.4923981451144046E+00
   0.0000000000000000E+00
   0.0000000000000000E+00
   0.0000000000000000E+00
   0.0000000000000000E+00
   0.0000000000000000E+00
   0.0000000000000000E+00
   0.4762502050821634E+00
   0.4787259299061096E+00
   0.4967483568629111E+00
   0.4971452273552466E+00
   0.4983459115161022E+00
   0.4980942858386598E+00
   0.5001171904808531E+00
   0.5020363860687779E+00
   0.5017728903886083E+00
   0.4968477582044327E+00
   0.4982451258574693E+00
   0.4340223861504804E+00
   0.4255345917783155E+00
   0.5065461818289542E+00
   0.5511611653882105E+00
   0.5405803027188737E+00
   0.5007868056920005E+00
   0.4989058186949786E+00
   0.4920577806296896E+00
   0.4356028341961800E+00
   0.3320947946058880E+00
   0.4966105235803298E+00
   0.5411220727277803E+00
   0.5635957510526717E+00
   0.4916435617439154E+00
   0.5424695428156477E+00
   0.5881213497029368E+00
   0.5358256735003369E+00
   0.5006290845549464E+00
   0.4996041566973092E+00
   0.5826513869289238E+00
   0.5814839739758684E+00
   0.5039671649294858E+00
   0.3935285132340492E+00
   0.4984392707184703E+00
   0.4995676395378128E+00
   0.5032959655330335E+00
   0.5051434861591421E+00
   0.4977747014273760E+00
   0.5309569612778463E+00
   0.4980347795023791E+00
   0.4979913525724282E+00
   0.5100985304772429E+00
   0.5205066280745732E+00
   0.4922261576620603E+00
   0.0000000000000000E+00
   0.0000000000000000E+00
   0.0000000000000000E+00
   0.0000000000000000E+00
   0.0000000000000000E+00
   0.0000000000000000E+00
   0.4764473815316682E+00
   0.4788638122655365E+00
   0.4968164905464850E+00
   0.4971838495548937E+00
   0.4983659482759550E+00
   0.4981724424392086E+00
   0.5002512833979869E+00
   0.5021941829290967E+00
   0.5018947409973514E+00
   0.4969169991406601E+00
   0.4983168496908607E+00
   0.4340421982640043E+00
   0.4252582487231216E+00
   0.5065241352261910E+00
   0.5510040377476778E+00
   0.5405479418893547E+00
   0.5009278347159417E+00
   0.4990245994923869E+00
   0.4922527638158934E+00
   0.4354126607862593E+00
   0.3317783096487808E+00
   0.4967433840645616E+00
   0.5413155241391593E+00
   0.5632609885336721E+00
   0.4913259895910007E+00
   0.5426285182084734E+00
   0.5881789228834671E+00
   0.5360603388551503E+00
   0.5006860803096588E+00
   0.4997336282789464E+00
   0.5824734386655295E+00
   0.5814202467919911E+00
   0.5040762312614785E+00
   0.3936051831521139E+00
   0.4985935998477909E+00
   0.4997123904708135E+00
   0.5034395463885400E+00
   0.5055407881981316E+00
   0.4979676365288889E+00
   0.5310503708840509E+00
   0.4978751136866043E+00
   0.4982711394416218E+00
   0.5105023521425411E+00
   0.5190865780645277E+00
   0.4888439527216384E+00
   0.0000000000000000E+00
   0.0000000000000000E+00
   0.0000000000000000E+00
   0.0000000000000000E+00
   0.0000000000000000E+00
   0.0000000000000000E+00
   0.4752998416458254E+00
   0.4782935264332021E+00
   0.4964880894179153E+00
   0.4971247393780625E+00
   0.4983323250229784E+00
   0.4980812138123505E+00
   0.5000849993716024E+00
   0.5018489296761706E+00
   0.5014939865910178E+00
   0.4969755824846926E+00
   0.4982180474498675E+00
   0.4307017218456650E+00
   0.4171556640897562E+00
   0.5074553092757742E+00
   0.5509879784724596E+00
   0.5410804841848345E+00
   0.5006339190267428E+00
   0.4988365623629734E+00
   0.4920252385530809E+00
   0.4260879027420358E+00
   0.3253342500597195E+00
   0.4964881930957553E+00
   0.5360794913376006E+00
   0.5570905063876298E+00
   0.4811973590654962E+00
   0.5428411182589052E+00
   0.5830677382277956E+00
   0.5357392953989546E+00
   0.5012518335919520E+00
   0.4996236137599261E+00
   0.5789388271405287E+00
   0.5763912519368988E+00
   0.5045898183502254E+00
   0.3865979541157604E+00
   0.4983335428466305E+00
   0.4994490749369073E+00
   0.5034928343622938E+00
   0.5053408904478724E+00
   0.4980348005845041E+00
   0.5318837177310939E+00
SCALARS v double 1
LOOKUP_TABLE default
   0.0000000000000000E+00
   0.0000000000000000E+00
   0.0000000000000000E+00
   0.0000000000000000E+00
   0.0000000000000000E+00
   0.0000000000000000E+00
   0.0000000000000000E+00
   0.0000000000000000E+00
   0.0000000000000000E+00
   0.0000000000000000E+00
   0.0000000000000000E+00
   0.0000000000000000E+00
   0.0000000000000000E+00
   0.0000000000000000E+00
   0.0000000000000000E+00
   0.0000000000000000E+00
   0.0000000000000000E+00
   0.0000000000000000E+00
   0.0000000000000000E+00
   0.0000000000000000E+00
   0.0000000000000000E+00
   0.0000000000000000E+00
   0.0000000000000000E+00
   0.0000000000000000E+00
   0.0000000000000000E+00
   0.0000000000000000E+00
   0.0000000000000000E+00
   0.0000000000000000E+00
   0.0000000000000000E+00
   0.0000000000000000E+00
   0.0000000000000000E+00
   0.0000000000000000E+00
   0.0000000000000000E+00
   0.0000000000000000E+00
   0.0000000000000000E+00
   0.0000000000000000E+00
   0.0000000000000000E+00
   0.0000000000000000E+00
   0.0000000000000000E+00
   0.0000000000000000E+00
   0.0000000000000000E+00
   0.0000000000000000E+00
   0.0000000000000000E+00
   0.0000000000000000E+00
   0.0000000000000000E+00
   0.0000000000000000E+00
   0.0000000000000000E+00
   0.0000000000000000E+00
   0.0000000000000000E+00