title="tecplot geometry and solution file"
variables = x y z rho u v w p mach temperature
zone t="boundary 1 bc-1", solutiontime= 0.8000000E+02, strandid=1001, i=42, j=30, f=feblock
  0.000000000000E+00  0.000000000000E+00  0.000000000000E+00  0.000000000000E+00  0.000000000000E+00  0.000000000000E+00  0.000000000000E+00
  0.000000000000E+00  0.000000000000E+00  0.000000000000E+00  0.000000000000E+00  0.000000000000E+00  0.000000000000E+00  0.000000000000E+00
  0.000000000000E+00  0.000000000000E+00  0.000000000000E+00  0.000000000000E+00  0.000000000000E+00  0.000000000000E+00  0.000000000000E+00
  0.000000000000E+00  0.000000000000E+00  0.000000000000E+00  0.000000000000E+00  0.000000000000E+00  0.000000000000E+00  0.000000000000E+00
  0.000000000000E+00  0.000000000000E+00  0.000000000000E+00  0.000000000000E+00  0.000000000000E+00  0.000000000000E+00  0.000000000000E+00
  0.000000000000E+00  0.000000000000E+00  0.000000000000E+00  0.000000000000E+00  0.000000000000E+00  0.000000000000E+00  0.000000000000E+00
  0.000000000000E+00  0.000000000000E+00 -0.833333333333E+00  0.000000000000E+00  0.000000000000E+00 -0.833333333333E+00 -0.166666666667E+01
  0.000000000000E+00 -0.833333333333E+00 -0.833333333333E+00  0.000000000000E+00 -0.166666666667E+01 -0.250000000000E+01 -0.833333333333E+00
 -0.166666666667E+01 -0.166666666667E+01 -0.833333333333E+00 -0.250000000000E+01 -0.333333333333E+01 -0.166666666667E+01 -0.250000000000E+01
 -0.250000000000E+01 -0.166666666667E+01 -0.333333333333E+01 -0.416666666667E+01 -0.250000000000E+01 -0.333333333333E+01 -0.333333333333E+01
 -0.250000000000E+01 -0.416666666667E+01 -0.500000000000E+01 -0.333333333333E+01 -0.416666666667E+01 -0.416666666667E+01 -0.333333333333E+01
 -0.500000000000E+01 -0.416666666667E+01 -0.500000000000E+01 -0.500000000000E+01 -0.416666666667E+01 -0.500000000000E+01 -0.500000000000E+01
  0.250000000000E+01  0.150000000000E+01  0.250000000000E+01  0.500000000000E+00 -0.150000000000E+01  0.150000000000E+01  0.250000000000E+01
 -0.500000000000E+00  0.500000000000E+00 -0.150000000000E+01 -0.250000000000E+01  0.150000000000E+01  0.250000000000E+01 -0.500000000000E+00
  0.500000000000E+00 -0.150000000000E+01 -0.250000000000E+01  0.150000000000E+01  0.250000000000E+01 -0.500000000000E+00  0.500000000000E+00
 -0.150000000000E+01 -0.250000000000E+01  0.150000000000E+01  0.250000000000E+01 -0.500000000000E+00  0.500000000000E+00 -0.150000000000E+01
 -0.250000000000E+01  0.150000000000E+01  0.250000000000E+01 -0.500000000000E+00  0.500000000000E+00 -0.150000000000E+01 -0.250000000000E+01
  0.150000000000E+01 -0.500000000000E+00  0.500000000000E+00 -0.150000000000E+01 -0.250000000000E+01 -0.500000000000E+00 -0.250000000000E+01
  0.100130365923E+01  0.100332826908E+01  0.100126913278E+01  0.100360875118E+01  0.102858989701E+01  0.100327396121E+01  0.100129135900E+01
  0.102294255484E+01  0.100332312160E+01  0.102580142085E+01  0.134580034887E+01  0.100331258346E+01  0.100127084287E+01  0.102260074047E+01
  0.100338965134E+01  0.102579258820E+01  0.134747235789E+01  0.100327731320E+01  0.100129135824E+01  0.102273663416E+01  0.100331968699E+01
  0.102560858443E+01  0.134800021501E+01  0.100331258252E+01  0.100126913051E+01  0.102262488627E+01  0.100338964938E+01  0.102579260261E+01
  0.134789210460E+01  0.100327396117E+01  0.100130365797E+01  0.102273663292E+01  0.100332312164E+01  0.102580149559E+01  0.134800022015E+01
  0.100332826950E+01  0.102260075631E+01  0.100360874872E+01  0.102859003773E+01  0.134747241709E+01  0.102294255915E+01  0.134580052732E+01
  0.498339552224E+00  0.497133667850E+00  0.498372574120E+00  0.496498657149E+00  0.475308764674E+00  0.497192220572E+00  0.498351590381E+00
  0.478303478112E+00  0.496826497353E+00  0.476456286294E+00  0.000000000000E+00  0.497152300165E+00  0.498372829020E+00  0.478873926205E+00
  0.496756882924E+00  0.476258089700E+00  0.000000000000E+00  0.497191055668E+00  0.498351590703E+00  0.478734645436E+00  0.496834694573E+00
  0.476442076592E+00  0.000000000000E+00  0.497152300874E+00  0.498372575810E+00  0.478878450922E+00  0.496756884353E+00  0.476258086949E+00
  0.000000000000E+00  0.497192223280E+00  0.498339554520E+00  0.478734641692E+00  0.496826492043E+00  0.476456213422E+00  0.000000000000E+00
  0.497133672467E+00  0.478873919750E+00  0.496498636838E+00  0.475308639348E+00  0.000000000000E+00  0.478303500979E+00  0.000000000000E+00
  0.000000000000E+00  0.000000000000E+00  0.168265855777E-05  0.000000000000E+00  0.000000000000E+00  0.625152341551E-05 -0.108076197439E-06
  0.000000000000E+00 -0.468365411838E-04 -0.971126528585E-03  0.000000000000E+00  0.295456735576E-05 -0.672238087893E-09  0.661761446361E-04
 -0.866740211589E-05 -0.128970516024E-03  0.000000000000E+00 -0.104118874066E-10  0.107178494722E-06  0.753196738663E-04  0.211374529186E-09
  0.566883088926E-08  0.000000000000E+00 -0.295228151464E-05 -0.168389171693E-05 -0.476763867275E-08  0.866676551237E-05  0.129003707846E-03
  0.000000000000E+00 -0.625216176358E-05  0.000000000000E+00 -0.753246735891E-04  0.468323281035E-04  0.971187061148E-03  0.000000000000E+00
  0.000000000000E+00 -0.661826993204E-04  0.000000000000E+00  0.000000000000E+00  0.000000000000E+00  0.000000000000E+00  0.000000000000E+00
  0.101143308383E-02  0.379587495771E-03  0.996756871394E-03  0.266297418830E-02  0.353941769566E-01  0.395231708228E-03  0.100979508572E-02
 -0.231106248571E-02  0.276881966594E-02  0.342588278466E-01  0.000000000000E+00  0.386482835162E-03  0.997187953335E-03 -0.251664578919E-02
  0.275034004962E-02  0.343794965068E-01  0.000000000000E+00  0.390929545068E-03  0.100979490919E-02 -0.254329994056E-02  0.275306127275E-02
  0.343532613747E-01  0.000000000000E+00  0.386481619909E-03  0.996756899539E-03 -0.256827046354E-02  0.275034025830E-02  0.343794994341E-01
  0.000000000000E+00  0.395229580836E-03  0.101143516880E-02 -0.254329817104E-02  0.276882532794E-02  0.342588562096E-01  0.000000000000E+00
  0.379588913337E-03 -0.251665122528E-02  0.266297447489E-02  0.353942799557E-01  0.000000000000E+00 -0.231106889476E-02  0.000000000000E+00
  0.715641467251E+00  0.717461227187E+00  0.715609877723E+00  0.718888475531E+00  0.755498583394E+00  0.717396913186E+00  0.715632340732E+00
  0.732931705096E+00  0.718652050648E+00  0.753362241312E+00  0.100206987288E+01  0.717435348081E+00  0.715611731892E+00  0.732407176199E+00
  0.718721777707E+00  0.753403279897E+00  0.100331483456E+01  0.717400048185E+00  0.715632340009E+00  0.732528126982E+00  0.718650721947E+00
  0.753198008610E+00  0.100370787186E+01  0.717435347192E+00  0.715609875459E+00  0.732420674954E+00  0.718721775597E+00  0.753403294737E+00
  0.100362737389E+01  0.717396913540E+00  0.715641465721E+00  0.732528125967E+00  0.718652047404E+00  0.753362287152E+00  0.100370787568E+01
  0.717461228401E+00  0.732407198094E+00  0.718888466614E+00  0.755498663483E+00  0.100331487865E+01  0.732931721697E+00  0.100207000576E+01
  0.498192731723E+00  0.496857204359E+00  0.498228120741E+00  0.495805986262E+00  0.470020596243E+00  0.496924560993E+00  0.498204879720E+00
  0.477571563369E+00  0.496144925845E+00  0.471096030610E+00  0.000000000000E+00  0.496880909053E+00  0.498228156431E+00  0.478233429223E+00
  0.496067686539E+00  0.470893816309E+00  0.000000000000E+00  0.496923137634E+00  0.498204880103E+00  0.478086772259E+00  0.496152631352E+00
  0.471094839053E+00  0.000000000000E+00  0.496880909836E+00  0.498228122655E+00  0.478239455872E+00  0.496067688209E+00  0.470893812491E+00
  0.000000000000E+00  0.496924563566E+00  0.498192734241E+00  0.478086768554E+00  0.496144921702E+00  0.471095963886E+00  0.000000000000E+00
  0.496857208658E+00  0.478233419362E+00  0.495805968449E+00  0.470020487777E+00  0.000000000000E+00  0.477571581828E+00  0.000000000000E+00
  0.100059362104E+01  0.100111374215E+01  0.100058395492E+01  0.100282492013E+01  0.102829905274E+01  0.100107818731E+01  0.100059315205E+01
  0.100309091872E+01  0.100278050934E+01  0.102817866733E+01  0.104242640687E+01  0.100109328226E+01  0.100058483854E+01  0.100270810112E+01
  0.100281130809E+01  0.102824352992E+01  0.104242640687E+01  0.100107921733E+01  0.100059315180E+01  0.100274043534E+01  0.100278208807E+01
  0.102814780225E+01  0.104242640687E+01  0.100109328196E+01  0.100058395402E+01  0.100270290573E+01  0.100281130711E+01  0.102824353573E+01
  0.104242640687E+01  0.100107818785E+01  0.100059362016E+01  0.100274043516E+01  0.100278050477E+01  0.102817865498E+01  0.104242640687E+01
  0.100111374342E+01  0.100270811556E+01  0.100282491015E+01  0.102829902106E+01  0.104242640687E+01  0.100309093722E+01  0.104242640687E+01
         3         6         2         1
         6         9         4         2
         9        14         8         4
        14        10         5         8
        10        17        11         5
         7        12         6         3
        12        15         9         6
        15        20        14         9
        20        16        10        14
        16        23        17        10
        13        18        12         7
        18        21        15        12
        21        26        20        15
        26        22        16        20
        22        29        23        16
        19        24        18        13
        24        27        21        18
        27        32        26        21
        32        28        22        26
        28        35        29        22
        25        30        24        19
        30        33        27        24
        33        37        32        27
        37        34        28        32
        34        40        35        28
        31        36        30        25
        36        38        33        30
        38        41        37        33
        41        39        34        37
        39        42        40        34
zone t="boundary 2 bc-2", solutiontime= 0.8000000E+02, strandid=1002, i=51, j=80, f=feblock
  0.500000000000E+01  0.500000000000E+01  0.400000000000E+01  0.425172245441E+01  0.500000000000E+01  0.427741389634E+01  0.300000000000E+01
  0.341887665662E+01  0.368116975164E+01  0.500000000000E+01  0.430894944607E+01  0.352044655687E+01  0.200000000000E+01  0.259168638257E+01
  0.301798341022E+01  0.500000000000E+01  0.435643616790E+01  0.375117520592E+01  0.271663237208E+01  0.288980181581E+01  0.100000000000E+01
  0.191939879870E+01  0.130679496696E+01  0.219385942988E+01  0.500000000000E+01  0.441735041915E+01  0.373031592783E+01  0.208456665067E+01
  0.230848460393E+01  0.190054259015E+01  0.298584217914E+01  0.000000000000E+00  0.613733212775E+00  0.151350918120E+01  0.794128609067E+00
  0.144135983281E+01  0.400000000000E+01  0.132476136006E+01  0.200000000000E+01  0.164582171489E+01  0.102008138039E+01  0.300000000000E+01
  0.000000000000E+00  0.000000000000E+00  0.701034609231E+00  0.609175469936E+00  0.100000000000E+01  0.505577837730E+00  0.000000000000E+00
  0.000000000000E+00  0.000000000000E+00
 -0.500000000000E+01 -0.500000000000E+01 -0.500000000000E+01 -0.500000000000E+01 -0.500000000000E+01 -0.500000000000E+01 -0.500000000000E+01
 -0.500000000000E+01 -0.500000000000E+01 -0.500000000000E+01 -0.500000000000E+01 -0.500000000000E+01 -0.500000000000E+01 -0.500000000000E+01
 -0.500000000000E+01 -0.500000000000E+01 -0.500000000000E+01 -0.500000000000E+01 -0.500000000000E+01 -0.500000000000E+01 -0.500000000000E+01
 -0.500000000000E+01 -0.500000000000E+01 -0.500000000000E+01 -0.500000000000E+01 -0.500000000000E+01 -0.500000000000E+01 -0.500000000000E+01
 -0.500000000000E+01 -0.500000000000E+01 -0.500000000000E+01 -0.500000000000E+01 -0.500000000000E+01 -0.500000000000E+01 -0.500000000000E+01
 -0.500000000000E+01 -0.500000000000E+01 -0.500000000000E+01 -0.500000000000E+01 -0.500000000000E+01 -0.500000000000E+01 -0.500000000000E+01
 -0.500000000000E+01 -0.500000000000E+01 -0.500000000000E+01 -0.500000000000E+01 -0.500000000000E+01 -0.500000000000E+01 -0.500000000000E+01
 -0.500000000000E+01 -0.500000000000E+01
  0.250000000000E+01  0.150000000000E+01  0.250000000000E+01  0.168388151981E+01  0.500000000000E+00  0.784980628699E+00  0.250000000000E+01
  0.172616846193E+01  0.104016062853E+01 -0.500000000000E+00 -0.103062804534E+00  0.179404976675E+00  0.250000000000E+01  0.166729536217E+01
  0.923171218453E+00 -0.150000000000E+01 -0.102255113015E+01 -0.669125930414E+00  0.135977239814E+00 -0.856266143819E+00  0.250000000000E+01
  0.158034275708E+01  0.175813852804E+01  0.774089735567E+00 -0.250000000000E+01 -0.179804978092E+01 -0.146769777443E+01 -0.223755606368E+00
 -0.164420331359E+01 -0.108875578595E+01 -0.190240885061E+01  0.250000000000E+01  0.185787993997E+01  0.110883669208E+01  0.100177177909E+01
  0.349093656766E+00 -0.250000000000E+01 -0.526785284186E+00 -0.250000000000E+01 -0.183798308008E+01 -0.145695630084E+01 -0.250000000000E+01
  0.150000000000E+01  0.500000000000E+00  0.396172271494E-01 -0.788824871575E+00 -0.250000000000E+01 -0.198405114581E+01 -0.150000000000E+01
 -0.500000000000E+00 -0.250000000000E+01
  0.100106559575E+01  0.100103269957E+01  0.100010912436E+01  0.100051696575E+01  0.100990986602E+01  0.100104921727E+01  0.100043009942E+01
  0.999671622645E+00  0.100101566380E+01  0.101760310147E+01  0.100397320281E+01  0.994440345803E+00  0.100126079301E+01  0.100005534719E+01
  0.997721515046E+00  0.960062066853E+00  0.980822220915E+00  0.996354954928E+00  0.992836841577E+00  0.998641554395E+00  0.100186630503E+01
  0.100050127666E+01  0.100162816293E+01  0.100015122232E+01  0.746580746530E+00  0.967505943303E+00  0.953107700815E+00  0.995197724596E+00
  0.991331581104E+00  0.991455551771E+00  0.966960408999E+00  0.100130365797E+01  0.100201614201E+01  0.100079862014E+01  0.100275934610E+01
  0.100506420073E+01  0.928896501981E+00  0.997824866788E+00  0.928819213400E+00  0.953084240262E+00  0.103614638919E+01  0.935049791424E+00
  0.100332826950E+01  0.100360874872E+01  0.100719133775E+01  0.100122225109E+01  0.902768465923E+00  0.104956182353E+01  0.102859003773E+01
  0.102294255915E+01  0.134580052732E+01
  0.497869881882E+00  0.498259905047E+00  0.501497800023E+00  0.496968372132E+00  0.510496179693E+00  0.507448743459E+00  0.501853532806E+00
  0.499628248532E+00  0.501251359552E+00  0.519081534694E+00  0.550988665710E+00  0.541088917219E+00  0.500094098320E+00  0.500671824613E+00
  0.504608388664E+00  0.488846672348E+00  0.557093452194E+00  0.578946762294E+00  0.531904817263E+00  0.576407893680E+00  0.498087779008E+00
  0.499470981071E+00  0.498849791545E+00  0.503519699141E+00  0.000000000000E+00  0.417161296009E+00  0.481206333740E+00  0.542862971066E+00
  0.426100971334E+00  0.583085396461E+00  0.325342526914E+00  0.498339554520E+00  0.498226878984E+00  0.498352728071E+00  0.496501067194E+00
  0.498053964145E+00  0.000000000000E+00  0.535755318422E+00  0.000000000000E+00  0.386608647370E+00  0.536091296080E+00  0.000000000000E+00
  0.497133672467E+00  0.496498636838E+00  0.492038106909E+00  0.505352189539E+00  0.000000000000E+00  0.430709357182E+00  0.475308639348E+00
  0.478303500979E+00  0.000000000000E+00
  0.000000000000E+00  0.000000000000E+00  0.000000000000E+00  0.000000000000E+00  0.000000000000E+00  0.000000000000E+00  0.000000000000E+00
  0.000000000000E+00  0.000000000000E+00  0.000000000000E+00  0.000000000000E+00  0.000000000000E+00  0.000000000000E+00  0.000000000000E+00
  0.000000000000E+00  0.000000000000E+00  0.000000000000E+00  0.000000000000E+00  0.000000000000E+00  0.000000000000E+00  0.000000000000E+00
  0.000000000000E+00  0.000000000000E+00  0.000000000000E+00  0.000000000000E+00  0.000000000000E+00  0.000000000000E+00  0.000000000000E+00
  0.000000000000E+00  0.000000000000E+00  0.000000000000E+00  0.000000000000E+00  0.000000000000E+00  0.000000000000E+00  0.000000000000E+00
  0.000000000000E+00  0.000000000000E+00  0.000000000000E+00  0.000000000000E+00  0.000000000000E+00  0.000000000000E+00  0.000000000000E+00
  0.000000000000E+00  0.000000000000E+00  0.000000000000E+00  0.000000000000E+00  0.000000000000E+00  0.000000000000E+00  0.000000000000E+00
  0.000000000000E+00  0.000000000000E+00
 -0.171891943087E-03  0.370381536398E-02  0.306018315206E-03 -0.997823443332E-03  0.183567277410E-02 -0.137112194493E-02  0.367241923604E-03
 -0.694971077774E-03 -0.322979096522E-02 -0.456327569321E-01 -0.942310397912E-02  0.186884452712E-02  0.117643551664E-02  0.100963136865E-02
 -0.879542882078E-03 -0.110578046195E+00 -0.319463550831E-01 -0.900195219841E-02  0.725691986154E-02  0.142135938969E-01  0.153866010796E-02
  0.243066034764E-02  0.264223198825E-02  0.486988301809E-02  0.000000000000E+00 -0.598772476225E-01  0.589974283383E-02  0.195812642742E-01
  0.327872763937E-02  0.339357869261E-01  0.388753816169E-02  0.101143516880E-02  0.208134779445E-02  0.339556859545E-02  0.251391097357E-02
  0.708276660472E-02  0.000000000000E+00  0.365704940118E-01  0.000000000000E+00 -0.256496982881E-02  0.651967419863E-01  0.000000000000E+00
  0.379588913337E-03  0.266297447489E-02  0.333833831762E-02  0.249691509609E-01  0.000000000000E+00  0.141967060265E+00  0.353942799557E-01
 -0.231106889476E-02  0.000000000000E+00
  0.715164964716E+00  0.715693355515E+00  0.714467877701E+00  0.714592279949E+00  0.723826149344E+00  0.716427703743E+00  0.714552919394E+00
  0.714005700736E+00  0.715274835543E+00  0.729041153332E+00  0.715420160375E+00  0.709291799852E+00  0.715434024593E+00  0.714355042325E+00
  0.712190043038E+00  0.675892437059E+00  0.693012168255E+00  0.704430053902E+00  0.709499855757E+00  0.705753759623E+00  0.716115808468E+00
  0.715332640458E+00  0.715852790284E+00  0.713533265707E+00  0.555896775032E+00  0.685101751679E+00  0.675233012231E+00  0.711745418559E+00
  0.707467747641E+00  0.697282706958E+00  0.699064287631E+00  0.715641465721E+00  0.716177919006E+00  0.715509374540E+00  0.717550291400E+00
  0.718017961494E+00  0.691647316368E+00  0.716063557645E+00  0.691589768041E+00  0.679823644606E+00  0.735163268984E+00  0.696228995942E+00
  0.717461228401E+00  0.718888466614E+00  0.719045410326E+00  0.725477339514E+00  0.672192634407E+00  0.725658865428E+00  0.755498663483E+00
  0.732931721697E+00  0.100207000576E+01
  0.497828797860E+00  0.498040386139E+00  0.501461316005E+00  0.496991174473E+00  0.509630556322E+00  0.506957180164E+00  0.501867716705E+00
  0.499644636447E+00  0.501169375012E+00  0.520303169998E+00  0.551724949532E+00  0.541482106346E+00  0.500008886849E+00  0.500662401454E+00
  0.504774988815E+00  0.504841941522E+00  0.561050111240E+00  0.581989579213E+00  0.531830338112E+00  0.579663716928E+00  0.497917276181E+00
  0.499236337226E+00  0.498715965532E+00  0.503846773702E+00  0.000000000000E+00  0.423270053115E+00  0.483219121111E+00  0.542876308049E+00
  0.426302138259E+00  0.588619465743E+00  0.323410121812E+00  0.498192734241E+00  0.498073941778E+00  0.498136755581E+00  0.496059672223E+00
  0.498064446160E+00  0.000000000000E+00  0.535751346855E+00  0.000000000000E+00  0.386887426115E+00  0.541853060919E+00  0.000000000000E+00
  0.496857208658E+00  0.495805968449E+00  0.492178398039E+00  0.502357542944E+00  0.000000000000E+00  0.460950345290E+00  0.470020487777E+00
  0.477571581828E+00  0.000000000000E+00
  0.100016517884E+01  0.100093703048E+01  0.100014588850E+01  0.999912271527E+00  0.100341292146E+01  0.100194752460E+01  0.999944011807E+00
  0.999936337480E+00  0.100036873145E+01  0.100300167441E+01  0.997624460219E+00  0.998560169027E+00  0.100034640467E+01  0.100004170976E+01
  0.999343048353E+00  0.985612747917E+00  0.989187454024E+00  0.989809977443E+00  0.100046629664E+01  0.989399308614E+00  0.100069453062E+01
  0.100096393678E+01  0.100056482384E+01  0.998795531816E+00  0.104242640687E+01  0.991355618009E+00  0.991835672207E+00  0.100125187323E+01
  0.999115599238E+00  0.984608728043E+00  0.101213037636E+01  0.100059362016E+01  0.100063167106E+01  0.100091377446E+01  0.100180607826E+01
  0.100016013441E+01  0.104242640687E+01  0.100467428110E+01  0.104242640687E+01  0.998603336664E+00  0.993323518105E+00  0.104242640687E+01
  0.100111374342E+01  0.100282491015E+01  0.999476004933E+00  0.101442838912E+01  0.104242640687E+01  0.967949089628E+00  0.102829902106E+01
  0.100309093722E+01  0.104242640687E+01
        28        24        19        19
        19        24        15        15
        19        15        12        12
        22        13        14        14
        13        22        23        23
        31        27        37        37
        31        29        20        20
        35        34        36        36
        34        23        22        22
         8         9        15        15
         9         6        12        12
        20        18        27        27
        27        18        17        17
        38        45        36        36
        38        30        41        41
        28        19        20        20
        30        40        41        41
        40        39        47        47
        11        10        17        17
        10        11         5         5
         8        14         7         7
        14        24        22        22
        45        46        50        50
        46        41        49        49
        41        46        38        38
        29        39        40        40
        36        24        28        28
        36        45        35        35
        20        29        30        30
        11        18        12        12
        15        24        14        14
        12        20        19        19
        12        18        20        20
        31        20        27        27
         9        12        15        15
         9         4         6         6
        24        36        34        34
        35        23        34        34
        38        36        28        28
        41        47        48        48
        29        40        30        30
        49        50        46        46
        46        45        38        38
        25        26        16        16
        26        37        27        27
        32        33        43        43
        33        21        23        23
        51        48        47        47
         1         4         3         3
         4         2         6         6
         6         5        11        11
        35        43        33        33
        43        35        44        44
         8         3         4         4
         3         8         7         7
        31        37        42        42
        17        16        26        26
        16        17        10        10
        34        22        24        24
        47        41        40        40
        15        14         8         8
        20        30        28        28
        11        17        18        18
        39        31        42        42
         4         9         8         8
        33        23        35        35
        28        30        38        38
        17        26        27        27
        41        48        49        49
        35        45        44        44
        39        29        31        31
        45        50        44        44
        21        13        23        23
        13         7        14        14
         2         5         6         6
         6        11        12        12
        25        37        26        26
        51        49        48        48
        32        21        33        33
         1         2         4         4
zone t="boundary 3 bc-3", solutiontime= 0.8000000E+02, strandid=1003, i=51, j=80, f=feblock
  0.500000000000E+01  0.500000000000E+01  0.400000000000E+01  0.425172245441E+01  0.500000000000E+01  0.427741389634E+01  0.300000000000E+01
  0.341887665662E+01  0.368116975164E+01  0.500000000000E+01  0.430894944607E+01  0.352044655687E+01  0.200000000000E+01  0.259168638257E+01
  0.301798341022E+01  0.500000000000E+01  0.435643616790E+01  0.375117520592E+01  0.271663237208E+01  0.288980181581E+01  0.100000000000E+01
  0.191939879870E+01  0.130679496696E+01  0.219385942988E+01  0.500000000000E+01  0.441735041915E+01  0.373031592783E+01  0.208456665067E+01
  0.230848460393E+01  0.190054259015E+01  0.298584217914E+01  0.000000000000E+00  0.613733212775E+00  0.151350918120E+01  0.794128609067E+00
  0.144135983281E+01  0.400000000000E+01  0.132476136006E+01  0.200000000000E+01  0.164582171489E+01  0.102008138039E+01  0.300000000000E+01
  0.000000000000E+00  0.000000000000E+00  0.701034609231E+00  0.609175469936E+00  0.100000000000E+01  0.505577837730E+00  0.000000000000E+00
  0.000000000000E+00  0.000000000000E+00
  0.000000000000E+00  0.000000000000E+00  0.000000000000E+00  0.000000000000E+00  0.000000000000E+00  0.000000000000E+00  0.000000000000E+00
  0.000000000000E+00  0.000000000000E+00  0.000000000000E+00  0.000000000000E+00  0.000000000000E+00  0.000000000000E+00  0.000000000000E+00
  0.000000000000E+00  0.000000000000E+00  0.000000000000E+00  0.000000000000E+00  0.000000000000E+00  0.000000000000E+00  0.000000000000E+00
  0.000000000000E+00  0.000000000000E+00  0.000000000000E+00  0.000000000000E+00  0.000000000000E+00  0.000000000000E+00  0.000000000000E+00
  0.000000000000E+00  0.000000000000E+00  0.000000000000E+00  0.000000000000E+00  0.000000000000E+00  0.000000000000E+00  0.000000000000E+00
  0.000000000000E+00  0.000000000000E+00  0.000000000000E+00  0.000000000000E+00  0.000000000000E+00  0.000000000000E+00  0.000000000000E+00
  0.000000000000E+00  0.000000000000E+00  0.000000000000E+00  0.000000000000E+00  0.000000000000E+00  0.000000000000E+00  0.000000000000E+00
  0.000000000000E+00  0.000000000000E+00
  0.250000000000E+01  0.150000000000E+01  0.250000000000E+01  0.168388151981E+01  0.500000000000E+00  0.784980628699E+00  0.250000000000E+01
  0.172616846193E+01  0.104016062853E+01 -0.500000000000E+00 -0.103062804534E+00  0.179404976675E+00  0.250000000000E+01  0.166729536217E+01
  0.923171218453E+00 -0.150000000000E+01 -0.102255113015E+01 -0.669125930414E+00  0.135977239814E+00 -0.856266143819E+00  0.250000000000E+01
  0.158034275708E+01  0.175813852804E+01  0.774089735567E+00 -0.250000000000E+01 -0.179804978092E+01 -0.146769777443E+01 -0.223755606368E+00
 -0.164420331359E+01 -0.108875578595E+01 -0.190240885061E+01  0.250000000000E+01  0.185787993997E+01  0.110883669208E+01  0.100177177909E+01
  0.349093656766E+00 -0.250000000000E+01 -0.526785284186E+00 -0.250000000000E+01 -0.183798308008E+01 -0.145695630084E+01 -0.250000000000E+01
  0.150000000000E+01  0.500000000000E+00  0.396172271494E-01 -0.788824871575E+00 -0.250000000000E+01 -0.198405114581E+01 -0.150000000000E+01
 -0.500000000000E+00 -0.250000000000E+01
  0.100106558616E+01  0.100103269193E+01  0.100010912228E+01  0.100051695680E+01  0.100990987411E+01  0.100104923465E+01  0.100043009612E+01
  0.999671613957E+00  0.100101565822E+01  0.101760319853E+01  0.100397324430E+01  0.994440351820E+00  0.100126080176E+01  0.100005534463E+01
  0.997721492022E+00  0.960062207455E+00  0.980822350702E+00  0.996355043458E+00  0.992836852384E+00  0.998641625811E+00  0.100186630688E+01
  0.100050128174E+01  0.100162816854E+01  0.100015123986E+01  0.746580475373E+00  0.967505965023E+00  0.953107823128E+00  0.995197753074E+00
  0.991331599722E+00  0.991455615758E+00  0.966960429331E+00  0.100130365923E+01  0.100201614337E+01  0.100079862471E+01  0.100275934687E+01
  0.100506421206E+01  0.928896349170E+00  0.997824885930E+00  0.928819096803E+00  0.953084279149E+00  0.103614645877E+01  0.935049745345E+00
  0.100332826908E+01  0.100360875118E+01  0.100719134541E+01  0.100122222790E+01  0.902768398838E+00  0.104956198117E+01  0.102858989701E+01
  0.102294255484E+01  0.134580034887E+01
  0.497869879479E+00  0.498259889006E+00  0.501497803853E+00  0.496968354480E+00  0.510496097040E+00  0.507448653320E+00  0.501853534452E+00
  0.499628262337E+00  0.501251290756E+00  0.519081523382E+00  0.550988568645E+00  0.541088821762E+00  0.500094081692E+00  0.500671822449E+00
  0.504608311389E+00  0.488846582032E+00  0.557093595012E+00  0.578946631788E+00  0.531904621975E+00  0.576407931064E+00  0.498087772498E+00
  0.499470966360E+00  0.498849778708E+00  0.503519631567E+00  0.000000000000E+00  0.417161314708E+00  0.481206507084E+00  0.542862836574E+00
  0.426101181935E+00  0.583085414945E+00  0.325342724427E+00  0.498339552224E+00  0.498226875707E+00  0.498352719228E+00  0.496501075891E+00
  0.498053878041E+00  0.000000000000E+00  0.535755202274E+00  0.000000000000E+00  0.386608972796E+00  0.536091415807E+00  0.000000000000E+00
  0.497133667850E+00  0.496498657149E+00  0.492038035609E+00  0.505352184219E+00  0.000000000000E+00  0.430709444836E+00  0.475308764674E+00
  0.478303478112E+00  0.000000000000E+00
  0.000000000000E+00  0.000000000000E+00  0.000000000000E+00  0.000000000000E+00  0.000000000000E+00  0.000000000000E+00  0.000000000000E+00
  0.000000000000E+00  0.000000000000E+00  0.000000000000E+00  0.000000000000E+00  0.000000000000E+00  0.000000000000E+00  0.000000000000E+00
  0.000000000000E+00  0.000000000000E+00  0.000000000000E+00  0.000000000000E+00  0.000000000000E+00  0.000000000000E+00  0.000000000000E+00
  0.000000000000E+00  0.000000000000E+00  0.000000000000E+00  0.000000000000E+00  0.000000000000E+00  0.000000000000E+00  0.000000000000E+00
  0.000000000000E+00  0.000000000000E+00  0.000000000000E+00  0.000000000000E+00  0.000000000000E+00  0.000000000000E+00  0.000000000000E+00
  0.000000000000E+00  0.000000000000E+00  0.000000000000E+00  0.000000000000E+00  0.000000000000E+00  0.000000000000E+00  0.000000000000E+00
  0.000000000000E+00  0.000000000000E+00  0.000000000000E+00  0.000000000000E+00  0.000000000000E+00  0.000000000000E+00  0.000000000000E+00
  0.000000000000E+00  0.000000000000E+00
 -0.171889531303E-03  0.370382104615E-02  0.306016640872E-03 -0.997824061836E-03  0.183575128912E-02 -0.137112860888E-02  0.367242927279E-03