# vtk DataFile Version 2.0
FUN3D:global_image_vtk
ASCII
DATASET UNSTRUCTURED_GRID
POINTS 357 double
    0.5000000000000000E+01    0.0000000000000000E+00    0.2500000000000000E+01
    0.5000000000000000E+01    0.0000000000000000E+00    0.1500000000000000E+01
    0.5000000000000000E+01    0.0000000000000000E+00    0.5000000000000000E+00
    0.5000000000000000E+01    0.0000000000000000E+00   -0.5000000000000000E+00
    0.5000000000000000E+01    0.0000000000000000E+00   -0.1500000000000000E+01
    0.5000000000000000E+01    0.0000000000000000E+00   -0.2500000000000000E+01
    0.4000000000000000E+01    0.0000000000000000E+00   -0.2500000000000000E+01
    0.3000000000000000E+01    0.0000000000000000E+00   -0.2500000000000000E+01
    0.2000000000000000E+01    0.0000000000000000E+00   -0.2500000000000000E+01
    0.9999999999999998E+00    0.0000000000000000E+00   -0.2500000000000000E+01
    0.0000000000000000E+00    0.0000000000000000E+00   -0.2500000000000000E+01
    0.0000000000000000E+00    0.0000000000000000E+00   -0.1500000000000000E+01
    0.0000000000000000E+00    0.0000000000000000E+00   -0.5000000000000000E+00
    0.0000000000000000E+00    0.0000000000000000E+00    0.5000000000000000E+00
    0.0000000000000000E+00    0.0000000000000000E+00    0.1500000000000000E+01
    0.0000000000000000E+00    0.0000000000000000E+00    0.2500000000000000E+01
    0.1000000000000000E+01    0.0000000000000000E+00    0.2500000000000000E+01
    0.2000000000000000E+01    0.0000000000000000E+00    0.2500000000000000E+01
    0.3000000000000000E+01    0.0000000000000000E+00    0.2500000000000000E+01
    0.4000000000000000E+01    0.0000000000000000E+00    0.2500000000000000E+01
    0.4251722454414101E+01    0.0000000000000000E+00    0.1683881519811194E+01
    0.6137332127746504E+00    0.0000000000000000E+00    0.1857879939968904E+01
    0.5055778377301318E+00    0.0000000000000000E+00   -0.1984051145810370E+01
    0.4417350419147004E+01    0.0000000000000000E+00   -0.1798049780917599E+01
    0.4277413896341787E+01    0.0000000000000000E+00    0.7849806286986014E+00
    0.4308949446070184E+01    0.0000000000000000E+00   -0.1030628045339280E+00
    0.3520446556869569E+01    0.0000000000000000E+00    0.1794049766750259E+00
    0.2591686382569276E+01    0.0000000000000000E+00    0.1667295362171870E+01
    0.1306794966956192E+01    0.0000000000000000E+00    0.1758138528035871E+01
    0.7010346092308208E+00    0.0000000000000000E+00    0.3961722714940701E-01
    0.2308484603929350E+01    0.0000000000000000E+00   -0.1644203313594280E+01
    0.2985842179142563E+01    0.0000000000000000E+00   -0.1902408850608312E+01
    0.7941286090671454E+00    0.0000000000000000E+00    0.1001771779085911E+01
    0.1020081380390785E+01    0.0000000000000000E+00   -0.1456956300840256E+01
    0.4356436167904402E+01    0.0000000000000000E+00   -0.1022551130153989E+01
    0.3730315927830617E+01    0.0000000000000000E+00   -0.1467697774434008E+01
    0.2084566650673803E+01    0.0000000000000000E+00   -0.2237556063676878E+00
    0.1900542590153839E+01    0.0000000000000000E+00   -0.1088755785946356E+01
    0.1324761360056765E+01    0.0000000000000000E+00   -0.5267852841860601E+00
    0.3681169751640886E+01    0.0000000000000000E+00    0.1040160628527462E+01
    0.3418876656618056E+01    0.0000000000000000E+00    0.1726168461930342E+01
    0.3751175205920376E+01    0.0000000000000000E+00   -0.6691259304140329E+00
    0.2889801815813465E+01    0.0000000000000000E+00   -0.8562661438192326E+00
    0.3017983410224082E+01    0.0000000000000000E+00    0.9231712184526961E+00
    0.1645821714894795E+01    0.0000000000000000E+00   -0.1837983080076178E+01
    0.1513509181197389E+01    0.0000000000000000E+00    0.1108836692078749E+01
    0.1919398798697967E+01    0.0000000000000000E+00    0.1580342757081665E+01
    0.2193859429875553E+01    0.0000000000000000E+00    0.7740897355665203E+00
    0.6091754699356742E+00    0.0000000000000000E+00   -0.7888248715753817E+00
    0.1441359832811715E+01    0.0000000000000000E+00    0.3490936567660688E+00
    0.2716632372076206E+01    0.0000000000000000E+00    0.1359772398136161E+00
    0.5000000000000000E+01   -0.8333333333333334E+00    0.2500000000000000E+01
    0.5000000000000000E+01   -0.8333333333333334E+00    0.1500000000000000E+01
    0.5000000000000000E+01   -0.8333333333333334E+00    0.5000000000000000E+00
    0.5000000000000000E+01   -0.8333333333333334E+00   -0.5000000000000000E+00
    0.5000000000000000E+01   -0.8333333333333334E+00   -0.1500000000000000E+01
    0.5000000000000000E+01   -0.8333333333333334E+00   -0.2500000000000000E+01
    0.4000000000000000E+01   -0.8333333333333334E+00   -0.2500000000000000E+01
    0.3000000000000000E+01   -0.8333333333333334E+00   -0.2500000000000000E+01
    0.2000000000000000E+01   -0.8333333333333334E+00   -0.2500000000000000E+01
    0.9999999999999998E+00   -0.8333333333333334E+00   -0.2500000000000000E+01
    0.0000000000000000E+00   -0.8333333333333334E+00   -0.2500000000000000E+01
    0.0000000000000000E+00   -0.8333333333333334E+00   -0.1500000000000000E+01
    0.0000000000000000E+00   -0.8333333333333334E+00   -0.5000000000000000E+00
    0.0000000000000000E+00   -0.8333333333333334E+00    0.5000000000000000E+00
    0.0000000000000000E+00   -0.8333333333333334E+00    0.1500000000000000E+01
    0.0000000000000000E+00   -0.8333333333333334E+00    0.2500000000000000E+01
    0.1000000000000000E+01   -0.8333333333333334E+00    0.2500000000000000E+01
    0.2000000000000000E+01   -0.8333333333333334E+00    0.2500000000000000E+01
    0.3000000000000000E+01   -0.8333333333333334E+00    0.2500000000000000E+01
    0.4000000000000000E+01   -0.8333333333333334E+00    0.2500000000000000E+01
    0.4251722454414101E+01   -0.8333333333333334E+00    0.1683881519811194E+01
    0.6137332127746504E+00   -0.8333333333333334E+00    0.1857879939968904E+01
    0.5055778377301318E+00   -0.8333333333333334E+00   -0.1984051145810370E+01
    0.4417350419147004E+01   -0.8333333333333334E+00   -0.1798049780917599E+01
    0.4277413896341787E+01   -0.8333333333333334E+00    0.7849806286986014E+00
    0.4308949446070184E+01   -0.8333333333333334E+00   -0.1030628045339280E+00
    0.3520446556869569E+01   -0.8333333333333334E+00    0.1794049766750259E+00
    0.2591686382569276E+01   -0.8333333333333334E+00    0.1667295362171870E+01
    0.1306794966956192E+01   -0.8333333333333334E+00    0.1758138528035871E+01
    0.7010346092308208E+00   -0.8333333333333334E+00    0.3961722714940701E-01
    0.2308484603929350E+01   -0.8333333333333334E+00   -0.1644203313594280E+01
    0.2985842179142563E+01   -0.8333333333333334E+00   -0.1902408850608312E+01
    0.7941286090671454E+00   -0.8333333333333334E+00    0.1001771779085911E+01
    0.1020081380390785E+01   -0.8333333333333334E+00   -0.1456956300840256E+01
    0.4356436167904402E+01   -0.8333333333333334E+00   -0.1022551130153989E+01
    0.3730315927830617E+01   -0.8333333333333334E+00   -0.1467697774434008E+01
    0.2084566650673803E+01   -0.8333333333333334E+00   -0.2237556063676878E+00
    0.1900542590153839E+01   -0.8333333333333334E+00   -0.1088755785946356E+01
    0.1324761360056765E+01   -0.8333333333333334E+00   -0.5267852841860601E+00
    0.3681169751640886E+01   -0.8333333333333334E+00    0.1040160628527462E+01
    0.3418876656618056E+01   -0.8333333333333334E+00    0.1726168461930342E+01
    0.3751175205920376E+01   -0.8333333333333334E+00   -0.6691259304140329E+00
    0.2889801815813465E+01   -0.8333333333333334E+00   -0.8562661438192326E+00
    0.3017983410224082E+01   -0.8333333333333334E+00    0.9231712184526961E+00
    0.1645821714894795E+01   -0.8333333333333334E+00   -0.1837983080076178E+01
    0.1513509181197389E+01   -0.8333333333333334E+00    0.1108836692078749E+01
    0.1919398798697967E+01   -0.8333333333333334E+00    0.1580342757081665E+01
    0.2193859429875553E+01   -0.8333333333333334E+00    0.7740897355665203E+00
    0.6091754699356742E+00   -0.8333333333333334E+00   -0.7888248715753817E+00
    0.1441359832811715E+01   -0.8333333333333334E+00    0.3490936567660688E+00
    0.2716632372076206E+01   -0.8333333333333334E+00    0.1359772398136161E+00
    0.5000000000000000E+01   -0.1666666666666667E+01    0.2500000000000000E+01
    0.5000000000000000E+01   -0.1666666666666667E+01    0.1500000000000000E+01
    0.5000000000000000E+01   -0.1666666666666667E+01    0.5000000000000000E+00
    0.5000000000000000E+01   -0.1666666666666667E+01   -0.5000000000000000E+00
    0.5000000000000000E+01   -0.1666666666666667E+01   -0.1500000000000000E+01
    0.5000000000000000E+01   -0.1666666666666667E+01   -0.2500000000000000E+01
    0.4000000000000000E+01   -0.1666666666666667E+01   -0.2500000000000000E+01
    0.3000000000000000E+01   -0.1666666666666667E+01   -0.2500000000000000E+01
    0.2000000000000000E+01   -0.1666666666666667E+01   -0.2500000000000000E+01
    0.9999999999999998E+00   -0.1666666666666667E+01   -0.2500000000000000E+01
    0.0000000000000000E+00   -0.1666666666666667E+01   -0.2500000000000000E+01
    0.0000000000000000E+00   -0.1666666666666667E+01   -0.1500000000000000E+01
    0.0000000000000000E+00   -0.1666666666666667E+01   -0.5000000000000000E+00
    0.0000000000000000E+00   -0.1666666666666667E+01    0.5000000000000000E+00
    0.0000000000000000E+00   -0.1666666666666667E+01    0.1500000000000000E+01
    0.0000000000000000E+00   -0.1666666666666667E+01    0.2500000000000000E+01
    0.1000000000000000E+01   -0.1666666666666667E+01    0.2500000000000000E+01
    0.2000000000000000E+01   -0.1666666666666667E+01    0.2500000000000000E+01
    0.3000000000000000E+01   -0.1666666666666667E+01    0.2500000000000000E+01
    0.4000000000000000E+01   -0.1666666666666667E+01    0.2500000000000000E+01
    0.4251722454414101E+01   -0.1666666666666667E+01    0.1683881519811194E+01
    0.6137332127746504E+00   -0.1666666666666667E+01    0.1857879939968904E+01
    0.5055778377301318E+00   -0.1666666666666667E+01   -0.1984051145810370E+01
[...]
POINT_DATA 357
SCALARS rho double 1
LOOKUP_TABLE default
   0.1001065586163463E+01
   0.1001032691933254E+01
   0.1009909874106090E+01
   0.1017603198531974E+01
   0.9600622074545022E+00
   0.7465804753734639E+00
   0.9288963491703863E+00
   0.9350497453447335E+00
   0.9288190968026695E+00
   0.9027683988382746E+00
   0.1345800348869849E+01
   0.1028589897007796E+01
   0.1022942554841547E+01
   0.1003608751176745E+01
   0.1003328269081660E+01
   0.1001303659229375E+01
   0.1001866306879939E+01
   0.1001260801762325E+01
   0.1000430096117431E+01
   0.1000109122278390E+01
   0.1000516956796298E+01
   0.1002016143366260E+01
   0.1049561981173996E+01
   0.9675059650232044E+00
   0.1001049234652987E+01
   0.1003973244303857E+01
   0.9944403518201750E+00
   0.1000055344633054E+01
   0.1001628168539258E+01
   0.1007191345409174E+01
   0.9913315997219423E+00
   0.9669604293311852E+00
   0.1002759346874960E+01
   0.1036146458770810E+01
   0.9808223507018478E+00
   0.9531078231280911E+00
   0.9951977530737655E+00
   0.9914556157582325E+00
   0.9978248859299157E+00
   0.1001015658221044E+01
   0.9996716139573982E+00
   0.9963550434582993E+00
   0.9986416258112889E+00
   0.9977214920221515E+00
   0.9530842791485136E+00
   0.1000798624713663E+01
   0.1000501281742211E+01
   0.1000151239857340E+01
   0.1001222227901204E+01
   0.1005064212056748E+01
   0.9928368523837519E+00
   0.1001020656615998E+01
   0.1000932698656501E+01
   0.1009815988715757E+01
   0.1019284702568227E+01
   0.9657880159793002E+00
   0.7474089457988126E+00
   0.9290860052719264E+00
   0.9358987404082921E+00
   0.9285498292040834E+00
   0.9006162368783699E+00
   0.1347472357887320E+01
   0.1025801420853751E+01
   0.1022600740472396E+01
   0.1003323121600706E+01
   0.1003273961205845E+01
   0.1001269132778433E+01
   0.1001800317796310E+01
   0.1001167741443885E+01
   0.1000308882926425E+01
   0.1000003503750468E+01
   0.1000459658248545E+01
   0.1001947902191752E+01
   0.1050141690652460E+01
   0.9712138945466776E+00
   0.1001015812717786E+01
   0.1004210341788491E+01
   0.9944749581963428E+00
   0.9999196786338188E+00
   0.1001519756972272E+01
   0.1006945895561562E+01
   0.9928781257002532E+00
   0.9692734276004843E+00
   0.1002571311474842E+01
   0.1036357231802845E+01
   0.9828232169762967E+00
   0.9550080893227588E+00
   0.9947300128754780E+00
   0.9914931453491849E+00
   0.9972455089740039E+00
   0.1000976667202853E+01
   0.9995529016489012E+00
   0.9970141050464139E+00
   0.9988632440829174E+00
   0.9976018917088496E+00
   0.9539118258169543E+00
   0.1000590884075436E+01
   0.1000339848329264E+01
   0.1000062651592779E+01
   0.1000100013905437E+01
   0.1004932411264620E+01
   0.9925010784553360E+00
   0.1001050237415556E+01
   0.1000954157543988E+01
   0.1009831811352674E+01
   0.1019285434711552E+01
   0.9657399472372281E+00
   0.7475742296363592E+00
   0.9291756443408432E+00
   0.9361909908018301E+00
   0.9287474424165294E+00
   0.9003597574138323E+00
   0.1348000215012615E+01
   0.1025792588195900E+01
   0.1022736634163226E+01
   0.1003389651341919E+01
   0.1003312583459975E+01
   0.1001291359001965E+01
   0.1001850846149455E+01
   0.1001242315410563E+01
   0.1000389874696393E+01
   0.1000066443485737E+01
   0.1000502364480608E+01
   0.1001997940933872E+01
   0.1050665687903144E+01
   0.9711382872104691E+00
   0.1001043043329491E+01
   0.1004214515114280E+01
   0.9945245418835089E+00
   0.1000005580161118E+01
   0.1001592642158523E+01
   0.1007087674553023E+01
   0.9930883390303508E+00
   0.9693700324371064E+00
   0.1002665529808879E+01
   0.1036749559756614E+01
   0.9829106092475203E+00
   0.9550927181169465E+00
   0.9948680710095394E+00
   0.9916872221988877E+00
   0.9974027041845592E+00
   0.1001030881355229E+01
   0.9996277572857989E+00
   0.9970440144663929E+00
   0.9990116800295951E+00
   0.9976837481624292E+00
   0.9542007558403962E+00
   0.1000696835858467E+01
   0.1000432734858746E+01
   0.1000165544715725E+01
   0.1000309085671639E+01
   0.1005072308673040E+01
   0.9925946342946822E+00
   0.1001040605075101E+01
   0.1000938321377657E+01
   0.1009822864029946E+01
   0.1019324803075422E+01
   0.9659708061266157E+00
   0.7475795248041996E+00
   0.9293101108624058E+00
   0.9362374471421168E+00
   0.9287927945142308E+00
   0.9003270312771314E+00
   0.1347892104598736E+01
   0.1025608584431129E+01
   0.1022624886266834E+01
   0.1003319686992899E+01
   0.1003277313198823E+01
   0.1001270842870314E+01
   0.1001809537041095E+01
   0.1001188351403793E+01
   0.1000340805237646E+01
   0.1000037797272522E+01
   0.1000489278139425E+01
   0.1001954698920871E+01
   0.1050397614214865E+01
   0.9713294697237933E+00
   0.1001047240526018E+01
   0.1004275367955650E+01
   0.9945637837733368E+00
   0.9999553321135679E+00
   0.1001536512883143E+01
   0.1006982051042318E+01
   0.9931210053974350E+00
   0.9693786130790915E+00
   0.1002597273867769E+01
   0.1036652396700525E+01
   0.9830031478471545E+00
   0.9551501796263946E+00
   0.9948311614637887E+00
   0.9916618029990949E+00
   0.9973347258984753E+00
   0.1001025340000089E+01
   0.9995927076362765E+00
   0.9971502330875260E+00
   0.9990478144015851E+00
   0.9976580817117363E+00
   0.9541105235602101E+00
   0.1000629890026059E+01
   0.1000376674443379E+01
   0.1000118276106478E+01
   0.1000171893697728E+01
   0.1004998791633421E+01
   0.9925785778100408E+00
   0.1001050236847332E+01
   0.1000954158936350E+01
   0.1009831810799653E+01
   0.1019285424538309E+01
   0.9657399370613658E+00
   0.7475742407444254E+00
   0.9291756441814162E+00
   0.9361909799199437E+00
   0.9287474387752808E+00
   0.9003597605879162E+00
   0.1348000220148949E+01
   0.1025792602612128E+01
   0.1022736632924509E+01
   0.1003389649378176E+01
   0.1003312582524066E+01
   0.1001291358238108E+01
   0.1001850845572676E+01
   0.1001242314708603E+01
   0.1000389875920586E+01
   0.1000066443863821E+01
   0.1000502364844348E+01
   0.1001997940169868E+01
   0.1050665682744567E+01
   0.9711382762779588E+00
   0.1001043040959369E+01
   0.1004214511531361E+01
   0.9945245476512433E+00
   0.1000005581126550E+01
   0.1001592640985753E+01
   0.1007087674190745E+01
   0.9930883288705652E+00
   0.9693700275476990E+00
   0.1002665528247646E+01
   0.1036749549795517E+01
   0.9829106036805447E+00
   0.9550927051035289E+00
   0.9948680708979237E+00
   0.9916872190483089E+00
   0.9974027002601075E+00
   0.1001030879759644E+01
   0.9996277585076099E+00
   0.9970440066227230E+00
   0.9990116775605566E+00
   0.9976837515474359E+00
   0.9542007545425362E+00
   0.1000696835183288E+01
   0.1000432733691897E+01
   0.1000165543188995E+01
   0.1000309086920903E+01
   0.1005072308470671E+01
   0.9925946381279394E+00
   0.1001020658148155E+01
   0.1000932699520025E+01
   0.1009815983245036E+01
   0.1019284669884376E+01
   0.9657879542314840E+00
   0.7474090581978686E+00
   0.9290860795078119E+00
   0.9358987572469514E+00
   0.9285498832193474E+00
   0.9006162753739310E+00
   0.1347472417090189E+01
   0.1025801495591305E+01
   0.1022600756314989E+01
   0.1003323121639576E+01
   0.1003273961165351E+01
   0.1001269130511936E+01
   0.1001800316558242E+01
   0.1001167736607947E+01
   0.1000308883967481E+01
   0.1000003502428803E+01
   0.1000459660888633E+01
   0.1001947900836372E+01
   0.1050141592624875E+01
   0.9712138641477263E+00
   0.1001015803634205E+01
   0.1004210331611190E+01
   0.9944749592665624E+00
   0.9999196787608570E+00
   0.1001519754948490E+01
   0.1006945891463898E+01
   0.9928781172107017E+00
   0.9692734253367562E+00
   0.1002571311062573E+01
   0.1036357198650973E+01
   0.9828231735984350E+00
   0.9550080243527277E+00
   0.9947300000041414E+00
   0.9914931239711881E+00
   0.9972454985238659E+00
   0.1000976667759319E+01
   0.9995529039262581E+00
   0.9970140610729766E+00
   0.9988632099956709E+00
   0.9976019008738414E+00
   0.9539118102473381E+00
   0.1000590883071135E+01
   0.1000339845783703E+01
   0.1000062642806337E+01
   0.1000100026109016E+01
   0.1004932406394756E+01
   0.9925010731375702E+00
   0.1001065595745616E+01
   0.1001032699572193E+01
   0.1009909866023815E+01
   0.1017603101473594E+01
   0.9600620668531961E+00
   0.7465807465303235E+00
   0.9288965019806613E+00
   0.9350497914236060E+00
   0.9288192134002878E+00
   0.9027684659234906E+00
   0.1345800527323995E+01
   0.1028590037732361E+01
   0.1022942559147588E+01
   0.1003608748719574E+01
   0.1003328269500607E+01
   0.1001303657971256E+01
   0.1001866305028875E+01
   0.1001260793011713E+01
   0.1000430099424996E+01
   0.1000109124364294E+01
   0.1000516965753291E+01
   0.1002016142012740E+01
   0.1049561823534839E+01
   0.9675059433031941E+00
   0.1001049217267266E+01
   0.1003973202807408E+01
   0.9944403458029781E+00
   0.1000055347186199E+01
   0.1001628162932309E+01
   0.1007191337748833E+01
   0.9913315811035157E+00
   0.9669604089986963E+00
   0.1002759346103571E+01
   0.1036146389185497E+01
   0.9808222209151647E+00
   0.9531077008145642E+00
   0.9951977245963050E+00
   0.9914555517713957E+00
   0.9978248667883697E+00
   0.1001015663798605E+01
   0.9996716226454937E+00
   0.9963549549281571E+00
   0.9986415543954166E+00
   0.9977215150463954E+00
   0.9530842402620791E+00
   0.1000798620141711E+01
   0.1000501276660852E+01
   0.1000151222316569E+01
   0.1001222251089456E+01
   0.1005064200725641E+01
   0.9928368415774378E+00
SCALARS u double 1
LOOKUP_TABLE default
   0.4978698794786861E+00
   0.4982598890064565E+00
   0.5104960970403605E+00
   0.5190815233819164E+00
   0.4888465820317431E+00
   0.0000000000000000E+00
   0.0000000000000000E+00
   0.0000000000000000E+00
   0.0000000000000000E+00
   0.0000000000000000E+00
   0.0000000000000000E+00
   0.4753087646739206E+00
   0.4783034781122487E+00
   0.4964986571492463E+00
   0.4971336678501242E+00
   0.4983395522243604E+00
   0.4980877724983299E+00
   0.5000940816921212E+00
   0.5018535344517155E+00
   0.5014978038525586E+00
   0.4969683544803834E+00
   0.4982268757071193E+00
   0.4307094448361363E+00
   0.4171613147082517E+00
   0.5074486533198126E+00
   0.5509885686451608E+00
   0.5410888217623061E+00
   0.5006718224494959E+00
   0.4988497787081238E+00
   0.4920380356093234E+00
   0.4261011819348253E+00
   0.3253427244270741E+00
   0.4965010758911136E+00
   0.5360914158066203E+00
   0.5570935950120215E+00
   0.4812065070841779E+00
   0.5428628365738253E+00
   0.5830854149452971E+00
   0.5357552022738458E+00
   0.5012512907564173E+00
   0.4996282623372295E+00
   0.5789466317875555E+00
   0.5764079310636253E+00
   0.5046083113892259E+00
   0.3866089727955637E+00
   0.4983527192279383E+00
   0.4994709663600296E+00
   0.5035196315673365E+00
   0.5053521842185530E+00
   0.4980538780411341E+00
   0.5319046219753243E+00
   0.4980298133373701E+00
   0.4979876154597681E+00
   0.5100942599731649E+00
   0.5205064845039487E+00
   0.4922236744398387E+00
   0.0000000000000000E+00
   0.0000000000000000E+00
   0.0000000000000000E+00
   0.0000000000000000E+00
   0.0000000000000000E+00
   0.0000000000000000E+00
   0.4764562862937298E+00
   0.4788739262048498E+00
   0.4968264973533016E+00
   0.4971922205720510E+00
   0.4983725741195776E+00
   0.4981775979413635E+00
   0.5002557628134756E+00
   0.5021930038682301E+00
   0.5018938202193768E+00
   0.4969169979151645E+00
   0.4983249326732190E+00
   0.4340495541379125E+00
   0.4252629729815021E+00
   0.5065235112629390E+00
   0.5510049623951493E+00
   0.5405565179493305E+00
   0.5009457395203001E+00
   0.4990357983183426E+00
   0.4922644941766293E+00
   0.4354251557469154E+00
   0.3317870167472129E+00
   0.4967547714486619E+00
   0.5413269212385311E+00
   0.5632654304846244E+00
   0.4913358432425805E+00
   0.5426459607238060E+00
   0.5881950634706626E+00
   0.5360746265667572E+00
   0.5006898773114038E+00
   0.4997360868929931E+00
   0.5824817478969507E+00
   0.5814351083555303E+00
   0.5040884068495445E+00
   0.3936157310980786E+00
   0.4986081246550331E+00
   0.4997250951240022E+00
   0.5034579057219648E+00
   0.5055515406450120E+00
   0.4979829949070869E+00
   0.5310667788162139E+00
   0.4980038552110460E+00
   0.4979962738383736E+00
   0.5101598676966677E+00
   0.5206844305648276E+00
   0.4924000271710294E+00
   0.0000000000000000E+00
   0.0000000000000000E+00
   0.0000000000000000E+00
   0.0000000000000000E+00
   0.0000000000000000E+00
   0.0000000000000000E+00
   0.4762580896999396E+00
   0.4787346454355380E+00
   0.4967568829243063E+00
   0.4971523001648299E+00
   0.4983515903806407E+00
   0.4980992288830442E+00
   0.5001230594082516E+00
   0.5020424719558046E+00
   0.5017772185518771E+00
   0.4968511998760143E+00
   0.4982517372189020E+00
   0.4340291920735502E+00
   0.4255400836321128E+00
   0.5065476528860685E+00
   0.5511638972721624E+00
   0.5405879776381658E+00
   0.5007968783028144E+00
   0.4989135724133151E+00
   0.4920678426556639E+00
   0.4356137608918655E+00
   0.3321024458051383E+00
   0.4966198858231767E+00
   0.5411322364924351E+00
   0.5636005028386537E+00
   0.4916525759130932E+00
   0.5424841987480867E+00
   0.5881353376860599E+00
   0.5358379536235014E+00
   0.5006345265992201E+00
   0.4996120271815671E+00
   0.5826596985457981E+00
   0.5814971279421827E+00
   0.5039766895775203E+00
   0.3935377443557591E+00
   0.4984504503095211E+00
   0.4995766053869874E+00
   0.5033089856998768E+00
   0.5051530590341297E+00
   0.4977872272408866E+00
   0.5309701657935689E+00
   0.4980101385636407E+00
   0.4979860168305723E+00
   0.5101130016670885E+00
   0.5205006037473106E+00
   0.4921069726408044E+00
   0.0000000000000000E+00
   0.0000000000000000E+00
   0.0000000000000000E+00
   0.0000000000000000E+00
   0.0000000000000000E+00
   0.0000000000000000E+00
   0.4764420765916810E+00
   0.4788784509217727E+00
   0.4968346945729636E+00
   0.4971910556677800E+00
   0.4983728290199523E+00
   0.4981656388461228E+00
   0.5002183364602396E+00
   0.5021353664080053E+00
   0.5018341552269880E+00
   0.4968503291172019E+00
   0.4983124695045947E+00
   0.4340369259938975E+00
   0.4251266862304017E+00
   0.5064714494257876E+00
   0.5509379413569032E+00
   0.5404190096773802E+00
   0.5008695642430326E+00
   0.4989973576765320E+00
   0.4921839579594052E+00
   0.4352454003687700E+00
   0.3317832762347563E+00
   0.4967083600229922E+00
   0.5410653887832008E+00
   0.5630617930174580E+00
   0.4911940003205137E+00
   0.5424364072574975E+00
   0.5879529130995936E+00
   0.5358423926070501E+00
   0.5005934108058524E+00
   0.4996483445960376E+00
   0.5823119688070241E+00
   0.5812110792503462E+00
   0.5039685392030697E+00
   0.3933162696418293E+00
   0.4985320984988672E+00
   0.4996583345515258E+00
   0.5033474414383493E+00
   0.5052688895467455E+00
   0.4978513488112973E+00
   0.5308946078687163E+00
   0.4980038516038416E+00
   0.4979962732778796E+00
   0.5101598764887434E+00
   0.5206844486089414E+00
   0.4924000267782070E+00
   0.0000000000000000E+00
   0.0000000000000000E+00
   0.0000000000000000E+00
   0.0000000000000000E+00
   0.0000000000000000E+00
   0.0000000000000000E+00
   0.4762580869486344E+00
   0.4787346416917201E+00
   0.4967568843528457E+00
   0.4971523008735564E+00
   0.4983515907028057E+00
   0.4980992297196529E+00
   0.5001230588793349E+00
   0.5020424668821682E+00
   0.5017772118277355E+00
   0.4968511991998567E+00
   0.4982517378240610E+00
   0.4340291926311010E+00
   0.4255400712509605E+00
   0.5065476609128043E+00
   0.5511639183238369E+00
   0.5405879851114183E+00
   0.5007968769511513E+00
   0.4989135735574161E+00
   0.4920678434827654E+00
   0.4356137554549048E+00
   0.3321024392839136E+00
   0.4966198876737641E+00
   0.5411322483332243E+00
   0.5636005132148574E+00
   0.4916525851709025E+00
   0.5424842131664075E+00
   0.5881353534228846E+00
   0.5358379728649324E+00
   0.5006345291306795E+00
   0.4996120267572406E+00
   0.5826597165082827E+00
   0.5814971424578712E+00
   0.5039766826764844E+00
   0.3935377420999170E+00
   0.4984504547051680E+00
   0.4995766092870813E+00
   0.5033089867768712E+00
   0.5051530795116204E+00
   0.4977872298112562E+00
   0.5309701712047927E+00
   0.4980298133318710E+00
   0.4979876142021914E+00
   0.5100942656435948E+00
   0.5205064532348151E+00
   0.4922237456882666E+00
   0.0000000000000000E+00
   0.0000000000000000E+00
   0.0000000000000000E+00
   0.0000000000000000E+00
   0.0000000000000000E+00
   0.0000000000000000E+00
   0.4764562134219701E+00
   0.4788739197495377E+00
   0.4968264920430732E+00
   0.4971922232802429E+00
   0.4983725758101601E+00
   0.4981776014493671E+00
   0.5002557679168051E+00
   0.5021930029864115E+00
   0.5018938191725458E+00
   0.4969169983535614E+00
   0.4983249343716121E+00
   0.4340495642416627E+00
   0.4252630439377765E+00
   0.5065235156688584E+00
   0.5510049477942549E+00
   0.5405565020820892E+00
   0.5009457387105100E+00
   0.4990358018582722E+00
   0.4922645133141405E+00
   0.4354251214402873E+00
   0.3317869820382970E+00
   0.4967547683780146E+00
   0.5413269070688443E+00
   0.5632653730976036E+00
   0.4913358227101849E+00
   0.5426459588897381E+00
   0.5881950622781873E+00
   0.5360746473283708E+00
   0.5006898841170973E+00
   0.4997360780697263E+00
   0.5824818060177235E+00
   0.5814350857210965E+00
   0.5040884130681781E+00
   0.3936156194544352E+00
   0.4986081267628938E+00
   0.4997251001675854E+00
   0.5034579154493567E+00
   0.5055515095293711E+00
   0.4979830134264536E+00
   0.5310667998462778E+00
   0.4978698818817358E+00
   0.4982599050465496E+00
   0.5104961796929987E+00
   0.5190815346938593E+00
   0.4888466723475126E+00
   0.0000000000000000E+00
   0.0000000000000000E+00
   0.0000000000000000E+00
   0.0000000000000000E+00
   0.0000000000000000E+00
   0.0000000000000000E+00
   0.4753086393478735E+00
   0.4783035009791126E+00
   0.4964986368377492E+00
   0.4971336724669373E+00
   0.4983395545196830E+00
   0.4980877790078086E+00
   0.5000940983200690E+00
   0.5018535328063688E+00
   0.5014978000228174E+00
   0.4969683721319625E+00
   0.4982268789840086E+00
   0.4307093571817380E+00
   0.4171612960085378E+00
   0.5074487434589486E+00
   0.5509886657096754E+00
   0.5410889172190855E+00
   0.5006718246130982E+00
   0.4988497915451525E+00
   0.4920381069091680E+00
   0.4261009713335178E+00
   0.3253425269137741E+00
   0.4965010671936984E+00
   0.5360912960803816E+00
   0.5570934521938399E+00
   0.4812063337401044E+00
   0.5428629710659310E+00
   0.5830853964606391E+00
   0.5357553184217742E+00
   0.5012513595521968E+00
   0.4996282485319668E+00
   0.5789467622940584E+00
   0.5764078936800237E+00
   0.5046083886636678E+00
   0.3866086473698837E+00
   0.4983527280705654E+00
   0.4994709810708864E+00
   0.5035196991411635E+00
   0.5053521895393889E+00
   0.4980539641450806E+00
   0.5319048172631776E+00
SCALARS v double 1
LOOKUP_TABLE default
   0.0000000000000000E+00
   0.0000000000000000E+00
   0.0000000000000000E+00
   0.0000000000000000E+00
   0.0000000000000000E+00
   0.0000000000000000E+00
   0.0000000000000000E+00
   0.0000000000000000E+00
   0.0000000000000000E+00
   0.0000000000000000E+00
   0.0000000000000000E+00
   0.0000000000000000E+00
   0.0000000000000000E+00
   0.0000000000000000E+00
   0.0000000000000000E+00
   0.0000000000000000E+00
   0.0000000000000000E+00
   0.0000000000000000E+00
   0.0000000000000000E+00
   0.0000000000000000E+00
   0.0000000000000000E+00
   0.0000000000000000E+00
   0.0000000000000000E+00
   0.0000000000000000E+00
   0.0000000000000000E+00
   0.0000000000000000E+00
   0.0000000000000000E+00
   0.0000000000000000E+00
   0.0000000000000000E+00
   0.0000000000000000E+00
   0.0000000000000000E+00
   0.0000000000000000E+00
   0.0000000000000000E+00
   0.0000000000000000E+00
   0.0000000000000000E+00
   0.0000000000000000E+00
   0.0000000000000000E+00
   0.0000000000000000E+00
   0.0000000000000000E+00
   0.0000000000000000E+00
   0.0000000000000000E+00
   0.0000000000000000E+00
   0.0000000000000000E+00
   0.0000000000000000E+00
   0.0000000000000000E+00
   0.0000000000000000E+00
   0.0000000000000000E+00
   0.0000000000000000E+00
   0.0000000000000000E+00