title="tecplot geometry and solution file"
variables = x y z rho u v w p mach temperature
zone t="boundary 1 bc-1", solutiontime= 0.2000000E+02, strandid=1001, i=42, j=30, f=feblock
  0.000000000000E+00  0.000000000000E+00  0.000000000000E+00  0.000000000000E+00  0.000000000000E+00  0.000000000000E+00  0.000000000000E+00
  0.000000000000E+00  0.000000000000E+00  0.000000000000E+00  0.000000000000E+00  0.000000000000E+00  0.000000000000E+00  0.000000000000E+00
  0.000000000000E+00  0.000000000000E+00  0.000000000000E+00  0.000000000000E+00  0.000000000000E+00  0.000000000000E+00  0.000000000000E+00
  0.000000000000E+00  0.000000000000E+00  0.000000000000E+00  0.000000000000E+00  0.000000000000E+00  0.000000000000E+00  0.000000000000E+00
  0.000000000000E+00  0.000000000000E+00  0.000000000000E+00  0.000000000000E+00  0.000000000000E+00  0.000000000000E+00  0.000000000000E+00
  0.000000000000E+00  0.000000000000E+00  0.000000000000E+00  0.000000000000E+00  0.000000000000E+00  0.000000000000E+00  0.000000000000E+00
  0.000000000000E+00  0.000000000000E+00 -0.833333333333E+00  0.000000000000E+00  0.000000000000E+00 -0.833333333333E+00 -0.166666666667E+01
  0.000000000000E+00 -0.833333333333E+00 -0.833333333333E+00  0.000000000000E+00 -0.166666666667E+01 -0.250000000000E+01 -0.833333333333E+00
 -0.166666666667E+01 -0.166666666667E+01 -0.833333333333E+00 -0.250000000000E+01 -0.333333333333E+01 -0.166666666667E+01 -0.250000000000E+01
 -0.250000000000E+01 -0.166666666667E+01 -0.333333333333E+01 -0.416666666667E+01 -0.250000000000E+01 -0.333333333333E+01 -0.333333333333E+01
 -0.250000000000E+01 -0.416666666667E+01 -0.500000000000E+01 -0.333333333333E+01 -0.416666666667E+01 -0.416666666667E+01 -0.333333333333E+01
 -0.500000000000E+01 -0.416666666667E+01 -0.500000000000E+01 -0.500000000000E+01 -0.416666666667E+01 -0.500000000000E+01 -0.500000000000E+01
  0.250000000000E+01  0.150000000000E+01  0.250000000000E+01  0.500000000000E+00 -0.150000000000E+01  0.150000000000E+01  0.250000000000E+01
 -0.500000000000E+00  0.500000000000E+00 -0.150000000000E+01 -0.250000000000E+01  0.150000000000E+01  0.250000000000E+01 -0.500000000000E+00
  0.500000000000E+00 -0.150000000000E+01 -0.250000000000E+01  0.150000000000E+01  0.250000000000E+01 -0.500000000000E+00  0.500000000000E+00
 -0.150000000000E+01 -0.250000000000E+01  0.150000000000E+01  0.250000000000E+01 -0.500000000000E+00  0.500000000000E+00 -0.150000000000E+01
 -0.250000000000E+01  0.150000000000E+01  0.250000000000E+01 -0.500000000000E+00  0.500000000000E+00 -0.150000000000E+01 -0.250000000000E+01
  0.150000000000E+01 -0.500000000000E+00  0.500000000000E+00 -0.150000000000E+01 -0.250000000000E+01 -0.500000000000E+00 -0.250000000000E+01
  0.100121885856E+01  0.100324604782E+01  0.100119257562E+01  0.100352261357E+01  0.102854017551E+01  0.100318297768E+01  0.100121090527E+01
  0.102276038686E+01  0.100325556793E+01  0.102577868066E+01  0.134556589754E+01  0.100322130078E+01  0.100119284168E+01  0.102241787998E+01
  0.100331246783E+01  0.102575983169E+01  0.134724893699E+01  0.100318981160E+01  0.100121090458E+01  0.102255018890E+01  0.100324706583E+01
  0.102557838426E+01  0.134776525058E+01  0.100322129969E+01  0.100119257364E+01  0.102244433467E+01  0.100331246616E+01  0.102575984731E+01
  0.134766037947E+01  0.100318297792E+01  0.100121885811E+01  0.102255018714E+01  0.100325556751E+01  0.102577875328E+01  0.134776525576E+01
  0.100324604888E+01  0.102241789661E+01  0.100352260846E+01  0.102854030841E+01  0.134724899745E+01  0.102276039274E+01  0.134556607213E+01
  0.498229129339E+00  0.497223748707E+00  0.498244366363E+00  0.496559907995E+00  0.475357389756E+00  0.497289234339E+00  0.498229856832E+00
  0.478448275861E+00  0.496866920046E+00  0.476469734926E+00  0.000000000000E+00  0.497248917724E+00  0.498248532027E+00  0.479026016106E+00
  0.496804434433E+00  0.476282685146E+00  0.000000000000E+00  0.497285337972E+00  0.498229857026E+00  0.478886909289E+00  0.496880457576E+00
  0.476464179762E+00  0.000000000000E+00  0.497248918576E+00  0.498244368671E+00  0.479026046297E+00  0.496804435094E+00  0.476282681157E+00
  0.000000000000E+00  0.497289236442E+00  0.498229133576E+00  0.478886906300E+00  0.496866915574E+00  0.476469664650E+00  0.000000000000E+00
  0.497223751497E+00  0.479026008218E+00  0.496559890944E+00  0.475357272764E+00  0.000000000000E+00  0.478448295400E+00  0.000000000000E+00
  0.000000000000E+00  0.000000000000E+00  0.493377223040E-05  0.000000000000E+00  0.000000000000E+00  0.200551347443E-05  0.545270635085E-06
  0.000000000000E+00 -0.447066353799E-04 -0.964949396295E-03  0.000000000000E+00  0.190455025847E-06 -0.852751542897E-09  0.580724748851E-04
 -0.125374666068E-04 -0.130154115841E-03  0.000000000000E+00  0.318242621439E-10 -0.546165605043E-06  0.743709180045E-04  0.380792884764E-09
  0.581093184589E-08  0.000000000000E+00 -0.188126143502E-06 -0.493498971967E-05 -0.480770843377E-08  0.125368156717E-04  0.130186510672E-03
  0.000000000000E+00 -0.200630744846E-05  0.000000000000E+00 -0.743752752833E-04  0.447015743124E-04  0.965007033837E-03  0.000000000000E+00
  0.000000000000E+00 -0.580774698220E-04  0.000000000000E+00  0.000000000000E+00  0.000000000000E+00  0.000000000000E+00  0.000000000000E+00
  0.114054941848E-02  0.358309929512E-03  0.112073838410E-02  0.262695738893E-02  0.354373543196E-01  0.369712020349E-03  0.113680941925E-02
 -0.234437421177E-02  0.273568530761E-02  0.343036813977E-01  0.000000000000E+00  0.361751731304E-03  0.112713514820E-02 -0.255157133916E-02
  0.271085455224E-02  0.344197928612E-01  0.000000000000E+00  0.372260636556E-03  0.113680922906E-02 -0.258079487904E-02  0.272062392516E-02
  0.343988667264E-01  0.000000000000E+00  0.361750730809E-03  0.112073764717E-02 -0.260406228925E-02  0.271085536806E-02  0.344197949760E-01
  0.000000000000E+00  0.369709998701E-03  0.114055089057E-02 -0.258079163746E-02  0.273569120271E-02  0.343037103191E-01  0.000000000000E+00
  0.358308743894E-03 -0.255157729318E-02  0.262695289278E-02  0.354374595671E-01  0.000000000000E+00 -0.234438569738E-02  0.000000000000E+00
  0.715586329704E+00  0.717385127699E+00  0.715560030635E+00  0.718790947500E+00  0.755404670801E+00  0.717320505337E+00  0.715579559502E+00
  0.732773929889E+00  0.718563555605E+00  0.753282680533E+00  0.100189530270E+01  0.717356571165E+00  0.715561492124E+00  0.732253575737E+00
  0.718626657819E+00  0.753315318352E+00  0.100314847754E+01  0.717324683327E+00  0.715579558833E+00  0.732369642582E+00  0.718560501860E+00
  0.753114194011E+00  0.100353291962E+01  0.717356570260E+00  0.715560028564E+00  0.732267359073E+00  0.718626655661E+00  0.753315333357E+00
  0.100345483361E+01  0.717320505805E+00  0.715586328845E+00  0.732369641396E+00  0.718563552232E+00  0.753282725648E+00  0.100353292347E+01
  0.717385128949E+00  0.732253598096E+00  0.718790937301E+00  0.755404747292E+00  0.100314852255E+01  0.732773946653E+00  0.100189543270E+01
  0.498080716778E+00  0.496953212880E+00  0.498098519566E+00  0.495879316146E+00  0.470089435311E+00  0.497025434777E+00  0.498081813417E+00
  0.477725181415E+00  0.496198956008E+00  0.471132077880E+00  0.000000000000E+00  0.496982132805E+00  0.498102255903E+00  0.478392887750E+00
  0.496128703737E+00  0.470940845211E+00  0.000000000000E+00  0.497021787853E+00  0.498081813673E+00  0.478247170189E+00  0.496211342154E+00
  0.471139095840E+00  0.000000000000E+00  0.496982133698E+00  0.498098522101E+00  0.478394883127E+00  0.496128704734E+00  0.470940840342E+00
  0.000000000000E+00  0.497025436775E+00  0.498080721204E+00  0.478247167163E+00  0.496198952634E+00  0.471132013481E+00  0.000000000000E+00
  0.496953215496E+00  0.478392876493E+00  0.495879301353E+00  0.470089334540E+00  0.000000000000E+00  0.477725196891E+00  0.000000000000E+00
  0.100060127016E+01  0.100108959408E+01  0.100059076274E+01  0.100277493790E+01  0.102822093323E+01  0.100106234836E+01  0.100059975179E+01
  0.100305361356E+01  0.100272453999E+01  0.102809287484E+01  0.104242640687E+01  0.100107443776E+01  0.100059254049E+01  0.100267711090E+01
  0.100275572487E+01  0.102815631214E+01  0.104242640687E+01  0.100106135952E+01  0.100059975154E+01  0.100270628351E+01  0.100272877625E+01
  0.102806366417E+01  0.104242640687E+01  0.100107443759E+01  0.100059076182E+01  0.100267004075E+01  0.100275572353E+01  0.102815631696E+01
  0.104242640687E+01  0.100106234877E+01  0.100060126941E+01  0.100270628361E+01  0.100272453571E+01  0.102809286362E+01  0.104242640687E+01
  0.100108959477E+01  0.100267712521E+01  0.100277492877E+01  0.102822090448E+01  0.104242640687E+01  0.100305363073E+01  0.104242640687E+01
         3         6         2         1
         6         9         4         2
         9        14         8         4
        14        10         5         8
        10        17        11         5
         7        12         6         3
        12        15         9         6
        15        20        14         9
        20        16        10        14
        16        23        17        10
        13        18        12         7
        18        21        15        12
        21        26        20        15
        26        22        16        20
        22        29        23        16
        19        24        18        13
        24        27        21        18
        27        32        26        21
        32        28        22        26
        28        35        29        22
        25        30        24        19
        30        33        27        24
        33        37        32        27
        37        34        28        32
        34        40        35        28
        31        36        30        25
        36        38        33        30
        38        41        37        33
        41        39        34        37
        39        42        40        34
zone t="boundary 2 bc-2", solutiontime= 0.2000000E+02, strandid=1002, i=51, j=80, f=feblock
  0.500000000000E+01  0.500000000000E+01  0.400000000000E+01  0.425172245441E+01  0.500000000000E+01  0.427741389634E+01  0.300000000000E+01
  0.341887665662E+01  0.368116975164E+01  0.500000000000E+01  0.430894944607E+01  0.352044655687E+01  0.200000000000E+01  0.259168638257E+01
  0.301798341022E+01  0.500000000000E+01  0.435643616790E+01  0.375117520592E+01  0.271663237208E+01  0.288980181581E+01  0.100000000000E+01
  0.191939879870E+01  0.130679496696E+01  0.219385942988E+01  0.500000000000E+01  0.441735041915E+01  0.373031592783E+01  0.208456665067E+01
  0.230848460393E+01  0.190054259015E+01  0.298584217914E+01  0.000000000000E+00  0.613733212775E+00  0.151350918120E+01  0.794128609067E+00
  0.144135983281E+01  0.400000000000E+01  0.132476136006E+01  0.200000000000E+01  0.164582171489E+01  0.102008138039E+01  0.300000000000E+01
  0.000000000000E+00  0.000000000000E+00  0.701034609231E+00  0.609175469936E+00  0.100000000000E+01  0.505577837730E+00  0.000000000000E+00
  0.000000000000E+00  0.000000000000E+00
 -0.500000000000E+01 -0.500000000000E+01 -0.500000000000E+01 -0.500000000000E+01 -0.500000000000E+01 -0.500000000000E+01 -0.500000000000E+01
 -0.500000000000E+01 -0.500000000000E+01 -0.500000000000E+01 -0.500000000000E+01 -0.500000000000E+01 -0.500000000000E+01 -0.500000000000E+01
 -0.500000000000E+01 -0.500000000000E+01 -0.500000000000E+01 -0.500000000000E+01 -0.500000000000E+01 -0.500000000000E+01 -0.500000000000E+01
 -0.500000000000E+01 -0.500000000000E+01 -0.500000000000E+01 -0.500000000000E+01 -0.500000000000E+01 -0.500000000000E+01 -0.500000000000E+01
 -0.500000000000E+01 -0.500000000000E+01 -0.500000000000E+01 -0.500000000000E+01 -0.500000000000E+01 -0.500000000000E+01 -0.500000000000E+01
 -0.500000000000E+01 -0.500000000000E+01 -0.500000000000E+01 -0.500000000000E+01 -0.500000000000E+01 -0.500000000000E+01 -0.500000000000E+01
 -0.500000000000E+01 -0.500000000000E+01 -0.500000000000E+01 -0.500000000000E+01 -0.500000000000E+01 -0.500000000000E+01 -0.500000000000E+01
 -0.500000000000E+01 -0.500000000000E+01
  0.250000000000E+01  0.150000000000E+01  0.250000000000E+01  0.168388151981E+01  0.500000000000E+00  0.784980628699E+00  0.250000000000E+01
  0.172616846193E+01  0.104016062853E+01 -0.500000000000E+00 -0.103062804534E+00  0.179404976675E+00  0.250000000000E+01  0.166729536217E+01
  0.923171218453E+00 -0.150000000000E+01 -0.102255113015E+01 -0.669125930414E+00  0.135977239814E+00 -0.856266143819E+00  0.250000000000E+01
  0.158034275708E+01  0.175813852804E+01  0.774089735567E+00 -0.250000000000E+01 -0.179804978092E+01 -0.146769777443E+01 -0.223755606368E+00
 -0.164420331359E+01 -0.108875578595E+01 -0.190240885061E+01  0.250000000000E+01  0.185787993997E+01  0.110883669208E+01  0.100177177909E+01
  0.349093656766E+00 -0.250000000000E+01 -0.526785284186E+00 -0.250000000000E+01 -0.183798308008E+01 -0.145695630084E+01 -0.250000000000E+01
  0.150000000000E+01  0.500000000000E+00  0.396172271494E-01 -0.788824871575E+00 -0.250000000000E+01 -0.198405114581E+01 -0.150000000000E+01
 -0.500000000000E+00 -0.250000000000E+01
  0.100095949520E+01  0.100118262526E+01  0.999753506876E+00  0.100052332157E+01  0.100993251136E+01  0.100110430963E+01  0.100000847066E+01
  0.999705085701E+00  0.100098674270E+01  0.101729063086E+01  0.100381511679E+01  0.994393312786E+00  0.100092987273E+01  0.100000068474E+01
  0.997623957504E+00  0.960331841379E+00  0.980882762431E+00  0.996255790977E+00  0.992718919353E+00  0.998526407810E+00  0.100193003714E+01
  0.100036995258E+01  0.100140377314E+01  0.100001021079E+01  0.747282228978E+00  0.967958999346E+00  0.953365453361E+00  0.995136870514E+00
  0.991228466718E+00  0.991381482711E+00  0.967131993980E+00  0.100121885811E+01  0.100193766886E+01  0.100075891479E+01  0.100268434348E+01
  0.100487097727E+01  0.929160267199E+00  0.997737050760E+00  0.928623242460E+00  0.952894273201E+00  0.103595782314E+01  0.935123024335E+00
  0.100324604888E+01  0.100352260846E+01  0.100706714552E+01  0.100113213437E+01  0.902588124700E+00  0.104935510753E+01  0.102854030841E+01
  0.102276039274E+01  0.134556607213E+01
  0.497980769228E+00  0.498229296777E+00  0.502105492371E+00  0.497042541541E+00  0.510432624507E+00  0.507650902521E+00  0.502854241912E+00
  0.500033110378E+00  0.501167106607E+00  0.518939659478E+00  0.550594177802E+00  0.541193471379E+00  0.501075358234E+00  0.500976508687E+00
  0.504586175549E+00  0.489028690563E+00  0.556789472303E+00  0.578390823916E+00  0.532115264144E+00  0.576194496662E+00  0.498277758763E+00
  0.499777576939E+00  0.499034562795E+00  0.503503800512E+00  0.000000000000E+00  0.417967520020E+00  0.481841683839E+00  0.543088314562E+00
  0.426406152871E+00  0.583195252316E+00  0.325911677478E+00  0.498229133576E+00  0.498189904181E+00  0.498456275015E+00  0.496629070459E+00
  0.498144530782E+00  0.000000000000E+00  0.535886663189E+00  0.000000000000E+00  0.386833217669E+00  0.536246069406E+00  0.000000000000E+00
  0.497223751497E+00  0.496559890944E+00  0.492118992841E+00  0.505571596583E+00  0.000000000000E+00  0.430820267768E+00  0.475357272764E+00
  0.478448295400E+00  0.000000000000E+00
  0.000000000000E+00  0.000000000000E+00  0.000000000000E+00  0.000000000000E+00  0.000000000000E+00  0.000000000000E+00  0.000000000000E+00
  0.000000000000E+00  0.000000000000E+00  0.000000000000E+00  0.000000000000E+00  0.000000000000E+00  0.000000000000E+00  0.000000000000E+00
  0.000000000000E+00  0.000000000000E+00  0.000000000000E+00  0.000000000000E+00  0.000000000000E+00  0.000000000000E+00  0.000000000000E+00
  0.000000000000E+00  0.000000000000E+00  0.000000000000E+00  0.000000000000E+00  0.000000000000E+00  0.000000000000E+00  0.000000000000E+00
  0.000000000000E+00  0.000000000000E+00  0.000000000000E+00  0.000000000000E+00  0.000000000000E+00  0.000000000000E+00  0.000000000000E+00
  0.000000000000E+00  0.000000000000E+00  0.000000000000E+00  0.000000000000E+00  0.000000000000E+00  0.000000000000E+00  0.000000000000E+00
  0.000000000000E+00  0.000000000000E+00  0.000000000000E+00  0.000000000000E+00  0.000000000000E+00  0.000000000000E+00  0.000000000000E+00
  0.000000000000E+00  0.000000000000E+00
  0.270411826371E-04  0.382244696896E-02  0.774125258063E-03 -0.898418082725E-03  0.171815460801E-02 -0.120911369082E-02  0.301075330642E-03
 -0.540195724444E-03 -0.313819064814E-02 -0.454867090239E-01 -0.933430299751E-02  0.199063640082E-02  0.969714774603E-03  0.104700538153E-02
 -0.866318471664E-03 -0.109918866526E+00 -0.319872087671E-01 -0.908520583969E-02  0.729324957421E-02  0.139765048164E-01  0.111355932881E-02
  0.244996639131E-02  0.247258820746E-02  0.481135146262E-02  0.000000000000E+00 -0.597130759663E-01  0.565223621396E-02  0.196090678012E-01
  0.300317193665E-02  0.338565680335E-01  0.386058057305E-02  0.114055089057E-02  0.205894874713E-02  0.344264824790E-02  0.251493985610E-02
  0.700495671047E-02  0.000000000000E+00  0.365284742687E-01  0.000000000000E+00 -0.254560633964E-02  0.651546331124E-01  0.000000000000E+00
  0.358308743894E-03  0.262695289278E-02  0.329357003220E-02  0.249874042048E-01  0.000000000000E+00  0.141919414788E+00  0.354374595671E-01
 -0.234438569738E-02  0.000000000000E+00
  0.715143110311E+00  0.715801407789E+00  0.714350814565E+00  0.714556866462E+00  0.723831050731E+00  0.716410915426E+00  0.714323340687E+00
  0.713931429750E+00  0.715187392436E+00  0.728797423802E+00  0.715318504947E+00  0.709233886966E+00  0.715124064971E+00  0.714204533711E+00
  0.712089221986E+00  0.676089032290E+00  0.693130942335E+00  0.704453268208E+00  0.709388526107E+00  0.705710774144E+00  0.716048628900E+00
  0.715180439637E+00  0.715681635894E+00  0.713431130517E+00  0.556419092051E+00  0.685299918526E+00  0.675316305060E+00  0.711644041752E+00
  0.707346991178E+00  0.697200460766E+00  0.699074082732E+00  0.715586328845E+00  0.716174277308E+00  0.715403216011E+00  0.717438319497E+00
  0.717891779234E+00  0.691843713388E+00  0.715932896993E+00  0.691443849982E+00  0.679651205377E+00  0.735000752781E+00  0.696283524457E+00
  0.717385128949E+00  0.718790937301E+00  0.718952930219E+00  0.725342082574E+00  0.672058354083E+00  0.725506800921E+00  0.755404747292E+00
  0.732773946653E+00  0.100189543270E+01
  0.497920866626E+00  0.498010388711E+00  0.502021325776E+00  0.497079053346E+00  0.509570689051E+00  0.507178628543E+00  0.502843217842E+00
  0.500083698960E+00  0.501107950279E+00  0.520156387103E+00  0.551324298663E+00  0.541596473049E+00  0.501015278690E+00  0.501006245482E+00
  0.504763797161E+00  0.504872252351E+00  0.560716588337E+00  0.581393647850E+00  0.532051360391E+00  0.579427655104E+00  0.498145267296E+00
  0.499563239066E+00  0.498903572149E+00  0.503830844862E+00  0.000000000000E+00  0.424086178549E+00  0.483889630847E+00  0.543124442328E+00
  0.426619638755E+00  0.588738088639E+00  0.324001965842E+00  0.498080721204E+00  0.498018649791E+00  0.498267656817E+00  0.496207724280E+00
  0.498149782608E+00  0.000000000000E+00  0.535904543455E+00  0.000000000000E+00  0.387122539790E+00  0.542012711631E+00  0.000000000000E+00
  0.496953215496E+00  0.495879301353E+00  0.492260308603E+00  0.502600249154E+00  0.000000000000E+00  0.461045163072E+00  0.470089334540E+00
  0.477725196891E+00  0.000000000000E+00
  0.100024062836E+01  0.100093823606E+01  0.100033771676E+01  0.999856366647E+00  0.100339721677E+01  0.100186890811E+01  0.100004420592E+01
  0.999798856629E+00  0.100027533503E+01  0.100297433434E+01  0.997639794590E+00  0.998525863946E+00  0.100024359172E+01  0.999885662529E+00
  0.999299288356E+00  0.985622473839E+00  0.989295924483E+00  0.989941121973E+00  0.100042813448E+01  0.989453134213E+00  0.100053700688E+01
  0.100088233649E+01  0.100054974539E+01  0.998793384259E+00  0.104242640687E+01  0.991178228194E+00  0.991689832845E+00  0.100117048014E+01
  0.999048979019E+00  0.984566145419E+00  0.101196498711E+01  0.100060126941E+01  0.100070495340E+01  0.100080497672E+01  0.100172467420E+01
  0.100017665319E+01  0.104242640687E+01  0.100457936791E+01  0.104242640687E+01  0.998549067077E+00  0.993284698378E+00  0.104242640687E+01
  0.100108959477E+01  0.100277492877E+01  0.999470697446E+00  0.101433055712E+01  0.104242640687E+01  0.967936891912E+00  0.102822090448E+01
  0.100305363073E+01  0.104242640687E+01
        28        24        19        19
        19        24        15        15
        19        15        12        12
        22        13        14        14
        13        22        23        23
        31        27        37        37
        31        29        20        20
        35        34        36        36
        34        23        22        22
         8         9        15        15
         9         6        12        12
        20        18        27        27
        27        18        17        17
        38        45        36        36
        38        30        41        41
        28        19        20        20
        30        40        41        41
        40        39        47        47
        11        10        17        17
        10        11         5         5
         8        14         7         7
        14        24        22        22
        45        46        50        50
        46        41        49        49
        41        46        38        38
        29        39        40        40
        36        24        28        28
        36        45        35        35
        20        29        30        30
        11        18        12        12
        15        24        14        14
        12        20        19        19
        12        18        20        20
        31        20        27        27
         9        12        15        15
         9         4         6         6
        24        36        34        34
        35        23        34        34
        38        36        28        28
        41        47        48        48
        29        40        30        30
        49        50        46        46
        46        45        38        38
        25        26        16        16
        26        37        27        27
        32        33        43        43
        33        21        23        23
        51        48        47        47
         1         4         3         3
         4         2         6         6
         6         5        11        11
        35        43        33        33
        43        35        44        44
         8         3         4         4
         3         8         7         7
        31        37        42        42
        17        16        26        26
        16        17        10        10
        34        22        24        24
        47        41        40        40
        15        14         8         8
        20        30        28        28
        11        17        18        18
        39        31        42        42
         4         9         8         8
        33        23        35        35
        28        30        38        38
        17        26        27        27
        41        48        49        49
        35        45        44        44
        39        29        31        31
        45        50        44        44
        21        13        23        23
        13         7        14        14
         2         5         6         6
         6        11        12        12
        25        37        26        26
        51        49        48        48
        32        21        33        33
         1         2         4         4
zone t="boundary 3 bc-3", solutiontime= 0.2000000E+02, strandid=1003, i=51, j=80, f=feblock
  0.500000000000E+01  0.500000000000E+01  0.400000000000E+01  0.425172245441E+01  0.500000000000E+01  0.427741389634E+01  0.300000000000E+01
  0.341887665662E+01  0.368116975164E+01  0.500000000000E+01  0.430894944607E+01  0.352044655687E+01  0.200000000000E+01  0.259168638257E+01
  0.301798341022E+01  0.500000000000E+01  0.435643616790E+01  0.375117520592E+01  0.271663237208E+01  0.288980181581E+01  0.100000000000E+01
  0.191939879870E+01  0.130679496696E+01  0.219385942988E+01  0.500000000000E+01  0.441735041915E+01  0.373031592783E+01  0.208456665067E+01
  0.230848460393E+01  0.190054259015E+01  0.298584217914E+01  0.000000000000E+00  0.613733212775E+00  0.151350918120E+01  0.794128609067E+00
  0.144135983281E+01  0.400000000000E+01  0.132476136006E+01  0.200000000000E+01  0.164582171489E+01  0.102008138039E+01  0.300000000000E+01
  0.000000000000E+00  0.000000000000E+00  0.701034609231E+00  0.609175469936E+00  0.100000000000E+01  0.505577837730E+00  0.000000000000E+00
  0.000000000000E+00  0.000000000000E+00
  0.000000000000E+00  0.000000000000E+00  0.000000000000E+00  0.000000000000E+00  0.000000000000E+00  0.000000000000E+00  0.000000000000E+00
  0.000000000000E+00  0.000000000000E+00  0.000000000000E+00  0.000000000000E+00  0.000000000000E+00  0.000000000000E+00  0.000000000000E+00
  0.000000000000E+00  0.000000000000E+00  0.000000000000E+00  0.000000000000E+00  0.000000000000E+00  0.000000000000E+00  0.000000000000E+00
  0.000000000000E+00  0.000000000000E+00  0.000000000000E+00  0.000000000000E+00  0.000000000000E+00  0.000000000000E+00  0.000000000000E+00
  0.000000000000E+00  0.000000000000E+00  0.000000000000E+00  0.000000000000E+00  0.000000000000E+00  0.000000000000E+00  0.000000000000E+00
  0.000000000000E+00  0.000000000000E+00  0.000000000000E+00  0.000000000000E+00  0.000000000000E+00  0.000000000000E+00  0.000000000000E+00
  0.000000000000E+00  0.000000000000E+00  0.000000000000E+00  0.000000000000E+00  0.000000000000E+00  0.000000000000E+00  0.000000000000E+00
  0.000000000000E+00  0.000000000000E+00
  0.250000000000E+01  0.150000000000E+01  0.250000000000E+01  0.168388151981E+01  0.500000000000E+00  0.784980628699E+00  0.250000000000E+01
  0.172616846193E+01  0.104016062853E+01 -0.500000000000E+00 -0.103062804534E+00  0.179404976675E+00  0.250000000000E+01  0.166729536217E+01
  0.923171218453E+00 -0.150000000000E+01 -0.102255113015E+01 -0.669125930414E+00  0.135977239814E+00 -0.856266143819E+00  0.250000000000E+01
  0.158034275708E+01  0.175813852804E+01  0.774089735567E+00 -0.250000000000E+01 -0.179804978092E+01 -0.146769777443E+01 -0.223755606368E+00
 -0.164420331359E+01 -0.108875578595E+01 -0.190240885061E+01  0.250000000000E+01  0.185787993997E+01  0.110883669208E+01  0.100177177909E+01
  0.349093656766E+00 -0.250000000000E+01 -0.526785284186E+00 -0.250000000000E+01 -0.183798308008E+01 -0.145695630084E+01 -0.250000000000E+01
  0.150000000000E+01  0.500000000000E+00  0.396172271494E-01 -0.788824871575E+00 -0.250000000000E+01 -0.198405114581E+01 -0.150000000000E+01
 -0.500000000000E+00 -0.250000000000E+01
  0.100095948618E+01  0.100118261630E+01  0.999753502589E+00  0.100052331391E+01  0.100993252890E+01  0.100110432715E+01  0.100000846657E+01
  0.999705076531E+00  0.100098673881E+01  0.101729073322E+01  0.100381516571E+01  0.994393317825E+00  0.100092987788E+01  0.100000068221E+01
  0.997623933801E+00  0.960331943421E+00  0.980882877833E+00  0.996255883675E+00  0.992718928835E+00  0.998526482129E+00  0.100193003991E+01
  0.100036995704E+01  0.100140377649E+01  0.100001022830E+01  0.747281956938E+00  0.967958990693E+00  0.953365550833E+00  0.995136899177E+00
  0.991228480169E+00  0.991381548239E+00  0.967131996595E+00  0.100121885856E+01  0.100193766893E+01  0.100075892070E+01  0.100268434479E+01
  0.100487098632E+01  0.929160111100E+00  0.997737072020E+00  0.928623123814E+00  0.952894304478E+00  0.103595789414E+01  0.935122977984E+00
  0.100324604782E+01  0.100352261357E+01  0.100706715213E+01  0.100113211282E+01  0.902588063169E+00  0.104935525740E+01  0.102854017551E+01
  0.102276038686E+01  0.134556589754E+01
  0.497980752407E+00  0.498229280034E+00  0.502105481140E+00  0.497042512418E+00  0.510432556812E+00  0.507650826066E+00  0.502854251581E+00
  0.500033117948E+00  0.501167037620E+00  0.518939643653E+00  0.550594111497E+00  0.541193395718E+00  0.501075349691E+00  0.500976503948E+00
  0.504586099429E+00  0.489028620260E+00  0.556789595577E+00  0.578390709206E+00  0.532115084053E+00  0.576194530024E+00  0.498277759710E+00
  0.499777571675E+00  0.499034555557E+00  0.503503730732E+00  0.000000000000E+00  0.417967525115E+00  0.481841826508E+00  0.543088184219E+00
  0.426406339060E+00  0.583195267691E+00  0.325911842383E+00  0.498229129339E+00  0.498189901554E+00  0.498456266785E+00  0.496629079149E+00
  0.498144442027E+00  0.000000000000E+00  0.535886549066E+00  0.000000000000E+00  0.386833522195E+00  0.536246183721E+00  0.000000000000E+00
  0.497223748707E+00  0.496559907995E+00  0.492118920903E+00  0.505571589771E+00  0.000000000000E+00  0.430820355284E+00  0.475357389756E+00
  0.478448275861E+00  0.000000000000E+00
  0.000000000000E+00  0.000000000000E+00  0.000000000000E+00  0.000000000000E+00  0.000000000000E+00  0.000000000000E+00  0.000000000000E+00
  0.000000000000E+00  0.000000000000E+00  0.000000000000E+00  0.000000000000E+00  0.000000000000E+00  0.000000000000E+00  0.000000000000E+00
  0.000000000000E+00  0.000000000000E+00  0.000000000000E+00  0.000000000000E+00  0.000000000000E+00  0.000000000000E+00  0.000000000000E+00
  0.000000000000E+00  0.000000000000E+00  0.000000000000E+00  0.000000000000E+00  0.000000000000E+00  0.000000000000E+00  0.000000000000E+00
  0.000000000000E+00  0.000000000000E+00  0.000000000000E+00  0.000000000000E+00  0.000000000000E+00  0.000000000000E+00  0.000000000000E+00
  0.000000000000E+00  0.000000000000E+00  0.000000000000E+00  0.000000000000E+00  0.000000000000E+00  0.000000000000E+00  0.000000000000E+00
  0.000000000000E+00  0.000000000000E+00  0.000000000000E+00  0.000000000000E+00  0.000000000000E+00  0.000000000000E+00  0.000000000000E+00
  0.000000000000E+00  0.000000000000E+00
  0.270407655423E-04  0.382245932838E-02  0.774128311858E-03 -0.898423559827E-03  0.171823575938E-02 -0.120912068418E-02  0.301079420816E-03