title="tecplot geometry and solution file"
variables = x y z rho u v w p mach temperature
zone t="boundary 1 bc-1", solutiontime= 0.7000000E+02, strandid=1001, i=42, j=30, f=feblock
  0.000000000000E+00  0.000000000000E+00  0.000000000000E+00  0.000000000000E+00  0.000000000000E+00  0.000000000000E+00  0.000000000000E+00
  0.000000000000E+00  0.000000000000E+00  0.000000000000E+00  0.000000000000E+00  0.000000000000E+00  0.000000000000E+00  0.000000000000E+00
  0.000000000000E+00  0.000000000000E+00  0.000000000000E+00  0.000000000000E+00  0.000000000000E+00  0.000000000000E+00  0.000000000000E+00
  0.000000000000E+00  0.000000000000E+00  0.000000000000E+00  0.000000000000E+00  0.000000000000E+00  0.000000000000E+00  0.000000000000E+00
  0.000000000000E+00  0.000000000000E+00  0.000000000000E+00  0.000000000000E+00  0.000000000000E+00  0.000000000000E+00  0.000000000000E+00
  0.000000000000E+00  0.000000000000E+00  0.000000000000E+00  0.000000000000E+00  0.000000000000E+00  0.000000000000E+00  0.000000000000E+00
  0.000000000000E+00  0.000000000000E+00 -0.833333333333E+00  0.000000000000E+00  0.000000000000E+00 -0.833333333333E+00 -0.166666666667E+01
  0.000000000000E+00 -0.833333333333E+00 -0.833333333333E+00  0.000000000000E+00 -0.166666666667E+01 -0.250000000000E+01 -0.833333333333E+00
 -0.166666666667E+01 -0.166666666667E+01 -0.833333333333E+00 -0.250000000000E+01 -0.333333333333E+01 -0.166666666667E+01 -0.250000000000E+01
 -0.250000000000E+01 -0.166666666667E+01 -0.333333333333E+01 -0.416666666667E+01 -0.250000000000E+01 -0.333333333333E+01 -0.333333333333E+01
 -0.250000000000E+01 -0.416666666667E+01 -0.500000000000E+01 -0.333333333333E+01 -0.416666666667E+01 -0.416666666667E+01 -0.333333333333E+01
 -0.500000000000E+01 -0.416666666667E+01 -0.500000000000E+01 -0.500000000000E+01 -0.416666666667E+01 -0.500000000000E+01 -0.500000000000E+01
  0.250000000000E+01  0.150000000000E+01  0.250000000000E+01  0.500000000000E+00 -0.150000000000E+01  0.150000000000E+01  0.250000000000E+01
 -0.500000000000E+00  0.500000000000E+00 -0.150000000000E+01 -0.250000000000E+01  0.150000000000E+01  0.250000000000E+01 -0.500000000000E+00
  0.500000000000E+00 -0.150000000000E+01 -0.250000000000E+01  0.150000000000E+01  0.250000000000E+01 -0.500000000000E+00  0.500000000000E+00
 -0.150000000000E+01 -0.250000000000E+01  0.150000000000E+01  0.250000000000E+01 -0.500000000000E+00  0.500000000000E+00 -0.150000000000E+01
 -0.250000000000E+01  0.150000000000E+01  0.250000000000E+01 -0.500000000000E+00  0.500000000000E+00 -0.150000000000E+01 -0.250000000000E+01
  0.150000000000E+01 -0.500000000000E+00  0.500000000000E+00 -0.150000000000E+01 -0.250000000000E+01 -0.500000000000E+00 -0.250000000000E+01
  0.100130369714E+01  0.100332832553E+01  0.100126913336E+01  0.100360876798E+01  0.102858989834E+01  0.100327402652E+01  0.100129138288E+01
  0.102294250399E+01  0.100332315561E+01  0.102580144534E+01  0.134580047100E+01  0.100331260828E+01  0.100127083042E+01  0.102260074891E+01
  0.100338966164E+01  0.102579259329E+01  0.134747246574E+01  0.100327738003E+01  0.100129138211E+01  0.102273660455E+01  0.100331972028E+01
  0.102560861237E+01  0.134800030105E+01  0.100331260734E+01  0.100126913110E+01  0.102262489028E+01  0.100338965968E+01  0.102579260771E+01
  0.134789221123E+01  0.100327402648E+01  0.100130369590E+01  0.102273660331E+01  0.100332315565E+01  0.102580152008E+01  0.134800030618E+01
  0.100332832593E+01  0.102260076475E+01  0.100360876553E+01  0.102859003906E+01  0.134747252494E+01  0.102294250829E+01  0.134580064946E+01
  0.498339379158E+00  0.497133581020E+00  0.498372520894E+00  0.496498702474E+00  0.475308818367E+00  0.497192150802E+00  0.498351609375E+00
  0.478303558427E+00  0.496826482485E+00  0.476456297568E+00  0.000000000000E+00  0.497152293226E+00  0.498372736511E+00  0.478873940985E+00
  0.496756917847E+00  0.476258122074E+00  0.000000000000E+00  0.497190970199E+00  0.498351609696E+00  0.478734691164E+00  0.496834666190E+00
  0.476442073704E+00  0.000000000000E+00  0.497152293929E+00  0.498372522579E+00  0.478878446754E+00  0.496756919274E+00  0.476258119321E+00
  0.000000000000E+00  0.497192153520E+00  0.498339381477E+00  0.478734687419E+00  0.496826477174E+00  0.476456224693E+00  0.000000000000E+00
  0.497133585667E+00  0.478873934529E+00  0.496498682160E+00  0.475308693038E+00  0.000000000000E+00  0.478303581295E+00  0.000000000000E+00
  0.000000000000E+00  0.000000000000E+00  0.158929219788E-05  0.000000000000E+00  0.000000000000E+00  0.621741547786E-05 -0.113545007795E-06
  0.000000000000E+00 -0.468722562808E-04 -0.971138988095E-03  0.000000000000E+00  0.294019652762E-05 -0.676687039850E-09  0.661567683130E-04
 -0.867963137081E-05 -0.128977125236E-03  0.000000000000E+00 -0.134627392766E-10  0.112648365138E-06  0.753084983556E-04  0.209234087779E-09
  0.566951733790E-08  0.000000000000E+00 -0.293791316338E-05 -0.159052518948E-05 -0.476716194378E-08  0.867898929336E-05  0.129010317743E-03
  0.000000000000E+00 -0.621806695780E-05  0.000000000000E+00 -0.753134981651E-04  0.468680327154E-04  0.971199520698E-03  0.000000000000E+00
  0.000000000000E+00 -0.661633242941E-04  0.000000000000E+00  0.000000000000E+00  0.000000000000E+00  0.000000000000E+00  0.000000000000E+00
  0.101115251796E-02  0.379284295083E-03  0.996794291095E-03  0.266268771758E-02  0.353940366182E-01  0.395186932042E-03  0.100973572789E-02
 -0.231131107116E-02  0.276872582578E-02  0.342587461715E-01  0.000000000000E+00  0.386411385064E-03  0.997137906130E-03 -0.251675272061E-02
  0.275023485166E-02  0.343794159201E-01  0.000000000000E+00  0.390810462659E-03  0.100973555605E-02 -0.254340596180E-02  0.275291282248E-02
  0.343531682125E-01  0.000000000000E+00  0.386410178773E-03  0.996794324712E-03 -0.256839641219E-02  0.275023506834E-02  0.343794188496E-01
  0.000000000000E+00  0.395184798646E-03  0.101115459041E-02 -0.254340418765E-02  0.276873148577E-02  0.342587745387E-01  0.000000000000E+00
  0.379285691759E-03 -0.251675815299E-02  0.266268799487E-02  0.353941396243E-01  0.000000000000E+00 -0.231131747406E-02  0.000000000000E+00
  0.715641500845E+00  0.717461284673E+00  0.715609890422E+00  0.718888496792E+00  0.755498596982E+00  0.717396978181E+00  0.715632353173E+00
  0.732931670372E+00  0.718652089811E+00  0.753362264139E+00  0.100206996382E+01  0.717435367397E+00  0.715611728957E+00  0.732407179170E+00
  0.718721787894E+00  0.753403290322E+00  0.100331491487E+01  0.717400116895E+00  0.715632352444E+00  0.732528100125E+00  0.718650759729E+00
  0.753198038790E+00  0.100370793591E+01  0.717435366508E+00  0.715609888165E+00  0.732420678710E+00  0.718721785784E+00  0.753403305162E+00
  0.100362745329E+01  0.717396978532E+00  0.715641499334E+00  0.732528099111E+00  0.718652086570E+00  0.753362309982E+00  0.100370793974E+01
  0.717461285876E+00  0.732407201068E+00  0.718888487874E+00  0.755498677073E+00  0.100331495895E+01  0.732931686973E+00  0.100207009670E+01
  0.498192555877E+00  0.496857111417E+00  0.498228063329E+00  0.495806026808E+00  0.470020634846E+00  0.496924484891E+00  0.498204900199E+00
  0.477571644200E+00  0.496144905369E+00  0.471096034435E+00  0.000000000000E+00  0.496880901518E+00  0.498228061772E+00  0.478233445543E+00
  0.496067719861E+00  0.470893840344E+00  0.000000000000E+00  0.496923044871E+00  0.498204900581E+00  0.478086820328E+00  0.496152597375E+00
  0.471094826581E+00  0.000000000000E+00  0.496880902297E+00  0.498228065236E+00  0.478239452096E+00  0.496067721529E+00  0.470893836525E+00
  0.000000000000E+00  0.496924487473E+00  0.498192558417E+00  0.478086816621E+00  0.496144901225E+00  0.471095967707E+00  0.000000000000E+00
  0.496857115746E+00  0.478233435682E+00  0.495806008993E+00  0.470020526377E+00  0.000000000000E+00  0.477571662661E+00  0.000000000000E+00
  0.100059363013E+01  0.100111376604E+01  0.100058397209E+01  0.100282493300E+01  0.102829906991E+01  0.100107821283E+01  0.100059314558E+01
  0.100309092107E+01  0.100278052999E+01  0.102817867393E+01  0.104242640687E+01  0.100109328446E+01  0.100058484688E+01  0.100270809691E+01
  0.100281131201E+01  0.102824353904E+01  0.104242640687E+01  0.100107924653E+01  0.100059314533E+01  0.100274042761E+01  0.100278210753E+01
  0.102814781545E+01  0.104242640687E+01  0.100109328415E+01  0.100058397120E+01  0.100270290695E+01  0.100281131103E+01  0.102824354485E+01
  0.104242640687E+01  0.100107821337E+01  0.100059362925E+01  0.100274042743E+01  0.100278052543E+01  0.102817866159E+01  0.104242640687E+01
  0.100111376731E+01  0.100270811136E+01  0.100282492301E+01  0.102829903823E+01  0.104242640687E+01  0.100309093956E+01  0.104242640687E+01
         3         6         2         1
         6         9         4         2
         9        14         8         4
        14        10         5         8
        10        17        11         5
         7        12         6         3
        12        15         9         6
        15        20        14         9
        20        16        10        14
        16        23        17        10
        13        18        12         7
        18        21        15        12
        21        26        20        15
        26        22        16        20
        22        29        23        16
        19        24        18        13
        24        27        21        18
        27        32        26        21
        32        28        22        26
        28        35        29        22
        25        30        24        19
        30        33        27        24
        33        37        32        27
        37        34        28        32
        34        40        35        28
        31        36        30        25
        36        38        33        30
        38        41        37        33
        41        39        34        37
        39        42        40        34
zone t="boundary 2 bc-2", solutiontime= 0.7000000E+02, strandid=1002, i=51, j=80, f=feblock
  0.500000000000E+01  0.500000000000E+01  0.400000000000E+01  0.425172245441E+01  0.500000000000E+01  0.427741389634E+01  0.300000000000E+01
  0.341887665662E+01  0.368116975164E+01  0.500000000000E+01  0.430894944607E+01  0.352044655687E+01  0.200000000000E+01  0.259168638257E+01
  0.301798341022E+01  0.500000000000E+01  0.435643616790E+01  0.375117520592E+01  0.271663237208E+01  0.288980181581E+01  0.100000000000E+01
  0.191939879870E+01  0.130679496696E+01  0.219385942988E+01  0.500000000000E+01  0.441735041915E+01  0.373031592783E+01  0.208456665067E+01
  0.230848460393E+01  0.190054259015E+01  0.298584217914E+01  0.000000000000E+00  0.613733212775E+00  0.151350918120E+01  0.794128609067E+00
  0.144135983281E+01  0.400000000000E+01  0.132476136006E+01  0.200000000000E+01  0.164582171489E+01  0.102008138039E+01  0.300000000000E+01
  0.000000000000E+00  0.000000000000E+00  0.701034609231E+00  0.609175469936E+00  0.100000000000E+01  0.505577837730E+00  0.000000000000E+00
  0.000000000000E+00  0.000000000000E+00
 -0.500000000000E+01 -0.500000000000E+01 -0.500000000000E+01 -0.500000000000E+01 -0.500000000000E+01 -0.500000000000E+01 -0.500000000000E+01
 -0.500000000000E+01 -0.500000000000E+01 -0.500000000000E+01 -0.500000000000E+01 -0.500000000000E+01 -0.500000000000E+01 -0.500000000000E+01
 -0.500000000000E+01 -0.500000000000E+01 -0.500000000000E+01 -0.500000000000E+01 -0.500000000000E+01 -0.500000000000E+01 -0.500000000000E+01
 -0.500000000000E+01 -0.500000000000E+01 -0.500000000000E+01 -0.500000000000E+01 -0.500000000000E+01 -0.500000000000E+01 -0.500000000000E+01
 -0.500000000000E+01 -0.500000000000E+01 -0.500000000000E+01 -0.500000000000E+01 -0.500000000000E+01 -0.500000000000E+01 -0.500000000000E+01
 -0.500000000000E+01 -0.500000000000E+01 -0.500000000000E+01 -0.500000000000E+01 -0.500000000000E+01 -0.500000000000E+01 -0.500000000000E+01
 -0.500000000000E+01 -0.500000000000E+01 -0.500000000000E+01 -0.500000000000E+01 -0.500000000000E+01 -0.500000000000E+01 -0.500000000000E+01
 -0.500000000000E+01 -0.500000000000E+01
  0.250000000000E+01  0.150000000000E+01  0.250000000000E+01  0.168388151981E+01  0.500000000000E+00  0.784980628699E+00  0.250000000000E+01
  0.172616846193E+01  0.104016062853E+01 -0.500000000000E+00 -0.103062804534E+00  0.179404976675E+00  0.250000000000E+01  0.166729536217E+01
  0.923171218453E+00 -0.150000000000E+01 -0.102255113015E+01 -0.669125930414E+00  0.135977239814E+00 -0.856266143819E+00  0.250000000000E+01
  0.158034275708E+01  0.175813852804E+01  0.774089735567E+00 -0.250000000000E+01 -0.179804978092E+01 -0.146769777443E+01 -0.223755606368E+00
 -0.164420331359E+01 -0.108875578595E+01 -0.190240885061E+01  0.250000000000E+01  0.185787993997E+01  0.110883669208E+01  0.100177177909E+01
  0.349093656766E+00 -0.250000000000E+01 -0.526785284186E+00 -0.250000000000E+01 -0.183798308008E+01 -0.145695630084E+01 -0.250000000000E+01
  0.150000000000E+01  0.500000000000E+00  0.396172271494E-01 -0.788824871575E+00 -0.250000000000E+01 -0.198405114581E+01 -0.150000000000E+01
 -0.500000000000E+00 -0.250000000000E+01
  0.100106564449E+01  0.100103241636E+01  0.100010969095E+01  0.100051745427E+01  0.100990990978E+01  0.100104886658E+01  0.100042880757E+01
  0.999673052731E+00  0.100101596676E+01  0.101760320597E+01  0.100397310422E+01  0.994439934942E+00  0.100125988615E+01  0.100005579055E+01
  0.997721737593E+00  0.960062384016E+00  0.980822211344E+00  0.996354832046E+00  0.992836362085E+00  0.998641304034E+00  0.100186659397E+01
  0.100050093644E+01  0.100162836395E+01  0.100015098590E+01  0.746580778067E+00  0.967506301567E+00  0.953107745693E+00  0.995197690406E+00
  0.991331501254E+00  0.991455503113E+00  0.966960559608E+00  0.100130369590E+01  0.100201614880E+01  0.100079816935E+01  0.100275936865E+01
  0.100506416434E+01  0.928896594627E+00  0.997824935711E+00  0.928819106798E+00  0.953084244754E+00  0.103614640403E+01  0.935049968429E+00
  0.100332832593E+01  0.100360876553E+01  0.100719139258E+01  0.100122229995E+01  0.902768433283E+00  0.104956191369E+01  0.102859003906E+01
  0.102294250829E+01  0.134580064946E+01
  0.497870229411E+00  0.498260076507E+00  0.501496139053E+00  0.496967481186E+00  0.510496328835E+00  0.507449275367E+00  0.501852357021E+00
  0.499627902422E+00  0.501252393888E+00  0.519081906730E+00  0.550989656989E+00  0.541090985508E+00  0.500095390756E+00  0.500673707227E+00
  0.504610484691E+00  0.488846702286E+00  0.557094170954E+00  0.578948010620E+00  0.531905684561E+00  0.576408197778E+00  0.498088149588E+00
  0.499472308991E+00  0.498849978599E+00  0.503520106001E+00  0.000000000000E+00  0.417161591371E+00  0.481206815874E+00  0.542862421651E+00
  0.426100681791E+00  0.583085159402E+00  0.325342517878E+00  0.498339381477E+00  0.498226872142E+00  0.498352630421E+00  0.496500947476E+00
  0.498053541305E+00  0.000000000000E+00  0.535755158736E+00  0.000000000000E+00  0.386608572054E+00  0.536091292945E+00  0.000000000000E+00
  0.497133585667E+00  0.496498682160E+00  0.492038106557E+00  0.505352238025E+00  0.000000000000E+00  0.430709393244E+00  0.475308693038E+00
  0.478303581295E+00  0.000000000000E+00
  0.000000000000E+00  0.000000000000E+00  0.000000000000E+00  0.000000000000E+00  0.000000000000E+00  0.000000000000E+00  0.000000000000E+00
  0.000000000000E+00  0.000000000000E+00  0.000000000000E+00  0.000000000000E+00  0.000000000000E+00  0.000000000000E+00  0.000000000000E+00
  0.000000000000E+00  0.000000000000E+00  0.000000000000E+00  0.000000000000E+00  0.000000000000E+00  0.000000000000E+00  0.000000000000E+00
  0.000000000000E+00  0.000000000000E+00  0.000000000000E+00  0.000000000000E+00  0.000000000000E+00  0.000000000000E+00  0.000000000000E+00
  0.000000000000E+00  0.000000000000E+00  0.000000000000E+00  0.000000000000E+00  0.000000000000E+00  0.000000000000E+00  0.000000000000E+00
  0.000000000000E+00  0.000000000000E+00  0.000000000000E+00  0.000000000000E+00  0.000000000000E+00  0.000000000000E+00  0.000000000000E+00
  0.000000000000E+00  0.000000000000E+00  0.000000000000E+00  0.000000000000E+00  0.000000000000E+00  0.000000000000E+00  0.000000000000E+00
  0.000000000000E+00  0.000000000000E+00
 -0.171324829623E-03  0.370566280441E-02  0.308326990116E-03 -0.994600300841E-03  0.183780630443E-02 -0.136838060719E-02  0.370532892585E-03
 -0.692707939691E-03 -0.322769492610E-02 -0.456313384571E-01 -0.942178904474E-02  0.186804249972E-02  0.117441090964E-02  0.100479049632E-02
 -0.881871280734E-03 -0.110577480499E+00 -0.319458742756E-01 -0.900240597687E-02  0.725463128099E-02  0.142129310727E-01  0.153929085356E-02
  0.243021450477E-02  0.264342748169E-02  0.486861755605E-02  0.000000000000E+00 -0.598772064651E-01  0.589956312403E-02  0.195814245739E-01
  0.327888849000E-02  0.339361742469E-01  0.388754720136E-02  0.101115459041E-02  0.208175449491E-02  0.339677261074E-02  0.251446588988E-02
  0.708381996312E-02  0.000000000000E+00  0.365711217066E-01  0.000000000000E+00 -0.256482326172E-02  0.651968410672E-01  0.000000000000E+00
  0.379285691759E-03  0.266268799487E-02  0.333853799441E-02  0.249691236645E-01  0.000000000000E+00  0.141966982744E+00  0.353941396243E-01
 -0.231131747406E-02  0.000000000000E+00
  0.715164927144E+00  0.715693077701E+00  0.714468409119E+00  0.714592701638E+00  0.723826143040E+00  0.716427348173E+00  0.714551860529E+00
  0.714006869084E+00  0.715275042890E+00  0.729041265203E+00  0.715419962564E+00  0.709291331056E+00  0.715433221734E+00  0.714355307476E+00
  0.712190183620E+00  0.675892639050E+00  0.693012204860E+00  0.704429887890E+00  0.709499407699E+00  0.705753580361E+00  0.716116056715E+00
  0.715332323188E+00  0.715852961994E+00  0.713533083676E+00  0.555896798514E+00  0.685101816497E+00  0.675233022302E+00  0.711745412616E+00
  0.707467700557E+00  0.697282639724E+00  0.699064317137E+00  0.715641499334E+00  0.716177907072E+00  0.715508987627E+00  0.717550309090E+00
  0.718017915883E+00  0.691647385351E+00  0.716063607278E+00  0.691589688667E+00  0.679823612796E+00  0.735163283158E+00  0.696229127739E+00
  0.717461285876E+00  0.718888487874E+00  0.719045449273E+00  0.725477378086E+00  0.672192610102E+00  0.725658925326E+00  0.755498677073E+00
  0.732931686973E+00  0.100207009670E+01
  0.497829170362E+00  0.498040597453E+00  0.501459612124E+00  0.496990251719E+00  0.509630726133E+00  0.506957741166E+00  0.501866591122E+00
  0.499644235777E+00  0.501170398837E+00  0.520303402811E+00  0.551725968521E+00  0.541484240426E+00  0.500010228420E+00  0.500664292353E+00
  0.504777096069E+00  0.504841853172E+00  0.561050787502E+00  0.581990873578E+00  0.531831213423E+00  0.579664007088E+00  0.497917634077E+00
  0.499237688152E+00  0.498716149093E+00  0.503847173263E+00  0.000000000000E+00  0.423270399225E+00  0.483219610749E+00  0.542875758050E+00
  0.426301846851E+00  0.588619263856E+00  0.323410131300E+00  0.498192558417E+00  0.498073942473E+00  0.498136688675E+00  0.496059554884E+00
  0.498064045179E+00  0.000000000000E+00  0.535751230494E+00  0.000000000000E+00  0.386887359738E+00  0.541853068456E+00  0.000000000000E+00
  0.496857115746E+00  0.495806008993E+00  0.492178399109E+00  0.502357588591E+00  0.000000000000E+00  0.460950356208E+00  0.470020526377E+00
  0.477571662661E+00  0.000000000000E+00
  0.100016507760E+01  0.100093692513E+01  0.100014606579E+01  0.999912373368E+00  0.100341286925E+01  0.100194737832E+01  0.999943821265E+00
  0.999936543240E+00  0.100036871868E+01  0.100300172533E+01  0.997624282344E+00  0.998559921606E+00  0.100034618812E+01  0.100004163759E+01
  0.999343022709E+00  0.985612716865E+00  0.989187515926E+00  0.989809866251E+00  0.100046614801E+01  0.989399305351E+00  0.100069458891E+01
  0.100096383321E+01  0.100056486304E+01  0.998795513104E+00  0.104242640687E+01  0.991355344706E+00  0.991835640298E+00  0.100125189926E+01
  0.999115613220E+00  0.984608681427E+00  0.101213026143E+01  0.100059362925E+01  0.100063164761E+01  0.100091368406E+01  0.100180608044E+01
  0.100016010709E+01  0.104242640687E+01  0.100467428134E+01  0.104242640687E+01  0.998603285233E+00  0.993323523026E+00  0.104242640687E+01
  0.100111376731E+01  0.100282492301E+01  0.999476004657E+00  0.101442839354E+01  0.104242640687E+01  0.967949086384E+00  0.102829903823E+01
  0.100309093956E+01  0.104242640687E+01
        28        24        19        19
        19        24        15        15
        19        15        12        12
        22        13        14        14
        13        22        23        23
        31        27        37        37
        31        29        20        20
        35        34        36        36
        34        23        22        22
         8         9        15        15
         9         6        12        12
        20        18        27        27
        27        18        17        17
        38        45        36        36
        38        30        41        41
        28        19        20        20
        30        40        41        41
        40        39        47        47
        11        10        17        17
        10        11         5         5
         8        14         7         7
        14        24        22        22
        45        46        50        50
        46        41        49        49
        41        46        38        38
        29        39        40        40
        36        24        28        28
        36        45        35        35
        20        29        30        30
        11        18        12        12
        15        24        14        14
        12        20        19        19
        12        18        20        20
        31        20        27        27
         9        12        15        15
         9         4         6         6
        24        36        34        34
        35        23        34        34
        38        36        28        28
        41        47        48        48
        29        40        30        30
        49        50        46        46
        46        45        38        38
        25        26        16        16
        26        37        27        27
        32        33        43        43
        33        21        23        23
        51        48        47        47
         1         4         3         3
         4         2         6         6
         6         5        11        11
        35        43        33        33
        43        35        44        44
         8         3         4         4
         3         8         7         7
        31        37        42        42
        17        16        26        26
        16        17        10        10
        34        22        24        24
        47        41        40        40
        15        14         8         8
        20        30        28        28
        11        17        18        18
        39        31        42        42
         4         9         8         8
        33        23        35        35
        28        30        38        38
        17        26        27        27
        41        48        49        49
        35        45        44        44
        39        29        31        31
        45        50        44        44
        21        13        23        23
        13         7        14        14
         2         5         6         6
         6        11        12        12
        25        37        26        26
        51        49        48        48
        32        21        33        33
         1         2         4         4
zone t="boundary 3 bc-3", solutiontime= 0.7000000E+02, strandid=1003, i=51, j=80, f=feblock
  0.500000000000E+01  0.500000000000E+01  0.400000000000E+01  0.425172245441E+01  0.500000000000E+01  0.427741389634E+01  0.300000000000E+01
  0.341887665662E+01  0.368116975164E+01  0.500000000000E+01  0.430894944607E+01  0.352044655687E+01  0.200000000000E+01  0.259168638257E+01
  0.301798341022E+01  0.500000000000E+01  0.435643616790E+01  0.375117520592E+01  0.271663237208E+01  0.288980181581E+01  0.100000000000E+01
  0.191939879870E+01  0.130679496696E+01  0.219385942988E+01  0.500000000000E+01  0.441735041915E+01  0.373031592783E+01  0.208456665067E+01
  0.230848460393E+01  0.190054259015E+01  0.298584217914E+01  0.000000000000E+00  0.613733212775E+00  0.151350918120E+01  0.794128609067E+00
  0.144135983281E+01  0.400000000000E+01  0.132476136006E+01  0.200000000000E+01  0.164582171489E+01  0.102008138039E+01  0.300000000000E+01
  0.000000000000E+00  0.000000000000E+00  0.701034609231E+00  0.609175469936E+00  0.100000000000E+01  0.505577837730E+00  0.000000000000E+00
  0.000000000000E+00  0.000000000000E+00
  0.000000000000E+00  0.000000000000E+00  0.000000000000E+00  0.000000000000E+00  0.000000000000E+00  0.000000000000E+00  0.000000000000E+00
  0.000000000000E+00  0.000000000000E+00  0.000000000000E+00  0.000000000000E+00  0.000000000000E+00  0.000000000000E+00  0.000000000000E+00
  0.000000000000E+00  0.000000000000E+00  0.000000000000E+00  0.000000000000E+00  0.000000000000E+00  0.000000000000E+00  0.000000000000E+00
  0.000000000000E+00  0.000000000000E+00  0.000000000000E+00  0.000000000000E+00  0.000000000000E+00  0.000000000000E+00  0.000000000000E+00
  0.000000000000E+00  0.000000000000E+00  0.000000000000E+00  0.000000000000E+00  0.000000000000E+00  0.000000000000E+00  0.000000000000E+00
  0.000000000000E+00  0.000000000000E+00  0.000000000000E+00  0.000000000000E+00  0.000000000000E+00  0.000000000000E+00  0.000000000000E+00
  0.000000000000E+00  0.000000000000E+00  0.000000000000E+00  0.000000000000E+00  0.000000000000E+00  0.000000000000E+00  0.000000000000E+00
  0.000000000000E+00  0.000000000000E+00
  0.250000000000E+01  0.150000000000E+01  0.250000000000E+01  0.168388151981E+01  0.500000000000E+00  0.784980628699E+00  0.250000000000E+01
  0.172616846193E+01  0.104016062853E+01 -0.500000000000E+00 -0.103062804534E+00  0.179404976675E+00  0.250000000000E+01  0.166729536217E+01
  0.923171218453E+00 -0.150000000000E+01 -0.102255113015E+01 -0.669125930414E+00  0.135977239814E+00 -0.856266143819E+00  0.250000000000E+01
  0.158034275708E+01  0.175813852804E+01  0.774089735567E+00 -0.250000000000E+01 -0.179804978092E+01 -0.146769777443E+01 -0.223755606368E+00
 -0.164420331359E+01 -0.108875578595E+01 -0.190240885061E+01  0.250000000000E+01  0.185787993997E+01  0.110883669208E+01  0.100177177909E+01
  0.349093656766E+00 -0.250000000000E+01 -0.526785284186E+00 -0.250000000000E+01 -0.183798308008E+01 -0.145695630084E+01 -0.250000000000E+01
  0.150000000000E+01  0.500000000000E+00  0.396172271494E-01 -0.788824871575E+00 -0.250000000000E+01 -0.198405114581E+01 -0.150000000000E+01
 -0.500000000000E+00 -0.250000000000E+01
  0.100106563489E+01  0.100103240868E+01  0.100010968895E+01  0.100051744523E+01  0.100990991788E+01  0.100104888396E+01  0.100042880382E+01
  0.999673043975E+00  0.100101596119E+01  0.101760330307E+01  0.100397314571E+01  0.994439940993E+00  0.100125989479E+01  0.100005578788E+01
  0.997721714533E+00  0.960062524606E+00  0.980822341152E+00  0.996354920575E+00  0.992836372888E+00  0.998641375465E+00  0.100186659590E+01
  0.100050094161E+01  0.100162836959E+01  0.100015100342E+01  0.746580506919E+00  0.967506323278E+00  0.953107868013E+00  0.995197718881E+00
  0.991331519870E+00  0.991455567102E+00  0.966960579941E+00  0.100130369714E+01  0.100201615010E+01  0.100079817392E+01  0.100275936943E+01
  0.100506417567E+01  0.928896441839E+00  0.997824954850E+00  0.928818990192E+00  0.953084283636E+00  0.103614647361E+01  0.935049922378E+00
  0.100332832553E+01  0.100360876798E+01  0.100719140024E+01  0.100122227677E+01  0.902768366188E+00  0.104956207132E+01  0.102858989834E+01
  0.102294250399E+01  0.134580047100E+01
  0.497870227113E+00  0.498260060399E+00  0.501496143038E+00  0.496967463401E+00  0.510496246139E+00  0.507449185200E+00  0.501852359780E+00
  0.499627915901E+00  0.501252324993E+00  0.519081895427E+00  0.550989560009E+00  0.541090890173E+00  0.500095374026E+00  0.500673704602E+00
  0.504610407567E+00  0.488846612030E+00  0.557094313825E+00  0.578947880211E+00  0.531905489464E+00  0.576408235214E+00  0.498088143227E+00
  0.499472294382E+00  0.498849965866E+00  0.503520038544E+00  0.000000000000E+00  0.417161610092E+00  0.481206989249E+00  0.542862287188E+00
  0.426100892363E+00  0.583085177852E+00  0.325342715365E+00  0.498339379158E+00  0.498226868857E+00  0.498352621503E+00  0.496500956140E+00
  0.498053455203E+00  0.000000000000E+00  0.535755042554E+00  0.000000000000E+00  0.386608897468E+00  0.536091412673E+00  0.000000000000E+00
  0.497133581020E+00  0.496498702474E+00  0.492038035238E+00  0.505352232701E+00  0.000000000000E+00  0.430709480904E+00  0.475308818367E+00
  0.478303558427E+00  0.000000000000E+00
  0.000000000000E+00  0.000000000000E+00  0.000000000000E+00  0.000000000000E+00  0.000000000000E+00  0.000000000000E+00  0.000000000000E+00
  0.000000000000E+00  0.000000000000E+00  0.000000000000E+00  0.000000000000E+00  0.000000000000E+00  0.000000000000E+00  0.000000000000E+00
  0.000000000000E+00  0.000000000000E+00  0.000000000000E+00  0.000000000000E+00  0.000000000000E+00  0.000000000000E+00  0.000000000000E+00
  0.000000000000E+00  0.000000000000E+00  0.000000000000E+00  0.000000000000E+00  0.000000000000E+00  0.000000000000E+00  0.000000000000E+00
  0.000000000000E+00  0.000000000000E+00  0.000000000000E+00  0.000000000000E+00  0.000000000000E+00  0.000000000000E+00  0.000000000000E+00
  0.000000000000E+00  0.000000000000E+00  0.000000000000E+00  0.000000000000E+00  0.000000000000E+00  0.000000000000E+00  0.000000000000E+00
  0.000000000000E+00  0.000000000000E+00  0.000000000000E+00  0.000000000000E+00  0.000000000000E+00  0.000000000000E+00  0.000000000000E+00
  0.000000000000E+00  0.000000000000E+00
 -0.171322375427E-03  0.370566868860E-02  0.308325263574E-03 -0.994600638523E-03  0.183788505271E-02 -0.136838693693E-02  0.370533831276E-03