# vtk DataFile Version 2.0
FUN3D:global_image_vtk
ASCII
DATASET UNSTRUCTURED_GRID
POINTS 357 double
    0.5000000000000000E+01    0.0000000000000000E+00    0.2500000000000000E+01
    0.5000000000000000E+01    0.0000000000000000E+00    0.1500000000000000E+01
    0.5000000000000000E+01    0.0000000000000000E+00    0.5000000000000000E+00
    0.5000000000000000E+01    0.0000000000000000E+00   -0.5000000000000000E+00
    0.5000000000000000E+01    0.0000000000000000E+00   -0.1500000000000000E+01
    0.5000000000000000E+01    0.0000000000000000E+00   -0.2500000000000000E+01
    0.4000000000000000E+01    0.0000000000000000E+00   -0.2500000000000000E+01
    0.3000000000000000E+01    0.0000000000000000E+00   -0.2500000000000000E+01
    0.2000000000000000E+01    0.0000000000000000E+00   -0.2500000000000000E+01
    0.9999999999999998E+00    0.0000000000000000E+00   -0.2500000000000000E+01
    0.0000000000000000E+00    0.0000000000000000E+00   -0.2500000000000000E+01
    0.0000000000000000E+00    0.0000000000000000E+00   -0.1500000000000000E+01
    0.0000000000000000E+00    0.0000000000000000E+00   -0.5000000000000000E+00
    0.0000000000000000E+00    0.0000000000000000E+00    0.5000000000000000E+00
    0.0000000000000000E+00    0.0000000000000000E+00    0.1500000000000000E+01
    0.0000000000000000E+00    0.0000000000000000E+00    0.2500000000000000E+01
    0.1000000000000000E+01    0.0000000000000000E+00    0.2500000000000000E+01
    0.2000000000000000E+01    0.0000000000000000E+00    0.2500000000000000E+01
    0.3000000000000000E+01    0.0000000000000000E+00    0.2500000000000000E+01
    0.4000000000000000E+01    0.0000000000000000E+00    0.2500000000000000E+01
    0.4251722454414101E+01    0.0000000000000000E+00    0.1683881519811194E+01
    0.6137332127746504E+00    0.0000000000000000E+00    0.1857879939968904E+01
    0.5055778377301318E+00    0.0000000000000000E+00   -0.1984051145810370E+01
    0.4417350419147004E+01    0.0000000000000000E+00   -0.1798049780917599E+01
    0.4277413896341787E+01    0.0000000000000000E+00    0.7849806286986014E+00
    0.4308949446070184E+01    0.0000000000000000E+00   -0.1030628045339280E+00
    0.3520446556869569E+01    0.0000000000000000E+00    0.1794049766750259E+00
    0.2591686382569276E+01    0.0000000000000000E+00    0.1667295362171870E+01
    0.1306794966956192E+01    0.0000000000000000E+00    0.1758138528035871E+01
    0.7010346092308208E+00    0.0000000000000000E+00    0.3961722714940701E-01
    0.2308484603929350E+01    0.0000000000000000E+00   -0.1644203313594280E+01
    0.2985842179142563E+01    0.0000000000000000E+00   -0.1902408850608312E+01
    0.7941286090671454E+00    0.0000000000000000E+00    0.1001771779085911E+01
    0.1020081380390785E+01    0.0000000000000000E+00   -0.1456956300840256E+01
    0.4356436167904402E+01    0.0000000000000000E+00   -0.1022551130153989E+01
    0.3730315927830617E+01    0.0000000000000000E+00   -0.1467697774434008E+01
    0.2084566650673803E+01    0.0000000000000000E+00   -0.2237556063676878E+00
    0.1900542590153839E+01    0.0000000000000000E+00   -0.1088755785946356E+01
    0.1324761360056765E+01    0.0000000000000000E+00   -0.5267852841860601E+00
    0.3681169751640886E+01    0.0000000000000000E+00    0.1040160628527462E+01
    0.3418876656618056E+01    0.0000000000000000E+00    0.1726168461930342E+01
    0.3751175205920376E+01    0.0000000000000000E+00   -0.6691259304140329E+00
    0.2889801815813465E+01    0.0000000000000000E+00   -0.8562661438192326E+00
    0.3017983410224082E+01    0.0000000000000000E+00    0.9231712184526961E+00
    0.1645821714894795E+01    0.0000000000000000E+00   -0.1837983080076178E+01
    0.1513509181197389E+01    0.0000000000000000E+00    0.1108836692078749E+01
    0.1919398798697967E+01    0.0000000000000000E+00    0.1580342757081665E+01
    0.2193859429875553E+01    0.0000000000000000E+00    0.7740897355665203E+00
    0.6091754699356742E+00    0.0000000000000000E+00   -0.7888248715753817E+00
    0.1441359832811715E+01    0.0000000000000000E+00    0.3490936567660688E+00
    0.2716632372076206E+01    0.0000000000000000E+00    0.1359772398136161E+00
    0.5000000000000000E+01   -0.8333333333333334E+00    0.2500000000000000E+01
    0.5000000000000000E+01   -0.8333333333333334E+00    0.1500000000000000E+01
    0.5000000000000000E+01   -0.8333333333333334E+00    0.5000000000000000E+00
    0.5000000000000000E+01   -0.8333333333333334E+00   -0.5000000000000000E+00
    0.5000000000000000E+01   -0.8333333333333334E+00   -0.1500000000000000E+01
    0.5000000000000000E+01   -0.8333333333333334E+00   -0.2500000000000000E+01
    0.4000000000000000E+01   -0.8333333333333334E+00   -0.2500000000000000E+01
    0.3000000000000000E+01   -0.8333333333333334E+00   -0.2500000000000000E+01
    0.2000000000000000E+01   -0.8333333333333334E+00   -0.2500000000000000E+01
    0.9999999999999998E+00   -0.8333333333333334E+00   -0.2500000000000000E+01
    0.0000000000000000E+00   -0.8333333333333334E+00   -0.2500000000000000E+01
    0.0000000000000000E+00   -0.8333333333333334E+00   -0.1500000000000000E+01
    0.0000000000000000E+00   -0.8333333333333334E+00   -0.5000000000000000E+00
    0.0000000000000000E+00   -0.8333333333333334E+00    0.5000000000000000E+00
    0.0000000000000000E+00   -0.8333333333333334E+00    0.1500000000000000E+01
    0.0000000000000000E+00   -0.8333333333333334E+00    0.2500000000000000E+01
    0.1000000000000000E+01   -0.8333333333333334E+00    0.2500000000000000E+01
    0.2000000000000000E+01   -0.8333333333333334E+00    0.2500000000000000E+01
    0.3000000000000000E+01   -0.8333333333333334E+00    0.2500000000000000E+01
    0.4000000000000000E+01   -0.8333333333333334E+00    0.2500000000000000E+01
    0.4251722454414101E+01   -0.8333333333333334E+00    0.1683881519811194E+01
    0.6137332127746504E+00   -0.8333333333333334E+00    0.1857879939968904E+01
    0.5055778377301318E+00   -0.8333333333333334E+00   -0.1984051145810370E+01
    0.4417350419147004E+01   -0.8333333333333334E+00   -0.1798049780917599E+01
    0.4277413896341787E+01   -0.8333333333333334E+00    0.7849806286986014E+00
    0.4308949446070184E+01   -0.8333333333333334E+00   -0.1030628045339280E+00
    0.3520446556869569E+01   -0.8333333333333334E+00    0.1794049766750259E+00
    0.2591686382569276E+01   -0.8333333333333334E+00    0.1667295362171870E+01
    0.1306794966956192E+01   -0.8333333333333334E+00    0.1758138528035871E+01
    0.7010346092308208E+00   -0.8333333333333334E+00    0.3961722714940701E-01
    0.2308484603929350E+01   -0.8333333333333334E+00   -0.1644203313594280E+01
    0.2985842179142563E+01   -0.8333333333333334E+00   -0.1902408850608312E+01
    0.7941286090671454E+00   -0.8333333333333334E+00    0.1001771779085911E+01
    0.1020081380390785E+01   -0.8333333333333334E+00   -0.1456956300840256E+01
    0.4356436167904402E+01   -0.8333333333333334E+00   -0.1022551130153989E+01
    0.3730315927830617E+01   -0.8333333333333334E+00   -0.1467697774434008E+01
    0.2084566650673803E+01   -0.8333333333333334E+00   -0.2237556063676878E+00
    0.1900542590153839E+01   -0.8333333333333334E+00   -0.1088755785946356E+01
    0.1324761360056765E+01   -0.8333333333333334E+00   -0.5267852841860601E+00
    0.3681169751640886E+01   -0.8333333333333334E+00    0.1040160628527462E+01
    0.3418876656618056E+01   -0.8333333333333334E+00    0.1726168461930342E+01
    0.3751175205920376E+01   -0.8333333333333334E+00   -0.6691259304140329E+00
    0.2889801815813465E+01   -0.8333333333333334E+00   -0.8562661438192326E+00
    0.3017983410224082E+01   -0.8333333333333334E+00    0.9231712184526961E+00
    0.1645821714894795E+01   -0.8333333333333334E+00   -0.1837983080076178E+01
    0.1513509181197389E+01   -0.8333333333333334E+00    0.1108836692078749E+01
    0.1919398798697967E+01   -0.8333333333333334E+00    0.1580342757081665E+01
    0.2193859429875553E+01   -0.8333333333333334E+00    0.7740897355665203E+00
    0.6091754699356742E+00   -0.8333333333333334E+00   -0.7888248715753817E+00
    0.1441359832811715E+01   -0.8333333333333334E+00    0.3490936567660688E+00
    0.2716632372076206E+01   -0.8333333333333334E+00    0.1359772398136161E+00
    0.5000000000000000E+01   -0.1666666666666667E+01    0.2500000000000000E+01
    0.5000000000000000E+01   -0.1666666666666667E+01    0.1500000000000000E+01
    0.5000000000000000E+01   -0.1666666666666667E+01    0.5000000000000000E+00
    0.5000000000000000E+01   -0.1666666666666667E+01   -0.5000000000000000E+00
    0.5000000000000000E+01   -0.1666666666666667E+01   -0.1500000000000000E+01
    0.5000000000000000E+01   -0.1666666666666667E+01   -0.2500000000000000E+01
    0.4000000000000000E+01   -0.1666666666666667E+01   -0.2500000000000000E+01
    0.3000000000000000E+01   -0.1666666666666667E+01   -0.2500000000000000E+01
    0.2000000000000000E+01   -0.1666666666666667E+01   -0.2500000000000000E+01
    0.9999999999999998E+00   -0.1666666666666667E+01   -0.2500000000000000E+01
    0.0000000000000000E+00   -0.1666666666666667E+01   -0.2500000000000000E+01
    0.0000000000000000E+00   -0.1666666666666667E+01   -0.1500000000000000E+01
    0.0000000000000000E+00   -0.1666666666666667E+01   -0.5000000000000000E+00
    0.0000000000000000E+00   -0.1666666666666667E+01    0.5000000000000000E+00
    0.0000000000000000E+00   -0.1666666666666667E+01    0.1500000000000000E+01
    0.0000000000000000E+00   -0.1666666666666667E+01    0.2500000000000000E+01
    0.1000000000000000E+01   -0.1666666666666667E+01    0.2500000000000000E+01
    0.2000000000000000E+01   -0.1666666666666667E+01    0.2500000000000000E+01
    0.3000000000000000E+01   -0.1666666666666667E+01    0.2500000000000000E+01
    0.4000000000000000E+01   -0.1666666666666667E+01    0.2500000000000000E+01
    0.4251722454414101E+01   -0.1666666666666667E+01    0.1683881519811194E+01
    0.6137332127746504E+00   -0.1666666666666667E+01    0.1857879939968904E+01
    0.5055778377301318E+00   -0.1666666666666667E+01   -0.1984051145810370E+01
[...]
POINT_DATA 357
SCALARS rho double 1
LOOKUP_TABLE default
   0.1001064753183346E+01
   0.1001032877416874E+01
   0.1009910222496094E+01
   0.1017603358747794E+01
   0.9600620724051908E+00
   0.7465805955292145E+00
   0.9288963089815311E+00
   0.9350491856020174E+00
   0.9288188437643775E+00
   0.9027685157108298E+00
   0.1345800550686535E+01
   0.1028589851359012E+01
   0.1022942402504327E+01
   0.1003608566944577E+01
   0.1003328134476377E+01
   0.1001303266471787E+01
   0.1001866633003696E+01
   0.1001262461395104E+01
   0.1000430121085655E+01
   0.1000105533460206E+01
   0.1000514866401977E+01
   0.1002016071718582E+01
   0.1049561994353202E+01
   0.9675056834949767E+00
   0.1001048760793632E+01
   0.1003973489251834E+01
   0.9944399857414205E+00
   0.1000054707060870E+01
   0.1001628264526372E+01
   0.1007191308052553E+01
   0.9913315920095399E+00
   0.9669599037579022E+00
   0.1002759337191322E+01
   0.1036146460042941E+01
   0.9808224116782117E+00
   0.9531075004224278E+00
   0.9951978260727710E+00
   0.9914556452403198E+00
   0.9978249236615458E+00
   0.1001012487073945E+01
   0.9996685743529553E+00
   0.9963553725686584E+00
   0.9986418228370598E+00
   0.9977185594534220E+00
   0.9530841950538189E+00
   0.1000798821718984E+01
   0.1000501345478506E+01
   0.1000150294203801E+01
   0.1001222163542547E+01
   0.1005064433107462E+01
   0.9928365953234366E+00
   0.1001021041405049E+01
   0.1000932548677367E+01
   0.1009815933241291E+01
   0.1019284456107880E+01
   0.9657876849155007E+00
   0.7474085384463405E+00
   0.9290854968070856E+00
   0.9358981615052124E+00
   0.9285496802521891E+00
   0.9006163308886037E+00
   0.1347472522640949E+01
   0.1025801374770396E+01
   0.1022600597845379E+01
   0.1003322960000294E+01
   0.1003273780031126E+01
   0.1001268938905905E+01
   0.1001799867395683E+01
   0.1001166846672163E+01
   0.1000308740807629E+01
   0.1000005430377342E+01
   0.1000460041676695E+01
   0.1001947708095135E+01
   0.1050141708301476E+01
   0.9712134730439798E+00
   0.1001015484803689E+01
   0.1004210206400840E+01
   0.9944744633153854E+00
   0.9999187151488272E+00
   0.1001519611138475E+01
   0.1006945819604389E+01
   0.9928780569293817E+00
   0.9692730357084958E+00
   0.1002571157556979E+01
   0.1036357181012856E+01
   0.9828229083796914E+00
   0.9550077285767278E+00
   0.9947298155810567E+00
   0.9914931045477146E+00
   0.9972454568898966E+00
   0.1000976564779427E+01
   0.9995529403508812E+00
   0.9970140985851447E+00
   0.9988631463905130E+00
   0.9976017230717412E+00
   0.9539117956084129E+00
   0.1000590233481366E+01
   0.1000339243826683E+01
   0.1000062177994564E+01
   0.1000099934165064E+01
   0.1004932174472009E+01
   0.9925003711925579E+00
   0.1001050057360988E+01
   0.1000954525189619E+01
   0.1009832451478858E+01
   0.1019285822544616E+01
   0.9657399801549188E+00
   0.7475740646581603E+00
   0.9291753869579693E+00
   0.9361907797656467E+00
   0.9287474592601237E+00
   0.9003598895219974E+00
   0.1348000429033457E+01
   0.1025792579112809E+01
   0.1022736537876220E+01
   0.1003389537827384E+01
   0.1003312474574288E+01
   0.1001291198632854E+01
   0.1001850860735794E+01
   0.1001242231065933E+01
   0.1000389167345307E+01
   0.1000065966392951E+01
   0.1000502614055534E+01
   0.1001997871919147E+01
   0.1050665744754119E+01
   0.9711382137737478E+00
   0.1001043365610821E+01
   0.1004214942844014E+01
   0.9945245978813487E+00
   0.1000006483267419E+01
   0.1001592782159170E+01
   0.1007087678144249E+01
   0.9930884476737686E+00
   0.9693699731728285E+00
   0.1002665506555839E+01
   0.1036749573356710E+01
   0.9829108136236177E+00
   0.9550927467521788E+00
   0.9948681804878285E+00
   0.9916872900305786E+00
   0.9974027711032499E+00
   0.1001031170435686E+01
   0.9996288496716994E+00
   0.9970444371902396E+00
   0.9990118873692556E+00
   0.9976839275704127E+00
   0.9542008352860970E+00
   0.1000696660980302E+01
   0.1000432785205860E+01
   0.1000165460760503E+01
   0.1000309051228805E+01
   0.1005072370112031E+01
   0.9925944543336357E+00
   0.1001040323012662E+01
   0.1000938033636196E+01
   0.1009822766582603E+01
   0.1019324682394807E+01
   0.9659706795463581E+00
   0.7475794157503800E+00
   0.9293099020374563E+00
   0.9362372086114695E+00
   0.9287927948990636E+00
   0.9003271829416430E+00
   0.1347892346383124E+01
   0.1025608570948696E+01
   0.1022624795945204E+01
   0.1003319576577744E+01
   0.1003277196488745E+01
   0.1001270682813832E+01
   0.1001809252480616E+01
   0.1001188308887431E+01
   0.1000340855732441E+01
   0.1000037802695382E+01
   0.1000488630579097E+01
   0.1001954578016405E+01
   0.1050397681528601E+01
   0.9713293162952550E+00
   0.1001046847047770E+01
   0.1004275232835109E+01
   0.9945633902455892E+00
   0.9999543503069241E+00
   0.1001536364446219E+01
   0.1006982002378703E+01
   0.9931210447352764E+00
   0.9693784325447847E+00
   0.1002597182937824E+01
   0.1036652403032640E+01
   0.9830029915769979E+00
   0.9551499929180943E+00
   0.9948310145676398E+00
   0.9916618103316573E+00
   0.9973347079521168E+00
   0.1001024662706757E+01
   0.9995913451608047E+00
   0.9971502240207841E+00
   0.9990477595489111E+00
   0.9976575293049204E+00
   0.9541105989666829E+00
   0.1000629603564963E+01
   0.1000376458071699E+01
   0.1000117903686013E+01
   0.1000171845599922E+01
   0.1004998644442496E+01
   0.9925781380109848E+00
   0.1001050056805448E+01
   0.1000954526606638E+01
   0.1009832450928198E+01
   0.1019285812371817E+01
   0.9657399699832317E+00
   0.7475740757903799E+00
   0.9291753868335434E+00
   0.9361907689073266E+00
   0.9287474556173944E+00
   0.9003598926888382E+00
   0.1348000434167790E+01
   0.1025792593528341E+01
   0.1022736536635511E+01
   0.1003389535861637E+01
   0.1003312473637497E+01
   0.1001291197880338E+01
   0.1001850860141263E+01
   0.1001242230392790E+01
   0.1000389168657281E+01
   0.1000065966701963E+01
   0.1000502614436115E+01
   0.1001997871169048E+01
   0.1050665739593273E+01
   0.9711382028498460E+00
   0.1001043363233180E+01
   0.1004214939253980E+01
   0.9945246036289092E+00
   0.1000006484257898E+01
   0.1001592780985667E+01
   0.1007087677782782E+01
   0.9930884375162019E+00
   0.9693699682876091E+00
   0.1002665505000500E+01
   0.1036749563393997E+01
   0.9829108080514384E+00
   0.9550927337367994E+00
   0.9948681803842813E+00
   0.9916872868829157E+00
   0.9974027671822215E+00
   0.1001031168821768E+01
   0.9996288508934338E+00
   0.9970444293377411E+00
   0.9990118848980966E+00
   0.9976839309282931E+00
   0.9542008339835599E+00
   0.1000696660324372E+01
   0.1000432784014622E+01
   0.1000165459232400E+01
   0.1000309052476286E+01
   0.1005072369922744E+01
   0.9925944581597682E+00
   0.1001021042946533E+01
   0.1000932549501813E+01
   0.1009815927775410E+01
   0.1019284423438144E+01
   0.9657876231885961E+00
   0.7474086508484420E+00
   0.9290855710543905E+00
   0.9358981783673840E+00
   0.9285497342684603E+00
   0.9006163693724850E+00
   0.1347472581832874E+01
   0.1025801449505319E+01
   0.1022600613685714E+01
   0.1003322960041221E+01
   0.1003273779990093E+01
   0.1001268936641469E+01
   0.1001799866202475E+01
   0.1001166841832910E+01
   0.1000308741731522E+01
   0.1000005429202853E+01
   0.1000460044321900E+01
   0.1001947706741735E+01
   0.1050141610267651E+01
   0.9712134426704639E+00
   0.1001015475725067E+01
   0.1004210196228648E+01
   0.9944744644118776E+00
   0.9999187152680886E+00
   0.1001519609143941E+01
   0.1006945815511080E+01
   0.9928780484344172E+00
   0.9692730334587660E+00
   0.1002571157153455E+01
   0.1036357147859038E+01
   0.9828228650101627E+00
   0.9550076636179066E+00
   0.9947298026841643E+00
   0.9914930831700303E+00
   0.9972454464339496E+00
   0.1000976565360102E+01
   0.9995529426762999E+00
   0.9970140545961049E+00
   0.9988631123008280E+00
   0.9976017321879749E+00
   0.9539117800324467E+00
   0.1000590232485409E+01
   0.1000339241359731E+01
   0.1000062169196371E+01
   0.1000099946368761E+01
   0.1004932169605846E+01
   0.9925003658478393E+00
   0.1001064762856270E+01
   0.1001032885024915E+01
   0.1009910214426432E+01
   0.1017603261708619E+01
   0.9600619318067890E+00
   0.7465808666472777E+00
   0.9288964617667801E+00
   0.9350492316939871E+00
   0.9288189603705841E+00
   0.9027685827884879E+00
   0.1345800729127421E+01
   0.1028589992081778E+01
   0.1022942406809824E+01
   0.1003608564494560E+01
   0.1003328134892227E+01
   0.1001303265208494E+01
   0.1001866631275274E+01
   0.1001262452438468E+01
   0.1000430123508813E+01
   0.1000105535681823E+01
   0.1000514875336752E+01
   0.1002016070345800E+01
   0.1049561836707317E+01
   0.9675056617822504E+00
   0.1001048743409738E+01
   0.1003973447762276E+01
   0.9944399797915532E+00
   0.1000054709422999E+01
   0.1001628258962662E+01
   0.1007191300399650E+01
   0.9913315733892170E+00
   0.9669598834430820E+00
   0.1002759336427097E+01
   0.1036146390460161E+01
   0.9808222819056026E+00
   0.9531073781244670E+00
   0.9951977975559657E+00
   0.9914555812580553E+00
   0.9978249045114542E+00
   0.1001012492680989E+01
   0.9996685829033831E+00
   0.9963552840174642E+00
   0.9986417514298491E+00
   0.9977185823873556E+00
   0.9530841561671440E+00
   0.1000798817152080E+01
   0.1000501340606598E+01
   0.1000150276709421E+01
   0.1001222186732512E+01
   0.1005064421789059E+01
   0.9928365844803437E+00
SCALARS u double 1
LOOKUP_TABLE default
   0.4978692023081979E+00
   0.4982598602522911E+00
   0.5104957696218695E+00
   0.5190811325462644E+00
   0.4888464089450264E+00
   0.0000000000000000E+00
   0.0000000000000000E+00
   0.0000000000000000E+00
   0.0000000000000000E+00
   0.0000000000000000E+00
   0.0000000000000000E+00
   0.4753087924985993E+00
   0.4783036320442188E+00
   0.4964989193607184E+00
   0.4971338944544077E+00
   0.4983396770087927E+00
   0.4980871691347019E+00
   0.5000929829583350E+00
   0.5018547416413628E+00
   0.5014993354294994E+00
   0.4969705465603339E+00
   0.4982267172630410E+00
   0.4307095005508051E+00
   0.4171609992518429E+00
   0.5074491935115243E+00
   0.5509879809397138E+00
   0.5410873096044233E+00
   0.5006688083967978E+00
   0.4988496717998728E+00
   0.4920383951799397E+00
   0.4261012819308369E+00
   0.3253424939749975E+00
   0.4965014076400336E+00
   0.5360917303136393E+00
   0.5570930200100505E+00
   0.4812058306000865E+00
   0.5428629103778088E+00
   0.5830857777288405E+00
   0.5357557573791331E+00
   0.5012522188700862E+00
   0.4996292422959048E+00
   0.5789454069120327E+00
   0.5764069946156546E+00
   0.5046063140201165E+00
   0.3866092173313015E+00
   0.4983526131387448E+00
   0.4994686355620416E+00
   0.5035181998362781E+00
   0.5053524427019768E+00
   0.4980542041041107E+00
   0.5319029842606362E+00
   0.4980299445004142E+00
   0.4979873194129800E+00
   0.5100939573819475E+00
   0.5205062426684512E+00
   0.4922233824913625E+00
   0.0000000000000000E+00
   0.0000000000000000E+00
   0.0000000000000000E+00
   0.0000000000000000E+00
   0.0000000000000000E+00
   0.0000000000000000E+00
   0.4764563019297539E+00
   0.4788740519163672E+00
   0.4968267096478619E+00
   0.4971924461746676E+00
   0.4983727963489109E+00
   0.4981781047430294E+00
   0.5002575695052643E+00
   0.5021935178550694E+00
   0.5018925534962460E+00
   0.4969159040769552E+00
   0.4983251323218291E+00
   0.4340495816400815E+00
   0.4252627415948024E+00
   0.5065235210736233E+00
   0.5510049421279335E+00
   0.5405574294862373E+00
   0.5009491691320231E+00
   0.4990358871952058E+00
   0.4922647962394647E+00
   0.4354255450285097E+00
   0.3317870940009671E+00
   0.4967550587362598E+00
   0.5413271740084433E+00
   0.5632651387651638E+00
   0.4913356128225070E+00
   0.5426465521770573E+00
   0.5881956205354194E+00
   0.5360751198967894E+00
   0.5006907019437256E+00
   0.4997368616536367E+00
   0.5824816957874742E+00
   0.5814353831557801E+00
   0.5040904645531582E+00
   0.3936160121229210E+00
   0.4986084425374799E+00
   0.4997269374756912E+00
   0.5034587395882765E+00
   0.5055517397127912E+00
   0.4979833817113713E+00
   0.5310676017420353E+00
   0.4980043074537952E+00
   0.4979967196410499E+00
   0.5101600083381107E+00
   0.5206843569617333E+00
   0.4923999332224991E+00
   0.0000000000000000E+00
   0.0000000000000000E+00
   0.0000000000000000E+00
   0.0000000000000000E+00
   0.0000000000000000E+00
   0.0000000000000000E+00
   0.4762580544093882E+00
   0.4787346920542617E+00
   0.4967569775606479E+00
   0.4971523812547001E+00
   0.4983516174369609E+00
   0.4980992729936674E+00
   0.5001232203444863E+00
   0.5020422901873790E+00
   0.5017770142092555E+00
   0.4968516892666421E+00
   0.4982517384710488E+00
   0.4340291891552837E+00
   0.4255399176091986E+00
   0.5065483050853431E+00
   0.5511640332153661E+00
   0.5405882665757150E+00
   0.5007966625823219E+00
   0.4989134981808692E+00
   0.4920679744665758E+00
   0.4356139661667127E+00
   0.3321024791363607E+00
   0.4966200084864146E+00
   0.5411323736048332E+00
   0.5636003718241721E+00
   0.4916524007252210E+00
   0.5424843095882034E+00
   0.5881356170590785E+00
   0.5358381885276727E+00
   0.5006352197456689E+00
   0.4996119735300620E+00
   0.5826596258785431E+00
   0.5814971258933640E+00
   0.5039766158300082E+00
   0.3935378877757676E+00
   0.4984502988205964E+00
   0.4995763951730321E+00
   0.5033085256912092E+00
   0.5051531523741631E+00
   0.4977872609856364E+00
   0.5309700264138327E+00
   0.4980099216090242E+00
   0.4979857666744384E+00
   0.5101127701198457E+00
   0.5205004114359836E+00
   0.4921068023071387E+00
   0.0000000000000000E+00
   0.0000000000000000E+00
   0.0000000000000000E+00
   0.0000000000000000E+00
   0.0000000000000000E+00
   0.0000000000000000E+00
   0.4764420381524492E+00
   0.4788785043189718E+00
   0.4968348093962855E+00
   0.4971911920264477E+00
   0.4983729425045695E+00
   0.4981656600145697E+00
   0.5002187565900094E+00
   0.5021361082634244E+00
   0.5018340974012900E+00
   0.4968502324076596E+00
   0.4983125057095211E+00
   0.4340369068192934E+00
   0.4251264992674155E+00
   0.5064714780817713E+00
   0.5509378096053270E+00
   0.5404190387299316E+00
   0.5008704073804492E+00
   0.4989973374249679E+00
   0.4921841057931035E+00
   0.4352455930838020E+00
   0.3317832526737365E+00
   0.4967084921757975E+00
   0.5410655269076893E+00
   0.5630615600829648E+00
   0.4911937666189680E+00
   0.5424366875286718E+00
   0.5879532233314554E+00
   0.5358426775917328E+00
   0.5005937300357662E+00
   0.4996489824288057E+00
   0.5823117267765424E+00
   0.5812110655174020E+00
   0.5039688538477340E+00
   0.3933164070823688E+00
   0.4985321896681912E+00
   0.4996586848546378E+00
   0.5033476004150792E+00
   0.5052689795004588E+00
   0.4978515697624414E+00
   0.5308946820057948E+00
   0.4980043038581302E+00
   0.4979967190944799E+00
   0.5101600171425821E+00
   0.5206843750204425E+00
   0.4923999328453437E+00
   0.0000000000000000E+00
   0.0000000000000000E+00
   0.0000000000000000E+00
   0.0000000000000000E+00
   0.0000000000000000E+00
   0.0000000000000000E+00
   0.4762580516608286E+00
   0.4787346883121831E+00
   0.4967569789902453E+00
   0.4971523819636749E+00
   0.4983516177504229E+00
   0.4980992738097621E+00
   0.5001232199314375E+00
   0.5020422849217453E+00
   0.5017770075793784E+00
   0.4968516886527945E+00
   0.4982517390675058E+00
   0.4340291897151494E+00
   0.4255399052378906E+00
   0.5065483131215327E+00
   0.5511640542781825E+00
   0.5405882740346669E+00
   0.5007966613805076E+00
   0.4989134993115691E+00
   0.4920679752925783E+00
   0.4356139607182103E+00
   0.3321024726105916E+00
   0.4966200103289043E+00
   0.5411323854435026E+00
   0.5636003822234231E+00
   0.4916524099887220E+00
   0.5424843239816040E+00
   0.5881356327825080E+00
   0.5358382077624667E+00
   0.5006352223029241E+00
   0.4996119732568568E+00
   0.5826596438537042E+00
   0.5814971403941155E+00
   0.5039766088885523E+00
   0.3935378855143852E+00
   0.4984503032071808E+00
   0.4995763990548583E+00
   0.5033085267276772E+00
   0.5051531728509763E+00
   0.4977872635461593E+00
   0.5309700317767654E+00
   0.4980299444910071E+00
   0.4979873181177308E+00
   0.5100939630197143E+00
   0.5205062114000537E+00
   0.4922234537434145E+00
   0.0000000000000000E+00
   0.0000000000000000E+00
   0.0000000000000000E+00
   0.0000000000000000E+00
   0.0000000000000000E+00
   0.0000000000000000E+00
   0.4764562290610520E+00
   0.4788740454605959E+00
   0.4968267043310097E+00
   0.4971924488744832E+00
   0.4983727980479686E+00
   0.4981781082280402E+00
   0.5002575743200868E+00
   0.5021935171685016E+00
   0.5018925523481420E+00
   0.4969159043866465E+00
   0.4983251340211152E+00
   0.4340495917458966E+00
   0.4252628125707191E+00
   0.5065235254416076E+00
   0.5510049275455959E+00
   0.5405574136588736E+00
   0.5009491680056872E+00
   0.4990358907237529E+00
   0.4922648153794490E+00
   0.4354255107336584E+00
   0.3317870593151954E+00
   0.4967550556621033E+00
   0.5413271598332861E+00
   0.5632650814026788E+00
   0.4913355923354477E+00
   0.5426465504094511E+00
   0.5881956193572921E+00
   0.5360751406630739E+00
   0.5006907086677848E+00
   0.4997368525388686E+00
   0.5824817539622920E+00
   0.5814353605665756E+00
   0.5040904708337263E+00
   0.3936159004790473E+00
   0.4986084446415287E+00
   0.4997269424693908E+00
   0.5034587493538670E+00
   0.5055517085951792E+00
   0.4979834002418389E+00
   0.5310676229120925E+00
   0.4978692049148060E+00
   0.4982598762430310E+00
   0.5104958521890351E+00
   0.5190811438310915E+00
   0.4888464992589448E+00
   0.0000000000000000E+00
   0.0000000000000000E+00
   0.0000000000000000E+00
   0.0000000000000000E+00
   0.0000000000000000E+00
   0.0000000000000000E+00
   0.4753086671739505E+00
   0.4783036549083988E+00
   0.4964988990331164E+00
   0.4971338990515420E+00
   0.4983396793211003E+00
   0.4980871757056875E+00
   0.5000929991407373E+00
   0.5018547413378244E+00
   0.5014993319584686E+00
   0.4969705641090303E+00
   0.4982267205553840E+00
   0.4307094128941498E+00
   0.4171609805584828E+00
   0.5074492835736595E+00
   0.5509880779968097E+00
   0.5410874050731150E+00
   0.5006688098954858E+00
   0.4988496846981211E+00
   0.4920384664723709E+00
   0.4261010713435536E+00
   0.3253422964853627E+00
   0.4965013989330304E+00
   0.5360916105757059E+00
   0.5570928771919729E+00
   0.4812056572952354E+00
   0.5428630449676596E+00
   0.5830857592657339E+00
   0.5357558735306988E+00
   0.5012522875073374E+00
   0.4996292281325137E+00
   0.5789455374694766E+00
   0.5764069572889458E+00
   0.5046063914825256E+00
   0.3866088919012123E+00
   0.4983526219748310E+00
   0.4994686503402984E+00
   0.5035182674730484E+00
   0.5053524480192415E+00
   0.4980542901923218E+00
   0.5319031798122075E+00
SCALARS v double 1
LOOKUP_TABLE default
   0.0000000000000000E+00
   0.0000000000000000E+00
   0.0000000000000000E+00
   0.0000000000000000E+00
   0.0000000000000000E+00
   0.0000000000000000E+00
   0.0000000000000000E+00
   0.0000000000000000E+00
   0.0000000000000000E+00
   0.0000000000000000E+00
   0.0000000000000000E+00
   0.0000000000000000E+00
   0.0000000000000000E+00
   0.0000000000000000E+00
   0.0000000000000000E+00
   0.0000000000000000E+00
   0.0000000000000000E+00
   0.0000000000000000E+00
   0.0000000000000000E+00
   0.0000000000000000E+00
   0.0000000000000000E+00
   0.0000000000000000E+00
   0.0000000000000000E+00
   0.0000000000000000E+00
   0.0000000000000000E+00
   0.0000000000000000E+00
   0.0000000000000000E+00
   0.0000000000000000E+00
   0.0000000000000000E+00
   0.0000000000000000E+00
   0.0000000000000000E+00
   0.0000000000000000E+00
   0.0000000000000000E+00
   0.0000000000000000E+00
   0.0000000000000000E+00
   0.0000000000000000E+00
   0.0000000000000000E+00
   0.0000000000000000E+00
   0.0000000000000000E+00
   0.0000000000000000E+00
   0.0000000000000000E+00
   0.0000000000000000E+00
   0.0000000000000000E+00
   0.0000000000000000E+00
   0.0000000000000000E+00
   0.0000000000000000E+00
   0.0000000000000000E+00
   0.0000000000000000E+00
   0.0000000000000000E+00