title="tecplot geometry and solution file"
variables = x y z rho u v w p mach temperature
zone t="boundary 1 bc-1", solutiontime= 0.3000000E+02, strandid=1001, i=42, j=30, f=feblock
  0.000000000000E+00  0.000000000000E+00  0.000000000000E+00  0.000000000000E+00  0.000000000000E+00  0.000000000000E+00  0.000000000000E+00
  0.000000000000E+00  0.000000000000E+00  0.000000000000E+00  0.000000000000E+00  0.000000000000E+00  0.000000000000E+00  0.000000000000E+00
  0.000000000000E+00  0.000000000000E+00  0.000000000000E+00  0.000000000000E+00  0.000000000000E+00  0.000000000000E+00  0.000000000000E+00
  0.000000000000E+00  0.000000000000E+00  0.000000000000E+00  0.000000000000E+00  0.000000000000E+00  0.000000000000E+00  0.000000000000E+00
  0.000000000000E+00  0.000000000000E+00  0.000000000000E+00  0.000000000000E+00  0.000000000000E+00  0.000000000000E+00  0.000000000000E+00
  0.000000000000E+00  0.000000000000E+00  0.000000000000E+00  0.000000000000E+00  0.000000000000E+00  0.000000000000E+00  0.000000000000E+00
  0.000000000000E+00  0.000000000000E+00 -0.833333333333E+00  0.000000000000E+00  0.000000000000E+00 -0.833333333333E+00 -0.166666666667E+01
  0.000000000000E+00 -0.833333333333E+00 -0.833333333333E+00  0.000000000000E+00 -0.166666666667E+01 -0.250000000000E+01 -0.833333333333E+00
 -0.166666666667E+01 -0.166666666667E+01 -0.833333333333E+00 -0.250000000000E+01 -0.333333333333E+01 -0.166666666667E+01 -0.250000000000E+01
 -0.250000000000E+01 -0.166666666667E+01 -0.333333333333E+01 -0.416666666667E+01 -0.250000000000E+01 -0.333333333333E+01 -0.333333333333E+01
 -0.250000000000E+01 -0.416666666667E+01 -0.500000000000E+01 -0.333333333333E+01 -0.416666666667E+01 -0.416666666667E+01 -0.333333333333E+01
 -0.500000000000E+01 -0.416666666667E+01 -0.500000000000E+01 -0.500000000000E+01 -0.416666666667E+01 -0.500000000000E+01 -0.500000000000E+01
  0.250000000000E+01  0.150000000000E+01  0.250000000000E+01  0.500000000000E+00 -0.150000000000E+01  0.150000000000E+01  0.250000000000E+01
 -0.500000000000E+00  0.500000000000E+00 -0.150000000000E+01 -0.250000000000E+01  0.150000000000E+01  0.250000000000E+01 -0.500000000000E+00
  0.500000000000E+00 -0.150000000000E+01 -0.250000000000E+01  0.150000000000E+01  0.250000000000E+01 -0.500000000000E+00  0.500000000000E+00
 -0.150000000000E+01 -0.250000000000E+01  0.150000000000E+01  0.250000000000E+01 -0.500000000000E+00  0.500000000000E+00 -0.150000000000E+01
 -0.250000000000E+01  0.150000000000E+01  0.250000000000E+01 -0.500000000000E+00  0.500000000000E+00 -0.150000000000E+01 -0.250000000000E+01
  0.150000000000E+01 -0.500000000000E+00  0.500000000000E+00 -0.150000000000E+01 -0.250000000000E+01 -0.500000000000E+00 -0.250000000000E+01
  0.100130498526E+01  0.100333191615E+01  0.100127116098E+01  0.100360743896E+01  0.102859094720E+01  0.100327695233E+01  0.100129267508E+01
  0.102293969279E+01  0.100332427303E+01  0.102580811566E+01  0.134579754789E+01  0.100331630455E+01  0.100127290626E+01  0.102260255339E+01
  0.100339007028E+01  0.102579700342E+01  0.134747402645E+01  0.100328108690E+01  0.100129267424E+01  0.102273667148E+01  0.100332067770E+01
  0.102561423342E+01  0.134799898247E+01  0.100331630366E+01  0.100127115889E+01  0.102262611298E+01  0.100339006845E+01  0.102579701802E+01
  0.134789214640E+01  0.100327695205E+01  0.100130498419E+01  0.102273667020E+01  0.100332427303E+01  0.102580819015E+01  0.134799898775E+01
  0.100333191617E+01  0.102260256931E+01  0.100360743618E+01  0.102859108636E+01  0.134747408588E+01  0.102293969708E+01  0.134579772537E+01
  0.498329803390E+00  0.497124915782E+00  0.498359234001E+00  0.496496428743E+00  0.475307099051E+00  0.497184059881E+00  0.498339989721E+00
  0.478303634492E+00  0.496820551701E+00  0.476449791733E+00  0.000000000000E+00  0.497143122705E+00  0.498360467033E+00  0.478870063018E+00
  0.496752047973E+00  0.476253033215E+00  0.000000000000E+00  0.497181191066E+00  0.498339989946E+00  0.478732051677E+00  0.496828789589E+00
  0.476436235802E+00  0.000000000000E+00  0.497143123581E+00  0.498359235909E+00  0.478874505368E+00  0.496752049310E+00  0.476253030162E+00
  0.000000000000E+00  0.497184062468E+00  0.498329806893E+00  0.478732048115E+00  0.496820546352E+00  0.476449719166E+00  0.000000000000E+00
  0.497124919982E+00  0.478870056493E+00  0.496496408786E+00  0.475306975071E+00  0.000000000000E+00  0.478303657075E+00  0.000000000000E+00
  0.000000000000E+00  0.000000000000E+00 -0.161868828343E-06  0.000000000000E+00  0.000000000000E+00  0.543958540485E-05 -0.153239921735E-05
  0.000000000000E+00 -0.462579397736E-04 -0.969982063163E-03  0.000000000000E+00  0.355482780102E-05 -0.642478243239E-09  0.664005958799E-04
 -0.824723263528E-05 -0.129223619393E-03  0.000000000000E+00 -0.195600502566E-10  0.153161512426E-05  0.757431828920E-04  0.281046877999E-09
  0.576323627742E-08  0.000000000000E+00 -0.355277021677E-05  0.160491036785E-06 -0.476012372612E-08  0.824652804241E-05  0.129256625726E-03
  0.000000000000E+00 -0.544045377329E-05  0.000000000000E+00 -0.757481558870E-04  0.462535392673E-04  0.970041929929E-03  0.000000000000E+00
  0.000000000000E+00 -0.664069522606E-04  0.000000000000E+00  0.000000000000E+00  0.000000000000E+00  0.000000000000E+00  0.000000000000E+00
  0.102739213375E-02  0.371961009665E-03  0.101811903243E-02  0.266531337583E-02  0.353971332641E-01  0.387802358968E-03  0.102998009393E-02
 -0.231262256996E-02  0.277045483744E-02  0.342603270989E-01  0.000000000000E+00  0.379839185689E-03  0.101675886794E-02 -0.252082680337E-02
  0.275334625844E-02  0.343815561646E-01  0.000000000000E+00  0.381762165550E-03  0.102998013659E-02 -0.254515819592E-02  0.275418220527E-02
  0.343552923033E-01  0.000000000000E+00  0.379838085677E-03  0.101811899995E-02 -0.257174427255E-02  0.275334656031E-02  0.343815589836E-01
  0.000000000000E+00  0.387800176993E-03  0.102739355429E-02 -0.254515634946E-02  0.277046038239E-02  0.342603555547E-01  0.000000000000E+00
  0.371962807527E-03 -0.252083235468E-02  0.266531393414E-02  0.353972365924E-01  0.000000000000E+00 -0.231262884934E-02  0.000000000000E+00
  0.715646148605E+00  0.717463215021E+00  0.715615563232E+00  0.718889761539E+00  0.755498689232E+00  0.717398900298E+00  0.715637633057E+00
  0.732930422782E+00  0.718654917403E+00  0.753365811419E+00  0.100206778730E+01  0.717437431307E+00  0.715617415337E+00  0.732408712784E+00
  0.718723992458E+00  0.753405076254E+00  0.100331607696E+01  0.717402306351E+00  0.715637632314E+00  0.732528357387E+00  0.718653803985E+00
  0.753201065092E+00  0.100370695411E+01  0.717437430479E+00  0.715615561126E+00  0.732422153330E+00  0.718723990419E+00  0.753405091080E+00
  0.100362740502E+01  0.717398900479E+00  0.715646147165E+00  0.732528356376E+00  0.718654914146E+00  0.753365857210E+00  0.100370695804E+01
  0.717463215873E+00  0.732408734745E+00  0.718889752434E+00  0.755498768513E+00  0.100331612121E+01  0.732930439245E+00  0.100206791945E+01
  0.498181718890E+00  0.496848666120E+00  0.498213353165E+00  0.495803005964E+00  0.470019381760E+00  0.496916451384E+00  0.498191809090E+00
  0.477571476716E+00  0.496138292705E+00  0.471090166958E+00  0.000000000000E+00  0.496871931508E+00  0.498214372543E+00  0.478229515556E+00
  0.496062214314E+00  0.470889441036E+00  0.000000000000E+00  0.496913423702E+00  0.498191809368E+00  0.478084125547E+00  0.496145921919E+00
  0.471089579259E+00  0.000000000000E+00  0.496871932449E+00  0.498213355286E+00  0.478235338501E+00  0.496062215903E+00  0.470889436960E+00
  0.000000000000E+00  0.496916453837E+00  0.498181722630E+00  0.478084122012E+00  0.496138288518E+00  0.471090100498E+00  0.000000000000E+00
  0.496848670029E+00  0.478229505622E+00  0.495802988492E+00  0.470019274538E+00  0.000000000000E+00  0.477571494933E+00  0.000000000000E+00
  0.100059884131E+01  0.100111287686E+01  0.100058987772E+01  0.100282802527E+01  0.102829814690E+01  0.100107797562E+01  0.100059923659E+01
  0.100309197026E+01  0.100278335869E+01  0.102817682946E+01  0.104242640687E+01  0.100109247630E+01  0.100059072328E+01  0.100270842714E+01
  0.100281397957E+01  0.102824155582E+01  0.104242640687E+01  0.100107860300E+01  0.100059923638E+01  0.100274071415E+01  0.100278539847E+01
  0.102814631152E+01  0.104242640687E+01  0.100109247603E+01  0.100058987686E+01  0.100270372685E+01  0.100281397855E+01  0.102824156142E+01
  0.104242640687E+01  0.100107797614E+01  0.100059884037E+01  0.100274071402E+01  0.100278335415E+01  0.102817681729E+01  0.104242640687E+01
  0.100111287803E+01  0.100270844159E+01  0.100282801534E+01  0.102829811568E+01  0.104242640687E+01  0.100309198858E+01  0.104242640687E+01
         3         6         2         1
         6         9         4         2
         9        14         8         4
        14        10         5         8
        10        17        11         5
         7        12         6         3
        12        15         9         6
        15        20        14         9
        20        16        10        14
        16        23        17        10
        13        18        12         7
        18        21        15        12
        21        26        20        15
        26        22        16        20
        22        29        23        16
        19        24        18        13
        24        27        21        18
        27        32        26        21
        32        28        22        26
        28        35        29        22
        25        30        24        19
        30        33        27        24
        33        37        32        27
        37        34        28        32
        34        40        35        28
        31        36        30        25
        36        38        33        30
        38        41        37        33
        41        39        34        37
        39        42        40        34
zone t="boundary 2 bc-2", solutiontime= 0.3000000E+02, strandid=1002, i=51, j=80, f=feblock
  0.500000000000E+01  0.500000000000E+01  0.400000000000E+01  0.425172245441E+01  0.500000000000E+01  0.427741389634E+01  0.300000000000E+01
  0.341887665662E+01  0.368116975164E+01  0.500000000000E+01  0.430894944607E+01  0.352044655687E+01  0.200000000000E+01  0.259168638257E+01
  0.301798341022E+01  0.500000000000E+01  0.435643616790E+01  0.375117520592E+01  0.271663237208E+01  0.288980181581E+01  0.100000000000E+01
  0.191939879870E+01  0.130679496696E+01  0.219385942988E+01  0.500000000000E+01  0.441735041915E+01  0.373031592783E+01  0.208456665067E+01
  0.230848460393E+01  0.190054259015E+01  0.298584217914E+01  0.000000000000E+00  0.613733212775E+00  0.151350918120E+01  0.794128609067E+00
  0.144135983281E+01  0.400000000000E+01  0.132476136006E+01  0.200000000000E+01  0.164582171489E+01  0.102008138039E+01  0.300000000000E+01
  0.000000000000E+00  0.000000000000E+00  0.701034609231E+00  0.609175469936E+00  0.100000000000E+01  0.505577837730E+00  0.000000000000E+00
  0.000000000000E+00  0.000000000000E+00
 -0.500000000000E+01 -0.500000000000E+01 -0.500000000000E+01 -0.500000000000E+01 -0.500000000000E+01 -0.500000000000E+01 -0.500000000000E+01
 -0.500000000000E+01 -0.500000000000E+01 -0.500000000000E+01 -0.500000000000E+01 -0.500000000000E+01 -0.500000000000E+01 -0.500000000000E+01
 -0.500000000000E+01 -0.500000000000E+01 -0.500000000000E+01 -0.500000000000E+01 -0.500000000000E+01 -0.500000000000E+01 -0.500000000000E+01
 -0.500000000000E+01 -0.500000000000E+01 -0.500000000000E+01 -0.500000000000E+01 -0.500000000000E+01 -0.500000000000E+01 -0.500000000000E+01
 -0.500000000000E+01 -0.500000000000E+01 -0.500000000000E+01 -0.500000000000E+01 -0.500000000000E+01 -0.500000000000E+01 -0.500000000000E+01
 -0.500000000000E+01 -0.500000000000E+01 -0.500000000000E+01 -0.500000000000E+01 -0.500000000000E+01 -0.500000000000E+01 -0.500000000000E+01
 -0.500000000000E+01 -0.500000000000E+01 -0.500000000000E+01 -0.500000000000E+01 -0.500000000000E+01 -0.500000000000E+01 -0.500000000000E+01
 -0.500000000000E+01 -0.500000000000E+01
  0.250000000000E+01  0.150000000000E+01  0.250000000000E+01  0.168388151981E+01  0.500000000000E+00  0.784980628699E+00  0.250000000000E+01
  0.172616846193E+01  0.104016062853E+01 -0.500000000000E+00 -0.103062804534E+00  0.179404976675E+00  0.250000000000E+01  0.166729536217E+01
  0.923171218453E+00 -0.150000000000E+01 -0.102255113015E+01 -0.669125930414E+00  0.135977239814E+00 -0.856266143819E+00  0.250000000000E+01
  0.158034275708E+01  0.175813852804E+01  0.774089735567E+00 -0.250000000000E+01 -0.179804978092E+01 -0.146769777443E+01 -0.223755606368E+00
 -0.164420331359E+01 -0.108875578595E+01 -0.190240885061E+01  0.250000000000E+01  0.185787993997E+01  0.110883669208E+01  0.100177177909E+01
  0.349093656766E+00 -0.250000000000E+01 -0.526785284186E+00 -0.250000000000E+01 -0.183798308008E+01 -0.145695630084E+01 -0.250000000000E+01
  0.150000000000E+01  0.500000000000E+00  0.396172271494E-01 -0.788824871575E+00 -0.250000000000E+01 -0.198405114581E+01 -0.150000000000E+01
 -0.500000000000E+00 -0.250000000000E+01
  0.100108111418E+01  0.100104825339E+01  0.100009374809E+01  0.100052812075E+01  0.100990956484E+01  0.100104749566E+01  0.100042989772E+01
  0.999666635032E+00  0.100100098459E+01  0.101756877817E+01  0.100396576089E+01  0.994446397761E+00  0.100126717317E+01  0.100004379134E+01
  0.997718627705E+00  0.960145927116E+00  0.980822479783E+00  0.996347675699E+00  0.992845582794E+00  0.998633055086E+00  0.100187677328E+01
  0.100050191100E+01  0.100162650568E+01  0.100015407203E+01  0.746639834429E+00  0.967616341839E+00  0.953139866162E+00  0.995200646074E+00
  0.991328599079E+00  0.991463646962E+00  0.966995904050E+00  0.100130498419E+01  0.100202753836E+01  0.100080582199E+01  0.100276614884E+01
  0.100506589737E+01  0.928925163462E+00  0.997823325154E+00  0.928815818964E+00  0.953089966669E+00  0.103614463063E+01  0.935056696079E+00
  0.100333191617E+01  0.100360743618E+01  0.100719494210E+01  0.100122588676E+01  0.902767161566E+00  0.104956125197E+01  0.102859108636E+01
  0.102293969708E+01  0.134579772537E+01
  0.497944291798E+00  0.498229461905E+00  0.501701472693E+00  0.496959551808E+00  0.510481066449E+00  0.507437790714E+00  0.501985872298E+00
  0.499630296709E+00  0.501209956774E+00  0.519121643860E+00  0.550985294598E+00  0.541111522230E+00  0.500135997733E+00  0.500657095407E+00
  0.504588737983E+00  0.488800056633E+00  0.557102986200E+00  0.578944377185E+00  0.531914684376E+00  0.576404553005E+00  0.498058220662E+00
  0.499445598942E+00  0.498818809123E+00  0.503514287684E+00  0.000000000000E+00  0.417174285146E+00  0.481237503882E+00  0.542866417267E+00
  0.426118986061E+00  0.583085413773E+00  0.325366323881E+00  0.498329806893E+00  0.498208791160E+00  0.498349496368E+00  0.496506605537E+00
  0.498058219585E+00  0.000000000000E+00  0.535749675657E+00  0.000000000000E+00  0.386618551339E+00  0.536095986316E+00  0.000000000000E+00
  0.497124919982E+00  0.496496408786E+00  0.492032137821E+00  0.505355133903E+00  0.000000000000E+00  0.430709538830E+00  0.475306975071E+00
  0.478303657075E+00  0.000000000000E+00
  0.000000000000E+00  0.000000000000E+00  0.000000000000E+00  0.000000000000E+00  0.000000000000E+00  0.000000000000E+00  0.000000000000E+00
  0.000000000000E+00  0.000000000000E+00  0.000000000000E+00  0.000000000000E+00  0.000000000000E+00  0.000000000000E+00  0.000000000000E+00
  0.000000000000E+00  0.000000000000E+00  0.000000000000E+00  0.000000000000E+00  0.000000000000E+00  0.000000000000E+00  0.000000000000E+00
  0.000000000000E+00  0.000000000000E+00  0.000000000000E+00  0.000000000000E+00  0.000000000000E+00  0.000000000000E+00  0.000000000000E+00
  0.000000000000E+00  0.000000000000E+00  0.000000000000E+00  0.000000000000E+00  0.000000000000E+00  0.000000000000E+00  0.000000000000E+00
  0.000000000000E+00  0.000000000000E+00  0.000000000000E+00  0.000000000000E+00  0.000000000000E+00  0.000000000000E+00  0.000000000000E+00
  0.000000000000E+00  0.000000000000E+00  0.000000000000E+00  0.000000000000E+00  0.000000000000E+00  0.000000000000E+00  0.000000000000E+00
  0.000000000000E+00  0.000000000000E+00
 -0.138162422417E-03  0.369669785274E-02  0.311769844457E-03 -0.998268894547E-03  0.181961557181E-02 -0.136877790727E-02  0.334255970493E-03
 -0.708546789440E-03 -0.323743615874E-02 -0.456080194949E-01 -0.942985467597E-02  0.184760212952E-02  0.113903826481E-02  0.100019994458E-02
 -0.900312533440E-03 -0.110532560188E+00 -0.319552860950E-01 -0.902206189089E-02  0.723455003208E-02  0.141984338670E-01  0.154539853527E-02
  0.244455322432E-02  0.265219310642E-02  0.485958404089E-02  0.000000000000E+00 -0.598834092181E-01  0.588838239513E-02  0.195779881725E-01
  0.326781035828E-02  0.339339131018E-01  0.388426375928E-02  0.102739355429E-02  0.208520898057E-02  0.339322773546E-02  0.250672905970E-02
  0.707851392509E-02  0.000000000000E+00  0.365658197719E-01  0.000000000000E+00 -0.256449080352E-02  0.651930393736E-01  0.000000000000E+00
  0.371962807527E-03  0.266531393414E-02  0.334109542915E-02  0.249699267900E-01  0.000000000000E+00  0.141963967717E+00  0.353972365924E-01
 -0.231262884934E-02  0.000000000000E+00
  0.715191989288E+00  0.715698483489E+00  0.714456276110E+00  0.714595352363E+00  0.723823862225E+00  0.716420577407E+00  0.714532387787E+00
  0.713993118424E+00  0.715275966857E+00  0.729028530901E+00  0.715420570807E+00  0.709289304403E+00  0.715423931726E+00  0.714355768529E+00
  0.712195004052E+00  0.675937008810E+00  0.693026950378E+00  0.704435301081E+00  0.709497107822E+00  0.705757830134E+00  0.716123595055E+00
  0.715341606637E+00  0.715861867321E+00  0.713535012283E+00  0.555940771307E+00  0.685128389959E+00  0.675242465867E+00  0.711746592887E+00
  0.707468572706E+00  0.697283988696E+00  0.699067567690E+00  0.715646147165E+00  0.716190584542E+00  0.715508181825E+00  0.717552825017E+00
  0.718022595414E+00  0.691668657429E+00  0.716065040846E+00  0.691587240577E+00  0.679821859120E+00  0.735162687342E+00  0.696234137082E+00
  0.717463215873E+00  0.718889752434E+00  0.719050983135E+00  0.725477040854E+00  0.672191663194E+00  0.725658106562E+00  0.755498768513E+00
  0.732930439245E+00  0.100206791945E+01
  0.497897643179E+00  0.498011990089E+00  0.501665193919E+00  0.496984056753E+00  0.509616140652E+00  0.506948317188E+00  0.502007198474E+00
  0.499649859794E+00  0.501123959373E+00  0.520336631913E+00  0.551719487446E+00  0.541507254826E+00  0.500055812767E+00  0.500644506629E+00
  0.504752879968E+00  0.504791438345E+00  0.561054286003E+00  0.581983203244E+00  0.531843268546E+00  0.579655845588E+00  0.497887643387E+00
  0.499208065052E+00  0.498681470947E+00  0.503841360821E+00  0.000000000000E+00  0.423299765333E+00  0.483255048582E+00  0.542879980822E+00
  0.426319186728E+00  0.588621235465E+00  0.323438912616E+00  0.498181722630E+00  0.498054304253E+00  0.498135716981E+00  0.496065976092E+00
  0.498067453572E+00  0.000000000000E+00  0.535744444026E+00  0.000000000000E+00  0.386899003978E+00  0.541857038516E+00  0.000000000000E+00
  0.496848670029E+00  0.495802988492E+00  0.492171419659E+00  0.502361516242E+00  0.000000000000E+00  0.460949652158E+00  0.470019274538E+00
  0.477571494933E+00  0.000000000000E+00
  0.100018746815E+01  0.100092865003E+01  0.100014502486E+01  0.999905422508E+00  0.100341005017E+01  0.100193928132E+01  0.999915481519E+00
  0.999923705328E+00  0.100038498365E+01  0.100301814006E+01  0.997632427464E+00  0.998550578895E+00  0.100032591825E+01  0.100005428222E+01
  0.999352901695E+00  0.985591653945E+00  0.989208292559E+00  0.989824581888E+00  0.100045361350E+01  0.989413435851E+00  0.100069495552E+01
  0.100097584850E+01  0.100057916655E+01  0.998795130805E+00  0.104242640687E+01  0.991281052694E+00  0.991816086783E+00  0.100125058597E+01
  0.999119769880E+00  0.984602498706E+00  0.101209797339E+01  0.100059884037E+01  0.100063798645E+01  0.100090490338E+01  0.100180281932E+01
  0.100016490084E+01  0.104242640687E+01  0.100467791433E+01  0.104242640687E+01  0.998594714090E+00  0.993324418093E+00  0.104242640687E+01
  0.100111287803E+01  0.100282801534E+01  0.999480174401E+00  0.101442428790E+01  0.104242640687E+01  0.967948604503E+00  0.102829811568E+01
  0.100309198858E+01  0.104242640687E+01
        28        24        19        19
        19        24        15        15
        19        15        12        12
        22        13        14        14
        13        22        23        23
        31        27        37        37
        31        29        20        20
        35        34        36        36
        34        23        22        22
         8         9        15        15
         9         6        12        12
        20        18        27        27
        27        18        17        17
        38        45        36        36
        38        30        41        41
        28        19        20        20
        30        40        41        41
        40        39        47        47
        11        10        17        17
        10        11         5         5
         8        14         7         7
        14        24        22        22
        45        46        50        50
        46        41        49        49
        41        46        38        38
        29        39        40        40
        36        24        28        28
        36        45        35        35
        20        29        30        30
        11        18        12        12
        15        24        14        14
        12        20        19        19
        12        18        20        20
        31        20        27        27
         9        12        15        15
         9         4         6         6
        24        36        34        34
        35        23        34        34
        38        36        28        28
        41        47        48        48
        29        40        30        30
        49        50        46        46
        46        45        38        38
        25        26        16        16
        26        37        27        27
        32        33        43        43
        33        21        23        23
        51        48        47        47
         1         4         3         3
         4         2         6         6
         6         5        11        11
        35        43        33        33
        43        35        44        44
         8         3         4         4
         3         8         7         7
        31        37        42        42
        17        16        26        26
        16        17        10        10
        34        22        24        24
        47        41        40        40
        15        14         8         8
        20        30        28        28
        11        17        18        18
        39        31        42        42
         4         9         8         8
        33        23        35        35
        28        30        38        38
        17        26        27        27
        41        48        49        49
        35        45        44        44
        39        29        31        31
        45        50        44        44
        21        13        23        23
        13         7        14        14
         2         5         6         6
         6        11        12        12
        25        37        26        26
        51        49        48        48
        32        21        33        33
         1         2         4         4
zone t="boundary 3 bc-3", solutiontime= 0.3000000E+02, strandid=1003, i=51, j=80, f=feblock
  0.500000000000E+01  0.500000000000E+01  0.400000000000E+01  0.425172245441E+01  0.500000000000E+01  0.427741389634E+01  0.300000000000E+01
  0.341887665662E+01  0.368116975164E+01  0.500000000000E+01  0.430894944607E+01  0.352044655687E+01  0.200000000000E+01  0.259168638257E+01
  0.301798341022E+01  0.500000000000E+01  0.435643616790E+01  0.375117520592E+01  0.271663237208E+01  0.288980181581E+01  0.100000000000E+01
  0.191939879870E+01  0.130679496696E+01  0.219385942988E+01  0.500000000000E+01  0.441735041915E+01  0.373031592783E+01  0.208456665067E+01
  0.230848460393E+01  0.190054259015E+01  0.298584217914E+01  0.000000000000E+00  0.613733212775E+00  0.151350918120E+01  0.794128609067E+00
  0.144135983281E+01  0.400000000000E+01  0.132476136006E+01  0.200000000000E+01  0.164582171489E+01  0.102008138039E+01  0.300000000000E+01
  0.000000000000E+00  0.000000000000E+00  0.701034609231E+00  0.609175469936E+00  0.100000000000E+01  0.505577837730E+00  0.000000000000E+00
  0.000000000000E+00  0.000000000000E+00
  0.000000000000E+00  0.000000000000E+00  0.000000000000E+00  0.000000000000E+00  0.000000000000E+00  0.000000000000E+00  0.000000000000E+00
  0.000000000000E+00  0.000000000000E+00  0.000000000000E+00  0.000000000000E+00  0.000000000000E+00  0.000000000000E+00  0.000000000000E+00
  0.000000000000E+00  0.000000000000E+00  0.000000000000E+00  0.000000000000E+00  0.000000000000E+00  0.000000000000E+00  0.000000000000E+00
  0.000000000000E+00  0.000000000000E+00  0.000000000000E+00  0.000000000000E+00  0.000000000000E+00  0.000000000000E+00  0.000000000000E+00
  0.000000000000E+00  0.000000000000E+00  0.000000000000E+00  0.000000000000E+00  0.000000000000E+00  0.000000000000E+00  0.000000000000E+00
  0.000000000000E+00  0.000000000000E+00  0.000000000000E+00  0.000000000000E+00  0.000000000000E+00  0.000000000000E+00  0.000000000000E+00
  0.000000000000E+00  0.000000000000E+00  0.000000000000E+00  0.000000000000E+00  0.000000000000E+00  0.000000000000E+00  0.000000000000E+00
  0.000000000000E+00  0.000000000000E+00
  0.250000000000E+01  0.150000000000E+01  0.250000000000E+01  0.168388151981E+01  0.500000000000E+00  0.784980628699E+00  0.250000000000E+01
  0.172616846193E+01  0.104016062853E+01 -0.500000000000E+00 -0.103062804534E+00  0.179404976675E+00  0.250000000000E+01  0.166729536217E+01
  0.923171218453E+00 -0.150000000000E+01 -0.102255113015E+01 -0.669125930414E+00  0.135977239814E+00 -0.856266143819E+00  0.250000000000E+01
  0.158034275708E+01  0.175813852804E+01  0.774089735567E+00 -0.250000000000E+01 -0.179804978092E+01 -0.146769777443E+01 -0.223755606368E+00
 -0.164420331359E+01 -0.108875578595E+01 -0.190240885061E+01  0.250000000000E+01  0.185787993997E+01  0.110883669208E+01  0.100177177909E+01
  0.349093656766E+00 -0.250000000000E+01 -0.526785284186E+00 -0.250000000000E+01 -0.183798308008E+01 -0.145695630084E+01 -0.250000000000E+01
  0.150000000000E+01  0.500000000000E+00  0.396172271494E-01 -0.788824871575E+00 -0.250000000000E+01 -0.198405114581E+01 -0.150000000000E+01
 -0.500000000000E+00 -0.250000000000E+01
  0.100108110566E+01  0.100104824544E+01  0.100009374272E+01  0.100052811248E+01  0.100990957405E+01  0.100104751242E+01  0.100042989510E+01
  0.999666625933E+00  0.100100097935E+01  0.101756887823E+01  0.100396580422E+01  0.994446402625E+00  0.100126718139E+01  0.100004378897E+01
  0.997718604919E+00  0.960146056971E+00  0.980822607373E+00  0.996347765906E+00  0.992845592599E+00  0.998633128372E+00  0.100187677544E+01
  0.100050191529E+01  0.100162651092E+01  0.100015408970E+01  0.746639559933E+00  0.967616353423E+00  0.953139982774E+00  0.995200674474E+00
  0.991328616839E+00  0.991463710890E+00  0.966995920626E+00  0.100130498526E+01  0.100202753921E+01  0.100080582687E+01  0.100276614969E+01
  0.100506590822E+01  0.928925009273E+00  0.997823345039E+00  0.928815702818E+00  0.953090004396E+00  0.103614470060E+01  0.935056650074E+00
  0.100333191615E+01  0.100360743896E+01  0.100719494964E+01  0.100122586382E+01  0.902767095268E+00  0.104956140816E+01  0.102859094720E+01
  0.102293969279E+01  0.134579754789E+01
  0.497944289416E+00  0.498229446739E+00  0.501701487351E+00  0.496959535992E+00  0.510480986131E+00  0.507437699673E+00  0.501985881966E+00
  0.499630316419E+00  0.501209887085E+00  0.519121629832E+00  0.550985203588E+00  0.541111427279E+00  0.500135985930E+00  0.500657095407E+00
  0.504588658024E+00  0.488799971382E+00  0.557103124557E+00  0.578944249161E+00  0.531914489576E+00  0.576404589881E+00  0.498058216964E+00
  0.499445585395E+00  0.498818796348E+00  0.503514218983E+00  0.000000000000E+00  0.417174299133E+00  0.481237670154E+00  0.542866283072E+00
  0.426119191493E+00  0.583085431802E+00  0.325366513824E+00  0.498329803390E+00  0.498208786600E+00  0.498349486213E+00  0.496506613558E+00
  0.498058132941E+00  0.000000000000E+00  0.535749559894E+00  0.000000000000E+00  0.386618872257E+00  0.536096104702E+00  0.000000000000E+00
  0.497124915782E+00  0.496496428743E+00  0.492032066860E+00  0.505355128481E+00  0.000000000000E+00  0.430709626030E+00  0.475307099051E+00
  0.478303634492E+00  0.000000000000E+00
  0.000000000000E+00  0.000000000000E+00  0.000000000000E+00  0.000000000000E+00  0.000000000000E+00  0.000000000000E+00  0.000000000000E+00
  0.000000000000E+00  0.000000000000E+00  0.000000000000E+00  0.000000000000E+00  0.000000000000E+00  0.000000000000E+00  0.000000000000E+00
  0.000000000000E+00  0.000000000000E+00  0.000000000000E+00  0.000000000000E+00  0.000000000000E+00  0.000000000000E+00  0.000000000000E+00
  0.000000000000E+00  0.000000000000E+00  0.000000000000E+00  0.000000000000E+00  0.000000000000E+00  0.000000000000E+00  0.000000000000E+00
  0.000000000000E+00  0.000000000000E+00  0.000000000000E+00  0.000000000000E+00  0.000000000000E+00  0.000000000000E+00  0.000000000000E+00
  0.000000000000E+00  0.000000000000E+00  0.000000000000E+00  0.000000000000E+00  0.000000000000E+00  0.000000000000E+00  0.000000000000E+00
  0.000000000000E+00  0.000000000000E+00  0.000000000000E+00  0.000000000000E+00  0.000000000000E+00  0.000000000000E+00  0.000000000000E+00
  0.000000000000E+00  0.000000000000E+00
 -0.138158386283E-03  0.369670214786E-02  0.311773535064E-03 -0.998270689684E-03  0.181969500566E-02 -0.136878776323E-02  0.334257407326E-03