# vtk DataFile Version 2.0
FUN3D:global_image_vtk
ASCII
DATASET UNSTRUCTURED_GRID
POINTS 357 double
    0.5000000000000000E+01    0.0000000000000000E+00    0.2500000000000000E+01
    0.5000000000000000E+01    0.0000000000000000E+00    0.1500000000000000E+01
    0.5000000000000000E+01    0.0000000000000000E+00    0.5000000000000000E+00
    0.5000000000000000E+01    0.0000000000000000E+00   -0.5000000000000000E+00
    0.5000000000000000E+01    0.0000000000000000E+00   -0.1500000000000000E+01
    0.5000000000000000E+01    0.0000000000000000E+00   -0.2500000000000000E+01
    0.4000000000000000E+01    0.0000000000000000E+00   -0.2500000000000000E+01
    0.3000000000000000E+01    0.0000000000000000E+00   -0.2500000000000000E+01
    0.2000000000000000E+01    0.0000000000000000E+00   -0.2500000000000000E+01
    0.9999999999999998E+00    0.0000000000000000E+00   -0.2500000000000000E+01
    0.0000000000000000E+00    0.0000000000000000E+00   -0.2500000000000000E+01
    0.0000000000000000E+00    0.0000000000000000E+00   -0.1500000000000000E+01
    0.0000000000000000E+00    0.0000000000000000E+00   -0.5000000000000000E+00
    0.0000000000000000E+00    0.0000000000000000E+00    0.5000000000000000E+00
    0.0000000000000000E+00    0.0000000000000000E+00    0.1500000000000000E+01
    0.0000000000000000E+00    0.0000000000000000E+00    0.2500000000000000E+01
    0.1000000000000000E+01    0.0000000000000000E+00    0.2500000000000000E+01
    0.2000000000000000E+01    0.0000000000000000E+00    0.2500000000000000E+01
    0.3000000000000000E+01    0.0000000000000000E+00    0.2500000000000000E+01
    0.4000000000000000E+01    0.0000000000000000E+00    0.2500000000000000E+01
    0.4251722454414101E+01    0.0000000000000000E+00    0.1683881519811194E+01
    0.6137332127746504E+00    0.0000000000000000E+00    0.1857879939968904E+01
    0.5055778377301318E+00    0.0000000000000000E+00   -0.1984051145810370E+01
    0.4417350419147004E+01    0.0000000000000000E+00   -0.1798049780917599E+01
    0.4277413896341787E+01    0.0000000000000000E+00    0.7849806286986014E+00
    0.4308949446070184E+01    0.0000000000000000E+00   -0.1030628045339280E+00
    0.3520446556869569E+01    0.0000000000000000E+00    0.1794049766750259E+00
    0.2591686382569276E+01    0.0000000000000000E+00    0.1667295362171870E+01
    0.1306794966956192E+01    0.0000000000000000E+00    0.1758138528035871E+01
    0.7010346092308208E+00    0.0000000000000000E+00    0.3961722714940701E-01
    0.2308484603929350E+01    0.0000000000000000E+00   -0.1644203313594280E+01
    0.2985842179142563E+01    0.0000000000000000E+00   -0.1902408850608312E+01
    0.7941286090671454E+00    0.0000000000000000E+00    0.1001771779085911E+01
    0.1020081380390785E+01    0.0000000000000000E+00   -0.1456956300840256E+01
    0.4356436167904402E+01    0.0000000000000000E+00   -0.1022551130153989E+01
    0.3730315927830617E+01    0.0000000000000000E+00   -0.1467697774434008E+01
    0.2084566650673803E+01    0.0000000000000000E+00   -0.2237556063676878E+00
    0.1900542590153839E+01    0.0000000000000000E+00   -0.1088755785946356E+01
    0.1324761360056765E+01    0.0000000000000000E+00   -0.5267852841860601E+00
    0.3681169751640886E+01    0.0000000000000000E+00    0.1040160628527462E+01
    0.3418876656618056E+01    0.0000000000000000E+00    0.1726168461930342E+01
    0.3751175205920376E+01    0.0000000000000000E+00   -0.6691259304140329E+00
    0.2889801815813465E+01    0.0000000000000000E+00   -0.8562661438192326E+00
    0.3017983410224082E+01    0.0000000000000000E+00    0.9231712184526961E+00
    0.1645821714894795E+01    0.0000000000000000E+00   -0.1837983080076178E+01
    0.1513509181197389E+01    0.0000000000000000E+00    0.1108836692078749E+01
    0.1919398798697967E+01    0.0000000000000000E+00    0.1580342757081665E+01
    0.2193859429875553E+01    0.0000000000000000E+00    0.7740897355665203E+00
    0.6091754699356742E+00    0.0000000000000000E+00   -0.7888248715753817E+00
    0.1441359832811715E+01    0.0000000000000000E+00    0.3490936567660688E+00
    0.2716632372076206E+01    0.0000000000000000E+00    0.1359772398136161E+00
    0.5000000000000000E+01   -0.8333333333333334E+00    0.2500000000000000E+01
    0.5000000000000000E+01   -0.8333333333333334E+00    0.1500000000000000E+01
    0.5000000000000000E+01   -0.8333333333333334E+00    0.5000000000000000E+00
    0.5000000000000000E+01   -0.8333333333333334E+00   -0.5000000000000000E+00
    0.5000000000000000E+01   -0.8333333333333334E+00   -0.1500000000000000E+01
    0.5000000000000000E+01   -0.8333333333333334E+00   -0.2500000000000000E+01
    0.4000000000000000E+01   -0.8333333333333334E+00   -0.2500000000000000E+01
    0.3000000000000000E+01   -0.8333333333333334E+00   -0.2500000000000000E+01
    0.2000000000000000E+01   -0.8333333333333334E+00   -0.2500000000000000E+01
    0.9999999999999998E+00   -0.8333333333333334E+00   -0.2500000000000000E+01
    0.0000000000000000E+00   -0.8333333333333334E+00   -0.2500000000000000E+01
    0.0000000000000000E+00   -0.8333333333333334E+00   -0.1500000000000000E+01
    0.0000000000000000E+00   -0.8333333333333334E+00   -0.5000000000000000E+00
    0.0000000000000000E+00   -0.8333333333333334E+00    0.5000000000000000E+00
    0.0000000000000000E+00   -0.8333333333333334E+00    0.1500000000000000E+01
    0.0000000000000000E+00   -0.8333333333333334E+00    0.2500000000000000E+01
    0.1000000000000000E+01   -0.8333333333333334E+00    0.2500000000000000E+01
    0.2000000000000000E+01   -0.8333333333333334E+00    0.2500000000000000E+01
    0.3000000000000000E+01   -0.8333333333333334E+00    0.2500000000000000E+01
    0.4000000000000000E+01   -0.8333333333333334E+00    0.2500000000000000E+01
    0.4251722454414101E+01   -0.8333333333333334E+00    0.1683881519811194E+01
    0.6137332127746504E+00   -0.8333333333333334E+00    0.1857879939968904E+01
    0.5055778377301318E+00   -0.8333333333333334E+00   -0.1984051145810370E+01
    0.4417350419147004E+01   -0.8333333333333334E+00   -0.1798049780917599E+01
    0.4277413896341787E+01   -0.8333333333333334E+00    0.7849806286986014E+00
    0.4308949446070184E+01   -0.8333333333333334E+00   -0.1030628045339280E+00
    0.3520446556869569E+01   -0.8333333333333334E+00    0.1794049766750259E+00
    0.2591686382569276E+01   -0.8333333333333334E+00    0.1667295362171870E+01
    0.1306794966956192E+01   -0.8333333333333334E+00    0.1758138528035871E+01
    0.7010346092308208E+00   -0.8333333333333334E+00    0.3961722714940701E-01
    0.2308484603929350E+01   -0.8333333333333334E+00   -0.1644203313594280E+01
    0.2985842179142563E+01   -0.8333333333333334E+00   -0.1902408850608312E+01
    0.7941286090671454E+00   -0.8333333333333334E+00    0.1001771779085911E+01
    0.1020081380390785E+01   -0.8333333333333334E+00   -0.1456956300840256E+01
    0.4356436167904402E+01   -0.8333333333333334E+00   -0.1022551130153989E+01
    0.3730315927830617E+01   -0.8333333333333334E+00   -0.1467697774434008E+01
    0.2084566650673803E+01   -0.8333333333333334E+00   -0.2237556063676878E+00
    0.1900542590153839E+01   -0.8333333333333334E+00   -0.1088755785946356E+01
    0.1324761360056765E+01   -0.8333333333333334E+00   -0.5267852841860601E+00
    0.3681169751640886E+01   -0.8333333333333334E+00    0.1040160628527462E+01
    0.3418876656618056E+01   -0.8333333333333334E+00    0.1726168461930342E+01
    0.3751175205920376E+01   -0.8333333333333334E+00   -0.6691259304140329E+00
    0.2889801815813465E+01   -0.8333333333333334E+00   -0.8562661438192326E+00
    0.3017983410224082E+01   -0.8333333333333334E+00    0.9231712184526961E+00
    0.1645821714894795E+01   -0.8333333333333334E+00   -0.1837983080076178E+01
    0.1513509181197389E+01   -0.8333333333333334E+00    0.1108836692078749E+01
    0.1919398798697967E+01   -0.8333333333333334E+00    0.1580342757081665E+01
    0.2193859429875553E+01   -0.8333333333333334E+00    0.7740897355665203E+00
    0.6091754699356742E+00   -0.8333333333333334E+00   -0.7888248715753817E+00
    0.1441359832811715E+01   -0.8333333333333334E+00    0.3490936567660688E+00
    0.2716632372076206E+01   -0.8333333333333334E+00    0.1359772398136161E+00
    0.5000000000000000E+01   -0.1666666666666667E+01    0.2500000000000000E+01
    0.5000000000000000E+01   -0.1666666666666667E+01    0.1500000000000000E+01
    0.5000000000000000E+01   -0.1666666666666667E+01    0.5000000000000000E+00
    0.5000000000000000E+01   -0.1666666666666667E+01   -0.5000000000000000E+00
    0.5000000000000000E+01   -0.1666666666666667E+01   -0.1500000000000000E+01
    0.5000000000000000E+01   -0.1666666666666667E+01   -0.2500000000000000E+01
    0.4000000000000000E+01   -0.1666666666666667E+01   -0.2500000000000000E+01
    0.3000000000000000E+01   -0.1666666666666667E+01   -0.2500000000000000E+01
    0.2000000000000000E+01   -0.1666666666666667E+01   -0.2500000000000000E+01
    0.9999999999999998E+00   -0.1666666666666667E+01   -0.2500000000000000E+01
    0.0000000000000000E+00   -0.1666666666666667E+01   -0.2500000000000000E+01
    0.0000000000000000E+00   -0.1666666666666667E+01   -0.1500000000000000E+01
    0.0000000000000000E+00   -0.1666666666666667E+01   -0.5000000000000000E+00
    0.0000000000000000E+00   -0.1666666666666667E+01    0.5000000000000000E+00
    0.0000000000000000E+00   -0.1666666666666667E+01    0.1500000000000000E+01
    0.0000000000000000E+00   -0.1666666666666667E+01    0.2500000000000000E+01
    0.1000000000000000E+01   -0.1666666666666667E+01    0.2500000000000000E+01
    0.2000000000000000E+01   -0.1666666666666667E+01    0.2500000000000000E+01
    0.3000000000000000E+01   -0.1666666666666667E+01    0.2500000000000000E+01
    0.4000000000000000E+01   -0.1666666666666667E+01    0.2500000000000000E+01
    0.4251722454414101E+01   -0.1666666666666667E+01    0.1683881519811194E+01
    0.6137332127746504E+00   -0.1666666666666667E+01    0.1857879939968904E+01
    0.5055778377301318E+00   -0.1666666666666667E+01   -0.1984051145810370E+01
[...]
POINT_DATA 357
SCALARS rho double 1
LOOKUP_TABLE default
   0.1001060965309550E+01
   0.1001032885350647E+01
   0.1009911348909910E+01
   0.1017604281750355E+01
   0.9600626478044416E+00
   0.7465818202670770E+00
   0.9288978859254428E+00
   0.9350506104823776E+00
   0.9288195491009702E+00
   0.9027690384993768E+00
   0.1345801167731622E+01
   0.1028590331893861E+01
   0.1022942815502949E+01
   0.1003609119623555E+01
   0.1003328983886741E+01
   0.1001304184733386E+01
   0.1001868230330935E+01
   0.1001261852292856E+01
   0.1000424696470506E+01
   0.1000097811380830E+01
   0.1000515818348376E+01
   0.1002016893231917E+01
   0.1049562530543154E+01
   0.9675066456482174E+00
   0.1001049744068635E+01
   0.1003973975650848E+01
   0.9944403808232731E+00
   0.1000065241183524E+01
   0.1001629348210591E+01
   0.1007191853269239E+01
   0.9913323587777092E+00
   0.9669607818631105E+00
   0.1002759959468672E+01
   0.1036146976370733E+01
   0.9808230003918119E+00
   0.9531080646747397E+00
   0.9951982807061210E+00
   0.9914559903835599E+00
   0.9978254944069219E+00
   0.1001015806979973E+01
   0.9996794621242729E+00
   0.9963557290912431E+00
   0.9986419284715489E+00
   0.9977220630550592E+00
   0.9530848992747263E+00
   0.1000799044371988E+01
   0.1000503202066374E+01
   0.1000151831184717E+01
   0.1001222641877177E+01
   0.1005065141048517E+01
   0.9928367130553322E+00
   0.1001020238490607E+01
   0.1000931433367021E+01
   0.1009815378555895E+01
   0.1019284206007452E+01
   0.9657875937157618E+00
   0.7474089831154710E+00
   0.9290862026901273E+00
   0.9358988747932748E+00
   0.9285501080668421E+00
   0.9006167544039931E+00
   0.1347473048174757E+01
   0.1025801814978717E+01
   0.1022600955850197E+01
   0.1003323434202668E+01
   0.1003274416535006E+01
   0.1001269628296279E+01
   0.1001799861309215E+01
   0.1001166322296122E+01
   0.1000307517711336E+01
   0.1000007001070729E+01
   0.1000460075575659E+01
   0.1001948206276985E+01
   0.1050142206627523E+01
   0.9712138008349718E+00
   0.1001014968988969E+01
   0.1004209663878553E+01
   0.9944741153079093E+00
   0.9999181634485501E+00
   0.1001520305962659E+01
   0.1006946205703755E+01
   0.9928785686810843E+00
   0.9692735419542451E+00
   0.1002571606031859E+01
   0.1036357620201766E+01
   0.9828227275239058E+00
   0.9550078689282403E+00
   0.9947299468986368E+00
   0.9914933783381328E+00
   0.9972458506042507E+00
   0.1000978302144293E+01
   0.9995532157189616E+00
   0.9970136983432032E+00
   0.9988629049729020E+00
   0.9976042151906395E+00
   0.9539123924735369E+00
   0.1000590421704988E+01
   0.1000339950523679E+01
   0.1000063474167606E+01
   0.1000100325473716E+01
   0.1004932353744342E+01
   0.9925002488783207E+00
   0.1001050120305704E+01
   0.1000954818490870E+01
   0.1009832978414088E+01
   0.1019286125883670E+01
   0.9657400093055194E+00
   0.7475742455190222E+00
   0.9291757390888664E+00
   0.9361911511378970E+00
   0.9287476997957205E+00
   0.9003601963274165E+00
   0.1348000832447081E+01
   0.1025792994955753E+01
   0.1022736840180602E+01
   0.1003389945933814E+01
   0.1003313033338196E+01
   0.1001291791783298E+01
   0.1001851270070707E+01
   0.1001242073250211E+01
   0.1000388779126720E+01
   0.1000066882639056E+01
   0.1000504082848536E+01
   0.1001998365565002E+01
   0.1050666195800865E+01
   0.9711384687503738E+00
   0.1001044237390689E+01
   0.1004215221766797E+01
   0.9945250386542228E+00
   0.1000008435132105E+01
   0.1001593402339415E+01
   0.1007088079913077E+01
   0.9930889440887851E+00
   0.9693704083404923E+00
   0.1002665957852915E+01
   0.1036749987565516E+01
   0.9829109827190782E+00
   0.9550929991501270E+00
   0.9948684893238087E+00
   0.9916876169020712E+00
   0.9974032062525724E+00
   0.1001033830738427E+01
   0.9996317794465843E+00
   0.9970445095420005E+00
   0.9990119353888723E+00
   0.9976866866306414E+00
   0.9542013536161683E+00
   0.1000696950389105E+01
   0.1000433650558939E+01
   0.1000166700263265E+01
   0.1000309426307867E+01
   0.1005072706222572E+01
   0.9925947750646099E+00
   0.1001039619261015E+01
   0.1000937409095398E+01
   0.1009822644914005E+01
   0.1019324716647537E+01
   0.9659706606642703E+00
   0.7475796541684243E+00
   0.9293103028285514E+00
   0.9362375955224824E+00
   0.9287930264631795E+00
   0.9003274706444877E+00
   0.1347892721158905E+01
   0.1025608982888284E+01
   0.1022625085931876E+01
   0.1003319974201494E+01
   0.1003277759811527E+01
   0.1001271174233834E+01
   0.1001809679404682E+01
   0.1001188690444394E+01
   0.1000340666633899E+01
   0.1000037262319794E+01
   0.1000487902445619E+01
   0.1001955051468604E+01
   0.1050398129351267E+01
   0.9713295724390384E+00
   0.1001046496458935E+01
   0.1004275106757690E+01
   0.9945632450207410E+00
   0.9999542895374370E+00
   0.1001536912308207E+01
   0.1006982406191196E+01
   0.9931215194476228E+00
   0.9693788108423083E+00
   0.1002597643342286E+01
   0.1036652836578395E+01
   0.9830030102860119E+00
   0.9551501475076706E+00
   0.9948312615179807E+00
   0.9916621375427925E+00
   0.9973351424080806E+00
   0.1001024603644916E+01
   0.9995905171149496E+00
   0.9971500887263172E+00
   0.9990477551697949E+00
   0.9976581923832110E+00
   0.9541111025404519E+00
   0.1000630005557589E+01
   0.1000377100815369E+01
   0.1000118567770827E+01
   0.1000172235803541E+01
   0.1004999014562386E+01
   0.9925782462384871E+00
   0.1001050119775092E+01
   0.1000954819957384E+01
   0.1009832977888731E+01
   0.1019286115725012E+01
   0.9657399991441300E+00
   0.7475742566491806E+00
   0.9291757389733192E+00
   0.9361911403092977E+00
   0.9287476961708017E+00
   0.9003601994934541E+00
   0.1348000837577918E+01
   0.1025793009370222E+01
   0.1022736838938645E+01
   0.1003389943971712E+01
   0.1003313032409857E+01
   0.1001291791036754E+01
   0.1001851269446723E+01
   0.1001242072671572E+01
   0.1000388780798275E+01
   0.1000066882993153E+01
   0.1000504083299169E+01
   0.1001998364820379E+01
   0.1050666190638865E+01
   0.9711384578357551E+00
   0.1001044235033062E+01
   0.1004215218189447E+01
   0.9945250443890375E+00
   0.1000008436272485E+01
   0.1001593401155904E+01
   0.1007088079557672E+01
   0.9930889339331560E+00
   0.9693704034671512E+00
   0.1002665956303777E+01
   0.1036749977604050E+01
   0.9829109771547491E+00
   0.9550929861403982E+00
   0.9948684892239816E+00
   0.9916876137582802E+00
   0.9974032023404570E+00
   0.1001033829149307E+01
   0.9996317808187108E+00
   0.9970445016904887E+00
   0.9990119329125831E+00
   0.9976866900139908E+00
   0.9542013523160148E+00
   0.1000696949729953E+01
   0.1000433649305129E+01
   0.1000166698716297E+01
   0.1000309427555631E+01
   0.1005072706041216E+01
   0.9925947788779791E+00
   0.1001020240161928E+01
   0.1000931434240103E+01
   0.1009815373097366E+01
   0.1019284173331329E+01
   0.9657875319822756E+00
   0.7474090954723854E+00
   0.9290862768959307E+00
   0.9358988916421120E+00
   0.9285501620904099E+00
   0.9006167928910833E+00
   0.1347473107364936E+01
   0.1025801889712642E+01
   0.1022600971690164E+01
   0.1003323434252922E+01
   0.1003274416496927E+01
   0.1001269626050551E+01
   0.1001799860158506E+01
   0.1001166317461720E+01
   0.1000307518366523E+01
   0.1000006999962492E+01
   0.1000460078263560E+01
   0.1001948204959150E+01
   0.1050142108594489E+01
   0.9712137704516847E+00
   0.1001014959919025E+01
   0.1004209653726057E+01
   0.9944741164155979E+00
   0.9999181635177454E+00
   0.1001520303992895E+01
   0.1006946201619913E+01
   0.9928785601797495E+00
   0.9692735397020731E+00
   0.1002571605638171E+01
   0.1036357587048405E+01
   0.9828226841521128E+00
   0.9550078039630922E+00
   0.9947299339745008E+00
   0.9914933569563381E+00
   0.9972458401434184E+00
   0.1000978302709698E+01
   0.9995532179670537E+00
   0.9970136543441187E+00
   0.9988628708727151E+00
   0.9976042241914168E+00
   0.9539123768969999E+00
   0.1000590420731835E+01
   0.1000339948121759E+01
   0.1000063465403993E+01
   0.1000100337673517E+01
   0.1004932348900399E+01
   0.9925002434705598E+00
   0.1001060975155531E+01
   0.1001032892975130E+01
   0.1009911340818670E+01
   0.1017604184680832E+01
   0.9600625071768543E+00
   0.7465820913060267E+00
   0.9288980386295509E+00
   0.9350506565188532E+00
   0.9288196656991992E+00
   0.9027691055838634E+00
   0.1345801346175604E+01
   0.1028590472617306E+01
   0.1022942819809430E+01
   0.1003609117184425E+01
   0.1003328984288876E+01
   0.1001304183495022E+01
   0.1001868228708135E+01
   0.1001261843091723E+01
   0.1000424697545969E+01
   0.1000097813523768E+01
   0.1000515827218139E+01
   0.1002016891921839E+01
   0.1049562372901043E+01
   0.9675066239016765E+00
   0.1001049726648922E+01
   0.1003973934169013E+01
   0.9944403749027066E+00
   0.1000065243098879E+01
   0.1001629342706512E+01
   0.1007191845629417E+01
   0.9913323401467381E+00
   0.9669607615286200E+00
   0.1002759958722211E+01
   0.1036146906789543E+01
   0.9808228706058825E+00
   0.9531079423564602E+00
   0.9951982521713215E+00
   0.9914559263970073E+00
   0.9978254752481953E+00
   0.1001015812493343E+01
   0.9996794701438093E+00
   0.9963556405151656E+00
   0.9986418570555542E+00
   0.9977220857136349E+00
   0.9530848603864979E+00
   0.1000799039887688E+01
   0.1000503197407163E+01
   0.1000151813834190E+01
   0.1001222665059643E+01
   0.1005065129795383E+01
   0.9928367021342255E+00
SCALARS u double 1
LOOKUP_TABLE default
   0.4978712556030001E+00
   0.4982628390790507E+00
   0.5104974686459098E+00
   0.5190817549296616E+00
   0.4888467496367075E+00
   0.0000000000000000E+00
   0.0000000000000000E+00
   0.0000000000000000E+00
   0.0000000000000000E+00
   0.0000000000000000E+00
   0.0000000000000000E+00
   0.4753084821071363E+00
   0.4783033295837415E+00
   0.4964984414169092E+00
   0.4971330781064427E+00
   0.4983383719717493E+00
   0.4980854510201557E+00
   0.5000915177168400E+00
   0.5018536279261619E+00
   0.5015000347050035E+00
   0.4969747287311930E+00
   0.4982254631705832E+00
   0.4307092057913717E+00
   0.4171606179963882E+00
   0.5074526665883593E+00
   0.5509893895091024E+00
   0.5410873077315606E+00
   0.5006604753589597E+00
   0.4988477988261855E+00
   0.4920375540715785E+00
   0.4260995733949619E+00
   0.3253411661863282E+00
   0.4965001880780645E+00
   0.5360910894136186E+00
   0.5570933489178104E+00
   0.4812047493295029E+00
   0.5428595660248271E+00
   0.5830840294159501E+00
   0.5357543279519610E+00
   0.5012550671675026E+00
   0.4996285164287732E+00
   0.5789452651905422E+00
   0.5764047315167117E+00
   0.5046024525074638E+00
   0.3866082752172099E+00
   0.4983494571283874E+00
   0.4994636627132261E+00
   0.5035124276527208E+00
   0.5053519531656850E+00
   0.4980514675982815E+00
   0.5318991311766068E+00
   0.4980302067257398E+00
   0.4979871610493847E+00
   0.5100940743187310E+00
   0.5205063099448527E+00
   0.4922234573684870E+00
   0.0000000000000000E+00
   0.0000000000000000E+00
   0.0000000000000000E+00
   0.0000000000000000E+00
   0.0000000000000000E+00
   0.0000000000000000E+00
   0.4764560161311336E+00
   0.4788737769511783E+00
   0.4968262685455290E+00
   0.4971918261915404E+00
   0.4983719970404000E+00
   0.4981778292282182E+00
   0.5002588922234222E+00
   0.5021932669068072E+00
   0.5018906549006074E+00
   0.4969136404787527E+00
   0.4983245024058966E+00
   0.4340493026204209E+00
   0.4252623802197218E+00
   0.5065232884928546E+00
   0.5510051795887034E+00
   0.5405577291195612E+00
   0.5009520810567890E+00
   0.4990350749982418E+00
   0.4922641903182227E+00
   0.4354244500272664E+00
   0.3317861190020472E+00
   0.4967541660288506E+00
   0.5413266894447766E+00
   0.5632650243586869E+00
   0.4913347761047098E+00
   0.5426451098043016E+00
   0.5881945654265734E+00
   0.5360742191487763E+00
   0.5006896404055413E+00
   0.4997358665558035E+00
   0.5824815010210879E+00
   0.5814344528602874E+00
   0.5040909868628475E+00
   0.3936153439158286E+00
   0.4986074934649650E+00
   0.4997284964152860E+00
   0.5034583258583001E+00
   0.5055513581489284E+00
   0.4979821559401222E+00
   0.5310671022920386E+00
   0.4980051745177780E+00
   0.4979975320377104E+00
   0.5101605522093431E+00
   0.5206845485602418E+00
   0.4924000351002486E+00
   0.0000000000000000E+00
   0.0000000000000000E+00
   0.0000000000000000E+00
   0.0000000000000000E+00
   0.0000000000000000E+00
   0.0000000000000000E+00
   0.4762578007362316E+00
   0.4787344541048794E+00
   0.4967566127585110E+00
   0.4971518336843744E+00
   0.4983508790350692E+00
   0.4980989373575057E+00
   0.5001234906976266E+00
   0.5020417363509335E+00
   0.5017763185782476E+00
   0.4968515676705712E+00
   0.4982512550475265E+00
   0.4340289462734953E+00
   0.4255396668782969E+00
   0.5065490082812698E+00
   0.5511645304881356E+00
   0.5405886936274429E+00
   0.5007967094437739E+00
   0.4989129834680009E+00
   0.4920675215893811E+00
   0.4356131481205938E+00
   0.3321017380547308E+00
   0.4966193901859167E+00
   0.5411319962230947E+00
   0.5636003971960311E+00
   0.4916517964460181E+00
   0.5424831514483440E+00
   0.5881348258761825E+00
   0.5358375042823832E+00
   0.5006353170706910E+00
   0.4996112740813473E+00
   0.5826596747891400E+00
   0.5814964461860122E+00
   0.5039762444762356E+00
   0.3935373797276507E+00
   0.4984494003950483E+00
   0.4995764267052594E+00
   0.5033075134566136E+00
   0.5051528555111057E+00
   0.4977862658787429E+00
   0.5309693795530174E+00
   0.4980099011765342E+00
   0.4979859236661946E+00
   0.5101129299671309E+00
   0.5205004826269926E+00
   0.4921068871461827E+00
   0.0000000000000000E+00
   0.0000000000000000E+00
   0.0000000000000000E+00
   0.0000000000000000E+00
   0.0000000000000000E+00
   0.0000000000000000E+00
   0.4764417925284321E+00
   0.4788782797551963E+00
   0.4968344621798882E+00
   0.4971906688985830E+00
   0.4983722228062489E+00
   0.4981651520517964E+00
   0.5002189263840050E+00
   0.5021361075311902E+00
   0.5018335967592683E+00
   0.4968501011223634E+00
   0.4983119163390506E+00
   0.4340366629980596E+00
   0.4251262399750858E+00
   0.5064718058372912E+00
   0.5509380344346102E+00
   0.5404189716041546E+00
   0.5008703733468151E+00
   0.4989968007568356E+00
   0.4921836549372021E+00
   0.4352447577598332E+00
   0.3317824906292914E+00
   0.4967078579673596E+00
   0.5410651598817400E+00
   0.5630614867841857E+00
   0.4911931056777384E+00
   0.5424355451909231E+00
   0.5879524239182332E+00
   0.5358420189104234E+00
   0.5005937644232146E+00
   0.4996487991383800E+00
   0.5823114987658555E+00
   0.5812102082893478E+00
   0.5039683418722870E+00
   0.3933159008379271E+00
   0.4985313718346122E+00
   0.4996584064175041E+00
   0.5033465995046428E+00
   0.5052686864115002E+00
   0.4978506495186822E+00
   0.5308937701599409E+00
   0.4980051709011859E+00
   0.4979975314957474E+00
   0.5101605610243549E+00
   0.5206845666251639E+00
   0.4924000347271456E+00
   0.0000000000000000E+00
   0.0000000000000000E+00
   0.0000000000000000E+00
   0.0000000000000000E+00
   0.0000000000000000E+00
   0.0000000000000000E+00
   0.4762577979879105E+00
   0.4787344503619210E+00
   0.4967566141830786E+00
   0.4971518343876173E+00
   0.4983508793331558E+00
   0.4980989381765210E+00
   0.5001234903680301E+00
   0.5020417308062465E+00
   0.5017763119002384E+00
   0.4968515670572538E+00
   0.4982512556310020E+00
   0.4340289468317546E+00
   0.4255396545187701E+00
   0.5065490163294356E+00
   0.5511645515689182E+00
   0.5405887011019174E+00
   0.5007967083243927E+00
   0.4989129845949436E+00
   0.4920675224095070E+00
   0.4356131426746982E+00
   0.3321017315429409E+00
   0.4966193920176203E+00
   0.5411320080575661E+00
   0.5636004076149673E+00
   0.4916518057325742E+00
   0.5424831658211179E+00
   0.5881348415943880E+00
   0.5358375235086157E+00
   0.5006353196455567E+00
   0.4996112738563240E+00
   0.5826596927980654E+00
   0.5814964606999813E+00
   0.5039762374838703E+00
   0.3935373774635443E+00
   0.4984494047636706E+00
   0.4995764305781656E+00
   0.5033075144668634E+00
   0.5051528759851146E+00
   0.4977862684228499E+00
   0.5309693848828722E+00
   0.4980302068675203E+00
   0.4979871597816293E+00
   0.5100940799093875E+00
   0.5205062786362868E+00
   0.4922235285907346E+00
   0.0000000000000000E+00
   0.0000000000000000E+00
   0.0000000000000000E+00
   0.0000000000000000E+00
   0.0000000000000000E+00
   0.0000000000000000E+00
   0.4764559432609594E+00
   0.4788737704949156E+00
   0.4968262632187401E+00
   0.4971918288888740E+00
   0.4983719987332519E+00
   0.4981778326039276E+00
   0.5002588967752489E+00
   0.5021932666843858E+00
   0.5018906540587031E+00
   0.4969136408774102E+00
   0.4983245040874665E+00
   0.4340493127220808E+00
   0.4252624511937245E+00
   0.5065232928171316E+00
   0.5510051649435328E+00
   0.5405577132592084E+00
   0.5009520796962168E+00
   0.4990350784530850E+00
   0.4922642094564584E+00
   0.4354244157699590E+00
   0.3317860843532989E+00
   0.4967541629579704E+00
   0.5413266752700076E+00
   0.5632649669623845E+00
   0.4913347556389697E+00
   0.5426451081022285E+00
   0.5881945642870505E+00
   0.5360742399357981E+00
   0.5006896471072187E+00
   0.4997358574653266E+00
   0.5824815591792575E+00
   0.5814344303059058E+00
   0.5040909932213695E+00
   0.3936152322833570E+00
   0.4986074955900821E+00
   0.4997285013383891E+00
   0.5034583355687101E+00
   0.5055513270336803E+00
   0.4979821744620621E+00
   0.5310671235708654E+00
   0.4978712583935868E+00
   0.4982628550278911E+00
   0.5104975510961102E+00
   0.5190817661414323E+00
   0.4888468399045526E+00
   0.0000000000000000E+00
   0.0000000000000000E+00
   0.0000000000000000E+00
   0.0000000000000000E+00
   0.0000000000000000E+00
   0.0000000000000000E+00
   0.4753083567778268E+00
   0.4783033524439683E+00
   0.4964984210711446E+00
   0.4971330827060482E+00
   0.4983383743238735E+00
   0.4980854574351416E+00
   0.5000915332861718E+00
   0.5018536289756398E+00
   0.5015000318174004E+00
   0.4969747463284955E+00
   0.4982254664803801E+00
   0.4307091181276378E+00
   0.4171605992883848E+00
   0.5074527565206652E+00
   0.5509894864309244E+00
   0.5410874030538043E+00
   0.5006604762590533E+00
   0.4988478116440965E+00
   0.4920376253569081E+00
   0.4260993628568556E+00
   0.3253409687385990E+00
   0.4965001793880345E+00
   0.5360909696777431E+00
   0.5570932060282427E+00
   0.4812045760332268E+00
   0.5428597007016698E+00
   0.5830840110099179E+00
   0.5357544441371185E+00
   0.5012551356407852E+00
   0.4996285022268356E+00
   0.5789453956878878E+00
   0.5764046942144453E+00
   0.5046025301270527E+00
   0.3866079498048952E+00
   0.4983494660444732E+00
   0.4994636774612080E+00
   0.5035124951652813E+00
   0.5053519584858044E+00
   0.4980515536589707E+00
   0.5318993268960366E+00
SCALARS v double 1
LOOKUP_TABLE default
   0.0000000000000000E+00
   0.0000000000000000E+00
   0.0000000000000000E+00
   0.0000000000000000E+00
   0.0000000000000000E+00
   0.0000000000000000E+00
   0.0000000000000000E+00
   0.0000000000000000E+00
   0.0000000000000000E+00
   0.0000000000000000E+00
   0.0000000000000000E+00
   0.0000000000000000E+00
   0.0000000000000000E+00
   0.0000000000000000E+00
   0.0000000000000000E+00
   0.0000000000000000E+00
   0.0000000000000000E+00
   0.0000000000000000E+00
   0.0000000000000000E+00
   0.0000000000000000E+00
   0.0000000000000000E+00
   0.0000000000000000E+00
   0.0000000000000000E+00
   0.0000000000000000E+00
   0.0000000000000000E+00
   0.0000000000000000E+00
   0.0000000000000000E+00
   0.0000000000000000E+00
   0.0000000000000000E+00
   0.0000000000000000E+00
   0.0000000000000000E+00
   0.0000000000000000E+00
   0.0000000000000000E+00
   0.0000000000000000E+00
   0.0000000000000000E+00
   0.0000000000000000E+00
   0.0000000000000000E+00
   0.0000000000000000E+00
   0.0000000000000000E+00
   0.0000000000000000E+00
   0.0000000000000000E+00
   0.0000000000000000E+00
   0.0000000000000000E+00
   0.0000000000000000E+00
   0.0000000000000000E+00
   0.0000000000000000E+00
   0.0000000000000000E+00
   0.0000000000000000E+00
   0.0000000000000000E+00