# vtk DataFile Version 2.0
FUN3D:global_image_vtk
ASCII
DATASET UNSTRUCTURED_GRID
POINTS 213 double
    0.0000000000000000E+00    0.2500000000000000E+01    0.0000000000000000E+00
    0.1250000000000000E+01    0.2500000000000000E+01    0.0000000000000000E+00
    0.2500000000000000E+01    0.2500000000000000E+01    0.0000000000000000E+00
    0.3750000000000000E+01    0.2500000000000000E+01    0.0000000000000000E+00
    0.5000000000000000E+01    0.2500000000000000E+01    0.0000000000000000E+00
    0.5000000000000000E+01    0.1250000000000000E+01    0.0000000000000000E+00
    0.5000000000000000E+01    0.0000000000000000E+00    0.0000000000000000E+00
    0.5000000000000000E+01   -0.1250000000000000E+01    0.0000000000000000E+00
    0.5000000000000000E+01   -0.2500000000000000E+01    0.0000000000000000E+00
    0.3750000000000000E+01   -0.2500000000000000E+01    0.0000000000000000E+00
    0.2500000000000000E+01   -0.2500000000000000E+01    0.0000000000000000E+00
    0.1250000000000000E+01   -0.2500000000000000E+01    0.0000000000000000E+00
    0.0000000000000000E+00   -0.2500000000000000E+01    0.0000000000000000E+00
    0.0000000000000000E+00   -0.1250000000000000E+01    0.0000000000000000E+00
    0.0000000000000000E+00    0.0000000000000000E+00    0.0000000000000000E+00
    0.0000000000000000E+00    0.1250000000000000E+01    0.0000000000000000E+00
    0.9058375365086910E+00    0.1578994732800803E+01    0.0000000000000000E+00
    0.3982050490726493E+01   -0.1583989954232354E+01    0.0000000000000000E+00
    0.4033849428301197E+01    0.1453322699199022E+01    0.0000000000000000E+00
    0.1040505887381675E+01   -0.1479596339503735E+01    0.0000000000000000E+00
    0.1099454400140349E+01   -0.3227322616384110E+00    0.0000000000000000E+00
    0.7354504170366591E+00    0.6593508822075582E+00    0.0000000000000000E+00
    0.1622302608453282E+01    0.8256214013940779E+00    0.0000000000000000E+00
    0.2145871574390382E+01   -0.1650070333782557E+01    0.0000000000000000E+00
    0.4086422318222992E+01   -0.4612828702537229E+00    0.0000000000000000E+00
    0.2979540174134984E+01   -0.8579242121530853E+00    0.0000000000000000E+00
    0.3045064261640043E+01   -0.1836846154397680E+01    0.0000000000000000E+00
    0.3428197553792836E+01    0.3508002863614053E+00    0.0000000000000000E+00
    0.4309693860063405E+01    0.5185680230613409E+00    0.0000000000000000E+00
    0.1827272193562204E+01    0.1738996113203182E+01    0.0000000000000000E+00
    0.2808563282768077E+01    0.1325493893339706E+01    0.0000000000000000E+00
    0.1895995683864404E+01   -0.8731419609589618E+00    0.0000000000000000E+00
    0.2273179336307740E+01    0.4906150219227333E-01    0.0000000000000000E+00
    0.5000000000000000E+01    0.2500000000000000E+01    0.1250000000000000E+01
    0.5000000000000000E+01    0.2500000000000000E+01    0.2500000000000000E+01
    0.5000000000000000E+01    0.2500000000000000E+01    0.3750000000000000E+01
    0.5000000000000000E+01    0.2500000000000000E+01    0.5000000000000000E+01
    0.3750000000000000E+01    0.2500000000000000E+01    0.5000000000000000E+01
    0.2500000000000000E+01    0.2500000000000000E+01    0.5000000000000000E+01
    0.1250000000000000E+01    0.2500000000000000E+01    0.5000000000000000E+01
    0.0000000000000000E+00    0.2500000000000000E+01    0.5000000000000000E+01
    0.0000000000000000E+00    0.2500000000000000E+01    0.3750000000000000E+01
    0.0000000000000000E+00    0.2500000000000000E+01    0.2500000000000000E+01
    0.0000000000000000E+00    0.2500000000000000E+01    0.1250000000000000E+01
    0.9631080833812172E+00    0.2500000000000000E+01    0.9613285771248219E+00
    0.3981732467264904E+01    0.2500000000000000E+01    0.4069753913607991E+01
    0.4035525118777670E+01    0.2500000000000000E+01    0.1012015867579395E+01
    0.9641717640894248E+00    0.2500000000000000E+01    0.3972455192261839E+01
    0.1547743040396780E+01    0.2500000000000000E+01    0.2928177746738678E+01
    0.6985170616192014E+00    0.2500000000000000E+01    0.3068281976055466E+01
    0.8931277594515110E+00    0.2500000000000000E+01    0.2052465503257726E+01
    0.2183293750162785E+01    0.2500000000000000E+01    0.3959073795658649E+01
    0.3855333506014705E+01    0.2500000000000000E+01    0.2931218481500625E+01
    0.3152495579421047E+01    0.2500000000000000E+01    0.3635850502723324E+01
    0.3103247580566054E+01    0.2500000000000000E+01    0.4331682712472464E+01
    0.3266837581688852E+01    0.2500000000000000E+01    0.1886092433583972E+01
    0.4231539241296245E+01    0.2500000000000000E+01    0.1915865356532799E+01
    0.1909741006522088E+01    0.2500000000000000E+01    0.7170024419130505E+00
    0.2880784107213163E+01    0.2500000000000000E+01    0.9046598906449592E+00
    0.2014316024535771E+01    0.2500000000000000E+01    0.1762464314805728E+01
    0.2670003247036656E+01    0.2500000000000000E+01    0.2850479545835163E+01
    0.5000000000000000E+01    0.1250000000000000E+01    0.5000000000000000E+01
    0.5000000000000000E+01    0.0000000000000000E+00    0.5000000000000000E+01
    0.5000000000000000E+01   -0.1250000000000000E+01    0.5000000000000000E+01
    0.5000000000000000E+01   -0.2500000000000000E+01    0.5000000000000000E+01
    0.5000000000000000E+01   -0.2500000000000000E+01    0.3750000000000000E+01
    0.5000000000000000E+01   -0.2500000000000000E+01    0.2500000000000000E+01
    0.5000000000000000E+01   -0.2500000000000000E+01    0.1250000000000000E+01
    0.5000000000000000E+01    0.1578994732800803E+01    0.9058375365086910E+00
    0.5000000000000000E+01   -0.1583989954232354E+01    0.3982050490726493E+01
    0.5000000000000000E+01    0.1453322699199022E+01    0.4033849428301197E+01
    0.5000000000000000E+01   -0.1479596339503735E+01    0.1040505887381675E+01
    0.5000000000000000E+01   -0.3227322616384110E+00    0.1099454400140349E+01
    0.5000000000000000E+01    0.6593508822075582E+00    0.7354504170366591E+00
    0.5000000000000000E+01    0.8256214013940779E+00    0.1622302608453282E+01
    0.5000000000000000E+01   -0.1650070333782557E+01    0.2145871574390382E+01
    0.5000000000000000E+01   -0.4612828702537229E+00    0.4086422318222992E+01
    0.5000000000000000E+01   -0.8579242121530853E+00    0.2979540174134984E+01
    0.5000000000000000E+01   -0.1836846154397680E+01    0.3045064261640043E+01
    0.5000000000000000E+01    0.3508002863614053E+00    0.3428197553792836E+01
    0.5000000000000000E+01    0.5185680230613409E+00    0.4309693860063405E+01
    0.5000000000000000E+01    0.1738996113203182E+01    0.1827272193562204E+01
    0.5000000000000000E+01    0.1325493893339706E+01    0.2808563282768077E+01
    0.5000000000000000E+01   -0.8731419609589618E+00    0.1895995683864404E+01
    0.5000000000000000E+01    0.4906150219227333E-01    0.2273179336307740E+01
    0.0000000000000000E+00    0.1250000000000000E+01    0.5000000000000000E+01
    0.0000000000000000E+00    0.0000000000000000E+00    0.5000000000000000E+01
    0.0000000000000000E+00   -0.1250000000000000E+01    0.5000000000000000E+01
    0.0000000000000000E+00   -0.2500000000000000E+01    0.5000000000000000E+01
    0.1250000000000000E+01   -0.2500000000000000E+01    0.5000000000000000E+01
    0.2500000000000000E+01   -0.2500000000000000E+01    0.5000000000000000E+01
    0.3750000000000000E+01   -0.2500000000000000E+01    0.5000000000000000E+01
    0.4042003247744892E+01    0.1558308132739014E+01    0.5000000000000000E+01
    0.9304122287900499E+00   -0.1548001304379777E+01    0.5000000000000000E+01
    0.1037243024609388E+01    0.1462892710085612E+01    0.5000000000000000E+01
    0.3946240828834967E+01   -0.1445243809615570E+01    0.5000000000000000E+01
    0.4092527262848217E+01   -0.3455338993778935E+00    0.5000000000000000E+01
    0.4293103109154542E+01    0.6277660831404320E+00    0.5000000000000000E+01
    0.3241512314643519E+01    0.7429886854239611E+00    0.5000000000000000E+01
    0.2844289952419609E+01   -0.1588117879734118E+01    0.5000000000000000E+01
    0.7159905765450471E+00   -0.6002320124191652E+00    0.5000000000000000E+01
    0.1754341919796891E+01   -0.7398147869923652E+00    0.5000000000000000E+01
    0.1870296826774691E+01   -0.1788622905643739E+01    0.5000000000000000E+01
    0.9220614901912976E+00    0.3083720183248586E+00    0.5000000000000000E+01
    0.3101523624086016E+01    0.1777901774806180E+01    0.5000000000000000E+01
    0.2192512063922564E+01    0.1576861561598471E+01    0.5000000000000000E+01
    0.2024793420196460E+01    0.4773861992750707E+00    0.5000000000000000E+01
    0.2990627757741975E+01   -0.4878110785814084E+00    0.5000000000000000E+01
    0.0000000000000000E+00   -0.2500000000000000E+01    0.1250000000000000E+01
    0.0000000000000000E+00   -0.2500000000000000E+01    0.2500000000000000E+01
    0.0000000000000000E+00   -0.2500000000000000E+01    0.3750000000000000E+01
    0.0000000000000000E+00    0.1558308132739014E+01    0.4042003247744892E+01
    0.0000000000000000E+00   -0.1548001304379777E+01    0.9304122287900499E+00
    0.0000000000000000E+00    0.1462892710085612E+01    0.1037243024609388E+01
    0.0000000000000000E+00   -0.1445243809615570E+01    0.3946240828834967E+01
    0.0000000000000000E+00   -0.3455338993778935E+00    0.4092527262848217E+01
    0.0000000000000000E+00    0.6277660831404320E+00    0.4293103109154542E+01
    0.0000000000000000E+00    0.7429886854239611E+00    0.3241512314643519E+01
    0.0000000000000000E+00   -0.1588117879734118E+01    0.2844289952419609E+01
    0.0000000000000000E+00   -0.6002320124191652E+00    0.7159905765450471E+00
    0.0000000000000000E+00   -0.7398147869923652E+00    0.1754341919796891E+01
    0.0000000000000000E+00   -0.1788622905643739E+01    0.1870296826774691E+01
    0.0000000000000000E+00    0.3083720183248586E+00    0.9220614901912976E+00
    0.0000000000000000E+00    0.1777901774806180E+01    0.3101523624086016E+01
    0.0000000000000000E+00    0.1576861561598471E+01    0.2192512063922564E+01
[...]
POINT_DATA 213
SCALARS p double 1
LOOKUP_TABLE default
   0.9601845155477393E+00
   0.6835473103018664E+00
   0.6759189504333268E+00
   0.6727508968917368E+00
   0.6026580335039904E+00
   0.5527091966415436E+00
   0.5449831999322440E+00
   0.5474673110370425E+00
   0.5934169758159511E+00
   0.6680655387681053E+00
   0.6672970447636171E+00
   0.6869377172404837E+00
   0.1035321206557754E+01
   0.1067201175372716E+01
   0.1174754240023347E+01
   0.1018442573370035E+01
   0.7207176805094736E+00
   0.6791965952914486E+00
   0.6740293280623514E+00
   0.6843919383696794E+00
   0.6725551028173945E+00
   0.7402627966984004E+00
   0.6611480818149430E+00
   0.6658774069490894E+00
   0.6812434204901717E+00
   0.6799071643225404E+00
   0.6677516337871616E+00
   0.6831384973607463E+00
   0.6697152107431668E+00
   0.6643262413303103E+00
   0.6746471790081551E+00
   0.6331024692911060E+00
   0.6731069190554381E+00
   0.6772748434875012E+00
   0.7228666710344852E+00
   0.7222845624213543E+00
   0.7160302113987743E+00
   0.7170625202987350E+00
   0.7181468437571245E+00
   0.7195661519764524E+00
   0.7186153398570813E+00
   0.7227817391184044E+00
   0.7373953352567727E+00
   0.7823406756255651E+00
   0.7197264245286531E+00
   0.7165465779192507E+00
   0.6760938169992515E+00
   0.7194413265871050E+00
   0.7166029878478059E+00
   0.7226829843834527E+00
   0.7260674975761420E+00
   0.7165517043377226E+00
   0.7137009869923542E+00
   0.7161286904679808E+00
   0.7158478767335107E+00
   0.6952018675146354E+00
   0.6962508841536501E+00
   0.6900665434102703E+00
   0.6913089795966674E+00
   0.7033441246754079E+00
   0.7094478155987728E+00
   0.7160833735839877E+00
   0.7162552076409113E+00
   0.7165049269121656E+00
   0.7158928445546090E+00
   0.7247708367815869E+00
   0.7209599545189663E+00
   0.6725919880831676E+00
   0.6451085640732011E+00
   0.7221025576351369E+00
   0.7196943032259954E+00
   0.6358206527864987E+00
   0.6307827445564111E+00
   0.5995173698301541E+00
   0.6915343391500032E+00
   0.7155282450296093E+00
   0.7212040398329328E+00
   0.7290141323014093E+00
   0.7268955336597308E+00
   0.7265266059334825E+00
   0.7204471248961590E+00
   0.7037444767580937E+00
   0.7205074966194488E+00
   0.7023659191092512E+00
   0.7220890773368623E+00
   0.7185312085352619E+00
   0.7171994295585348E+00
   0.7176369204989380E+00
   0.7184006897569785E+00
   0.7193130075350748E+00
   0.7173680147570950E+00
   0.7166089659538718E+00
   0.7163146654842822E+00
   0.7184764250991181E+00
   0.7186511419228216E+00
   0.7154648443890695E+00
   0.7160688472487667E+00
   0.7162707938027995E+00
   0.7172831814460182E+00
   0.7174033064908224E+00
   0.7175449638397001E+00
   0.7186986065345339E+00
   0.7185412323982771E+00
   0.7180782876372905E+00
   0.7177507431264435E+00
   0.7184735360461890E+00
   0.7184296521431073E+00
   0.7175640740629418E+00
   0.7910434629116880E+00
   0.7417999441269718E+00
   0.7240566736516109E+00
   0.7207851107314086E+00
   0.8583176006093636E+00
   0.8087267757538367E+00
   0.7221080354704019E+00
   0.7211516614671648E+00
   0.7210135132595633E+00
   0.7257593076446119E+00
   0.7326285648460097E+00
   0.9166209029718498E+00
   0.7574554448679451E+00
   0.7600190777792745E+00
   0.8794469306374564E+00
   0.7291884297149396E+00
   0.7461260090011821E+00
   0.7435541449073838E+00
   0.7280652157813891E+00
   0.7236947042429901E+00
   0.7165806086495076E+00
   0.6757029322212740E+00
   0.7210108034391055E+00
   0.7177373333455960E+00
   0.7243729487748557E+00
   0.7309378121448160E+00
   0.7153766778886393E+00
   0.7126913384522248E+00
   0.7132990563215188E+00
   0.7154576057395083E+00
   0.6958117598440933E+00
   0.6940933062661178E+00
   0.6792012807287925E+00
   0.6842577086398484E+00
   0.7023439178033033E+00
   0.7064296243118341E+00
   0.7092517866309879E+00
   0.7176151298218115E+00
   0.7173908200790823E+00
   0.7117195905978492E+00
   0.7288326333446323E+00
   0.7352321360051877E+00
   0.7097529162518367E+00
   0.7230455678535559E+00
   0.7189791916705823E+00
   0.7231643779623521E+00
   0.7128302225873925E+00
   0.6918504637629285E+00
   0.7175393452646613E+00
   0.7113154979357132E+00
   0.6973279624916525E+00
   0.7095405538779070E+00
   0.7134567382711200E+00
   0.7078904121401609E+00
   0.7159200749402449E+00
   0.7175571862517133E+00
   0.7166975901857263E+00
   0.7110659181758222E+00
   0.7103508600061372E+00
   0.7187208278445870E+00
   0.7362201555630626E+00
   0.7210422355873604E+00
   0.6966939876542927E+00
   0.7191728444002731E+00
   0.7279740090249297E+00
   0.6957914474939918E+00
   0.6741415907434647E+00
   0.7020823261284624E+00
   0.7006030424522255E+00
   0.6996547448076428E+00
   0.7043407759422344E+00
   0.6875488819675593E+00
   0.7541447940738086E+00
   0.7257239704585564E+00
   0.7163731692175774E+00
   0.7164943092979456E+00
   0.7072985185806477E+00
   0.7062391110598217E+00
   0.6798336870339476E+00
   0.7081026182658701E+00
   0.7211943251533078E+00
   0.7177390946395740E+00
   0.7069477360009604E+00
   0.6847284642234863E+00
   0.6585994764813676E+00
   0.6907374806999526E+00
   0.6956030741951683E+00
   0.6931212099588263E+00
   0.6873770604045550E+00
   0.6731747493202808E+00
   0.6669557217733545E+00
   0.6793679355802985E+00
   0.7172155409276449E+00
   0.7168066987559024E+00
   0.7154500726147871E+00
   0.7175318360258013E+00
   0.6789124859453487E+00
   0.6691427893520493E+00
   0.6790157377839309E+00
   0.7156264304675021E+00
   0.7152943167205325E+00
   0.7168560012454249E+00
   0.6951126825690811E+00
   0.6910823000686601E+00
   0.6838696947311061E+00
SCALARS mach double 1
LOOKUP_TABLE default
   0.0000000000000000E+00
   0.0000000000000000E+00
   0.0000000000000000E+00
   0.0000000000000000E+00
   0.0000000000000000E+00
   0.0000000000000000E+00
   0.0000000000000000E+00
   0.0000000000000000E+00
   0.0000000000000000E+00
   0.0000000000000000E+00
   0.0000000000000000E+00
   0.0000000000000000E+00
   0.0000000000000000E+00
   0.0000000000000000E+00
   0.0000000000000000E+00
   0.0000000000000000E+00
   0.0000000000000000E+00
   0.0000000000000000E+00
   0.0000000000000000E+00
   0.0000000000000000E+00
   0.0000000000000000E+00
   0.0000000000000000E+00
   0.0000000000000000E+00
   0.0000000000000000E+00
   0.0000000000000000E+00
   0.0000000000000000E+00
   0.0000000000000000E+00
   0.0000000000000000E+00
   0.0000000000000000E+00
   0.0000000000000000E+00
   0.0000000000000000E+00
   0.0000000000000000E+00
   0.0000000000000000E+00
   0.5092323037649400E+00
   0.5345271600598721E+00
   0.5171823647941524E+00
   0.4929807420353447E+00
   0.4845968577605408E+00
   0.4864608422664737E+00
   0.4885623411386876E+00
   0.4953465398588888E+00
   0.4889615786218950E+00
   0.4698148669744520E+00
   0.4412382384175380E+00
   0.4905632752834693E+00
   0.5094885575968310E+00
   0.4437678519713203E+00
   0.4944837109790965E+00
   0.5220519578400015E+00
   0.4956143703341357E+00
   0.5227304625255623E+00
   0.5036873989865928E+00
   0.5643915960218855E+00
   0.5242286114677618E+00
   0.4990054985700185E+00
   0.5758322004833858E+00
   0.5737074674305578E+00
   0.3775503471671862E+00
   0.4022869371873485E+00
   0.5625540660507121E+00
   0.5565869723642770E+00
   0.4941635462435133E+00
   0.4947389951574100E+00
   0.4923955240302590E+00
   0.4913522920401382E+00
   0.5149942170864574E+00
   0.5370022162505416E+00
   0.5084596364916042E+00
   0.4720988898769531E+00
   0.5119111033067421E+00
   0.5110368060727387E+00
   0.4956036369100028E+00
   0.5103554697190239E+00
   0.4808052325677828E+00
   0.5354789811338478E+00
   0.5337784356839052E+00
   0.5120042689754613E+00
   0.5311735670105187E+00
   0.5295543873160271E+00
   0.5292774970309393E+00
   0.5056211801613716E+00
   0.5358293578572151E+00
   0.5407861141491445E+00
   0.5429795838134547E+00
   0.5391876098452126E+00
   0.4961273456444261E+00
   0.4972462307224686E+00
   0.4960592144860624E+00
   0.4950982028481140E+00
   0.4900026574543915E+00
   0.4900363596121835E+00
   0.4860753826950094E+00
   0.4853478391684066E+00
   0.4928002856337078E+00
   0.4905628590081400E+00
   0.4832196414174095E+00
   0.4872140851447025E+00
   0.4879584823695234E+00
   0.4870688246658636E+00
   0.4880289887232215E+00
   0.4949509775617446E+00
   0.4896771309290470E+00
   0.4900050034975122E+00
   0.4940458255434729E+00
   0.4865281467371646E+00
   0.4888730321903992E+00
   0.4878198886566337E+00
   0.4876122486313262E+00
   0.4436240086395846E+00
   0.4677321423724233E+00
   0.4882119839690724E+00
   0.4879299973272193E+00
   0.4647755959851096E+00
   0.4752149617959949E+00
   0.4869643591497670E+00
   0.4862859860074347E+00
   0.4902660313799149E+00
   0.4787139199458462E+00
   0.4643820728443868E+00
   0.4023022523269641E+00
   0.4892982270183064E+00
   0.4457173574451521E+00
   0.4688277560540819E+00
   0.4830684643375328E+00
   0.4601235802720640E+00
   0.4644109927402630E+00
   0.4737954753863653E+00
   0.5010564966432207E+00
   0.5082472695027800E+00
   0.4353723760805078E+00
   0.4921557822752399E+00
   0.5316571483673910E+00
   0.4906636341615956E+00
   0.5207955505050108E+00
   0.5059809599972825E+00
   0.5689225772440589E+00
   0.5272528546997863E+00
   0.5013907269408059E+00
   0.5852859979365084E+00
   0.5726397790076422E+00
   0.3436299025008895E+00
   0.3809917255170524E+00
   0.5793733453284494E+00
   0.5674466901720278E+00
   0.5707661294922709E+00
   0.5288673964331695E+00
   0.5447474590389116E+00
   0.5732739120230180E+00
   0.5383806441936864E+00
   0.5542561315517360E+00
   0.5870628179332720E+00
   0.4918958744793646E+00
   0.5038453315881239E+00
   0.4955067278204141E+00
   0.5581662203493283E+00
   0.4899056718055844E+00
   0.4947398953947471E+00
   0.5497811457328831E+00
   0.5912734282908357E+00
   0.5845151587362150E+00
   0.5465424489527824E+00
   0.5815226277128072E+00
   0.5103942728974806E+00
   0.5026513029082799E+00
   0.5030709039236980E+00
   0.5675226865219637E+00
   0.5563190512932326E+00
   0.4944363731394774E+00
   0.5523477605155722E+00
   0.5528919770845341E+00
   0.5690574017283800E+00
   0.4915643892422825E+00
   0.4913819882927782E+00
   0.3894732803240154E+00
   0.3711849629133361E+00
   0.5592900273943752E+00
   0.5784861214005979E+00
   0.4227808972814306E+00
   0.5854894884602836E+00
   0.4393480216431636E+00
   0.5443824764486461E+00
   0.5169051720869315E+00
   0.5115816006739359E+00
   0.5046276635602127E+00
   0.5758026034190686E+00
   0.5884501120381632E+00
   0.5427329986858459E+00
   0.5687409126104577E+00
   0.5341715742022692E+00
   0.5330406777223624E+00
   0.5585868323881573E+00
   0.5562747606039464E+00
   0.4330679740450195E+00
   0.5315657940040871E+00
   0.5812984976526612E+00
   0.3318902791926165E+00
   0.4786018238901785E+00
   0.5494649428827748E+00
   0.4851060017402786E+00
   0.3009032500976521E+00
   0.5029782015281914E+00
   0.5014719330804374E+00
   0.5126186427360003E+00
   0.5407121718942871E+00
   0.3456736330976541E+00
   0.3422978623633161E+00
   0.3204824603095905E+00
   0.5064074398584518E+00
   0.5121142703829931E+00
   0.5323886048703581E+00
   0.5909251150627696E+00
   0.4690183149653105E+00
   0.3541837099611679E+00
SCALARS temperature double 1
LOOKUP_TABLE default
   0.9999904187439509E+00
   0.9999902842410930E+00
   0.9999902263044073E+00
   0.9999902711603142E+00
   0.9999903961955160E+00
   0.9999903251009402E+00
   0.9999903490633244E+00
   0.9999906181550470E+00
   0.9999912301544679E+00
   0.9999911750147156E+00
   0.9999911582301738E+00
   0.9999912260595798E+00
   0.9999912922636138E+00
   0.9999906769243704E+00
   0.9999903943935541E+00
   0.9999903571783548E+00
   0.9999902245546551E+00
   0.9999905055673309E+00
   0.9999901823768391E+00
   0.9999904954008713E+00
   0.9999901316158060E+00
   0.9999901939260135E+00
   0.9999900499547310E+00
   0.9999903548215247E+00
   0.9999901577726765E+00
   0.9999899912225478E+00
   0.9999904978856329E+00
   0.9999899965849425E+00
   0.9999901672054982E+00
   0.9999901434976086E+00
   0.9999900593683407E+00
   0.9999900346476428E+00
   0.9999899177723796E+00
   0.9841043811705171E+00
   0.1003683721223410E+01
   0.1004433210974130E+01
   0.1000476706994087E+01
   0.1000665751348424E+01
   0.1001268227397449E+01
   0.1002152699119680E+01
   0.1001793379380290E+01
   0.1003556628557809E+01
   0.1008262808963056E+01
   0.1029827230968470E+01
   0.9886521371072802E+00
   0.1001381938701186E+01
   0.9815421032174776E+00
   0.1001923920825071E+01
   0.1002521135199016E+01
   0.1002987900168984E+01
   0.1008348893206386E+01
   0.1000820588389885E+01
   0.1001185031722009E+01
   0.1001995390200142E+01
   0.1000565928730709E+01
   0.9904275776718463E+00
   0.9903553172095531E+00
   0.9824695913011523E+00
   0.9887741896630103E+00
   0.9943630279189091E+00
   0.9997692246426241E+00
   0.1000503922812861E+01
   0.1000621465200266E+01
   0.1000828645883072E+01
   0.1000454343310204E+01
   0.1004853122879874E+01
   0.1002896315712178E+01
   0.9850917226021932E+00
   0.9764441869810219E+00
   0.1003879557625770E+01
   0.1003053328688471E+01
   0.9735156224356111E+00
   0.9715373464230843E+00
   0.9590422463132937E+00
   0.9912164097602413E+00
   0.1001286366653580E+01
   0.1003832245025140E+01
   0.1007638713348925E+01
   0.1005965605409854E+01
   0.1006629459007545E+01
   0.1003140516235225E+01
   0.9944295457948394E+00
   0.1003551918731023E+01
   0.9972166527672852E+00
   0.1005285349677876E+01
   0.1001688464989914E+01
   0.1001187286908032E+01
   0.1001341730373622E+01
   0.1001761147819477E+01
   0.1001926597851942E+01
   0.1001099965995011E+01
   0.1000587759191276E+01
   0.1000253588867543E+01
   0.1001798764609467E+01
   0.1001783498458900E+01
   0.1000008749439293E+01
   0.1000222698478193E+01
   0.1000234979749689E+01
   0.1000724346063376E+01
   0.1000988578760053E+01
   0.1001326381275292E+01
   0.1001746384908939E+01
   0.1001637516190836E+01
   0.1001643690013868E+01
   0.1001123694270072E+01
   0.1001526554277870E+01
   0.1001330475552433E+01
   0.1000962764966439E+01
   0.1040433156200415E+01
   0.1009767949168304E+01
   0.1004053733961039E+01
   0.1002444031803359E+01
   0.1032397444809264E+01
   0.1042473028283186E+01
   0.1003033797687657E+01
   0.1002349690213324E+01
   0.1002603085939173E+01
   0.1003005513531733E+01
   0.1006175474792646E+01
   0.1038912142676150E+01
   0.1027028887843836E+01
   0.1016571602077993E+01
   0.1025206166937053E+01
   0.1006055667665628E+01
   0.1011900839875882E+01
   0.1012528404151084E+01
   0.1004595263783629E+01
   0.9844106347830631E+00
   0.1001215561524738E+01
   0.9846884342312414E+00
   0.1002545017774549E+01
   0.1003500376249891E+01
   0.1003264776467987E+01
   0.1010932883153872E+01
   0.1000580714550201E+01
   0.9998554983981226E+00
   0.1000556472938890E+01
   0.1000455896822812E+01
   0.9898389906439559E+00
   0.9900585075858722E+00
   0.9855238388398422E+00
   0.9895383125582329E+00
   0.9917985087403174E+00
   0.9978968769797667E+00
   0.1000400965215388E+01
   0.1002928558258110E+01
   0.1005009465885241E+01
   0.1002279703003677E+01
   0.1013233734168931E+01
   0.1006635885396391E+01
   0.9925740033020171E+00
   0.1003434985704466E+01
   0.1001788418142443E+01
   0.1003349499659057E+01
   0.1001319652099043E+01
   0.9637826611378612E+00
   0.1001225393206957E+01
   0.1000903114574424E+01
   0.9928717632823501E+00
   0.9989551449936679E+00
   0.1001501339109332E+01
   0.9978127227899086E+00
   0.1000980281595813E+01
   0.1001573633279236E+01
   0.1001190392996045E+01
   0.1000788636931542E+01
   0.1000698993210687E+01
   0.1001334721220316E+01
   0.1010421371427441E+01
   0.1004072678297321E+01
   0.9935537469268272E+00
   0.1001859627699122E+01
   0.1006698242874354E+01
   0.9867955118414568E+00
   0.9881132895862917E+00
   0.9963584724597975E+00
   0.9943139004800360E+00
   0.9875207418843323E+00
   0.9926775406506760E+00
   0.9669769651896548E+00
   0.1017801235995393E+01
   0.9830449477551062E+00
   0.1001476953562397E+01
   0.1001159236236380E+01
   0.9989610189550143E+00
   0.9976215471438248E+00
   0.9864411787466156E+00
   0.9980021111674768E+00
   0.1003591715442735E+01
   0.1002875116110136E+01
   0.9988426643023106E+00
   0.9841137820794349E+00
   0.9789347533474311E+00
   0.9848202834134926E+00
   0.9942458278325914E+00
   0.9999503678416262E+00
   0.9899999353661290E+00
   0.9860936308502996E+00
   0.9832197227671784E+00
   0.9981598236718928E+00
   0.1001438307329231E+01
   0.1001055069391372E+01
   0.1001120167979792E+01
   0.1002862438475842E+01
   0.9892632235790497E+00
   0.9869745022238202E+00
   0.9918309146810663E+00
   0.1000754883185673E+01
   0.1000915393201343E+01
   0.1002438904947136E+01
   0.9922712305457893E+00
   0.9866558204274957E+00
   0.9943597539472232E+00
SCALARS lambda1 double 1
LOOKUP_TABLE default
   0.5709498958848542E-02
   0.3521108003617718E-02
   0.1014145240265278E-02
  -0.1812465669993489E-02
  -0.2836437256144966E-02
  -0.2576543613556572E-02
  -0.3522656149828863E-02
  -0.2464484294832561E-02
  -0.3043775571263415E-02
  -0.2259691499870336E-02
  -0.1294698212656710E-02
   0.3268884233584835E-02
   0.4004926453006528E-02
   0.2207542368976586E-02
   0.5426580377906488E-02
   0.6868611834627016E-02
   0.3991287629471301E-02
  -0.2637087510131165E-02
  -0.2473200105831751E-02
   0.2646003074920663E-02
   0.1768061667224724E-02
   0.3557922633541956E-02
   0.1424668936718904E-02
   0.3762255812557871E-03
  -0.2944995007357784E-02
  -0.9367640475512026E-04
   0.6277575252908001E-04
  -0.1217765935275475E-02
  -0.2836501473327273E-02
   0.1391549347585683E-02
   0.1096917510107031E-03
   0.1919315696409274E-02
   0.6937171745588946E-03
  -0.9722658311387637E-02
  -0.4844419757820261E-02
  -0.3349638466825385E-02
  -0.3199261503227766E-02
  -0.1396186531741398E-01
  -0.2579130920246389E-01
  -0.2761225941523550E-01
  -0.3673049043472531E-01
  -0.9418303005028978E-02
  -0.2241350812283519E-02
   0.2814486574274646E-01
   0.3775919991830017E-01
  -0.2567536252284355E-02
   0.1363108843451243E-01
  -0.8790997629664711E-02
  -0.5189683667630490E-02
  -0.4506645585469927E-02
   0.1225191650895883E-03
  -0.3314309392195579E-02
  -0.4036212751202849E-02
  -0.2480169128495463E-02
  -0.3944455991507155E-02
  -0.5191703915559903E-02
  -0.6290393937810539E-02
   0.5582577708488777E-01
   0.5532733794097566E-01
   0.8466032504769690E-02
  -0.5389960717771715E-02
  -0.3190708513064429E-02
  -0.3007369900846129E-02
  -0.3720266608719648E-02
  -0.3840205058352188E-02
  -0.3305456737915017E-02
  -0.5035871797140797E-02
  -0.7623218778473852E-02
  -0.1216129769525731E-01
  -0.2693441235882638E-02
  -0.2702296934465483E-02
  -0.4820313378194218E-02
  -0.5879517213121245E-02
  -0.3995929317705698E-02
  -0.7274299197272555E-02
  -0.5794926402018935E-02
  -0.2423708759465097E-02
  -0.4207513948748101E-02
  -0.4149609239447691E-02
  -0.3522848133967488E-02
  -0.2179366112167071E-02
  -0.6429508507700095E-02
  -0.4265041210218534E-02
  -0.6083051346072860E-02
  -0.5301086944240462E-02
  -0.3807020826321092E-01
  -0.4224059222994056E-01
  -0.3747182386597225E-01
  -0.3522502966318841E-01
  -0.3175328054788296E-01
  -0.2795124886085047E-01
  -0.1459850887501633E-01
  -0.9722269751530205E-02
  -0.3165401610857940E-01
  -0.2760461348968827E-01
  -0.9576626377848037E-02
  -0.1210097532827575E-01
  -0.1198704314548421E-01
  -0.2028724965420363E-01
  -0.2182726551974425E-01
  -0.3934521249919234E-01
  -0.3596636995268195E-01
  -0.3358727404417333E-01
  -0.3385413834601524E-01
  -0.2142877824166217E-01
  -0.2682645204137347E-01
  -0.2901190293312614E-01
  -0.2305105739998895E-01
   0.3289599356284374E-01
  -0.4156983810767441E-02
  -0.8079088796603233E-02
  -0.9764426186807697E-02
   0.4893727521901960E-01
   0.4725145109322437E-01
  -0.7202946036149427E-02
  -0.8986936213954381E-02
  -0.1308337677281854E-01
  -0.7336744641894075E-02
  -0.5238745590610556E-02
   0.6668238696617422E-01
   0.5272053518798584E-02
   0.3408572079573031E-02