title="tecplot geometry and solution file"
variables = x y z mach temperature lambda1 lambda2 lambda3 lambda4 lambda5
zone t="boundary 1 bc-1", solutiontime= 0.2000000E+02, strandid=1001, i=32, j=46, f=feblock
  0.000000000000E+00  0.000000000000E+00  0.000000000000E+00  0.000000000000E+00  0.000000000000E+00  0.000000000000E+00  0.000000000000E+00
  0.000000000000E+00  0.000000000000E+00  0.000000000000E+00  0.000000000000E+00  0.000000000000E+00  0.000000000000E+00  0.000000000000E+00
  0.000000000000E+00  0.000000000000E+00  0.000000000000E+00  0.000000000000E+00  0.000000000000E+00  0.000000000000E+00  0.000000000000E+00
  0.000000000000E+00  0.000000000000E+00  0.000000000000E+00  0.000000000000E+00  0.000000000000E+00  0.000000000000E+00  0.000000000000E+00
  0.000000000000E+00  0.000000000000E+00  0.000000000000E+00  0.000000000000E+00
  0.250000000000E+01  0.250000000000E+01  0.125000000000E+01  0.146289271009E+01  0.157686156160E+01  0.308372018325E+00  0.000000000000E+00
 -0.125000000000E+01 -0.600232012419E+00  0.250000000000E+01  0.477386199275E+00  0.742988685424E+00 -0.739814786992E+00  0.177790177481E+01
  0.155830813274E+01  0.250000000000E+01 -0.250000000000E+01 -0.154800130438E+01 -0.487811078581E+00  0.250000000000E+01  0.627766083140E+00
 -0.345533899378E+00 -0.178862290564E+01 -0.158811787973E+01  0.125000000000E+01 -0.250000000000E+01 -0.144524380962E+01  0.000000000000E+00
 -0.125000000000E+01 -0.250000000000E+01 -0.250000000000E+01 -0.250000000000E+01
  0.000000000000E+00  0.125000000000E+01  0.000000000000E+00  0.103724302461E+01  0.219251206392E+01  0.922061490191E+00  0.000000000000E+00
  0.000000000000E+00  0.715990576545E+00  0.250000000000E+01  0.202479342020E+01  0.324151231464E+01  0.175434191980E+01  0.310152362409E+01
  0.404200324774E+01  0.375000000000E+01  0.000000000000E+00  0.930412228790E+00  0.299062775774E+01  0.500000000000E+01  0.429310310915E+01
  0.409252726285E+01  0.187029682677E+01  0.284428995242E+01  0.500000000000E+01  0.125000000000E+01  0.394624082883E+01  0.500000000000E+01
  0.500000000000E+01  0.250000000000E+01  0.375000000000E+01  0.500000000000E+01
  0.000000000000E+00  0.441238238418E+00  0.000000000000E+00  0.475214961796E+00  0.460123580272E+00  0.468827756054E+00  0.000000000000E+00
  0.000000000000E+00  0.402302252327E+00  0.469814866974E+00  0.464410992740E+00  0.478713919946E+00  0.489298227018E+00  0.483068464338E+00
  0.487929997327E+00  0.488961578622E+00  0.000000000000E+00  0.464775595985E+00  0.473795475386E+00  0.495346539859E+00  0.490266031380E+00
  0.486285986007E+00  0.445717357445E+00  0.464382072844E+00  0.496127345644E+00  0.443624008640E+00  0.486964359150E+00  0.497246230722E+00
  0.496059214486E+00  0.467732142372E+00  0.488211983969E+00  0.495098202848E+00
  0.999990418744E+00  0.102982723097E+01  0.999990357178E+00  0.104247302828E+01  0.101190083988E+01  0.102520616694E+01  0.999990394394E+00
  0.999990676924E+00  0.103891214268E+01  0.100826280896E+01  0.101252840415E+01  0.100300551353E+01  0.102702888784E+01  0.100605566767E+01
  0.100244403180E+01  0.100355662856E+01  0.999991292264E+00  0.103239744481E+01  0.100459526378E+01  0.100179337938E+01  0.100260308594E+01
  0.100234969021E+01  0.101657160208E+01  0.100617547479E+01  0.100168846499E+01  0.104043315620E+01  0.100303379769E+01  0.100118728691E+01
  0.100134173037E+01  0.100976794917E+01  0.100405373396E+01  0.100176114782E+01
  0.566418473392E-02  0.261539102085E-01  0.691918328339E-02  0.454629399165E-01  0.446295171170E-02  0.619939646194E-01  0.540786751898E-02
  0.212719176572E-02  0.656768370806E-01 -0.444797715733E-03  0.622544540321E-02 -0.726948998953E-02  0.758572540817E-02 -0.379583261692E-02
 -0.149421325404E-01 -0.105567554877E-01  0.387583310528E-02  0.472198970024E-01 -0.466408367531E-02 -0.290135145072E-01 -0.188058825588E-01
 -0.132673425102E-01  0.446550303555E-02 -0.454395865858E-02 -0.313390864780E-01  0.319602750230E-01 -0.108655703957E-01 -0.325805423760E-01
 -0.323341795782E-01 -0.219591698340E-02 -0.932711115132E-02 -0.326819823412E-01
  0.190147586376E-03  0.370303903336E-02  0.332402677799E-03  0.565873709755E-02  0.422672843941E-03  0.921811451372E-02  0.402045136709E-03
  0.426545848181E-03  0.971435701567E-02 -0.557515700953E-03  0.859131527237E-03 -0.163875732221E-02  0.688644588759E-03 -0.123277478097E-02
 -0.317275557941E-02 -0.249661660311E-02  0.369240508904E-03  0.735676663063E-02 -0.973376571022E-03 -0.560188428221E-02 -0.394377829487E-02
 -0.280406574041E-02  0.220764616826E-03 -0.940766892594E-03 -0.635395151312E-02  0.406107933634E-02 -0.234591584791E-02 -0.666778802829E-02
 -0.659013052111E-02 -0.667314305032E-03 -0.206681925485E-02 -0.661229662058E-02
  0.343705959822E-03  0.114425721044E-03  0.457803255886E-03  0.124908623783E-02  0.278184489411E-03  0.862716573290E-03  0.463695927770E-03
 -0.269125812775E-03  0.124342292694E-03 -0.108842943656E-04  0.221029584572E-03  0.248928530347E-03 -0.126275235169E-03  0.130035292682E-03
 -0.363773663244E-04 -0.200111429483E-04 -0.300824226120E-03 -0.101245038049E-02  0.756072932959E-04 -0.217644064488E-04  0.164955502724E-04
  0.663028046360E-04 -0.987489040726E-05 -0.103388420370E-03 -0.557386275352E-05 -0.126262156122E-03  0.528316389793E-05  0.265605691268E-04
 -0.243355597393E-04 -0.200772300835E-04  0.737773991073E-05  0.129537405373E-04
 -0.140099494929E-02 -0.142364284700E-02 -0.161769858968E-02  0.156722867410E-04  0.143628194291E-02  0.177927002541E-02 -0.962470445015E-03
 -0.929673759302E-03  0.122060849928E-02  0.145396591124E-02  0.322102039720E-02  0.185727215698E-02  0.363135094030E-02  0.157942048372E-02
  0.106932656017E-02  0.129644594972E-02 -0.745908326796E-03  0.945094680493E-03  0.219009569824E-02  0.443569848250E-03  0.911995862408E-03
  0.126697541786E-02  0.253833713697E-02  0.177912977133E-02  0.323410083429E-03  0.134508863655E-02  0.118014406112E-02  0.290050110512E-03
  0.381835251165E-03  0.196757658144E-02  0.123965559274E-02  0.436934270365E-03
 -0.453132748161E-02 -0.108061038207E-01 -0.665256353376E-02 -0.181725939418E-01 -0.188032340881E-02 -0.257412259467E-01  0.486407354586E-03
  0.114551527593E-02 -0.272784075917E-01  0.140439287078E-03 -0.270763800771E-02  0.284640566775E-02 -0.322746107551E-02  0.149303219277E-02
  0.614299183758E-02  0.430802121716E-02 -0.134102090543E-02 -0.196954743560E-01  0.168397936127E-02  0.119118478887E-01  0.777698753982E-02
  0.543754332594E-02 -0.198008460536E-02  0.162098598607E-02  0.129826913569E-01 -0.130009074189E-01  0.441441650707E-02  0.135211007573E-01
  0.133861410954E-01  0.705446968410E-03  0.376233386365E-02  0.135058829289E-01
        12        19        11        11
        11         5        12        12
        10        14         5         5
        19        13        11        11
        19        24        13        13
        30        23        24        24
        19        12        22        22
        28        22        21        21
        11        13         6         6
         7         6         9         9
        15        12        14        14
        18        13        23        23
        15        25        21        21
        27        19        22        22
        18         8         9         9
        27        31        24        24
         4        11         6         6
         5        14        12        12
         4         2         5         5
        21        12        15        15
        14        16        15        15
        24        19        27        27
        22        29        27        27
        23        26        18        18
        17         8        18        18
         5        11         4         4
         6         3         4         4
        26        23        30        30
         5         2        10        10
        16        14        10        10
         3         6         7         7
        21        25        28        28
        29        22        28        28
         6        13         9         9
         2         4         1         1
        31        27        32        32
        25        15        20        20
        24        23        13        13
         8         7         9         9
        13        18         9         9
        31        30        24        24
        12        21        22        22
        29        32        27        27
         3         1         4         4
        26        17        18        18
        16        20        15        15
zone t="boundary 2 bc-2", solutiontime= 0.2000000E+02, strandid=1002, i=33, j=48, f=feblock
  0.500000000000E+01  0.375000000000E+01  0.250000000000E+01  0.288078410721E+01  0.125000000000E+01  0.190974100652E+01  0.326683758169E+01
  0.201431602454E+01  0.000000000000E+00  0.963108083381E+00  0.500000000000E+01  0.403552511878E+01  0.423153924130E+01  0.500000000000E+01
  0.385533350601E+01  0.500000000000E+01  0.398173246726E+01  0.315249557942E+01  0.267000324704E+01  0.154774304040E+01  0.218329375016E+01
  0.893127759452E+00  0.000000000000E+00  0.698517061619E+00  0.964171764089E+00  0.310324758057E+01  0.000000000000E+00  0.000000000000E+00
  0.125000000000E+01  0.500000000000E+01  0.375000000000E+01  0.250000000000E+01  0.000000000000E+00
 -0.250000000000E+01 -0.250000000000E+01 -0.250000000000E+01 -0.250000000000E+01 -0.250000000000E+01 -0.250000000000E+01 -0.250000000000E+01
 -0.250000000000E+01 -0.250000000000E+01 -0.250000000000E+01 -0.250000000000E+01 -0.250000000000E+01 -0.250000000000E+01 -0.250000000000E+01
 -0.250000000000E+01 -0.250000000000E+01 -0.250000000000E+01 -0.250000000000E+01 -0.250000000000E+01 -0.250000000000E+01 -0.250000000000E+01
 -0.250000000000E+01 -0.250000000000E+01 -0.250000000000E+01 -0.250000000000E+01 -0.250000000000E+01 -0.250000000000E+01 -0.250000000000E+01
 -0.250000000000E+01 -0.250000000000E+01 -0.250000000000E+01 -0.250000000000E+01 -0.250000000000E+01
  0.000000000000E+00  0.000000000000E+00  0.000000000000E+00  0.904659890645E+00  0.000000000000E+00  0.717002441913E+00  0.188609243358E+01
  0.176246431481E+01  0.000000000000E+00  0.961328577125E+00  0.125000000000E+01  0.101201586758E+01  0.191586535653E+01  0.250000000000E+01
  0.293121848150E+01  0.375000000000E+01  0.406975391361E+01  0.363585050272E+01  0.285047954584E+01  0.292817774674E+01  0.395907379566E+01
  0.205246550326E+01  0.125000000000E+01  0.306828197606E+01  0.397245519226E+01  0.433168271247E+01  0.250000000000E+01  0.375000000000E+01
  0.500000000000E+01  0.500000000000E+01  0.500000000000E+01  0.500000000000E+01  0.500000000000E+01
  0.000000000000E+00  0.000000000000E+00  0.000000000000E+00  0.380991725517E+00  0.000000000000E+00  0.343629902501E+00  0.585285997937E+00
  0.579373345328E+00  0.000000000000E+00  0.501056496643E+00  0.508459636492E+00  0.435372376081E+00  0.572639779008E+00  0.537002216251E+00
  0.568922577244E+00  0.514994217086E+00  0.508247269503E+00  0.527252854700E+00  0.567446690172E+00  0.531657148367E+00  0.505980959997E+00
  0.520795550505E+00  0.443624008640E+00  0.490663634162E+00  0.492155782275E+00  0.501390726941E+00  0.467732142372E+00  0.488211983969E+00
  0.490002657454E+00  0.491352292040E+00  0.486075382695E+00  0.490036359612E+00  0.495098202848E+00
  0.999991230154E+00  0.999991175015E+00  0.999991158230E+00  0.989538312558E+00  0.999991226060E+00  0.985523838840E+00  0.989838990644E+00
  0.991798508740E+00  0.999991292264E+00  0.984410634783E+00  0.985091722602E+00  0.984688434231E+00  0.990058507586E+00  0.100289631571E+01
  0.999855498398E+00  0.100485312288E+01  0.100121556152E+01  0.100055647294E+01  0.997896876980E+00  0.100350037625E+01  0.100058071455E+01
  0.101093288315E+01  0.104043315620E+01  0.100326477647E+01  0.100254501777E+01  0.100045589682E+01  0.100976794917E+01  0.100405373396E+01
  0.100192659785E+01  0.100045434331E+01  0.100058775919E+01  0.100109996600E+01  0.100176114782E+01
 -0.299051691348E-02 -0.224588720481E-02 -0.123458654130E-02  0.332853656063E-01  0.312718752714E-02  0.980476120881E-01 -0.554706383021E-02
  0.282447012222E-02  0.387583310528E-02  0.465522232386E-01 -0.779583024813E-02 -0.741836421531E-02 -0.612674201737E-02 -0.499162533100E-02
 -0.364200837419E-02 -0.325999427859E-02 -0.247865977758E-02 -0.292110593179E-02 -0.474084858045E-02 -0.643816656742E-02 -0.382015162080E-02
  0.299717729640E-02  0.319602750230E-01 -0.239488797793E-02 -0.656648602650E-02 -0.483233720503E-02 -0.219591698340E-02 -0.932711115132E-02
 -0.329661334413E-01 -0.386951903676E-02 -0.148515951581E-01 -0.277181962909E-01 -0.326819823412E-01
  0.814136529356E-03 -0.242368968422E-03  0.379627900625E-04  0.564167525082E-02 -0.508050057374E-03  0.122268066521E-01 -0.113295274824E-03
 -0.264277472048E-03  0.369240508904E-03  0.563812687679E-02  0.167558035678E-02  0.315192137667E-03  0.748725617236E-03  0.128270574940E-02
  0.810335214106E-03  0.774836483314E-03  0.887446003753E-03  0.712886287127E-03  0.228613327152E-03 -0.711847721537E-03  0.207263373048E-03
 -0.924301549298E-04  0.406107933634E-02 -0.497726964427E-05 -0.908361047835E-03  0.312731023646E-03 -0.667314305032E-03 -0.206681925485E-02
 -0.582399483565E-02  0.187448774361E-03 -0.149658132713E-02 -0.419671140612E-02 -0.661229662058E-02
 -0.207363888942E-03  0.468645712395E-04  0.305067943200E-03  0.755194753140E-03  0.156297092853E-03  0.122698681581E-02 -0.929303734325E-04
  0.181815725685E-04 -0.300824226120E-03  0.472430099218E-03 -0.111198690298E-03 -0.343046789284E-03  0.583562527103E-05  0.942664426054E-05
  0.100708201826E-04 -0.153525478964E-04  0.305954906360E-05 -0.445094826302E-05  0.269514094753E-04  0.366004129165E-04 -0.211235123183E-04
  0.515099003370E-04 -0.126262156122E-03  0.176246690117E-04 -0.851268064802E-05 -0.729193845102E-05 -0.200772300835E-04  0.737773991073E-05
 -0.138584913113E-04 -0.205847362492E-05  0.249023919306E-07 -0.146834933814E-05  0.129537405373E-04
 -0.224660396116E-03 -0.264324024036E-03 -0.412918680638E-03  0.122083562415E-02 -0.889996217273E-03  0.155948243203E-03  0.197273526737E-02
  0.253183399899E-02 -0.745908326796E-03  0.115990702914E-02  0.402659798486E-03  0.137468632498E-02  0.788730617192E-03  0.337322162388E-03
  0.762915277838E-03  0.272041247313E-03  0.701497690900E-03  0.100571348456E-02  0.122626620213E-02  0.127760912171E-02  0.110050005506E-02
  0.185460642185E-02  0.134508863655E-02  0.132170308152E-02  0.110746725040E-02  0.937370085273E-03  0.196757658144E-02  0.123965559274E-02
  0.757850689788E-03  0.413546909273E-03  0.880054900960E-03  0.961990186808E-03  0.436934270365E-03
  0.823061026455E-03  0.255261045493E-02  0.439093093470E-02 -0.149932847403E-01  0.501557430306E-02 -0.419382371119E-01  0.166668350230E-02
 -0.121711171726E-02 -0.134102090543E-02 -0.192498944014E-01  0.173051189594E-02  0.209176101129E-02  0.157498786303E-02  0.954560671275E-03
  0.724464023849E-03  0.654507497206E-03  0.365702480639E-03  0.571086657968E-03  0.132517810771E-02  0.227618072203E-02  0.107378040072E-02
 -0.129463583323E-02 -0.130009074189E-01  0.635778535914E-03  0.242511804368E-02  0.140467427043E-02  0.705446968410E-03  0.376233386365E-02
  0.133879970008E-01  0.117234956014E-02  0.557967165622E-02  0.109872623010E-01  0.135058829289E-01
        15         7        19        19
         8        20        19        19
        18        19        21        21
         7         4         8         8
         3         6         4         4
        19         7         8         8
        19        18        15        15
        14        13        15        15
         8        22        20        20
        27        24        22        22
        19        20        21        21
        32        26        21        21
        17        18        26        26
        17        16        15        15
        25        29        21        21
        12         7        13        13
        10         8         6         6
        25        20        24        24
         4         6         8         8
        12         2         4         4
        10        23        22        22
        26        31        17        17
        30        16        17        17
         4         7        12        12
        13        11        12        12
        21        20        25        25
        24        28        25        25
        22         8        10        10
         6         5        10        10
        31        26        32        32
         4         2         3         3
         5         6         3         3
        11        13        14        14
        22        23        27        27
        28        24        27        27
        15        13         7         7
         2        12         1         1
        29        25        33        33
        23        10         9         9
        21        26        18        18
        16        14        15        15
        18        17        15        15
        29        32        21        21
        22        24        20        20
        28        33        25        25
        11         1        12        12
        31        30        17        17
         5         9        10        10
zone t="boundary 3 bc-3", solutiontime= 0.2000000E+02, strandid=1003, i=33, j=48, f=feblock
  0.375000000000E+01  0.250000000000E+01  0.500000000000E+01  0.403552511878E+01  0.288078410721E+01  0.125000000000E+01  0.190974100652E+01
  0.500000000000E+01  0.326683758169E+01  0.423153924130E+01  0.201431602454E+01  0.000000000000E+00  0.963108083381E+00  0.500000000000E+01
  0.267000324704E+01  0.385533350601E+01  0.893127759452E+00  0.154774304040E+01  0.000000000000E+00  0.500000000000E+01  0.315249557942E+01
  0.218329375016E+01  0.398173246726E+01  0.000000000000E+00  0.698517061619E+00  0.964171764089E+00  0.125000000000E+01  0.000000000000E+00
  0.500000000000E+01  0.310324758057E+01  0.250000000000E+01  0.375000000000E+01  0.000000000000E+00
  0.250000000000E+01  0.250000000000E+01  0.250000000000E+01  0.250000000000E+01  0.250000000000E+01  0.250000000000E+01  0.250000000000E+01
  0.250000000000E+01  0.250000000000E+01  0.250000000000E+01  0.250000000000E+01  0.250000000000E+01  0.250000000000E+01  0.250000000000E+01
  0.250000000000E+01  0.250000000000E+01  0.250000000000E+01  0.250000000000E+01  0.250000000000E+01  0.250000000000E+01  0.250000000000E+01
  0.250000000000E+01  0.250000000000E+01  0.250000000000E+01  0.250000000000E+01  0.250000000000E+01  0.250000000000E+01  0.250000000000E+01
  0.250000000000E+01  0.250000000000E+01  0.250000000000E+01  0.250000000000E+01  0.250000000000E+01
  0.000000000000E+00  0.000000000000E+00  0.000000000000E+00  0.101201586758E+01  0.904659890645E+00  0.000000000000E+00  0.717002441913E+00
  0.125000000000E+01  0.188609243358E+01  0.191586535653E+01  0.176246431481E+01  0.000000000000E+00  0.961328577125E+00  0.250000000000E+01
  0.285047954584E+01  0.293121848150E+01  0.205246550326E+01  0.292817774674E+01  0.125000000000E+01  0.375000000000E+01  0.363585050272E+01
  0.395907379566E+01  0.406975391361E+01  0.250000000000E+01  0.306828197606E+01  0.397245519226E+01  0.500000000000E+01  0.375000000000E+01
  0.500000000000E+01  0.433168271247E+01  0.500000000000E+01  0.500000000000E+01  0.500000000000E+01
  0.000000000000E+00  0.000000000000E+00  0.000000000000E+00  0.443767851971E+00  0.402286937187E+00  0.000000000000E+00  0.377550347167E+00
  0.509232303765E+00  0.575832200483E+00  0.573707467431E+00  0.562554066051E+00  0.000000000000E+00  0.490563275283E+00  0.534527160060E+00
  0.556586972364E+00  0.564391596022E+00  0.522730462526E+00  0.522051957840E+00  0.441238238418E+00  0.517182364794E+00  0.524228611468E+00
  0.503687398987E+00  0.509488557597E+00  0.469814866974E+00  0.495614370334E+00  0.494483710979E+00  0.488562341139E+00  0.488961578622E+00
  0.492980742035E+00  0.499005498570E+00  0.486460842266E+00  0.484596857761E+00  0.495346539859E+00
  0.999990271160E+00  0.999990226304E+00  0.999990396196E+00  0.981542103217E+00  0.988774189663E+00  0.999990284241E+00  0.982469591301E+00
  0.984104381171E+00  0.990427577672E+00  0.990355317210E+00  0.994363027919E+00  0.999990418744E+00  0.988652137107E+00  0.100368372122E+01
  0.999769224643E+00  0.100118503172E+01  0.100834889321E+01  0.100252113520E+01  0.102982723097E+01  0.100443321097E+01  0.100199539020E+01
  0.100082058839E+01  0.100138193870E+01  0.100826280896E+01  0.100298790017E+01  0.100192392083E+01  0.100215269912E+01  0.100355662856E+01
  0.100047670699E+01  0.100056592873E+01  0.100126822740E+01  0.100066575135E+01  0.100179337938E+01
 -0.172566230602E-02  0.876000106691E-03 -0.283706413203E-02  0.148844781032E-01  0.509178871463E-01  0.340567154366E-02  0.517830272121E-01
 -0.100174783828E-01 -0.432506854442E-02 -0.645440351032E-02  0.803011739406E-02  0.566418473392E-02  0.351067318562E-01 -0.478370487838E-02
 -0.558056968291E-02 -0.407833582259E-02 -0.346015564444E-03 -0.475805033860E-02  0.261539102085E-01 -0.330157276615E-02 -0.270755156711E-02
 -0.291339933950E-02 -0.251152208685E-02 -0.444797715733E-03 -0.311269804205E-02 -0.884698381918E-02 -0.310619836147E-01 -0.105567554877E-01
 -0.311066076167E-02 -0.431054560831E-02 -0.252471782694E-01 -0.143404545832E-01 -0.290135145072E-01
 -0.352566053732E-03 -0.322652342918E-03  0.676435393411E-03  0.427950678521E-02  0.693595817720E-02 -0.783573942819E-03  0.613932625035E-02
  0.154087272579E-02  0.144717455108E-03  0.834415674017E-03 -0.202663710531E-04  0.190147586376E-03  0.224161210722E-02  0.127327698491E-02
 -0.706590674893E-04  0.676079571119E-03 -0.123540989391E-02 -0.478918748275E-03  0.370303903336E-02  0.821924146715E-03  0.704657150806E-03
  0.401985632888E-03  0.837985654503E-03 -0.557515700953E-03 -0.821606530542E-03 -0.130889919880E-02 -0.537872609109E-02 -0.249661660311E-02
  0.313474922090E-03  0.357697147923E-03 -0.371185027258E-02 -0.145360530776E-02 -0.560188428221E-02
 -0.654107294628E-04  0.268160871005E-04  0.874704892435E-04 -0.243916512640E-03 -0.712425171032E-03  0.317357240691E-03  0.732794178643E-05
  0.519874979324E-05 -0.862571206663E-04  0.220642544875E-04 -0.607498729330E-04  0.343705959822E-03  0.441384177496E-03  0.353365621382E-04
 -0.258579993639E-05  0.622805013592E-05 -0.164033920754E-03 -0.572045562669E-04  0.114425721044E-03  0.183045434437E-04  0.652811923789E-05
  0.379700812036E-04  0.137352974829E-05 -0.108842943656E-04 -0.466993162760E-04  0.106379678953E-04  0.299521551903E-04 -0.200111429483E-04
  0.594794380958E-05  0.493912197521E-05  0.480987205967E-05  0.197445971300E-05 -0.217644064488E-04
 -0.437807817779E-03 -0.759691169565E-03 -0.234254392590E-03  0.458878968256E-03  0.921866736203E-03 -0.779645439234E-03  0.372531575036E-03
  0.355583912250E-03  0.181998573927E-02  0.905600074813E-03  0.256823302533E-02 -0.140099494929E-02  0.759123897547E-03  0.364394092562E-03
  0.101947892575E-02  0.826561224965E-03  0.211801863756E-02  0.112220337546E-02 -0.142364284700E-02  0.345417450140E-03  0.969636465830E-03
  0.994447306675E-03  0.748345630895E-03  0.145396591124E-02  0.146163196185E-02  0.104237147688E-02  0.758628338963E-03  0.129644594972E-02
  0.379595622964E-03  0.923948913806E-03  0.947784958373E-03  0.858028048692E-03  0.443569848250E-03
  0.643806193472E-02  0.294737444555E-02  0.134460505184E-02 -0.780701431960E-02 -0.221784874030E-01  0.349934620769E-03 -0.217721813291E-01
  0.259352310191E-02  0.120475138686E-02  0.168672741738E-02 -0.316353322996E-02 -0.453132748161E-02 -0.137503398030E-01  0.890312245753E-03
  0.175083164512E-02  0.930911882816E-03  0.214219185167E-03  0.159755509996E-02 -0.108061038207E-01  0.640434335192E-03  0.500338989366E-03
  0.689014142808E-03  0.397255178874E-03  0.140439287078E-03  0.105951969117E-02  0.337606493390E-02  0.125776227964E-01  0.430802121716E-02
  0.866504241332E-03  0.120803711886E-02  0.996138072709E-02  0.538219865811E-02  0.119118478887E-01
        15         9        16        16
        15        18        11        11
        22        15        21        21
        11         5         9         9
         5         7         2         2
        11         9        15        15
        16        21        15        15
        16        10        14        14
        18        17        11        11
        17        25        24        24
        22        18        15        15
        22        30        31        31
        30        21        23        23
        16        20        23        23
        22        27        26        26
        10         9         4         4
         7        11        13        13
        25        18        26        26
        11         7         5         5
         5         1         4         4
        17        19        13        13
        23        32        30        30
        23        20        29        29
         4         9         5         5
         4         8        10        10
        26        18        22        22
        26        28        25        25
        13        11        17        17
        13         6         7         7
        31        30        32        32
         2         1         5         5
         2         7         6         6
        14        10         8         8
        24        19        17        17
        24        25        28        28
         9        10        16        16
         3         4         1         1
        33        26        27        27
        12        13        19        19
        21        30        22        22
        16        14        20        20
        16        23        21        21
        22        31        27        27
        18        25        17        17
        26        33        28        28
         4         3         8         8
        23        29        32        32
        13        12         6         6
zone t="boundary 4 bc-4", solutiontime= 0.2000000E+02, strandid=1004, i=32, j=46, f=feblock
  0.125000000000E+01  0.219251206392E+01  0.103724302461E+01  0.500000000000E+01  0.250000000000E+01  0.375000000000E+01  0.404200324774E+01
  0.500000000000E+01  0.000000000000E+00  0.310152362409E+01  0.202479342020E+01  0.324151231464E+01  0.922061490191E+00  0.000000000000E+00
  0.299062775774E+01  0.394624082883E+01  0.500000000000E+01  0.409252726285E+01  0.500000000000E+01  0.429310310915E+01  0.175434191980E+01
  0.284428995242E+01  0.000000000000E+00  0.000000000000E+00  0.715990576545E+00  0.930412228790E+00  0.125000000000E+01  0.187029682677E+01
  0.500000000000E+01  0.375000000000E+01  0.250000000000E+01  0.000000000000E+00
  0.250000000000E+01  0.157686156160E+01  0.146289271009E+01  0.250000000000E+01  0.250000000000E+01  0.250000000000E+01  0.155830813274E+01
  0.125000000000E+01  0.250000000000E+01  0.177790177481E+01  0.477386199275E+00  0.742988685424E+00  0.308372018325E+00  0.125000000000E+01
 -0.487811078581E+00 -0.144524380962E+01 -0.125000000000E+01 -0.345533899378E+00  0.000000000000E+00  0.627766083140E+00 -0.739814786992E+00
 -0.158811787973E+01  0.000000000000E+00 -0.125000000000E+01 -0.600232012419E+00 -0.154800130438E+01 -0.250000000000E+01 -0.178862290564E+01
 -0.250000000000E+01 -0.250000000000E+01 -0.250000000000E+01 -0.250000000000E+01
  0.500000000000E+01  0.500000000000E+01  0.500000000000E+01  0.500000000000E+01  0.500000000000E+01  0.500000000000E+01  0.500000000000E+01
  0.500000000000E+01  0.500000000000E+01  0.500000000000E+01  0.500000000000E+01  0.500000000000E+01  0.500000000000E+01  0.500000000000E+01
  0.500000000000E+01  0.500000000000E+01  0.500000000000E+01  0.500000000000E+01  0.500000000000E+01  0.500000000000E+01  0.500000000000E+01
  0.500000000000E+01  0.500000000000E+01  0.500000000000E+01  0.500000000000E+01  0.500000000000E+01  0.500000000000E+01  0.500000000000E+01
  0.500000000000E+01  0.500000000000E+01  0.500000000000E+01  0.500000000000E+01
  0.488562341139E+00  0.488873032190E+00  0.490562859008E+00  0.492980742035E+00  0.486460842266E+00  0.484596857761E+00  0.485347839168E+00
  0.494163546244E+00  0.495346539859E+00  0.486528146737E+00  0.487819888657E+00  0.487068824666E+00  0.494045825543E+00  0.496127345644E+00
  0.487612248631E+00  0.483219641417E+00  0.492395524030E+00  0.487214085145E+00  0.494738995157E+00  0.487958482370E+00  0.489677130929E+00
  0.488028988723E+00  0.497246230722E+00  0.496059214486E+00  0.494950977562E+00  0.492800285634E+00  0.490002657454E+00  0.490005003498E+00
  0.491352292040E+00  0.486075382695E+00  0.490036359612E+00  0.495098202848E+00
  0.100215269912E+01  0.100152655428E+01  0.100178349846E+01  0.100047670699E+01  0.100126822740E+01  0.100066575135E+01  0.100025358887E+01
  0.100050392281E+01  0.100179337938E+01  0.100112369427E+01  0.100133047555E+01  0.100072434606E+01  0.100164369001E+01  0.100168846499E+01
  0.100096276497E+01  0.100000874944E+01  0.100082864588E+01  0.100022269848E+01  0.100062146520E+01  0.100023497975E+01  0.100174638491E+01
  0.100098857876E+01  0.100118728691E+01  0.100134173037E+01  0.100132638128E+01  0.100179876461E+01  0.100192659785E+01  0.100163751619E+01
  0.100045434331E+01  0.100058775919E+01  0.100109996600E+01  0.100176114782E+01
 -0.310619836147E-01 -0.264322515472E-01 -0.280096795836E-01 -0.311066076167E-02 -0.252471782694E-01 -0.143404545832E-01 -0.977964933678E-02
 -0.314365973245E-02 -0.290135145072E-01 -0.213486819181E-01 -0.294676693047E-01 -0.205792039054E-01 -0.310303674143E-01 -0.313390864780E-01
 -0.229572353587E-01 -0.960135898993E-02 -0.373216065013E-02 -0.123890489811E-01 -0.294605009368E-02 -0.120119548982E-01 -0.359465764454E-01
 -0.212148540733E-01 -0.325805423760E-01 -0.323341795782E-01 -0.374336788682E-01 -0.318903305764E-01 -0.329661334413E-01 -0.324112576617E-01
 -0.386951903676E-02 -0.148515951581E-01 -0.277181962909E-01 -0.326819823412E-01