title="tecplot geometry and solution file"
variables = x y z mach temperature lambda1 lambda2 lambda3 lambda4 lambda5
zone t="boundary 1 bc-1", solutiontime= 0.2000000E+02, strandid=1001, i=32, j=46, f=feblock
 -0.547468544169E-02  0.000000000000E+00 -0.567606031243E-02  0.000000000000E+00  0.000000000000E+00  0.000000000000E+00 -0.525159244851E-02
 -0.425776897977E-02  0.000000000000E+00  0.000000000000E+00  0.000000000000E+00  0.000000000000E+00  0.000000000000E+00  0.000000000000E+00
  0.000000000000E+00  0.000000000000E+00 -0.338395986572E-02  0.000000000000E+00  0.000000000000E+00  0.000000000000E+00  0.000000000000E+00
  0.000000000000E+00  0.000000000000E+00  0.000000000000E+00  0.000000000000E+00  0.000000000000E+00  0.000000000000E+00  0.000000000000E+00
  0.000000000000E+00  0.000000000000E+00  0.000000000000E+00  0.000000000000E+00
  0.250494197117E+01  0.250494197117E+01  0.127822156907E+01  0.146289271009E+01  0.157686156160E+01  0.308372018325E+00  0.261948602442E-01
 -0.122573481164E+01 -0.600232012419E+00  0.250494197117E+01  0.477386199275E+00  0.742988685424E+00 -0.739814786992E+00  0.177790177481E+01
  0.155830813274E+01  0.250494197117E+01 -0.249658903664E+01 -0.154800130438E+01 -0.487811078581E+00  0.250494197117E+01  0.627766083140E+00
 -0.345533899378E+00 -0.178862290564E+01 -0.158811787973E+01  0.125000000000E+01 -0.249658903664E+01 -0.144524380962E+01  0.000000000000E+00
 -0.125000000000E+01 -0.249658903664E+01 -0.249658903664E+01 -0.249658903664E+01
  0.803813859866E-04  0.125000000000E+01  0.822460170216E-04  0.103724302461E+01  0.219251206392E+01  0.922061490191E+00  0.103872438719E-03
  0.341545874231E-04  0.715990576545E+00  0.250000000000E+01  0.202479342020E+01  0.324151231464E+01  0.175434191980E+01  0.310152362409E+01
  0.404200324774E+01  0.375000000000E+01  0.810725962649E-04  0.930412228790E+00  0.299062775774E+01  0.500000000000E+01  0.429310310915E+01
  0.409252726285E+01  0.187029682677E+01  0.284428995242E+01  0.500000000000E+01  0.125000000000E+01  0.394624082883E+01  0.500000000000E+01
  0.500000000000E+01  0.250000000000E+01  0.375000000000E+01  0.500000000000E+01
  0.000000000000E+00  0.440672136512E+00  0.000000000000E+00  0.474618025820E+00  0.460125068601E+00  0.468639320143E+00  0.000000000000E+00
  0.000000000000E+00  0.402534623939E+00  0.469886789982E+00  0.464193107367E+00  0.478749739491E+00  0.489555756507E+00  0.483130037990E+00
  0.488002902366E+00  0.489035017215E+00  0.000000000000E+00  0.465237698331E+00  0.473759127176E+00  0.495364848064E+00  0.490293257191E+00
  0.486276632093E+00  0.445850265191E+00  0.464356446519E+00  0.496127940578E+00  0.443891909404E+00  0.486928147025E+00  0.497248366859E+00
  0.496055083747E+00  0.467740399690E+00  0.488187228171E+00  0.495089980244E+00
  0.999990300362E+00  0.102982970104E+01  0.999990762612E+00  0.104241436388E+01  0.101187663318E+01  0.102516400612E+01  0.999991420552E+00
  0.999992171067E+00  0.103882325429E+01  0.100825795511E+01  0.101253536096E+01  0.100301645575E+01  0.102705594255E+01  0.100604114309E+01
  0.100244532432E+01  0.100354817652E+01  0.999992724186E+00  0.103209991946E+01  0.100459425771E+01  0.100178625606E+01  0.100260326526E+01
  0.100234745937E+01  0.101657167924E+01  0.100620610961E+01  0.100168369530E+01  0.104025009063E+01  0.100303477791E+01  0.100118721261E+01
  0.100134451878E+01  0.100976460100E+01  0.100405634212E+01  0.100176433139E+01
  0.610154603819E-02  0.305913149748E-01  0.699093194416E-02  0.492234550215E-01  0.351669653567E-02  0.587194592857E-01  0.512419537088E-02
  0.170433352621E-02  0.582471638927E-01 -0.159076003641E-02  0.393977783576E-02 -0.698788331342E-02  0.330121525002E-02 -0.386290432438E-02
 -0.947235358281E-02 -0.930207455738E-02  0.308556696734E-02  0.385122495738E-01 -0.511750989779E-02 -0.338335848739E-01 -0.122974629737E-01
 -0.820123686803E-02  0.187693295579E-02 -0.441392956822E-02 -0.350358219261E-01  0.248596939727E-01 -0.639774782186E-02 -0.385404465931E-01
 -0.341437583874E-01 -0.355494571619E-02 -0.698142768469E-02 -0.321459500241E-01
  0.239576642022E-03  0.443334812911E-02  0.332238863039E-03  0.628703077142E-02  0.175876644433E-03  0.887951446121E-02  0.361802499986E-03
  0.321944694005E-03  0.867340688064E-02 -0.771487547745E-03  0.358102388733E-03 -0.147813343403E-02 -0.932480867788E-04 -0.113972459373E-02
 -0.186718809137E-02 -0.205406679455E-02  0.284536785359E-03  0.600367049739E-02 -0.102658631358E-02 -0.693214559419E-02 -0.244754517821E-02
 -0.157983960127E-02 -0.204447099241E-03 -0.848964247083E-03 -0.732553299884E-02  0.306290317585E-02 -0.126830965615E-02 -0.808744824269E-02
 -0.713652829417E-02 -0.894252803401E-03 -0.149022653296E-02 -0.668016682966E-02
  0.405285102735E-03  0.128177088524E-03  0.546134579951E-03  0.124763218537E-02  0.148966243753E-03  0.609655911975E-03  0.468422259256E-03
 -0.174599988713E-03 -0.323884187011E-04 -0.133033013569E-04  0.127229154868E-03  0.134648176154E-03 -0.142028250625E-03  0.264661058787E-04
 -0.504859963044E-04 -0.341923454596E-05 -0.245245382290E-03 -0.795032983911E-03  0.145046224820E-04  0.263913796071E-05 -0.315927154099E-04
 -0.362062319635E-04 -0.167876375788E-04 -0.136579896891E-03  0.854147381084E-04 -0.102414461870E-03 -0.764780839138E-04 -0.183737761199E-04
 -0.763924736697E-04 -0.218401306323E-04 -0.760972947520E-05  0.663185915975E-05
 -0.147350184120E-02 -0.135022502325E-02 -0.160833473188E-02 -0.117789429619E-04  0.141729223557E-02  0.153390525549E-02 -0.900207221386E-03
 -0.785918954946E-03  0.108588623260E-02  0.154665668000E-02  0.289992635198E-02  0.159882163685E-02  0.319727016578E-02  0.148379519514E-02
  0.109470390059E-02  0.128981940153E-02 -0.609565367084E-03  0.915498601684E-03  0.183757508483E-02  0.459636413213E-03  0.101287300484E-02
  0.121139855494E-02  0.217768204805E-02  0.148915105117E-02  0.437760205366E-03  0.112576757962E-02  0.111054514124E-02  0.413706274477E-03
  0.496817368992E-03  0.168545793032E-02  0.113884763460E-02  0.489219999171E-03
 -0.487240360434E-02 -0.125994926541E-01 -0.666183147183E-02 -0.196994971627E-01 -0.146243763879E-02 -0.243737682671E-01  0.325185688599E-03
  0.104506878523E-02 -0.242056678115E-01  0.639067388197E-03 -0.172206010951E-02  0.273147312229E-02 -0.142437623542E-02  0.152194330367E-02
  0.378880542770E-02  0.375276725505E-02 -0.101624442438E-02 -0.161008746210E-01  0.189448694960E-02  0.140414886361E-01  0.497246948330E-02
  0.324822156293E-02 -0.902257777761E-03  0.158019648908E-02  0.145692412190E-01 -0.101345467266E-01  0.249881835917E-02  0.160731183570E-01
  0.142068172598E-01  0.128999252350E-02  0.277462123897E-02  0.133411540915E-01
        12        19        11        11
        11         5        12        12
        10        14         5         5
        19        13        11        11
        19        24        13        13
        30        23        24        24
        19        12        22        22
        28        22        21        21
        11        13         6         6
         7         6         9         9
        15        12        14        14
        18        13        23        23
        15        25        21        21
        27        19        22        22
        18         8         9         9
        27        31        24        24
         4        11         6         6
         5        14        12        12
         4         2         5         5
        21        12        15        15
        14        16        15        15
        24        19        27        27
        22        29        27        27
        23        26        18        18
        17         8        18        18
         5        11         4         4
         6         3         4         4
        26        23        30        30
         5         2        10        10
        16        14        10        10
         3         6         7         7
        21        25        28        28
        29        22        28        28
         6        13         9         9
         2         4         1         1
        31        27        32        32
        25        15        20        20
        24        23        13        13
         8         7         9         9
        13        18         9         9
        31        30        24        24
        12        21        22        22
        29        32        27        27
         3         1         4         4
        26        17        18        18
        16        20        15        15
zone t="boundary 2 bc-2", solutiontime= 0.2000000E+02, strandid=1002, i=33, j=48, f=feblock
  0.500195253374E+01  0.375034811161E+01  0.249861146299E+01  0.288036674177E+01  0.124717526933E+01  0.190856698521E+01  0.326577190273E+01
  0.201394856120E+01 -0.338395986572E-02  0.962374249381E+00  0.500000000000E+01  0.403430190008E+01  0.423029563807E+01  0.500000000000E+01
  0.385439188940E+01  0.500000000000E+01  0.398133433176E+01  0.315200081417E+01  0.266958028869E+01  0.154798029824E+01  0.218327860466E+01
  0.893688440338E+00  0.000000000000E+00  0.699009761768E+00  0.964460899052E+00  0.310303671659E+01  0.000000000000E+00  0.000000000000E+00
  0.125000000000E+01  0.500000000000E+01  0.375000000000E+01  0.250000000000E+01  0.000000000000E+00
 -0.249658903664E+01 -0.249658903664E+01 -0.249658903664E+01 -0.249658903664E+01 -0.249658903664E+01 -0.249658903664E+01 -0.249658903664E+01
 -0.249658903664E+01 -0.249658903664E+01 -0.249658903664E+01 -0.249658903664E+01 -0.249658903664E+01 -0.249658903664E+01 -0.249658903664E+01
 -0.249658903664E+01 -0.249658903664E+01 -0.249658903664E+01 -0.249658903664E+01 -0.249658903664E+01 -0.249658903664E+01 -0.249658903664E+01
 -0.249658903664E+01 -0.249658903664E+01 -0.249658903664E+01 -0.249658903664E+01 -0.249658903664E+01 -0.249658903664E+01 -0.249658903664E+01
 -0.249658903664E+01 -0.249658903664E+01 -0.249658903664E+01 -0.249658903664E+01 -0.249658903664E+01
  0.108225889030E-03  0.145875369682E-03  0.100893326425E-03  0.901663374396E+00  0.110858761917E-03  0.714928318829E+00  0.188140648011E+01
  0.175892165504E+01  0.810725962649E-04  0.957504300331E+00  0.125000000000E+01  0.100596698996E+01  0.191313519089E+01  0.250000000000E+01
  0.292898096716E+01  0.375000000000E+01  0.406883369524E+01  0.363389289944E+01  0.284756860985E+01  0.292582308120E+01  0.395754054931E+01
  0.205027256979E+01  0.125000000000E+01  0.306703272692E+01  0.397155766662E+01  0.433068622168E+01  0.250000000000E+01  0.375000000000E+01
  0.500000000000E+01  0.500000000000E+01  0.500000000000E+01  0.500000000000E+01  0.500000000000E+01
  0.000000000000E+00  0.000000000000E+00  0.000000000000E+00  0.380534933893E+00  0.000000000000E+00  0.343213081171E+00  0.585244496925E+00
  0.579499344205E+00  0.000000000000E+00  0.500959578913E+00  0.508769460148E+00  0.434312419771E+00  0.572817919451E+00  0.537160208080E+00
  0.569105645782E+00  0.515014970171E+00  0.508256765061E+00  0.527354036988E+00  0.567656182489E+00  0.531857069084E+00  0.506013391179E+00
  0.521044573739E+00  0.443891909404E+00  0.490703078146E+00  0.492147926412E+00  0.501388000320E+00  0.467740399690E+00  0.488187228171E+00
  0.489959820989E+00  0.491323935798E+00  0.486019442841E+00  0.489980976742E+00  0.495089980244E+00
  0.999993488485E+00  0.999993690942E+00  0.999993544242E+00  0.989596674085E+00  0.999993139053E+00  0.985604091028E+00  0.989839488847E+00
  0.991730617690E+00  0.999992724186E+00  0.984220387528E+00  0.985139981863E+00  0.984817712566E+00  0.990066477090E+00  0.100292374828E+01
  0.999857731400E+00  0.100487268684E+01  0.100122724769E+01  0.100056983810E+01  0.997888256964E+00  0.100350942201E+01  0.100059365414E+01
  0.101090707434E+01  0.104025009063E+01  0.100327959733E+01  0.100254952730E+01  0.100046804572E+01  0.100976460100E+01  0.100405634212E+01
  0.100192626091E+01  0.100045827286E+01  0.100058947226E+01  0.100110091494E+01  0.100176433139E+01
 -0.252198610615E-02 -0.197804338197E-02 -0.121387789660E-02  0.239034021737E-01  0.241412511763E-02  0.782613258934E-01 -0.512536000229E-02
  0.961832392237E-03  0.308556696734E-02  0.364094397528E-01 -0.659917207183E-02 -0.758570767881E-02 -0.518403167665E-02 -0.442390258979E-02
 -0.325481866393E-02 -0.296895471401E-02 -0.218531540417E-02 -0.252936273996E-02 -0.417876185946E-02 -0.501929485694E-02 -0.330434610999E-02
  0.131476595593E-02  0.248596939727E-01 -0.335709295174E-02 -0.606968273761E-02 -0.397111837057E-02 -0.355494571619E-02 -0.698142768469E-02
 -0.289667874402E-01 -0.345722150109E-02 -0.132354184612E-01 -0.254316262909E-01 -0.321459500241E-01
  0.687738153132E-03 -0.192211051906E-03  0.186477442894E-04  0.410761244027E-02 -0.447024213726E-03  0.972432872761E-02 -0.187779552040E-04
 -0.383726809750E-03  0.284536785359E-03  0.430015283892E-02  0.149185171014E-02  0.591779389559E-04  0.756355834421E-03  0.113144178506E-02
  0.753107942400E-03  0.696283547967E-03  0.833854467800E-03  0.695122234278E-03  0.258584654712E-03 -0.426694530625E-03  0.294284561329E-03
 -0.357684228577E-03  0.306290317585E-02 -0.224475735348E-03 -0.701097624595E-03  0.408681017412E-03 -0.894252803401E-03 -0.149022653296E-02
 -0.520686371905E-02  0.174249483545E-03 -0.132950349647E-02 -0.394935800057E-02 -0.668016682966E-02
 -0.155567410344E-03  0.409798142003E-04  0.241571196302E-03  0.558002075800E-03  0.128341985550E-03  0.972946605790E-03 -0.760098224479E-04
  0.865450066640E-05 -0.245245382290E-03  0.373520965269E-03 -0.884414124664E-04 -0.284525463730E-03  0.523735234447E-05  0.836370068905E-05
  0.687070085962E-05 -0.133394040301E-04  0.162420070538E-05 -0.696542928851E-05  0.117461630920E-04  0.276193352709E-04 -0.170219679030E-04
  0.289476811935E-04 -0.102414461870E-03  0.557119789675E-05 -0.278541846345E-05 -0.593787209261E-05 -0.218401306323E-04 -0.760972947520E-05
 -0.288718531777E-05 -0.236938654689E-05  0.498757234393E-06  0.164146524590E-05  0.663185915975E-05
 -0.198499561070E-03 -0.204888183968E-03 -0.309778244341E-03  0.103293862552E-02 -0.716392053752E-03  0.222584453260E-03  0.156011832344E-02
  0.208676194209E-02 -0.609565367084E-03  0.979355523334E-03  0.298629626849E-03  0.108976515472E-02  0.626831590464E-03  0.283267731684E-03
  0.647104209572E-03  0.236834828394E-03  0.628963120536E-03  0.889020949037E-03  0.105445262465E-02  0.109628857821E-02  0.102426196275E-02
  0.165604216910E-02  0.112576757962E-02  0.116554497500E-02  0.102628814979E-02  0.885420927332E-03  0.168545793032E-02  0.113884763460E-02
  0.691248759993E-03  0.368642287379E-03  0.801650122899E-03  0.869885983410E-03  0.489219999171E-03
  0.717733819345E-03  0.197871956029E-02  0.342887256337E-02 -0.108932862949E-01  0.409116143397E-02 -0.335208353999E-01  0.152108071984E-02
 -0.492657028053E-03 -0.101624442438E-02 -0.150872201114E-01  0.142744318381E-02  0.229825056346E-02  0.127506603956E-02  0.848043644498E-03
  0.636150366105E-03  0.600284392264E-03  0.300176121815E-03  0.460122289296E-03  0.114451744027E-02  0.170704029098E-02  0.885542240942E-03
 -0.599787686206E-03 -0.101345467266E-01  0.107921982180E-02  0.221411305569E-02  0.108501721725E-02  0.128999252350E-02  0.277462123897E-02
  0.117689160813E-01  0.104487442327E-02  0.496665221810E-02  0.101107451474E-01  0.133411540915E-01
        15         7        19        19
         8        20        19        19
        18        19        21        21
         7         4         8         8
         3         6         4         4
        19         7         8         8
        19        18        15        15
        14        13        15        15
         8        22        20        20
        27        24        22        22
        19        20        21        21
        32        26        21        21
        17        18        26        26
        17        16        15        15
        25        29        21        21
        12         7        13        13
        10         8         6         6
        25        20        24        24
         4         6         8         8
        12         2         4         4
        10        23        22        22
        26        31        17        17
        30        16        17        17
         4         7        12        12
        13        11        12        12
        21        20        25        25
        24        28        25        25
        22         8        10        10
         6         5        10        10
        31        26        32        32
         4         2         3         3
         5         6         3         3
        11        13        14        14
        22        23        27        27
        28        24        27        27
        15        13         7         7
         2        12         1         1
        29        25        33        33
        23        10         9         9
        21        26        18        18
        16        14        15        15
        18        17        15        15
        29        32        21        21
        22        24        20        20
        28        33        25        25
        11         1        12        12
        31        30        17        17
         5         9        10        10
zone t="boundary 3 bc-3", solutiontime= 0.2000000E+02, strandid=1003, i=33, j=48, f=feblock
  0.375059096892E+01  0.249769609313E+01  0.500322133174E+01  0.403612218725E+01  0.287976772365E+01  0.124541910518E+01  0.190552237404E+01
  0.500000000000E+01  0.326671104552E+01  0.423253755448E+01  0.201271136506E+01 -0.547468544169E-02  0.958895643487E+00  0.500000000000E+01
  0.266968147299E+01  0.385584487271E+01  0.890374214836E+00  0.154654013699E+01  0.000000000000E+00  0.500000000000E+01  0.315261136744E+01
  0.218304199515E+01  0.398195307895E+01  0.000000000000E+00  0.697379952124E+00  0.963757277315E+00  0.125000000000E+01  0.000000000000E+00
  0.500000000000E+01  0.310330738524E+01  0.250000000000E+01  0.375000000000E+01  0.000000000000E+00
  0.250494197117E+01  0.250494197117E+01  0.250494197117E+01  0.250494197117E+01  0.250494197117E+01  0.250494197117E+01  0.250494197117E+01
  0.250494197117E+01  0.250494197117E+01  0.250494197117E+01  0.250494197117E+01  0.250494197117E+01  0.250494197117E+01  0.250494197117E+01
  0.250494197117E+01  0.250494197117E+01  0.250494197117E+01  0.250494197117E+01  0.250494197117E+01  0.250494197117E+01  0.250494197117E+01
  0.250494197117E+01  0.250494197117E+01  0.250494197117E+01  0.250494197117E+01  0.250494197117E+01  0.250494197117E+01  0.250494197117E+01
  0.250494197117E+01  0.250494197117E+01  0.250494197117E+01  0.250494197117E+01  0.250494197117E+01
  0.135649900494E-03  0.110129816467E-03  0.966887303890E-04  0.101756752009E+01  0.908094589218E+00  0.103942505801E-03  0.722629083213E+00
  0.125000000000E+01  0.188965661746E+01  0.191862696980E+01  0.176708239098E+01  0.803813859866E-04  0.969652551954E+00  0.250000000000E+01
  0.285339433501E+01  0.293325058812E+01  0.205656223819E+01  0.293157016932E+01  0.125000000000E+01  0.375000000000E+01  0.363766838842E+01
  0.396069444983E+01  0.407056385475E+01  0.250000000000E+01  0.307031995245E+01  0.397359820314E+01  0.500000000000E+01  0.375000000000E+01
  0.500000000000E+01  0.433260781310E+01  0.500000000000E+01  0.500000000000E+01  0.500000000000E+01
  0.000000000000E+00  0.000000000000E+00  0.000000000000E+00  0.444961626928E+00  0.402838316190E+00  0.000000000000E+00  0.379029001549E+00
  0.508827846411E+00  0.575719767468E+00  0.573484231916E+00  0.562571091033E+00  0.000000000000E+00  0.491643474339E+00  0.534340493553E+00
  0.556353506125E+00  0.564141623675E+00  0.522489639030E+00  0.521815314100E+00  0.440672136512E+00  0.517132480923E+00  0.524064820256E+00
  0.503612613683E+00  0.509416634110E+00  0.469886789982E+00  0.495646532245E+00  0.494503101969E+00  0.488630053423E+00  0.489035017215E+00
  0.492985464012E+00  0.498953669977E+00  0.486505314975E+00  0.484610387305E+00  0.495364848064E+00
  0.999989345567E+00  0.999989414891E+00  0.999989632591E+00  0.981375695393E+00  0.988672653297E+00  0.999989832933E+00  0.982271891095E+00
  0.984075644303E+00  0.990406052732E+00  0.990320090376E+00  0.994390331428E+00  0.999990300362E+00  0.988743428079E+00  0.100365390733E+01
  0.999774597300E+00  0.100117529834E+01  0.100830077599E+01  0.100251293722E+01  0.102982970104E+01  0.100442054131E+01  0.100199281310E+01
  0.100081994749E+01  0.100137956774E+01  0.100825795511E+01  0.100297377722E+01  0.100191712118E+01  0.100214790177E+01  0.100354817652E+01
  0.100047567419E+01  0.100056574043E+01  0.100126719373E+01  0.100066769089E+01  0.100178625606E+01
 -0.170315317017E-02  0.131783024571E-02 -0.282319109601E-02  0.156650027019E-01  0.609482839625E-01  0.384008158820E-02  0.606629589921E-01
 -0.968141745428E-02 -0.489599527693E-02 -0.610317491798E-02  0.100959904691E-01  0.610154603819E-02  0.410901276484E-01 -0.462617534109E-02
 -0.535659063560E-02 -0.380329088467E-02  0.116417997748E-02 -0.517065084204E-02  0.305913149748E-01 -0.315143527222E-02 -0.230638033041E-02
 -0.314780608957E-02 -0.240060079020E-02 -0.159076003641E-02 -0.447704245518E-02 -0.832432696142E-02 -0.257280523602E-01 -0.930207455738E-02
 -0.298660208000E-02 -0.368121579114E-02 -0.239352007530E-01 -0.130055244629E-01 -0.338335848739E-01
 -0.394910015476E-03 -0.382143426814E-03  0.701893017541E-03  0.442864854908E-02  0.841453044440E-02 -0.799365828028E-03  0.749743032642E-02
  0.158234543652E-02 -0.800249193788E-04  0.832155833844E-03  0.182390754079E-03  0.239576642022E-03  0.308658063059E-02  0.121109751520E-02
 -0.786814868398E-04  0.632136658713E-03 -0.115009160221E-02 -0.545668647678E-03  0.443334812911E-02  0.772540278894E-03  0.667705337070E-03
  0.361323681996E-03  0.780407886428E-03 -0.771487547745E-03 -0.105555961564E-02 -0.105064162938E-02 -0.456220903483E-02 -0.205406679455E-02
  0.271961236389E-03  0.427014376912E-03 -0.370629771149E-02 -0.129338280214E-02 -0.693214559419E-02
 -0.746371197240E-04  0.396476243734E-04  0.953347611522E-04 -0.296495674827E-03 -0.856831368566E-03  0.335359734940E-03 -0.122332077267E-04
  0.192520185342E-05 -0.959400538325E-04  0.161783522237E-04 -0.805776452517E-04  0.405285102735E-03  0.465869862373E-03  0.352505382542E-04
 -0.417986053507E-05  0.479082149695E-05 -0.158947755970E-03 -0.595703360379E-04  0.128177088524E-03  0.197047103045E-04  0.959760372171E-05
  0.428470215838E-04  0.757164874814E-06 -0.133033013569E-04 -0.362557222368E-04  0.120860609799E-04  0.176278566326E-04 -0.341923454596E-05
  0.690295912927E-05 -0.147621228816E-06  0.395117577910E-05 -0.943209874524E-06  0.263913796071E-05
 -0.462936940136E-03 -0.864345356723E-03 -0.241820278992E-03  0.650558531084E-03  0.104238092092E-02 -0.833807493638E-03  0.332264355181E-03
  0.375277095136E-03  0.191534727996E-02  0.930043337789E-03  0.277368210041E-02 -0.147350184120E-02  0.909674316325E-03  0.371430552342E-03
  0.986982243894E-03  0.826054842563E-03  0.233485533419E-02  0.105065720431E-02 -0.135022502325E-02  0.329632874601E-03  0.949000369241E-03
  0.979561615769E-03  0.710116738506E-03  0.154665668000E-02  0.151054331033E-02  0.101179334416E-02  0.727106501896E-03  0.128981940153E-02
  0.350614713037E-03  0.921059952626E-03  0.882521905405E-03  0.804475219823E-03  0.459636413213E-03
  0.706186217557E-02  0.301464574984E-02  0.132896161683E-02 -0.814588054156E-02 -0.263903541391E-01  0.192465444620E-03 -0.254756703222E-01
  0.246860313016E-02  0.151668356638E-02  0.157842832126E-02 -0.394352446409E-02 -0.487240360434E-02 -0.161873148261E-01  0.870370931409E-03
  0.169261868929E-02  0.862258797765E-03 -0.346853938331E-03  0.179070211417E-02 -0.125994926541E-01  0.618499721199E-03  0.382316419380E-03
  0.811095230735E-03  0.390814434822E-03  0.639067388197E-03  0.163876331180E-02  0.313255836378E-02  0.104028629578E-01  0.375276725505E-02
  0.846198343012E-03  0.974181421857E-03  0.949588066637E-02  0.486909840559E-02  0.140414886361E-01
        15         9        16        16
        15        18        11        11
        22        15        21        21
        11         5         9         9
         5         7         2         2
        11         9        15        15
        16        21        15        15
        16        10        14        14
        18        17        11        11
        17        25        24        24
        22        18        15        15
        22        30        31        31
        30        21        23        23
        16        20        23        23
        22        27        26        26
        10         9         4         4
         7        11        13        13
        25        18        26        26
        11         7         5         5
         5         1         4         4
        17        19        13        13
        23        32        30        30
        23        20        29        29
         4         9         5         5
         4         8        10        10
        26        18        22        22
        26        28        25        25
        13        11        17        17
        13         6         7         7
        31        30        32        32
         2         1         5         5
         2         7         6         6
        14        10         8         8
        24        19        17        17
        24        25        28        28
         9        10        16        16
         3         4         1         1
        33        26        27        27
        12        13        19        19
        21        30        22        22
        16        14        20        20
        16        23        21        21
        22        31        27        27
        18        25        17        17
        26        33        28        28
         4         3         8         8
        23        29        32        32
        13        12         6         6
zone t="boundary 4 bc-4", solutiontime= 0.2000000E+02, strandid=1004, i=32, j=46, f=feblock
  0.125000000000E+01  0.219251206392E+01  0.103724302461E+01  0.500000000000E+01  0.250000000000E+01  0.375000000000E+01  0.404200324774E+01
  0.500000000000E+01  0.000000000000E+00  0.310152362409E+01  0.202479342020E+01  0.324151231464E+01  0.922061490191E+00  0.000000000000E+00
  0.299062775774E+01  0.394624082883E+01  0.500000000000E+01  0.409252726285E+01  0.500000000000E+01  0.429310310915E+01  0.175434191980E+01
  0.284428995242E+01  0.000000000000E+00  0.000000000000E+00  0.715990576545E+00  0.930412228790E+00  0.125000000000E+01  0.187029682677E+01
  0.500000000000E+01  0.375000000000E+01  0.250000000000E+01  0.000000000000E+00
  0.250494197117E+01  0.157686156160E+01  0.146289271009E+01  0.250494197117E+01  0.250494197117E+01  0.250494197117E+01  0.155830813274E+01
  0.125000000000E+01  0.250494197117E+01  0.177790177481E+01  0.477386199275E+00  0.742988685424E+00  0.308372018325E+00  0.125000000000E+01
 -0.487811078581E+00 -0.144524380962E+01 -0.125000000000E+01 -0.345533899378E+00  0.000000000000E+00  0.627766083140E+00 -0.739814786992E+00
 -0.158811787973E+01  0.000000000000E+00 -0.125000000000E+01 -0.600232012419E+00 -0.154800130438E+01 -0.249658903664E+01 -0.178862290564E+01
 -0.249658903664E+01 -0.249658903664E+01 -0.249658903664E+01 -0.249658903664E+01
  0.500000000000E+01  0.500000000000E+01  0.500000000000E+01  0.500000000000E+01  0.500000000000E+01  0.500000000000E+01  0.500000000000E+01
  0.500000000000E+01  0.500000000000E+01  0.500000000000E+01  0.500000000000E+01  0.500000000000E+01  0.500000000000E+01  0.500000000000E+01
  0.500000000000E+01  0.500000000000E+01  0.500000000000E+01  0.500000000000E+01  0.500000000000E+01  0.500000000000E+01  0.500000000000E+01
  0.500000000000E+01  0.500000000000E+01  0.500000000000E+01  0.500000000000E+01  0.500000000000E+01  0.500000000000E+01  0.500000000000E+01
  0.500000000000E+01  0.500000000000E+01  0.500000000000E+01  0.500000000000E+01
  0.488630053423E+00  0.488907200673E+00  0.490613524454E+00  0.492985464012E+00  0.486505314975E+00  0.484610387305E+00  0.485346346417E+00
  0.494164094826E+00  0.495364848064E+00  0.486544301825E+00  0.487826539497E+00  0.487053944491E+00  0.494057895498E+00  0.496127940578E+00
  0.487590739712E+00  0.483169495133E+00  0.492384717662E+00  0.487198320547E+00  0.494738341209E+00  0.487947262281E+00  0.489650836219E+00
  0.487975047811E+00  0.497248366859E+00  0.496055083747E+00  0.494947818077E+00  0.492777844524E+00  0.489959820989E+00  0.489963118744E+00
  0.491323935798E+00  0.486019442841E+00  0.489980976742E+00  0.495089980244E+00
  0.100214790177E+01  0.100152376261E+01  0.100177920363E+01  0.100047567419E+01  0.100126719373E+01  0.100066769089E+01  0.100025509248E+01
  0.100050308878E+01  0.100178625606E+01  0.100112381228E+01  0.100132857256E+01  0.100072299640E+01  0.100164084009E+01  0.100168369530E+01
  0.100096380429E+01  0.100001109262E+01  0.100083219162E+01  0.100022379580E+01  0.100062130449E+01  0.100023379273E+01  0.100174737467E+01
  0.100099023681E+01  0.100118721261E+01  0.100134451878E+01  0.100132726122E+01  0.100179980273E+01  0.100192626091E+01  0.100163810987E+01
  0.100045827286E+01  0.100058947226E+01  0.100110091494E+01  0.100176433139E+01
 -0.257280523602E-01 -0.248392408064E-01 -0.255660753545E-01 -0.298660208000E-02 -0.239352007530E-01 -0.130055244629E-01 -0.903496402665E-02
 -0.297286723136E-02 -0.338335848739E-01 -0.199292165640E-01 -0.267512524204E-01 -0.187334385674E-01 -0.310771115246E-01 -0.350358219261E-01
 -0.211061741825E-01 -0.870146706725E-02 -0.336850763932E-02 -0.110865268324E-01 -0.275995169426E-02 -0.110668238203E-01 -0.328982636771E-01
 -0.198586271955E-01 -0.385404465931E-01 -0.341437583874E-01 -0.360762870890E-01 -0.289349999458E-01 -0.289667874402E-01 -0.305813140582E-01
 -0.345722150109E-02 -0.132354184612E-01 -0.254316262909E-01 -0.321459500241E-01