# vtk DataFile Version 2.0
FUN3D:global_image_vtk
ASCII
DATASET UNSTRUCTURED_GRID
POINTS 213 double
   -0.5474685441685616E-02    0.2504941971167290E+01    0.8038138598215138E-04
    0.1245419105183474E+01    0.2504941971167290E+01    0.1039425057966476E-03
    0.2497696093128781E+01    0.2504941971167290E+01    0.1101298164617977E-03
    0.3750590968915823E+01    0.2504941971167290E+01    0.1356499004895833E-03
    0.5003221331742152E+01    0.2504941971167290E+01    0.9668873038426104E-04
    0.5004676687979095E+01    0.1281291202167033E+01    0.1638053019351587E-03
    0.5004772673778113E+01    0.2775079906482335E-01    0.1903478008420927E-03
    0.5003581183341212E+01   -0.1225853508883533E+01    0.1607765204479911E-03
    0.5001952533742191E+01   -0.2496589036641632E+01    0.1082258890306980E-03
    0.3750348111606544E+01   -0.2496589036641632E+01    0.1458753696819687E-03
    0.2498611462994928E+01   -0.2496589036641632E+01    0.1008933264249332E-03
    0.1247175269333278E+01   -0.2496589036641632E+01    0.1108587619173533E-03
   -0.3383959865720150E-02   -0.2496589036641632E+01    0.8107259626499892E-04
   -0.4257768979764718E-02   -0.1225734811642595E+01    0.3415458742206365E-04
   -0.5251592448508373E-02    0.2619486024420058E-01    0.1038724387166805E-03
   -0.5676060312424190E-02    0.1278221569065702E+01    0.8224601701783744E-04
    0.9003209617952606E+00    0.1608979112280153E+01    0.8704140727261195E-04
    0.3983172210692288E+01   -0.1561211904840281E+01    0.1757116720362275E-03
    0.4035602039224468E+01    0.1486760030415513E+01    0.1713312862068321E-03
    0.1036613723302902E+01   -0.1455626429916852E+01    0.1047189301526797E-03
    0.1094353480630805E+01   -0.2964622010671901E+00    0.1260590236897290E-03
    0.7298400267480016E+00    0.6874684746719065E+00    0.1044598640514975E-03
    0.1617018659308947E+01    0.8553208024939309E+00    0.1529810904946068E-03
    0.2143199662875791E+01   -0.1627128509216734E+01    0.1606170425219597E-03
    0.4088840445400889E+01   -0.4351047825936315E+00    0.2719933294093020E-03
    0.2977916511248925E+01   -0.8334991483094549E+00    0.2245596931849110E-03
    0.3044093241383418E+01   -0.1814361225108585E+01    0.1617000112413270E-03
    0.3427866614805212E+01    0.3813904839972428E+00    0.2936955483404076E-03
    0.4313225355351750E+01    0.5489133376342430E+00    0.2313009573562939E-03
    0.1823032737597359E+01    0.1771265193544248E+01    0.1836202887111588E-03
    0.2806311152168376E+01    0.1358629373600674E+01    0.1943492163948803E-03
    0.1891860875936713E+01   -0.8481310365607586E+00    0.1670645501796729E-03
    0.2268769200166910E+01    0.7723691819196002E-01    0.2072307783062547E-03
    0.5000000000000000E+01    0.2504941971167290E+01    0.1250000000000000E+01
    0.5000000000000000E+01    0.2504941971167290E+01    0.2500000000000000E+01
    0.5000000000000000E+01    0.2504941971167290E+01    0.3750000000000000E+01
    0.5000000000000000E+01    0.2504941971167290E+01    0.5000000000000000E+01
    0.3750000000000000E+01    0.2504941971167290E+01    0.5000000000000000E+01
    0.2500000000000000E+01    0.2504941971167290E+01    0.5000000000000000E+01
    0.1250000000000000E+01    0.2504941971167290E+01    0.5000000000000000E+01
    0.0000000000000000E+00    0.2504941971167290E+01    0.5000000000000000E+01
    0.0000000000000000E+00    0.2504941971167290E+01    0.3750000000000000E+01
    0.0000000000000000E+00    0.2504941971167290E+01    0.2500000000000000E+01
    0.0000000000000000E+00    0.2504941971167290E+01    0.1250000000000000E+01
    0.9588956434871108E+00    0.2504941971167290E+01    0.9696525519543818E+00
    0.3981953078951401E+01    0.2504941971167290E+01    0.4070563854751270E+01
    0.4036122187252336E+01    0.2504941971167290E+01    0.1017567520094666E+01
    0.9637572773153891E+00    0.2504941971167290E+01    0.3973598203142228E+01
    0.1546540136992396E+01    0.2504941971167290E+01    0.2931570169315598E+01
    0.6973799521244317E+00    0.2504941971167290E+01    0.3070319952453755E+01
    0.8903742148356895E+00    0.2504941971167290E+01    0.2056562238187735E+01
    0.2183041995146012E+01    0.2504941971167290E+01    0.3960694449828018E+01
    0.3855844872709870E+01    0.2504941971167290E+01    0.2933250588118629E+01
    0.3152611367438029E+01    0.2504941971167290E+01    0.3637668388416194E+01
    0.3103307385241870E+01    0.2504941971167290E+01    0.4332607813099730E+01
    0.3266711045517939E+01    0.2504941971167290E+01    0.1889656617463735E+01
    0.4232537554484795E+01    0.2504941971167290E+01    0.1918626969802349E+01
    0.1905522374036521E+01    0.2504941971167290E+01    0.7226290832134553E+00
    0.2879767723645806E+01    0.2504941971167290E+01    0.9080945892181930E+00
    0.2012711365064516E+01    0.2504941971167290E+01    0.1767082390977750E+01
    0.2669681472994637E+01    0.2504941971167290E+01    0.2853394335010789E+01
    0.5000000000000000E+01    0.1250000000000000E+01    0.5000000000000000E+01
    0.5000000000000000E+01    0.0000000000000000E+00    0.5000000000000000E+01
    0.5000000000000000E+01   -0.1250000000000000E+01    0.5000000000000000E+01
    0.5000000000000000E+01   -0.2496589036641632E+01    0.5000000000000000E+01
    0.5000000000000000E+01   -0.2496589036641632E+01    0.3750000000000000E+01
    0.5000000000000000E+01   -0.2496589036641632E+01    0.2500000000000000E+01
    0.5000000000000000E+01   -0.2496589036641632E+01    0.1250000000000000E+01
    0.5000000000000000E+01    0.1578994732800803E+01    0.9058375365086910E+00
    0.5000000000000000E+01   -0.1583989954232354E+01    0.3982050490726493E+01
    0.5000000000000000E+01    0.1453322699199022E+01    0.4033849428301197E+01
    0.5000000000000000E+01   -0.1479596339503735E+01    0.1040505887381675E+01
    0.5000000000000000E+01   -0.3227322616384110E+00    0.1099454400140349E+01
    0.5000000000000000E+01    0.6593508822075582E+00    0.7354504170366591E+00
    0.5000000000000000E+01    0.8256214013940779E+00    0.1622302608453282E+01
    0.5000000000000000E+01   -0.1650070333782557E+01    0.2145871574390382E+01
    0.5000000000000000E+01   -0.4612828702537229E+00    0.4086422318222992E+01
    0.5000000000000000E+01   -0.8579242121530853E+00    0.2979540174134984E+01
    0.5000000000000000E+01   -0.1836846154397680E+01    0.3045064261640043E+01
    0.5000000000000000E+01    0.3508002863614053E+00    0.3428197553792836E+01
    0.5000000000000000E+01    0.5185680230613409E+00    0.4309693860063405E+01
    0.5000000000000000E+01    0.1738996113203182E+01    0.1827272193562204E+01
    0.5000000000000000E+01    0.1325493893339706E+01    0.2808563282768077E+01
    0.5000000000000000E+01   -0.8731419609589618E+00    0.1895995683864404E+01
    0.5000000000000000E+01    0.4906150219227333E-01    0.2273179336307740E+01
    0.0000000000000000E+00    0.1250000000000000E+01    0.5000000000000000E+01
    0.0000000000000000E+00    0.0000000000000000E+00    0.5000000000000000E+01
    0.0000000000000000E+00   -0.1250000000000000E+01    0.5000000000000000E+01
    0.0000000000000000E+00   -0.2496589036641632E+01    0.5000000000000000E+01
    0.1250000000000000E+01   -0.2496589036641632E+01    0.5000000000000000E+01
    0.2500000000000000E+01   -0.2496589036641632E+01    0.5000000000000000E+01
    0.3750000000000000E+01   -0.2496589036641632E+01    0.5000000000000000E+01
    0.4042003247744892E+01    0.1558308132739014E+01    0.5000000000000000E+01
    0.9304122287900499E+00   -0.1548001304379777E+01    0.5000000000000000E+01
    0.1037243024609388E+01    0.1462892710085612E+01    0.5000000000000000E+01
    0.3946240828834967E+01   -0.1445243809615570E+01    0.5000000000000000E+01
    0.4092527262848217E+01   -0.3455338993778935E+00    0.5000000000000000E+01
    0.4293103109154542E+01    0.6277660831404320E+00    0.5000000000000000E+01
    0.3241512314643519E+01    0.7429886854239611E+00    0.5000000000000000E+01
    0.2844289952419609E+01   -0.1588117879734118E+01    0.5000000000000000E+01
    0.7159905765450471E+00   -0.6002320124191652E+00    0.5000000000000000E+01
    0.1754341919796891E+01   -0.7398147869923652E+00    0.5000000000000000E+01
    0.1870296826774691E+01   -0.1788622905643739E+01    0.5000000000000000E+01
    0.9220614901912976E+00    0.3083720183248586E+00    0.5000000000000000E+01
    0.3101523624086016E+01    0.1777901774806180E+01    0.5000000000000000E+01
    0.2192512063922564E+01    0.1576861561598471E+01    0.5000000000000000E+01
    0.2024793420196460E+01    0.4773861992750707E+00    0.5000000000000000E+01
    0.2990627757741975E+01   -0.4878110785814084E+00    0.5000000000000000E+01
    0.0000000000000000E+00   -0.2496589036641632E+01    0.1250000000000000E+01
    0.0000000000000000E+00   -0.2496589036641632E+01    0.2500000000000000E+01
    0.0000000000000000E+00   -0.2496589036641632E+01    0.3750000000000000E+01
    0.0000000000000000E+00    0.1558308132739014E+01    0.4042003247744892E+01
    0.0000000000000000E+00   -0.1548001304379777E+01    0.9304122287900499E+00
    0.0000000000000000E+00    0.1462892710085612E+01    0.1037243024609388E+01
    0.0000000000000000E+00   -0.1445243809615570E+01    0.3946240828834967E+01
    0.0000000000000000E+00   -0.3455338993778935E+00    0.4092527262848217E+01
    0.0000000000000000E+00    0.6277660831404320E+00    0.4293103109154542E+01
    0.0000000000000000E+00    0.7429886854239611E+00    0.3241512314643519E+01
    0.0000000000000000E+00   -0.1588117879734118E+01    0.2844289952419609E+01
    0.0000000000000000E+00   -0.6002320124191652E+00    0.7159905765450471E+00
    0.0000000000000000E+00   -0.7398147869923652E+00    0.1754341919796891E+01
    0.0000000000000000E+00   -0.1788622905643739E+01    0.1870296826774691E+01
    0.0000000000000000E+00    0.3083720183248586E+00    0.9220614901912976E+00
    0.0000000000000000E+00    0.1777901774806180E+01    0.3101523624086016E+01
    0.0000000000000000E+00    0.1576861561598471E+01    0.2192512063922564E+01
[...]
POINT_DATA 213
SCALARS rho double 1
LOOKUP_TABLE default
   0.1346125695035832E+01
   0.9572084529089344E+00
   0.9461020640320942E+00
   0.9421833083753478E+00
   0.8436100805381384E+00
   0.7742024924724044E+00
   0.7627632916086582E+00
   0.7661496234060085E+00
   0.8310481705634523E+00
   0.9353608199402366E+00
   0.9344036384410557E+00
   0.9615898878170899E+00
   0.1448480209172341E+01
   0.1495421840821191E+01
   0.1646754928544016E+01
   0.1426608059022090E+01
   0.1009808068866805E+01
   0.9511456930619102E+00
   0.9438291106279436E+00
   0.9574489510690307E+00
   0.9414832417715729E+00
   0.1037118221543959E+01
   0.9258147539139466E+00
   0.9322497229121398E+00
   0.9538141800659110E+00
   0.9520438485472470E+00
   0.9350971720703316E+00
   0.9565537239767519E+00
   0.9378700246275725E+00
   0.9303318786832011E+00
   0.9446515870015352E+00
   0.8862352514596172E+00
   0.9424046837878568E+00
   0.9637217347338056E+00
   0.1008362577443174E+01
   0.1006713364224322E+01
   0.1001959242786440E+01
   0.1003218316848717E+01
   0.1004120537739761E+01
   0.1005207992731865E+01
   0.1004249813772384E+01
   0.1008267843968349E+01
   0.1023867443182258E+01
   0.1063751875358980E+01
   0.1019386187350477E+01
   0.1001778933820393E+01
   0.9645975359566508E+00
   0.1005263110574732E+01
   0.1000745578468383E+01
   0.1008695104914199E+01
   0.1008032475291091E+01
   0.1002354651054527E+01
   0.9980224682921600E+00
   0.1000594441058992E+01
   0.1001621537584811E+01
   0.9828107804635133E+00
   0.9844011055433441E+00
   0.9834292501539231E+00
   0.9790423947957091E+00
   0.9904798795046150E+00
   0.9935224894701646E+00
   0.1002009106199716E+01
   0.1002132313695709E+01
   0.1002273033564941E+01
   0.1001793219421454E+01
   0.1009814973789685E+01
   0.1006499311890184E+01
   0.9560849998237597E+00
   0.9252996591989929E+00
   0.1007053713234650E+01
   0.1004491538538690E+01
   0.9144889716215898E+00
   0.9091476765070183E+00
   0.8752502579743596E+00
   0.9768039027738666E+00
   0.1000530366549299E+01
   0.1005826553802057E+01
   0.1012895293549115E+01
   0.1011677102509948E+01
   0.1010415988244361E+01
   0.1005456560687355E+01
   0.9909260245285455E+00
   0.1005152543412317E+01
   0.9860803849228938E+00
   0.1005592650745693E+01
   0.1004239968554341E+01
   0.1002886283566541E+01
   0.1003350788741584E+01
   0.1003998912077639E+01
   0.1005116700243538E+01
   0.1003224183289908E+01
   0.1002669182792971E+01
   0.1002590257688935E+01
   0.1004070004797631E+01
   0.1004304937695976E+01
   0.1001643035310332E+01
   0.1002279358043587E+01
   0.1002547250086560E+01
   0.1003472641535387E+01
   0.1003380930778057E+01
   0.1003233776673562E+01
   0.1004430853979533E+01
   0.1004325283089163E+01
   0.1003653379382735E+01
   0.1003719191746944E+01
   0.1004319534091051E+01
   0.1004463155540820E+01
   0.1003629980310212E+01
   0.1064490581908380E+01
   0.1028445780953350E+01
   0.1009607603187758E+01
   0.1006626774140720E+01
   0.1163979474123153E+01
   0.1086026004368293E+01
   0.1007908398905934E+01
   0.1007252664599149E+01
   0.1006796746928269E+01
   0.1013053608790921E+01
   0.1019342644436958E+01
   0.1235143811287922E+01
   0.1032536233119615E+01
   0.1046567728918648E+01
   0.1201703013078931E+01
   0.1014671125423255E+01
   0.1032295324330648E+01
   0.1028222151221019E+01
   0.1014641483660504E+01
   0.1029002257867426E+01
   0.1002002818941020E+01
   0.9607830587995249E+00
   0.1006859706960799E+01
   0.1001326954081730E+01
   0.1010800868387572E+01
   0.1012237273324773E+01
   0.1000940436384965E+01
   0.9979317236207572E+00
   0.9980683697335362E+00
   0.1001191956523643E+01
   0.9841985799411974E+00
   0.9815070583128842E+00
   0.9648654918887840E+00
   0.9680713430983717E+00
   0.9914149191875735E+00
   0.9910916479999692E+00
   0.9925598185003978E+00
   0.1001728510436692E+01
   0.9993250772930184E+00
   0.9941444030113773E+00
   0.1006981383602848E+01
   0.1022611654139070E+01
   0.1001121692014089E+01
   0.1008784265639952E+01
   0.1004775044094358E+01
   0.1009029447405431E+01
   0.9967197951326618E+00
   0.1005567613334355E+01
   0.1003325685898411E+01
   0.9949865130496112E+00
   0.9833521897360490E+00
   0.9944521642504094E+00
   0.9973482233471812E+00
   0.9932519263295860E+00
   0.1001312608428418E+01
   0.1003001448831364E+01
   0.1002189173548509E+01
   0.9947119516657794E+00
   0.9937839726277121E+00
   0.1004862069492930E+01
   0.1020102936792266E+01
   0.1005341234469827E+01
   0.9817063602251337E+00
   0.1004975501316068E+01
   0.1012376568799990E+01
   0.9873747463035467E+00
   0.9551282273419808E+00
   0.9865280377107413E+00
   0.9865952834682177E+00
   0.9920084247584019E+00
   0.9934470867358440E+00
   0.9960657347932459E+00
   0.1037405690945882E+01
   0.1033165796359993E+01
   0.1001443358522181E+01
   0.1001929574694247E+01
   0.9912286695088799E+00
   0.9911121699048085E+00
   0.9649300818469608E+00
   0.9933729919861646E+00
   0.1006089075222441E+01
   0.1001962081102818E+01
   0.9908628495390751E+00
   0.9742274498354310E+00
   0.9420781789449784E+00
   0.9821604772332188E+00
   0.9794777370735093E+00
   0.9704352201076701E+00
   0.9720842372842575E+00
   0.9557868492440040E+00
   0.9497981759251908E+00
   0.9529847958936100E+00
   0.1002637256727254E+01
   0.1002476301941974E+01
   0.1000513242356333E+01
   0.1001675738166204E+01
   0.9610108166358688E+00
   0.9492469481875323E+00
   0.9586432518147555E+00
   0.1001121462656867E+01
   0.1000500591059680E+01
   0.1001161102780586E+01
   0.9807429277626271E+00
   0.9805608284434727E+00
   0.9629214374677297E+00
SCALARS u double 1
LOOKUP_TABLE default
   0.0000000000000000E+00
   0.0000000000000000E+00
   0.0000000000000000E+00
   0.0000000000000000E+00
   0.0000000000000000E+00
   0.0000000000000000E+00
   0.0000000000000000E+00
   0.0000000000000000E+00
   0.0000000000000000E+00
   0.0000000000000000E+00
   0.0000000000000000E+00
   0.0000000000000000E+00
   0.0000000000000000E+00
   0.0000000000000000E+00
   0.0000000000000000E+00
   0.0000000000000000E+00
   0.0000000000000000E+00
   0.0000000000000000E+00
   0.0000000000000000E+00
   0.0000000000000000E+00
   0.0000000000000000E+00
   0.0000000000000000E+00
   0.0000000000000000E+00
   0.0000000000000000E+00
   0.0000000000000000E+00
   0.0000000000000000E+00
   0.0000000000000000E+00
   0.0000000000000000E+00
   0.0000000000000000E+00
   0.0000000000000000E+00
   0.0000000000000000E+00
   0.0000000000000000E+00
   0.0000000000000000E+00
   0.4946084288066898E+00
   0.5336296240044631E+00
   0.5182737276176321E+00
   0.4930696991469314E+00
   0.4847718153837867E+00
   0.4868108141525206E+00
   0.4891429103557533E+00
   0.4958014371831282E+00
   0.4899016129300652E+00
   0.4718097597075303E+00
   0.4448926899506456E+00
   0.4844425909444614E+00
   0.5097672062993879E+00
   0.4402157098136519E+00
   0.4949584585353618E+00
   0.5222981755743817E+00
   0.4962761334481111E+00
   0.5223877812469996E+00
   0.5038134101137340E+00
   0.5644352144688576E+00
   0.5245862230395307E+00
   0.4990946937091731E+00
   0.5729384845425715E+00
   0.5693720707819513E+00
   0.3752129679955804E+00
   0.4003935339784951E+00
   0.5599622499877277E+00
   0.5562276756284072E+00
   0.4942631205851852E+00
   0.4948654065908388E+00
   0.4925634788359987E+00
   0.4913991782650396E+00
   0.5162611628352032E+00
   0.5363588932802708E+00
   0.4951213600741888E+00
   0.4520531571145998E+00
   0.5129024770780292E+00
   0.5117690501124428E+00
   0.4786251288789981E+00
   0.4931155291546482E+00
   0.4600306964864850E+00
   0.5242629206354530E+00
   0.5299866667929020E+00
   0.5129711986501772E+00
   0.5328938855303069E+00
   0.5309772095342769E+00
   0.5309771249529379E+00
   0.5063651397080283E+00
   0.5279605778975984E+00
   0.5409254476436600E+00
   0.5363677254855511E+00
   0.5374194373094172E+00
   0.4965359092443802E+00
   0.4975361619355008E+00
   0.4963807508688592E+00
   0.4955144774005075E+00
   0.4904151885727285E+00
   0.4902491480062806E+00
   0.4861626495246380E+00
   0.4854037801485273E+00
   0.4931941381998876E+00
   0.4910329240355507E+00
   0.4831698325820051E+00
   0.4872469651369159E+00
   0.4880011036160898E+00
   0.4872294067061977E+00
   0.4882160209555113E+00
   0.4952567367684883E+00
   0.4900705810675412E+00
   0.4903581268150013E+00
   0.4944346865137115E+00
   0.4868163409735716E+00
   0.4892720570608008E+00
   0.4881455391270947E+00
   0.4878245201302843E+00
   0.4449022017415929E+00
   0.4700099664577172E+00
   0.4891756201211054E+00
   0.4885980864864493E+00
   0.4510286416887109E+00
   0.4681799612349460E+00
   0.4876648972579125E+00
   0.4868253756473971E+00
   0.4909267529966704E+00
   0.4793946318471046E+00
   0.4657884654883463E+00
   0.3794302311558578E+00
   0.4903697418704639E+00
   0.4487929174628878E+00
   0.4432385352858773E+00
   0.4845729178252186E+00
   0.4621884479283324E+00
   0.4663602298190058E+00
   0.4747774268303704E+00
   0.4893613110767292E+00
   0.5085681490922508E+00
   0.4304904288257261E+00
   0.4927280753218780E+00
   0.5320316186758824E+00
   0.4913826502372786E+00
   0.5209404403072647E+00
   0.5061319832956306E+00
   0.5690636322041437E+00
   0.5275039926260474E+00
   0.5015047803208902E+00
   0.5821373616811607E+00
   0.5691503699097442E+00
   0.3402452489885627E+00
   0.3785432683426945E+00
   0.5753091280442504E+00
   0.5668547248457131E+00
   0.5703055450637330E+00
   0.5291879659651821E+00
   0.5449833827745677E+00
   0.5719093998686584E+00
   0.5385694586285614E+00
   0.5475896935343093E+00
   0.5821565651456740E+00
   0.4925313044792141E+00
   0.5041557173881396E+00
   0.4961299802843992E+00
   0.5562803684031341E+00
   0.4757814623177614E+00
   0.4950174787826157E+00
   0.5496174669322760E+00
   0.5889519109029273E+00
   0.5839568632456702E+00
   0.5468163490180828E+00
   0.5803877177589786E+00
   0.5106055686408520E+00
   0.5029532232498264E+00
   0.5033085366581579E+00
   0.5676232051079289E+00
   0.5564629524612569E+00
   0.4947135439100529E+00
   0.5506799460670069E+00
   0.5513545695817278E+00
   0.5658254156488937E+00
   0.4919953535859830E+00
   0.4927852057164663E+00
   0.3865438333871061E+00
   0.3687907201091605E+00
   0.5574381186513603E+00
   0.5761778934059093E+00
   0.4194381850271190E+00
   0.5822999345352755E+00
   0.4268238594238842E+00
   0.5397390504922719E+00
   0.5016174621595252E+00
   0.5119228228367839E+00
   0.5048434162717143E+00
   0.5752768153777247E+00
   0.5878367583383461E+00
   0.5382358737526298E+00
   0.5679645539866044E+00
   0.5352016966119283E+00
   0.5338463691637693E+00
   0.5582293098615575E+00
   0.5511563289159770E+00
   0.4256775829098634E+00
   0.5272986081823234E+00
   0.5796794665945058E+00
   0.3318312940944770E+00
   0.4761441131221098E+00
   0.5446494935934366E+00
   0.4800669225458494E+00
   0.3006201116157141E+00
   0.5031625244225504E+00
   0.5017180910464486E+00
   0.5129133725280127E+00
   0.5414117103866681E+00
   0.3435217004223606E+00
   0.3398080158927985E+00
   0.3190194433549573E+00
   0.5066187048620289E+00
   0.5123864698964828E+00
   0.5329068379875140E+00
   0.5881307274754461E+00
   0.4644883168688922E+00
   0.3529622375375801E+00
SCALARS v double 1
LOOKUP_TABLE default
   0.0000000000000000E+00
   0.0000000000000000E+00
   0.0000000000000000E+00
   0.0000000000000000E+00
   0.0000000000000000E+00
   0.0000000000000000E+00
   0.0000000000000000E+00
   0.0000000000000000E+00
   0.0000000000000000E+00
   0.0000000000000000E+00
   0.0000000000000000E+00
   0.0000000000000000E+00
   0.0000000000000000E+00
   0.0000000000000000E+00
   0.0000000000000000E+00
   0.0000000000000000E+00
   0.0000000000000000E+00
   0.0000000000000000E+00
   0.0000000000000000E+00
   0.0000000000000000E+00
   0.0000000000000000E+00
   0.0000000000000000E+00
   0.0000000000000000E+00
   0.0000000000000000E+00
   0.0000000000000000E+00
   0.0000000000000000E+00
   0.0000000000000000E+00
   0.0000000000000000E+00
   0.0000000000000000E+00
   0.0000000000000000E+00
   0.0000000000000000E+00
   0.0000000000000000E+00
   0.0000000000000000E+00
   0.0000000000000000E+00
   0.0000000000000000E+00
   0.0000000000000000E+00
   0.0000000000000000E+00
   0.0000000000000000E+00
   0.0000000000000000E+00
   0.0000000000000000E+00
   0.0000000000000000E+00
   0.0000000000000000E+00
   0.0000000000000000E+00
   0.0000000000000000E+00
   0.0000000000000000E+00
   0.0000000000000000E+00
   0.0000000000000000E+00
   0.0000000000000000E+00
   0.0000000000000000E+00
   0.0000000000000000E+00
   0.0000000000000000E+00
   0.0000000000000000E+00
   0.0000000000000000E+00
   0.0000000000000000E+00
   0.0000000000000000E+00
   0.0000000000000000E+00
   0.0000000000000000E+00
   0.0000000000000000E+00
   0.0000000000000000E+00
   0.0000000000000000E+00
   0.0000000000000000E+00
   0.8513956485931192E-03
  -0.1262642999549659E-02
  -0.1293744907030729E-02
   0.0000000000000000E+00
   0.0000000000000000E+00
   0.0000000000000000E+00
   0.0000000000000000E+00
  -0.1933774835244949E-01
   0.5035654666458636E-03
   0.2213150340950340E-02
   0.1419313553698425E-01
  -0.6753674470464235E-02
  -0.8171005988502986E-02
  -0.1325788816776058E-01
   0.4993928974047752E-02
   0.7358920800489014E-03
   0.3478387728543003E-02
   0.1946723410536016E-02
   0.3168070971241163E-02
   0.1755557012557191E-02
  -0.7295456444501565E-02
  -0.6912340363527701E-04
   0.4552257848492826E-02
  -0.4165987292674560E-03
  -0.6650696938953634E-04
  -0.2024619555484565E-03
   0.8052041517377194E-03
   0.0000000000000000E+00
   0.0000000000000000E+00
   0.0000000000000000E+00
   0.0000000000000000E+00
   0.4747328598824245E-03
   0.1624023001390271E-02
  -0.1273124936473383E-02
  -0.9977698595085717E-03
  -0.2076424688401819E-02
  -0.9960590344815299E-03
  -0.7502623020559789E-03
  -0.7419323382181536E-03
   0.6055388208680652E-04
  -0.5966228798393718E-03
   0.8041025401808954E-03
  -0.1730002220143922E-02
   0.3146411114484035E-03
  -0.5710209928201933E-04
  -0.8890512777061756E-03
  -0.1052085466511260E-02
   0.0000000000000000E+00
   0.0000000000000000E+00
   0.0000000000000000E+00
  -0.1035601571578447E-02
  -0.7789944105693097E-02
   0.1821259134869913E-01
  -0.2902416384267564E-04
  -0.1377098266151537E-02
  -0.2028457029376968E-02
  -0.5613671727636128E-02
  -0.1620474497887047E-02
  -0.6357462371183628E-02
  -0.4327186083990843E-02
   0.1517793731181543E-02
   0.3300594268292242E-01
   0.4394531707616421E-04
  -0.2766565860080993E-02
   0.3629287544492610E-02
   0.3910358740660511E-03
   0.0000000000000000E+00
   0.0000000000000000E+00
   0.0000000000000000E+00
   0.0000000000000000E+00
   0.0000000000000000E+00
   0.0000000000000000E+00
   0.0000000000000000E+00
   0.0000000000000000E+00
   0.0000000000000000E+00
   0.0000000000000000E+00
   0.0000000000000000E+00
   0.0000000000000000E+00
   0.0000000000000000E+00
   0.0000000000000000E+00
   0.0000000000000000E+00
   0.0000000000000000E+00
   0.0000000000000000E+00
   0.5001778152231020E-02
   0.3214064984115118E-02
   0.8126045411845693E-02
   0.6096300959063479E-02
   0.1117411733288143E-01
   0.1403811527246286E-01
  -0.3216221683610469E-03
   0.5161911393853934E-02
   0.2930107512915283E-02
   0.3378096158441588E-02
   0.3728544905587539E-02
  -0.1469573982807694E-01
  -0.6136954920156211E-03
   0.6639776037630800E-02
   0.1457244874331428E-02
   0.1959300824987525E-02
   0.4263979916287048E-02
  -0.2812425944284481E-02
   0.1267608886113755E-02
   0.2851959203248937E-02
   0.1534867708719868E-02
   0.2563344284542776E-02
   0.2013568676967624E-02
   0.2154333958900942E-02
   0.8583998670362416E-02
  -0.3830083280050372E-02
   0.6155698677710748E-02
   0.4725659382244601E-04
  -0.4231582879370705E-03
  -0.1674129346726617E-01
  -0.4996659973208735E-02
  -0.4827349478098705E-02
   0.3399378215091672E-02
  -0.6077437442366392E-02
   0.3194964753845453E-04
  -0.3284948887270429E-01
  -0.3181989518873985E-02
   0.4581319061296235E-02
   0.9682231202193840E-03
   0.2133486427550214E-02
   0.4530687255353612E-02
   0.2692787416358719E-02
   0.3243073156832513E-02
   0.5223604842697396E-02
   0.1957627207959855E-02
   0.7485450725768116E-03
  -0.5693767355096425E-04
  -0.5322690362836351E-02
  -0.6972867813631054E-02
  -0.9635299331297259E-03
   0.1062718433107247E-02
  -0.2106021599399557E-02
  -0.3219291876143710E-02
  -0.2544864406657589E-02
  -0.4131306063129792E-02
  -0.7566170037879618E-02
  -0.2012358559177505E-02
   0.6515124818367410E-03
  -0.1916285089631822E-03
   0.1227815973100740E-02
  -0.3502806755916476E-02
   0.4846684093543635E-02
  -0.8642681704562283E-02
   0.3341866892193190E-04
  -0.3327782035788271E-03
   0.2558605782991663E-02
   0.1615750261910641E-02
   0.2039006053079933E-02
  -0.5641501654420756E-02
SCALARS w double 1
LOOKUP_TABLE default
   0.0000000000000000E+00
   0.0000000000000000E+00
   0.0000000000000000E+00
   0.0000000000000000E+00
   0.0000000000000000E+00
   0.0000000000000000E+00
   0.0000000000000000E+00
   0.0000000000000000E+00
   0.0000000000000000E+00
   0.0000000000000000E+00
   0.0000000000000000E+00
   0.0000000000000000E+00
   0.0000000000000000E+00
   0.0000000000000000E+00
   0.0000000000000000E+00
   0.0000000000000000E+00
   0.0000000000000000E+00
   0.0000000000000000E+00
   0.0000000000000000E+00
   0.0000000000000000E+00
   0.0000000000000000E+00
   0.0000000000000000E+00
   0.0000000000000000E+00
   0.0000000000000000E+00
   0.0000000000000000E+00
   0.0000000000000000E+00
   0.0000000000000000E+00
   0.0000000000000000E+00
   0.0000000000000000E+00
   0.0000000000000000E+00
   0.0000000000000000E+00
   0.0000000000000000E+00
   0.0000000000000000E+00
  -0.1007241832222779E+00
  -0.4245528425693403E-01
   0.7158747637720159E-03
   0.5704941484981137E-02
   0.5684952105460389E-03
   0.1606879311907884E-02
   0.3372604582674037E-02
   0.2364299322141743E-02
   0.4720646643172037E-03
   0.3528387201181358E-02
   0.4533336069859838E-01
   0.6563397482280436E-01
   0.8384130477633256E-03
  -0.2266132398141097E-01
   0.4271065125002881E-02
   0.1341970169276048E-01
   0.1029750709027348E-01
   0.4870834201811092E-01
   0.2381551680311837E-02
  -0.6534999320914278E-02
  -0.7372437452982162E-03
   0.3056382316338213E-03
   0.3846852434619936E-02
  -0.3893635121144116E-01
   0.1820273581438401E-01
   0.1120446033705634E-01
   0.3395774037823761E-01
   0.8380191310928910E-02
   0.4924616504456322E-02
   0.4973761447049252E-02
   0.4900524098899193E-02
   0.6056720030012338E-02
   0.2695310533834093E-02
  -0.4127769715407226E-01
  -0.9927104307558823E-01
  -0.1120360381595972E+00
   0.5144526086968654E-02
   0.4216386824559684E-02
  -0.1002595860915616E+00
  -0.9892594332237174E-01
  -0.9835483710506027E-01
  -0.9443969326309529E-01
  -0.6790972041504033E-01
   0.5196996129244159E-02
  -0.1927315286794460E-01
  -0.1563508313889223E-01
  -0.5964346840157964E-02
   0.6822778438914913E-02
  -0.7999951690340885E-01
  -0.2776431487784040E-01
  -0.8086526766320548E-01
  -0.5863339153738955E-01
   0.3073989581011764E-02
   0.2685175109998483E-02
   0.2644703294826635E-02
   0.3457404472902040E-02
   0.3998529112680735E-02
   0.1199875808295706E-02
  -0.1355428925809653E-03
   0.2028964889335288E-02
   0.4894373421430026E-02
   0.3864560992933455E-02
   0.1126431960813032E-02
   0.1188310184072483E-02
   0.1460245645811823E-02
  -0.2199385958518415E-04
   0.9122000638295880E-04
   0.4387187039451546E-02
   0.2712580227478522E-02
   0.2317255031217538E-02
   0.5007037367490883E-02
   0.1069972045426737E-02
   0.2707114676095428E-02
   0.2010664694015741E-02
   0.3391942494432308E-04
   0.8386260313576313E-01
   0.2832480873495624E-02
  -0.8469296496712804E-03
  -0.1274284573877124E-03
   0.1410903979919970E+00
   0.1236626536365186E+00
  -0.1228867642345897E-02
  -0.4383136256401277E-02
  -0.2804612391108847E-03
  -0.6477826826456619E-02
  -0.1895598765608102E-02
   0.1559394040552682E+00
   0.7528604326178921E-01
   0.2567550692920321E-01
   0.1661313051714300E+00