# vtk DataFile Version 2.0
FUN3D:global_image_vtk
ASCII
DATASET UNSTRUCTURED_GRID
POINTS 213 double
   -0.5474685441687821E-02    0.2504941971167291E+01    0.8038138598665082E-04
    0.1245419105183472E+01    0.2504941971167291E+01    0.1039425058013113E-03
    0.2497696093128780E+01    0.2504941971167291E+01    0.1101298164665762E-03
    0.3750590968915824E+01    0.2504941971167291E+01    0.1356499004944167E-03
    0.5003221331742151E+01    0.2504941971167291E+01    0.9668873038903847E-04
    0.5004676687979097E+01    0.1281291202167039E+01    0.1638053019383789E-03
    0.5004772673778115E+01    0.2775079906482918E-01    0.1903478008450331E-03
    0.5003581183341212E+01   -0.1225853508883529E+01    0.1607765204483231E-03
    0.5001952533742191E+01   -0.2496589036641631E+01    0.1082258890299205E-03
    0.3750348111606544E+01   -0.2496589036641631E+01    0.1458753696815805E-03
    0.2498611462994928E+01   -0.2496589036641631E+01    0.1008933264248224E-03
    0.1247175269333276E+01   -0.2496589036641631E+01    0.1108587619165218E-03
   -0.3383959865718372E-02   -0.2496589036641631E+01    0.8107259626488763E-04
   -0.4257768979765597E-02   -0.1225734811642591E+01    0.3415458742311467E-04
   -0.5251592448509257E-02    0.2619486024420459E-01    0.1038724387187886E-03
   -0.5676060312435733E-02    0.1278221569065707E+01    0.8224601702222323E-04
    0.9003209617952583E+00    0.1608979112280158E+01    0.8704140727777547E-04
    0.3983172210692289E+01   -0.1561211904840279E+01    0.1757116720370600E-03
    0.4035602039224469E+01    0.1486760030415520E+01    0.1713312862106082E-03
    0.1036613723302902E+01   -0.1455626429916848E+01    0.1047189301534021E-03
    0.1094353480630802E+01   -0.2964622010671853E+00    0.1260590236916730E-03
    0.7298400267479994E+00    0.6874684746719114E+00    0.1044598640544963E-03
    0.1617018659308945E+01    0.8553208024939365E+00    0.1529810904969949E-03
    0.2143199662875790E+01   -0.1627128509216730E+01    0.1606170425226832E-03
    0.4088840445400889E+01   -0.4351047825936264E+00    0.2719933294109130E-03
    0.2977916511248925E+01   -0.8334991483094508E+00    0.2245596931875215E-03
    0.3044093241383418E+01   -0.1814361225108581E+01    0.1617000112420471E-03
    0.3427866614805211E+01    0.3813904839972496E+00    0.2936955483440210E-03
    0.4313225355351749E+01    0.5489133376342495E+00    0.2313009573592378E-03
    0.1823032737597358E+01    0.1771265193544257E+01    0.1836202887155450E-03
    0.2806311152168375E+01    0.1358629373600680E+01    0.1943492163983770E-03
    0.1891860875936711E+01   -0.8481310365607546E+00    0.1670645501816164E-03
    0.2268769200166909E+01    0.7723691819196553E-01    0.2072307783085869E-03
    0.5000000000000000E+01    0.2504941971167291E+01    0.1250000000000000E+01
    0.5000000000000000E+01    0.2504941971167291E+01    0.2500000000000000E+01
    0.5000000000000000E+01    0.2504941971167291E+01    0.3750000000000000E+01
    0.5000000000000000E+01    0.2504941971167291E+01    0.5000000000000000E+01
    0.3750000000000000E+01    0.2504941971167291E+01    0.5000000000000000E+01
    0.2500000000000000E+01    0.2504941971167291E+01    0.5000000000000000E+01
    0.1250000000000000E+01    0.2504941971167291E+01    0.5000000000000000E+01
    0.0000000000000000E+00    0.2504941971167291E+01    0.5000000000000000E+01
    0.0000000000000000E+00    0.2504941971167291E+01    0.3750000000000000E+01
    0.0000000000000000E+00    0.2504941971167291E+01    0.2500000000000000E+01
    0.0000000000000000E+00    0.2504941971167291E+01    0.1250000000000000E+01
    0.9588956434871093E+00    0.2504941971167291E+01    0.9696525519543873E+00
    0.3981953078951402E+01    0.2504941971167291E+01    0.4070563854751271E+01
    0.4036122187252336E+01    0.2504941971167291E+01    0.1017567520094671E+01
    0.9637572773153890E+00    0.2504941971167291E+01    0.3973598203142229E+01
    0.1546540136992396E+01    0.2504941971167291E+01    0.2931570169315601E+01
    0.6973799521244313E+00    0.2504941971167291E+01    0.3070319952453756E+01
    0.8903742148356885E+00    0.2504941971167291E+01    0.2056562238187738E+01
    0.2183041995146012E+01    0.2504941971167291E+01    0.3960694449828019E+01
    0.3855844872709870E+01    0.2504941971167291E+01    0.2933250588118630E+01
    0.3152611367438029E+01    0.2504941971167291E+01    0.3637668388416195E+01
    0.3103307385241870E+01    0.2504941971167291E+01    0.4332607813099731E+01
    0.3266711045517939E+01    0.2504941971167291E+01    0.1889656617463739E+01
    0.4232537554484796E+01    0.2504941971167291E+01    0.1918626969802351E+01
    0.1905522374036519E+01    0.2504941971167291E+01    0.7226290832134611E+00
    0.2879767723645805E+01    0.2504941971167291E+01    0.9080945892181980E+00
    0.2012711365064515E+01    0.2504941971167291E+01    0.1767082390977754E+01
    0.2669681472994637E+01    0.2504941971167291E+01    0.2853394335010791E+01
    0.5000000000000000E+01    0.1250000000000000E+01    0.5000000000000000E+01
    0.5000000000000000E+01    0.0000000000000000E+00    0.5000000000000000E+01
    0.5000000000000000E+01   -0.1250000000000000E+01    0.5000000000000000E+01
    0.5000000000000000E+01   -0.2496589036641631E+01    0.5000000000000000E+01
    0.5000000000000000E+01   -0.2496589036641631E+01    0.3750000000000000E+01
    0.5000000000000000E+01   -0.2496589036641631E+01    0.2500000000000000E+01
    0.5000000000000000E+01   -0.2496589036641631E+01    0.1250000000000000E+01
    0.5000000000000000E+01    0.1578994732800803E+01    0.9058375365086910E+00
    0.5000000000000000E+01   -0.1583989954232354E+01    0.3982050490726493E+01
    0.5000000000000000E+01    0.1453322699199022E+01    0.4033849428301197E+01
    0.5000000000000000E+01   -0.1479596339503735E+01    0.1040505887381675E+01
    0.5000000000000000E+01   -0.3227322616384110E+00    0.1099454400140349E+01
    0.5000000000000000E+01    0.6593508822075582E+00    0.7354504170366591E+00
    0.5000000000000000E+01    0.8256214013940779E+00    0.1622302608453282E+01
    0.5000000000000000E+01   -0.1650070333782557E+01    0.2145871574390382E+01
    0.5000000000000000E+01   -0.4612828702537229E+00    0.4086422318222992E+01
    0.5000000000000000E+01   -0.8579242121530853E+00    0.2979540174134984E+01
    0.5000000000000000E+01   -0.1836846154397680E+01    0.3045064261640043E+01
    0.5000000000000000E+01    0.3508002863614053E+00    0.3428197553792836E+01
    0.5000000000000000E+01    0.5185680230613409E+00    0.4309693860063405E+01
    0.5000000000000000E+01    0.1738996113203182E+01    0.1827272193562204E+01
    0.5000000000000000E+01    0.1325493893339706E+01    0.2808563282768077E+01
    0.5000000000000000E+01   -0.8731419609589618E+00    0.1895995683864404E+01
    0.5000000000000000E+01    0.4906150219227333E-01    0.2273179336307740E+01
    0.0000000000000000E+00    0.1250000000000000E+01    0.5000000000000000E+01
    0.0000000000000000E+00    0.0000000000000000E+00    0.5000000000000000E+01
    0.0000000000000000E+00   -0.1250000000000000E+01    0.5000000000000000E+01
    0.0000000000000000E+00   -0.2496589036641631E+01    0.5000000000000000E+01
    0.1250000000000000E+01   -0.2496589036641631E+01    0.5000000000000000E+01
    0.2500000000000000E+01   -0.2496589036641631E+01    0.5000000000000000E+01
    0.3750000000000000E+01   -0.2496589036641631E+01    0.5000000000000000E+01
    0.4042003247744892E+01    0.1558308132739014E+01    0.5000000000000000E+01
    0.9304122287900499E+00   -0.1548001304379777E+01    0.5000000000000000E+01
    0.1037243024609388E+01    0.1462892710085612E+01    0.5000000000000000E+01
    0.3946240828834967E+01   -0.1445243809615570E+01    0.5000000000000000E+01
    0.4092527262848217E+01   -0.3455338993778935E+00    0.5000000000000000E+01
    0.4293103109154542E+01    0.6277660831404320E+00    0.5000000000000000E+01
    0.3241512314643519E+01    0.7429886854239611E+00    0.5000000000000000E+01
    0.2844289952419609E+01   -0.1588117879734118E+01    0.5000000000000000E+01
    0.7159905765450471E+00   -0.6002320124191652E+00    0.5000000000000000E+01
    0.1754341919796891E+01   -0.7398147869923652E+00    0.5000000000000000E+01
    0.1870296826774691E+01   -0.1788622905643739E+01    0.5000000000000000E+01
    0.9220614901912976E+00    0.3083720183248586E+00    0.5000000000000000E+01
    0.3101523624086016E+01    0.1777901774806180E+01    0.5000000000000000E+01
    0.2192512063922564E+01    0.1576861561598471E+01    0.5000000000000000E+01
    0.2024793420196460E+01    0.4773861992750707E+00    0.5000000000000000E+01
    0.2990627757741975E+01   -0.4878110785814084E+00    0.5000000000000000E+01
    0.0000000000000000E+00   -0.2496589036641631E+01    0.1250000000000000E+01
    0.0000000000000000E+00   -0.2496589036641631E+01    0.2500000000000000E+01
    0.0000000000000000E+00   -0.2496589036641631E+01    0.3750000000000000E+01
    0.0000000000000000E+00    0.1558308132739014E+01    0.4042003247744892E+01
    0.0000000000000000E+00   -0.1548001304379777E+01    0.9304122287900499E+00
    0.0000000000000000E+00    0.1462892710085612E+01    0.1037243024609388E+01
    0.0000000000000000E+00   -0.1445243809615570E+01    0.3946240828834967E+01
    0.0000000000000000E+00   -0.3455338993778935E+00    0.4092527262848217E+01
    0.0000000000000000E+00    0.6277660831404320E+00    0.4293103109154542E+01
    0.0000000000000000E+00    0.7429886854239611E+00    0.3241512314643519E+01
    0.0000000000000000E+00   -0.1588117879734118E+01    0.2844289952419609E+01
    0.0000000000000000E+00   -0.6002320124191652E+00    0.7159905765450471E+00
    0.0000000000000000E+00   -0.7398147869923652E+00    0.1754341919796891E+01
    0.0000000000000000E+00   -0.1788622905643739E+01    0.1870296826774691E+01
    0.0000000000000000E+00    0.3083720183248586E+00    0.9220614901912976E+00
    0.0000000000000000E+00    0.1777901774806180E+01    0.3101523624086016E+01
    0.0000000000000000E+00    0.1576861561598471E+01    0.2192512063922564E+01
[...]
POINT_DATA 213
SCALARS rho double 1
LOOKUP_TABLE default
   0.1346125694796164E+01
   0.9572084527647152E+00
   0.9461020639078307E+00
   0.9421833077515451E+00
   0.8436100785905987E+00
   0.7742024922725294E+00
   0.7627632914204228E+00
   0.7661496233415080E+00
   0.8310481703367276E+00
   0.9353608197671167E+00
   0.9344036383958126E+00
   0.9615898876470115E+00
   0.1448480208888134E+01
   0.1495421840745496E+01
   0.1646754928386008E+01
   0.1426608058877440E+01
   0.1009808068720544E+01
   0.9511456929613186E+00
   0.9438291099370734E+00
   0.9574489508573060E+00
   0.9414832416640706E+00
   0.1037118221425501E+01
   0.9258147537148583E+00
   0.9322497228174007E+00
   0.9538141799783552E+00
   0.9520438484218461E+00
   0.9350971720205301E+00
   0.9565537237118981E+00
   0.9378700247679986E+00
   0.9303318784868149E+00
   0.9446515867126765E+00
   0.8862352513653093E+00
   0.9424046836435385E+00
   0.9637217255547940E+00
   0.1008362577771464E+01
   0.1006713364979943E+01
   0.1001959240549325E+01
   0.1003218316276318E+01
   0.1004120538082306E+01
   0.1005207992650283E+01
   0.1004249813847906E+01
   0.1008267843881786E+01
   0.1023867443067886E+01
   0.1063751875324938E+01
   0.1019386187162550E+01
   0.1001778934113195E+01
   0.9645975233962123E+00
   0.1005263110528871E+01
   0.1000745578316714E+01
   0.1008695104813589E+01
   0.1008032475142374E+01
   0.1002354650880929E+01
   0.9980224682790698E+00
   0.1000594440604983E+01
   0.1001621537589709E+01
   0.9828107810948170E+00
   0.9844011041687805E+00
   0.9834292502931191E+00
   0.9790423922414999E+00
   0.9904798796909374E+00
   0.9935224893886281E+00
   0.1002009103475691E+01
   0.1002132311998062E+01
   0.1002273033582343E+01
   0.1001793219489185E+01
   0.1009814972833390E+01
   0.1006499311746365E+01
   0.9560849990714443E+00
   0.9252996566846681E+00
   0.1007053712651857E+01
   0.1004491538498333E+01
   0.9144889717496771E+00
   0.9091476761027105E+00
   0.8752502590928547E+00
   0.9768039036524947E+00
   0.1000530366597905E+01
   0.1005826553460158E+01
   0.1012895293779664E+01
   0.1011677102427483E+01
   0.1010415988351582E+01
   0.1005456560095681E+01
   0.9909260255109613E+00
   0.1005152543423375E+01
   0.9860803849583138E+00
   0.1005592650627473E+01
   0.1004239968494960E+01
   0.1002886283632250E+01
   0.1003350788888627E+01
   0.1003998912068580E+01
   0.1005116700254017E+01
   0.1003224183257989E+01
   0.1002669183700806E+01
   0.1002590255848429E+01
   0.1004070004659134E+01
   0.1004304937933146E+01
   0.1001643036025513E+01
   0.1002279357321935E+01
   0.1002547248782046E+01
   0.1003472641567354E+01
   0.1003380931080911E+01
   0.1003233776571535E+01
   0.1004430854293409E+01
   0.1004325283197202E+01
   0.1003653379478008E+01
   0.1003719191863770E+01
   0.1004319534138416E+01
   0.1004463155501093E+01
   0.1003629980599653E+01
   0.1064490581493570E+01
   0.1028445780971466E+01
   0.1009607603147358E+01
   0.1006626774102680E+01
   0.1163979474301360E+01
   0.1086026004530845E+01
   0.1007908398971679E+01
   0.1007252664643618E+01
   0.1006796746946194E+01
   0.1013053608644300E+01
   0.1019342644427340E+01
   0.1235143811205290E+01
   0.1032536232933641E+01
   0.1046567728934203E+01
   0.1201703012923372E+01
   0.1014671125332396E+01
   0.1032295324199356E+01
   0.1028222151031623E+01
   0.1014641483573336E+01
   0.1029002257770450E+01
   0.1002002818476376E+01
   0.9607830580820346E+00
   0.1006859706957375E+01
   0.1001326954010046E+01
   0.1010800868392035E+01
   0.1012237273234308E+01
   0.1000940436429749E+01
   0.9979317235317272E+00
   0.9980683699440459E+00
   0.1001191956733438E+01
   0.9841985797708352E+00
   0.9815070579349671E+00
   0.9648654914695901E+00
   0.9680713427303042E+00
   0.9914149190810139E+00
   0.9910916479216346E+00
   0.9925598184526017E+00
   0.1001728510387253E+01
   0.9993250772469897E+00
   0.9941444029265193E+00
   0.1006981383545160E+01
   0.1022611654050737E+01
   0.1001121691833201E+01
   0.1008784265586801E+01
   0.1004775043985264E+01
   0.1009029447306729E+01
   0.9967197949768095E+00
   0.1005567613152641E+01
   0.1003325685873309E+01
   0.9949865129967044E+00
   0.9833521892790749E+00
   0.9944521638504357E+00
   0.9973482230863624E+00
   0.9932519263849634E+00
   0.1001312608249057E+01
   0.1003001448725940E+01
   0.1002189173482844E+01
   0.9947119516184406E+00
   0.9937839725485382E+00
   0.1004862069432108E+01
   0.1020102936709555E+01
   0.1005341234391232E+01
   0.9817063601277444E+00
   0.1004975501327933E+01
   0.1012376568815320E+01
   0.9873747459242641E+00
   0.9551282272141179E+00
   0.9865280377056443E+00
   0.9865952832622915E+00
   0.9920084248960105E+00
   0.9934470865439962E+00
   0.9960657346530498E+00
   0.1037405690909355E+01
   0.1033165796316029E+01
   0.1001443358073557E+01
   0.1001929574473312E+01
   0.9912286695852792E+00
   0.9911121698768766E+00
   0.9649300819288684E+00
   0.9933729920342981E+00
   0.1006089075111740E+01
   0.1001962080811795E+01
   0.9908628495068644E+00
   0.9742274508734280E+00
   0.9420781785086670E+00
   0.9821604770833582E+00
   0.9794777371334425E+00
   0.9704352201666976E+00
   0.9720842372276952E+00
   0.9557868488075457E+00
   0.9497981758175187E+00
   0.9529847958460907E+00
   0.1002637256815283E+01
   0.1002476301970761E+01
   0.1000513242287924E+01
   0.1001675737919766E+01
   0.9610108169557120E+00
   0.9492469479940553E+00
   0.9586432519906017E+00
   0.1001121462568691E+01
   0.1000500591166407E+01
   0.1001161102485536E+01
   0.9807429276960825E+00
   0.9805608284045634E+00
   0.9629214371680945E+00
SCALARS u double 1
LOOKUP_TABLE default
   0.0000000000000000E+00
   0.0000000000000000E+00
   0.0000000000000000E+00
   0.0000000000000000E+00
   0.0000000000000000E+00
   0.0000000000000000E+00
   0.0000000000000000E+00
   0.0000000000000000E+00
   0.0000000000000000E+00
   0.0000000000000000E+00
   0.0000000000000000E+00
   0.0000000000000000E+00
   0.0000000000000000E+00
   0.0000000000000000E+00
   0.0000000000000000E+00
   0.0000000000000000E+00
   0.0000000000000000E+00
   0.0000000000000000E+00
   0.0000000000000000E+00
   0.0000000000000000E+00
   0.0000000000000000E+00
   0.0000000000000000E+00
   0.0000000000000000E+00
   0.0000000000000000E+00
   0.0000000000000000E+00
   0.0000000000000000E+00
   0.0000000000000000E+00
   0.0000000000000000E+00
   0.0000000000000000E+00
   0.0000000000000000E+00
   0.0000000000000000E+00
   0.0000000000000000E+00
   0.0000000000000000E+00
   0.4946084390401936E+00
   0.5336296229396322E+00
   0.5182737288741468E+00
   0.4930696975717622E+00
   0.4847718119407547E+00
   0.4868108136215563E+00
   0.4891429098222752E+00
   0.4958014376856485E+00
   0.4899016128305093E+00
   0.4718097598415650E+00
   0.4448926899587125E+00
   0.4844425910270794E+00
   0.5097672109152417E+00
   0.4402157107391103E+00
   0.4949584587264899E+00
   0.5222981757400216E+00
   0.4962761335160877E+00
   0.5223877814044879E+00
   0.5038134104987478E+00
   0.5644352140168805E+00
   0.5245862239270023E+00
   0.4990946955700002E+00
   0.5729384848058964E+00
   0.5693720714277726E+00
   0.3752129680555752E+00
   0.4003935337290809E+00
   0.5599622500290197E+00
   0.5562276759088145E+00
   0.4942631174082616E+00
   0.4948654038379107E+00
   0.4925634782160045E+00
   0.4913991786278302E+00
   0.5162611628896595E+00
   0.5363588932424799E+00
   0.4951213607874804E+00
   0.4520531595291152E+00
   0.5129024774602051E+00
   0.5117690526466812E+00
   0.4786251287212243E+00
   0.4931155293858661E+00
   0.4600306954373697E+00
   0.5242629198942732E+00
   0.5299866667529153E+00
   0.5129711999262244E+00
   0.5328938855274253E+00
   0.5309772093587959E+00
   0.5309771260032815E+00
   0.5063651410168184E+00
   0.5279605765590215E+00
   0.5409254473520537E+00
   0.5363677255166568E+00
   0.5374194372046546E+00
   0.4965359093627199E+00
   0.4975361620576713E+00
   0.4963807509447996E+00
   0.4955144774623553E+00
   0.4904151887411466E+00
   0.4902491479027326E+00
   0.4861626503315032E+00
   0.4854037739485387E+00
   0.4931941380558054E+00
   0.4910329234529669E+00
   0.4831698316704346E+00
   0.4872469605538907E+00
   0.4880010969404514E+00
   0.4872294036566420E+00
   0.4882160211825334E+00
   0.4952567366102064E+00
   0.4900705809522773E+00
   0.4903581267311219E+00
   0.4944346859692934E+00
   0.4868163397682274E+00
   0.4892720557095895E+00
   0.4881455378810290E+00
   0.4878245184535988E+00
   0.4449022026405866E+00
   0.4700099664047629E+00
   0.4891756201751428E+00
   0.4885980866227732E+00
   0.4510286412221489E+00
   0.4681799610771302E+00
   0.4876648975240547E+00
   0.4868253758067067E+00
   0.4909267533148868E+00
   0.4793946319363152E+00
   0.4657884653213644E+00
   0.3794302312506632E+00
   0.4903697421167628E+00
   0.4487929174615815E+00
   0.4432385355260764E+00
   0.4845729179217867E+00
   0.4621884481320241E+00
   0.4663602298884559E+00
   0.4747774268406409E+00
   0.4893613112006147E+00
   0.5085681474237946E+00
   0.4304904287089618E+00
   0.4927280753895680E+00
   0.5320316185099402E+00
   0.4913826501723283E+00
   0.5209404404684702E+00
   0.5061319828047623E+00
   0.5690636320469998E+00
   0.5275039918421972E+00
   0.5015047795155720E+00
   0.5821373618613742E+00
   0.5691503700217367E+00
   0.3402452490602696E+00
   0.3785432685556889E+00
   0.5753091283338614E+00
   0.5668547247073813E+00
   0.5703055450940463E+00
   0.5291879661617319E+00
   0.5449833828652829E+00
   0.5719093999232510E+00
   0.5385694587091783E+00
   0.5475896936889239E+00
   0.5821565652939796E+00
   0.4925313046001147E+00
   0.5041557177772595E+00
   0.4961299804140855E+00
   0.5562803684740069E+00
   0.4757814624157564E+00
   0.4950174786318816E+00
   0.5496174672072693E+00
   0.5889519110818056E+00
   0.5839568631087029E+00
   0.5468163498067875E+00
   0.5803877175568931E+00
   0.5106055693788724E+00
   0.5029532236716114E+00
   0.5033085380851182E+00
   0.5676232052870219E+00
   0.5564629528967061E+00
   0.4947135441323403E+00
   0.5506799461326913E+00
   0.5513545696829828E+00
   0.5658254157230909E+00
   0.4919953536842078E+00
   0.4927852057935225E+00
   0.3865438338108346E+00
   0.3687907202102800E+00
   0.5574381187364820E+00
   0.5761778935277737E+00
   0.4194381851565696E+00
   0.5822999347244132E+00
   0.4268238595782665E+00
   0.5397390504913873E+00
   0.5016174621437449E+00
   0.5119228251417625E+00
   0.5048434168007258E+00
   0.5752768158184705E+00
   0.5878367583822598E+00
   0.5382358738623371E+00
   0.5679645541100956E+00
   0.5352016964049837E+00
   0.5338463699699345E+00
   0.5582293100247288E+00
   0.5511563293009523E+00
   0.4256775843519340E+00
   0.5272986084059113E+00
   0.5796794667591861E+00
   0.3318312940208976E+00
   0.4761441131774728E+00
   0.5446494937269472E+00
   0.4800669226981728E+00
   0.3006201115470327E+00
   0.5031625243250760E+00
   0.5017180913079213E+00
   0.5129133729796855E+00
   0.5414117118086904E+00
   0.3435217015008055E+00
   0.3398080158395615E+00
   0.3190194433778124E+00
   0.5066187045011810E+00
   0.5123864689540895E+00
   0.5329068386150756E+00
   0.5881307275880232E+00
   0.4644883168924288E+00
   0.3529622376807666E+00
SCALARS v double 1
LOOKUP_TABLE default
   0.0000000000000000E+00
   0.0000000000000000E+00
   0.0000000000000000E+00
   0.0000000000000000E+00
   0.0000000000000000E+00
   0.0000000000000000E+00
   0.0000000000000000E+00
   0.0000000000000000E+00
   0.0000000000000000E+00
   0.0000000000000000E+00
   0.0000000000000000E+00
   0.0000000000000000E+00
   0.0000000000000000E+00
   0.0000000000000000E+00
   0.0000000000000000E+00
   0.0000000000000000E+00
   0.0000000000000000E+00
   0.0000000000000000E+00
   0.0000000000000000E+00
   0.0000000000000000E+00
   0.0000000000000000E+00
   0.0000000000000000E+00
   0.0000000000000000E+00
   0.0000000000000000E+00
   0.0000000000000000E+00
   0.0000000000000000E+00
   0.0000000000000000E+00
   0.0000000000000000E+00
   0.0000000000000000E+00
   0.0000000000000000E+00
   0.0000000000000000E+00
   0.0000000000000000E+00
   0.0000000000000000E+00
   0.0000000000000000E+00
   0.0000000000000000E+00
   0.0000000000000000E+00
   0.0000000000000000E+00
   0.0000000000000000E+00
   0.0000000000000000E+00
   0.0000000000000000E+00
   0.0000000000000000E+00
   0.0000000000000000E+00
   0.0000000000000000E+00
   0.0000000000000000E+00
   0.0000000000000000E+00
   0.0000000000000000E+00
   0.0000000000000000E+00
   0.0000000000000000E+00
   0.0000000000000000E+00
   0.0000000000000000E+00
   0.0000000000000000E+00
   0.0000000000000000E+00
   0.0000000000000000E+00
   0.0000000000000000E+00
   0.0000000000000000E+00
   0.0000000000000000E+00
   0.0000000000000000E+00
   0.0000000000000000E+00
   0.0000000000000000E+00
   0.0000000000000000E+00
   0.0000000000000000E+00
   0.8513955361177609E-03
  -0.1262646023073171E-02
  -0.1293747196427747E-02
   0.0000000000000000E+00
   0.0000000000000000E+00
   0.0000000000000000E+00
   0.0000000000000000E+00
  -0.1933774494556610E-01
   0.5035656971418125E-03
   0.2213150726908593E-02
   0.1419313534929406E-01
  -0.6753674551784141E-02
  -0.8171004421052040E-02
  -0.1325788718023495E-01
   0.4993929178394668E-02
   0.7358934070587668E-03
   0.3478388764905135E-02
   0.1946723832698621E-02
   0.3168072266652069E-02
   0.1755557793782656E-02
  -0.7295454604917196E-02
  -0.6912294257391301E-04
   0.4552258095464281E-02
  -0.4165984000190206E-03
  -0.6650692158965736E-04
  -0.2024618782407143E-03
   0.8052041902672133E-03
   0.0000000000000000E+00
   0.0000000000000000E+00
   0.0000000000000000E+00
   0.0000000000000000E+00
   0.4747328653852782E-03
   0.1624022890303785E-02
  -0.1273125041853078E-02
  -0.9977717767301827E-03
  -0.2076428544271113E-02
  -0.9960615484761735E-03
  -0.7502640411580090E-03
  -0.7419340926185522E-03
   0.6055381865949480E-04
  -0.5966235993543739E-03
   0.8041021995615142E-03
  -0.1730002248429838E-02
   0.3146405561775056E-03
  -0.5710223162572791E-04
  -0.8890514618016565E-03
  -0.1052087353777739E-02
   0.0000000000000000E+00
   0.0000000000000000E+00
   0.0000000000000000E+00
  -0.1035601496447526E-02
  -0.7789944224346758E-02
   0.1821259126100352E-01
  -0.2902416971042283E-04
  -0.1377098222242020E-02
  -0.2028456947008034E-02
  -0.5613671772719426E-02
  -0.1620474381082371E-02
  -0.6357462322352043E-02
  -0.4327186037960968E-02
   0.1517793743078705E-02
   0.3300594270581636E-01
   0.4394529829122035E-04
  -0.2766565870398354E-02
   0.3629287488198148E-02
   0.3910358756430077E-03
   0.0000000000000000E+00
   0.0000000000000000E+00
   0.0000000000000000E+00
   0.0000000000000000E+00
   0.0000000000000000E+00
   0.0000000000000000E+00
   0.0000000000000000E+00
   0.0000000000000000E+00
   0.0000000000000000E+00
   0.0000000000000000E+00
   0.0000000000000000E+00
   0.0000000000000000E+00
   0.0000000000000000E+00
   0.0000000000000000E+00
   0.0000000000000000E+00
   0.0000000000000000E+00
   0.0000000000000000E+00
   0.5001778196297641E-02
   0.3214065065724341E-02
   0.8126045455211065E-02
   0.6096300950009605E-02
   0.1117411732735709E-01
   0.1403811528123921E-01
  -0.3216221144896975E-03
   0.5161911444150770E-02
   0.2930107585325435E-02
   0.3378096200238794E-02
   0.3728544903386738E-02
  -0.1469573980207350E-01
  -0.6136953896364376E-03
   0.6639776179997229E-02
   0.1457244614340886E-02
   0.1959300739027554E-02
   0.4263980430200634E-02
  -0.2812426158118882E-02
   0.1267609577193428E-02
   0.2851959414345327E-02
   0.1534868031413989E-02
   0.2563344866182875E-02
   0.2013569101298170E-02
   0.2154333995322061E-02
   0.8583998694345792E-02
  -0.3830083253381815E-02
   0.6155698670903480E-02
   0.4725666910437536E-04
  -0.4231582248171275E-03
  -0.1674129340540903E-01
  -0.4996659887241106E-02
  -0.4827349435058975E-02
   0.3399378242604890E-02
  -0.6077437487919962E-02
   0.3194967242611227E-04
  -0.3284948881754073E-01
  -0.3181989491007378E-02
   0.4581319063922041E-02
   0.9682240723881176E-03
   0.2133486665785267E-02
   0.4530687697951473E-02
   0.2692787741503328E-02
   0.3243073203976367E-02
   0.5223605127046180E-02
   0.1957627594942776E-02
   0.7485460677544516E-03
  -0.5693750210176026E-04
  -0.5322690140554043E-02
  -0.6972866624943973E-02
  -0.9635303160090529E-03
   0.1062718465647764E-02
  -0.2106021482048131E-02
  -0.3219291745886703E-02
  -0.2544864648764251E-02
  -0.4131306124126693E-02
  -0.7566170041725741E-02
  -0.2012358476862097E-02
   0.6515130175076799E-03
  -0.1916276468320264E-03
   0.1227816750971288E-02
  -0.3502806472664796E-02
   0.4846684277725378E-02
  -0.8642681610464290E-02
   0.3341930296748396E-04
  -0.3327777675303673E-03
   0.2558606058705248E-02
   0.1615750370951390E-02
   0.2039006090882728E-02
  -0.5641501447136774E-02
SCALARS w double 1
LOOKUP_TABLE default
   0.0000000000000000E+00
   0.0000000000000000E+00
   0.0000000000000000E+00
   0.0000000000000000E+00
   0.0000000000000000E+00
   0.0000000000000000E+00
   0.0000000000000000E+00
   0.0000000000000000E+00
   0.0000000000000000E+00
   0.0000000000000000E+00
   0.0000000000000000E+00
   0.0000000000000000E+00
   0.0000000000000000E+00
   0.0000000000000000E+00
   0.0000000000000000E+00
   0.0000000000000000E+00
   0.0000000000000000E+00
   0.0000000000000000E+00
   0.0000000000000000E+00
   0.0000000000000000E+00
   0.0000000000000000E+00
   0.0000000000000000E+00
   0.0000000000000000E+00
   0.0000000000000000E+00
   0.0000000000000000E+00
   0.0000000000000000E+00
   0.0000000000000000E+00
   0.0000000000000000E+00
   0.0000000000000000E+00
   0.0000000000000000E+00
   0.0000000000000000E+00
   0.0000000000000000E+00
   0.0000000000000000E+00
  -0.1007241858921600E+00
  -0.4245528620579041E-01
   0.7158753615158814E-03
   0.5704943558356386E-02
   0.5684952912199782E-03
   0.1606878242818535E-02
   0.3372604798010333E-02
   0.2364299402580807E-02
   0.4720647222295226E-03
   0.3528387233048635E-02
   0.4533336070130919E-01
   0.6563397479811556E-01
   0.8384124266387322E-03
  -0.2266132317408940E-01
   0.4271064976066239E-02
   0.1341970173599845E-01
   0.1029750710298341E-01
   0.4870834203713916E-01
   0.2381551735221649E-02
  -0.6534999693249080E-02
  -0.7372433721334808E-03
   0.3056375870743790E-03
   0.3846852349330083E-02
  -0.3893635252289649E-01
   0.1820273584096564E-01
   0.1120446069779703E-01
   0.3395774046041387E-01
   0.8380191415437083E-02
   0.4924617876884080E-02
   0.4973761413350680E-02
   0.4900522917433101E-02
   0.6056718409335441E-02
   0.2695309307555684E-02
  -0.4127769734062455E-01
  -0.9927104317848374E-01
  -0.1120360380853563E+00
   0.5144525313298716E-02
   0.4216388428284701E-02
  -0.1002595860482316E+00
  -0.9892594349068398E-01
  -0.9835483711505247E-01
  -0.9443969382456018E-01
  -0.6790972039198313E-01
   0.5196996620951930E-02
  -0.1927315220196284E-01
  -0.1563508313095673E-01
  -0.5964345919511767E-02
   0.6822779802407656E-02
  -0.7999951897205376E-01
  -0.2776431479434456E-01
  -0.8086526756576361E-01
  -0.5863339146028448E-01
   0.3073989812118564E-02
   0.2685175147707449E-02
   0.2644703078773405E-02
   0.3457404374786077E-02
   0.3998529298526802E-02
   0.1199876519489134E-02
  -0.1355432377567794E-03
   0.2028966191348697E-02
   0.4894373680666763E-02
   0.3864560753659917E-02
   0.1126430713200447E-02
   0.1188310627252151E-02
   0.1460245323187638E-02
  -0.2199459240732031E-04
   0.9121998348791708E-04
   0.4387187200718497E-02
   0.2712579859881949E-02
   0.2317255083772514E-02
   0.5007037344023266E-02
   0.1069971393928209E-02
   0.2707114404578151E-02
   0.2010664724076162E-02
   0.3391927295998079E-04
   0.8386260354650134E-01
   0.2832480964333418E-02
  -0.8469296581162462E-03
  -0.1274285298755464E-03
   0.1410903979825488E+00
   0.1236626536393944E+00
  -0.1228867735326553E-02
  -0.4383136247455572E-02
  -0.2804612791956923E-03
  -0.6477826838253276E-02
  -0.1895598713950357E-02
   0.1559394040483231E+00
   0.7528604328438826E-01
   0.2567550695077200E-01
   0.1661313051472781E+00