# vtk DataFile Version 2.0
FUN3D:global_image_vtk
ASCII
DATASET UNSTRUCTURED_GRID
POINTS 213 double
   -0.5474685354673440E-02    0.2504941971120178E+01    0.8038152024199333E-04
    0.1245419105255567E+01    0.2504941971120178E+01    0.1039426360357621E-03
    0.2497696093165082E+01    0.2504941971120178E+01    0.1101299424061264E-03
    0.3750590968902967E+01    0.2504941971120178E+01    0.1356500208995615E-03
    0.5003221331685069E+01    0.2504941971120178E+01    0.9668884646120471E-04
    0.5004676687906325E+01    0.1281291201874989E+01    0.1638053852026750E-03
    0.5004772673713691E+01    0.2775079881942759E-01    0.1903478533101868E-03
    0.5003581183301330E+01   -0.1225853509085650E+01    0.1607765437864926E-03
    0.5001952533727192E+01   -0.2496589036669383E+01    0.1082258832325040E-03
    0.3750348111604984E+01   -0.2496589036669383E+01    0.1458753656864982E-03
    0.2498611463008006E+01   -0.2496589036669383E+01    0.1008933243985540E-03
    0.1247175269358997E+01   -0.2496589036669383E+01    0.1108587616795993E-03
   -0.3383959836417373E-02   -0.2496589036669383E+01    0.8107259858541839E-04
   -0.4257768931200891E-02   -0.1225734811831699E+01    0.3415462225692433E-04
   -0.5251592377664152E-02    0.2619486003229204E-01    0.1038725060845194E-03
   -0.5676060226544880E-02    0.1278221568826043E+01    0.8224611811664630E-04
    0.9003209618811945E+00    0.1608979112009521E+01    0.8704151435552422E-04
    0.3983172210681063E+01   -0.1561211905032496E+01    0.1757116892528466E-03
    0.4035602039196104E+01    0.1486760030089594E+01    0.1713313780272287E-03
    0.1036613723345004E+01   -0.1455626430112184E+01    0.1047189560833298E-03
    0.1094353480696708E+01   -0.2964622012897231E+00    0.1260590792086018E-03
    0.7298400268293916E+00    0.6874684744290098E+00    0.1044599469473640E-03
    0.1617018659386684E+01    0.8553208022224867E+00    0.1529811744180970E-03
    0.2143199662905053E+01   -0.1627128509408379E+01    0.1606170614000833E-03
    0.4088840445370388E+01   -0.4351047828261935E+00    0.2719933720569168E-03
    0.2977916511269220E+01   -0.8334991485208170E+00    0.2245597292968071E-03
    0.3044093241394255E+01   -0.1814361225298813E+01    0.1617000240866655E-03
    0.3427866614809518E+01    0.3813904837093364E+00    0.2936956127938064E-03
    0.4313225355300894E+01    0.5489133373497911E+00    0.2313010240641651E-03
    0.1823032737662369E+01    0.1771265193236943E+01    0.1836203960077343E-03
    0.2806311152201418E+01    0.1358629373277930E+01    0.1943493090698188E-03
    0.1891860875986752E+01   -0.8481310367752777E+00    0.1670645890422028E-03
    0.2268769200226429E+01    0.7723691793529119E-01    0.2072308394559590E-03
    0.5000000000000000E+01    0.2504941971120178E+01    0.1250000000000000E+01
    0.5000000000000000E+01    0.2504941971120178E+01    0.2500000000000000E+01
    0.5000000000000000E+01    0.2504941971120178E+01    0.3750000000000000E+01
    0.5000000000000000E+01    0.2504941971120178E+01    0.5000000000000000E+01
    0.3750000000000000E+01    0.2504941971120178E+01    0.5000000000000000E+01
    0.2500000000000000E+01    0.2504941971120178E+01    0.5000000000000000E+01
    0.1250000000000000E+01    0.2504941971120178E+01    0.5000000000000000E+01
    0.0000000000000000E+00    0.2504941971120178E+01    0.5000000000000000E+01
    0.0000000000000000E+00    0.2504941971120178E+01    0.3750000000000000E+01
    0.0000000000000000E+00    0.2504941971120178E+01    0.2500000000000000E+01
    0.0000000000000000E+00    0.2504941971120178E+01    0.1250000000000000E+01
    0.9588956435498147E+00    0.2504941971120178E+01    0.9696525519819160E+00
    0.3981953078953990E+01    0.2504941971120178E+01    0.4070563854758392E+01
    0.4036122187243473E+01    0.2504941971120178E+01    0.1017567520138455E+01
    0.9637572773160257E+00    0.2504941971120178E+01    0.3973598203147244E+01
    0.1546540137002720E+01    0.2504941971120178E+01    0.2931570169332425E+01
    0.6973799521304602E+00    0.2504941971120178E+01    0.3070319952462183E+01
    0.8903742148597932E+00    0.2504941971120178E+01    0.2056562238205702E+01
    0.2183041995148338E+01    0.2504941971120178E+01    0.3960694449838289E+01
    0.3855844872713528E+01    0.2504941971120178E+01    0.2933250588136588E+01
    0.3152611367441827E+01    0.2504941971120178E+01    0.3637668388430321E+01
    0.3103307385244049E+01    0.2504941971120178E+01    0.4332607813106787E+01
    0.3266711045528354E+01    0.2504941971120178E+01    0.1889656617508911E+01
    0.4232537554485216E+01    0.2504941971120178E+01    0.1918626969820453E+01
    0.1905522374098332E+01    0.2504941971120178E+01    0.7226290832790409E+00
    0.2879767723664923E+01    0.2504941971120178E+01    0.9080945893019035E+00
    0.2012711365088211E+01    0.2504941971120178E+01    0.1767082391024547E+01
    0.2669681473002636E+01    0.2504941971120178E+01    0.2853394335039529E+01
    0.5000000000000000E+01    0.1250000000000000E+01    0.5000000000000000E+01
    0.5000000000000000E+01    0.0000000000000000E+00    0.5000000000000000E+01
    0.5000000000000000E+01   -0.1250000000000000E+01    0.5000000000000000E+01
    0.5000000000000000E+01   -0.2496589036669383E+01    0.5000000000000000E+01
    0.5000000000000000E+01   -0.2496589036669383E+01    0.3750000000000000E+01
    0.5000000000000000E+01   -0.2496589036669383E+01    0.2500000000000000E+01
    0.5000000000000000E+01   -0.2496589036669383E+01    0.1250000000000000E+01
    0.5000000000000000E+01    0.1578994732800803E+01    0.9058375365086910E+00
    0.5000000000000000E+01   -0.1583989954232354E+01    0.3982050490726493E+01
    0.5000000000000000E+01    0.1453322699199022E+01    0.4033849428301197E+01
    0.5000000000000000E+01   -0.1479596339503735E+01    0.1040505887381675E+01
    0.5000000000000000E+01   -0.3227322616384110E+00    0.1099454400140349E+01
    0.5000000000000000E+01    0.6593508822075582E+00    0.7354504170366591E+00
    0.5000000000000000E+01    0.8256214013940779E+00    0.1622302608453282E+01
    0.5000000000000000E+01   -0.1650070333782557E+01    0.2145871574390382E+01
    0.5000000000000000E+01   -0.4612828702537229E+00    0.4086422318222992E+01
    0.5000000000000000E+01   -0.8579242121530853E+00    0.2979540174134984E+01
    0.5000000000000000E+01   -0.1836846154397680E+01    0.3045064261640043E+01
    0.5000000000000000E+01    0.3508002863614053E+00    0.3428197553792836E+01
    0.5000000000000000E+01    0.5185680230613409E+00    0.4309693860063405E+01
    0.5000000000000000E+01    0.1738996113203182E+01    0.1827272193562204E+01
    0.5000000000000000E+01    0.1325493893339706E+01    0.2808563282768077E+01
    0.5000000000000000E+01   -0.8731419609589618E+00    0.1895995683864404E+01
    0.5000000000000000E+01    0.4906150219227333E-01    0.2273179336307740E+01
    0.0000000000000000E+00    0.1250000000000000E+01    0.5000000000000000E+01
    0.0000000000000000E+00    0.0000000000000000E+00    0.5000000000000000E+01
    0.0000000000000000E+00   -0.1250000000000000E+01    0.5000000000000000E+01
    0.0000000000000000E+00   -0.2496589036669383E+01    0.5000000000000000E+01
    0.1250000000000000E+01   -0.2496589036669383E+01    0.5000000000000000E+01
    0.2500000000000000E+01   -0.2496589036669383E+01    0.5000000000000000E+01
    0.3750000000000000E+01   -0.2496589036669383E+01    0.5000000000000000E+01
    0.4042003247744892E+01    0.1558308132739014E+01    0.5000000000000000E+01
    0.9304122287900499E+00   -0.1548001304379777E+01    0.5000000000000000E+01
    0.1037243024609388E+01    0.1462892710085612E+01    0.5000000000000000E+01
    0.3946240828834967E+01   -0.1445243809615570E+01    0.5000000000000000E+01
    0.4092527262848217E+01   -0.3455338993778935E+00    0.5000000000000000E+01
    0.4293103109154542E+01    0.6277660831404320E+00    0.5000000000000000E+01
    0.3241512314643519E+01    0.7429886854239611E+00    0.5000000000000000E+01
    0.2844289952419609E+01   -0.1588117879734118E+01    0.5000000000000000E+01
    0.7159905765450471E+00   -0.6002320124191652E+00    0.5000000000000000E+01
    0.1754341919796891E+01   -0.7398147869923652E+00    0.5000000000000000E+01
    0.1870296826774691E+01   -0.1788622905643739E+01    0.5000000000000000E+01
    0.9220614901912976E+00    0.3083720183248586E+00    0.5000000000000000E+01
    0.3101523624086016E+01    0.1777901774806180E+01    0.5000000000000000E+01
    0.2192512063922564E+01    0.1576861561598471E+01    0.5000000000000000E+01
    0.2024793420196460E+01    0.4773861992750707E+00    0.5000000000000000E+01
    0.2990627757741975E+01   -0.4878110785814084E+00    0.5000000000000000E+01
    0.0000000000000000E+00   -0.2496589036669383E+01    0.1250000000000000E+01
    0.0000000000000000E+00   -0.2496589036669383E+01    0.2500000000000000E+01
    0.0000000000000000E+00   -0.2496589036669383E+01    0.3750000000000000E+01
    0.0000000000000000E+00    0.1558308132739014E+01    0.4042003247744892E+01
    0.0000000000000000E+00   -0.1548001304379777E+01    0.9304122287900499E+00
    0.0000000000000000E+00    0.1462892710085612E+01    0.1037243024609388E+01
    0.0000000000000000E+00   -0.1445243809615570E+01    0.3946240828834967E+01
    0.0000000000000000E+00   -0.3455338993778935E+00    0.4092527262848217E+01
    0.0000000000000000E+00    0.6277660831404320E+00    0.4293103109154542E+01
    0.0000000000000000E+00    0.7429886854239611E+00    0.3241512314643519E+01
    0.0000000000000000E+00   -0.1588117879734118E+01    0.2844289952419609E+01
    0.0000000000000000E+00   -0.6002320124191652E+00    0.7159905765450471E+00
    0.0000000000000000E+00   -0.7398147869923652E+00    0.1754341919796891E+01
    0.0000000000000000E+00   -0.1788622905643739E+01    0.1870296826774691E+01
    0.0000000000000000E+00    0.3083720183248586E+00    0.9220614901912976E+00
    0.0000000000000000E+00    0.1777901774806180E+01    0.3101523624086016E+01
    0.0000000000000000E+00    0.1576861561598471E+01    0.2192512063922564E+01
[...]
POINT_DATA 213
SCALARS rho double 1
LOOKUP_TABLE default
   0.1346121576558850E+01
   0.9571948763039417E+00
   0.9460886887382147E+00
   0.9421893257231422E+00
   0.8436069119447064E+00
   0.7741799829477407E+00
   0.7627470237242855E+00
   0.7661154369830573E+00
   0.8310406020585250E+00
   0.9353548873317085E+00
   0.9343789638740212E+00
   0.9615770358808982E+00
   0.1448481179323004E+01
   0.1495413532883149E+01
   0.1646745670287280E+01
   0.1426609495869454E+01
   0.1009796198807903E+01
   0.9511289943394338E+00
   0.9438275007601803E+00
   0.9574421336188302E+00
   0.9414707605302078E+00
   0.1037107582148464E+01
   0.9257988595898702E+00
   0.9322328369716560E+00
   0.9538049089520337E+00
   0.9520309169047885E+00
   0.9350748381644722E+00
   0.9565442453627812E+00
   0.9378629791182140E+00
   0.9303174976505385E+00
   0.9446384614738863E+00
   0.8862202068720297E+00
   0.9423972426504729E+00
   0.9637583308137890E+00
   0.1008372060966472E+01
   0.1006747112362773E+01
   0.1001852773320970E+01
   0.1003123524372103E+01
   0.1004082157096741E+01
   0.1005202130459735E+01
   0.1004248447756227E+01
   0.1008252297220501E+01
   0.1023856653722943E+01
   0.1063735395606179E+01
   0.1019377282305354E+01
   0.1001769746669104E+01
   0.9646660416536718E+00
   0.1005244619842778E+01
   0.1000724530056470E+01
   0.1008677252302018E+01
   0.1008015214859581E+01
   0.1002340934790781E+01
   0.9980238470085291E+00
   0.1000591022513368E+01
   0.1001604561052643E+01
   0.9827935361446111E+00
   0.9843909522639537E+00
   0.9834199977384933E+00
   0.9790755590651991E+00
   0.9904655435784980E+00
   0.9935082667662959E+00
   0.1001924481360623E+01
   0.1002057291524185E+01
   0.1002228606704992E+01
   0.1001730232036599E+01
   0.1009832769073364E+01
   0.1006491025078243E+01
   0.9560567801987172E+00
   0.9252974809424031E+00
   0.1007055845433466E+01
   0.1004494540937365E+01
   0.9144879640790601E+00
   0.9091702000123622E+00
   0.8752686692700556E+00
   0.9767694205259142E+00
   0.1000496994799587E+01
   0.1005828708045144E+01
   0.1012913971180141E+01
   0.1011698227133626E+01
   0.1010446393447149E+01
   0.1005436075223642E+01
   0.9909015030162613E+00
   0.1005173058015762E+01
   0.9860582672988552E+00
   0.1005574625302522E+01
   0.1004234052103122E+01
   0.1002867590340653E+01
   0.1003332813106284E+01
   0.1003992617526204E+01
   0.1005102398717398E+01
   0.1003213221189372E+01
   0.1002637694679032E+01
   0.1002503449256871E+01
   0.1004058356768755E+01
   0.1004282716593360E+01
   0.1001609837525727E+01
   0.1002218116009336E+01
   0.1002468865276109E+01
   0.1003439924658134E+01
   0.1003371390617401E+01
   0.1003221748385614E+01
   0.1004424093684758E+01
   0.1004319740822324E+01
   0.1003643004273083E+01
   0.1003656415289677E+01
   0.1004293763635560E+01
   0.1004444618871643E+01
   0.1003598439762883E+01
   0.1064484054732204E+01
   0.1028435420500414E+01
   0.1009591478899163E+01
   0.1006618278587617E+01
   0.1163959916996524E+01
   0.1086026931725001E+01
   0.1007890504576061E+01
   0.1007236271230065E+01
   0.1006788266567724E+01
   0.1013043289137213E+01
   0.1019327597190115E+01
   0.1235137251176379E+01
   0.1032532043017572E+01
   0.1046550096529177E+01
   0.1201690718587643E+01
   0.1014663280044714E+01
   0.1032279468484534E+01
   0.1028207117333523E+01
   0.1014627676284806E+01
   0.1028994286455402E+01
   0.1001995785225796E+01
   0.9607926054130960E+00
   0.1006846613887247E+01
   0.1001309973492678E+01
   0.1010786057249756E+01
   0.1012227684031053E+01
   0.1000928859729345E+01
   0.9979241448304280E+00
   0.9980607641803600E+00
   0.1001176471480260E+01
   0.9841698979707384E+00
   0.9814804051276714E+00
   0.9648643281479247E+00
   0.9680609612321363E+00
   0.9914117696855822E+00
   0.9910787873701126E+00
   0.9925448965753494E+00
   0.1001711340226468E+01
   0.9993074439761913E+00
   0.9941315271755038E+00
   0.1006967070655376E+01
   0.1022600393601617E+01
   0.1001120351158185E+01
   0.1008768406487527E+01
   0.1004758766622642E+01
   0.1009008547717899E+01
   0.9967065495208078E+00
   0.1005559014954740E+01
   0.1003316847455897E+01
   0.9949760837849299E+00
   0.9833354561432933E+00
   0.9944366656275867E+00
   0.9973430993736440E+00
   0.9932324160527991E+00
   0.1001303842003248E+01
   0.1002993277922565E+01
   0.1002173938857654E+01
   0.9947102219453671E+00
   0.9937779612127640E+00
   0.1004847431301374E+01
   0.1020089644592711E+01
   0.1005330537467722E+01
   0.9816977697699183E+00
   0.1004963753846305E+01
   0.1012360290057163E+01
   0.9873646060377768E+00
   0.9551232767735832E+00
   0.9865189440799116E+00
   0.9865837198362200E+00
   0.9920019773227596E+00
   0.9934353842992879E+00
   0.9960558482270924E+00
   0.1037397856603626E+01
   0.1033153659650278E+01
   0.1001426070677502E+01
   0.1001911890146646E+01
   0.9912130990291420E+00
   0.9910991013769516E+00
   0.9649004388965450E+00
   0.9933606023720924E+00
   0.1006089889071255E+01
   0.1001960000135506E+01
   0.9908499550026288E+00
   0.9742085893388274E+00
   0.9420699056211266E+00
   0.9821425105812557E+00
   0.9794643150125308E+00
   0.9704377260473865E+00
   0.9720603745966581E+00
   0.9557738658614673E+00
   0.9498025815318469E+00
   0.9529959711983381E+00
   0.1002619337889283E+01
   0.1002471213010402E+01
   0.1000505660056360E+01
   0.1001689870000799E+01
   0.9609871244934783E+00
   0.9492879715242601E+00
   0.9586546962799208E+00
   0.1001115806261026E+01
   0.1000496906608008E+01
   0.1001173735238860E+01
   0.9807337981272700E+00
   0.9805510672378795E+00
   0.9629253434777753E+00
SCALARS u double 1
LOOKUP_TABLE default
   0.0000000000000000E+00
   0.0000000000000000E+00
   0.0000000000000000E+00
   0.0000000000000000E+00
   0.0000000000000000E+00
   0.0000000000000000E+00
   0.0000000000000000E+00
   0.0000000000000000E+00
   0.0000000000000000E+00
   0.0000000000000000E+00
   0.0000000000000000E+00
   0.0000000000000000E+00
   0.0000000000000000E+00
   0.0000000000000000E+00
   0.0000000000000000E+00
   0.0000000000000000E+00
   0.0000000000000000E+00
   0.0000000000000000E+00
   0.0000000000000000E+00
   0.0000000000000000E+00
   0.0000000000000000E+00
   0.0000000000000000E+00
   0.0000000000000000E+00
   0.0000000000000000E+00
   0.0000000000000000E+00
   0.0000000000000000E+00
   0.0000000000000000E+00
   0.0000000000000000E+00
   0.0000000000000000E+00
   0.0000000000000000E+00
   0.0000000000000000E+00
   0.0000000000000000E+00
   0.0000000000000000E+00
   0.4945175768266978E+00
   0.5336188458143649E+00
   0.5183277074328708E+00
   0.4930081223885271E+00
   0.4845503233281696E+00
   0.4867797637658172E+00
   0.4891960255252928E+00
   0.4958547869588034E+00
   0.4899048296713399E+00
   0.4718226239071647E+00
   0.4449129646692104E+00
   0.4844488319265084E+00
   0.5098727220241404E+00
   0.4401627534662134E+00
   0.4949815255100536E+00
   0.5223217181009054E+00
   0.4962880727268945E+00
   0.5224068180351986E+00
   0.5038781531018398E+00
   0.5645113048181661E+00
   0.5246783776477890E+00
   0.4991763303470263E+00
   0.5729144681783107E+00
   0.5693306685150488E+00
   0.3752003459422543E+00
   0.4003329166175612E+00
   0.5599655098508750E+00
   0.5562692618776464E+00
   0.4941815684418425E+00
   0.4948054579723491E+00
   0.4924991021421345E+00
   0.4913591408108168E+00
   0.5163202332613080E+00
   0.5363580119945469E+00
   0.4951009798737502E+00
   0.4520208662048802E+00
   0.5129286666517823E+00
   0.5118223051182140E+00
   0.4785891091505114E+00
   0.4930935261437603E+00
   0.4599994212332008E+00
   0.5242750899206888E+00
   0.5299894267518183E+00
   0.5129956166516304E+00
   0.5328908005148039E+00
   0.5309917238588449E+00
   0.5309917304558073E+00
   0.5063863123093219E+00
   0.5279390690435035E+00
   0.5409216607963415E+00
   0.5363672231116184E+00
   0.5374266737581048E+00
   0.4965527080218095E+00
   0.4975485430109421E+00
   0.4963889595912219E+00
   0.4955318625333370E+00
   0.4904088550568507E+00
   0.4901940096679885E+00
   0.4859913977774919E+00
   0.4851907292107163E+00
   0.4932025258648573E+00
   0.4910575516727465E+00
   0.4830376796677344E+00
   0.4871037702314928E+00
   0.4878374753751505E+00
   0.4871407325563767E+00
   0.4881057921408490E+00
   0.4952651999742828E+00
   0.4900679170542094E+00
   0.4903375835489193E+00
   0.4944549179303909E+00
   0.4867036053659840E+00
   0.4892672211922034E+00
   0.4881445071837630E+00
   0.4877440533102665E+00
   0.4449090179546750E+00
   0.4700205505636330E+00
   0.4891899219560609E+00
   0.4885812071626439E+00
   0.4510571511407434E+00
   0.4681648473351509E+00
   0.4876715182667143E+00
   0.4868279302279868E+00
   0.4909344309241292E+00
   0.4794075500742358E+00
   0.4658106292327889E+00
   0.3794391069214080E+00
   0.4903719042119324E+00
   0.4488105782964735E+00
   0.4432555845284118E+00
   0.4845821229957454E+00
   0.4622214654678184E+00
   0.4663846275556674E+00
   0.4747945053254532E+00
   0.4893765485018626E+00
   0.5086727393658641E+00
   0.4304701969091434E+00
   0.4927419231453647E+00
   0.5320474113055752E+00
   0.4913924657531629E+00
   0.5209510963398404E+00
   0.5062026694590200E+00
   0.5691188396061606E+00
   0.5275886908342962E+00
   0.5015568079009260E+00
   0.5821010879240358E+00
   0.5691197158940841E+00
   0.3402537684045137E+00
   0.3785225530258978E+00
   0.5753075364495598E+00
   0.5668700855629506E+00
   0.5703096999073394E+00
   0.5292031875059068E+00
   0.5449942849831150E+00
   0.5719051851536907E+00
   0.5385861377461092E+00
   0.5475984682031284E+00
   0.5821612445926817E+00
   0.4925463994466089E+00
   0.5041925414124170E+00
   0.4961448505882226E+00
   0.5562861204929448E+00
   0.4757908849792578E+00
   0.4950432715278796E+00
   0.5496530874036244E+00
   0.5889373034629822E+00
   0.5839913359859686E+00
   0.5468830386053051E+00
   0.5803823956363939E+00
   0.5106729977974616E+00
   0.5030174990684384E+00
   0.5033631765788960E+00
   0.5676464133899366E+00
   0.5564993216517394E+00
   0.4947429769813342E+00
   0.5506873591982796E+00
   0.5513574989267880E+00
   0.5658242570054687E+00
   0.4920161544854267E+00
   0.4927938609368482E+00
   0.3865677366513394E+00
   0.3688200905315941E+00
   0.5574243507946537E+00
   0.5761782488766261E+00
   0.4194301318064139E+00
   0.5822832401003902E+00
   0.4268513044980370E+00
   0.5397544074155488E+00
   0.5016353689325501E+00
   0.5119718783105237E+00
   0.5049247194244324E+00
   0.5752634651793823E+00
   0.5878512131050068E+00
   0.5381944482139307E+00
   0.5679615947031612E+00
   0.5352665338616239E+00
   0.5338916807263941E+00
   0.5582359271187286E+00
   0.5511008580377447E+00
   0.4256464692268125E+00
   0.5272697490148796E+00
   0.5796682343475639E+00
   0.3318636161024802E+00
   0.4761193901931121E+00
   0.5446470971325000E+00
   0.4800573258719353E+00
   0.3006339299552757E+00
   0.5031802568666284E+00
   0.5017753170153343E+00
   0.5129665614101875E+00
   0.5414810086917293E+00
   0.3435249788309559E+00
   0.3398477516985151E+00
   0.3189967036829522E+00
   0.5066789593707740E+00
   0.5124659210395691E+00
   0.5330027377153239E+00
   0.5881307686766916E+00
   0.4644930841561300E+00
   0.3530089991753187E+00
SCALARS v double 1
LOOKUP_TABLE default
   0.0000000000000000E+00
   0.0000000000000000E+00
   0.0000000000000000E+00
   0.0000000000000000E+00
   0.0000000000000000E+00
   0.0000000000000000E+00
   0.0000000000000000E+00
   0.0000000000000000E+00
   0.0000000000000000E+00
   0.0000000000000000E+00
   0.0000000000000000E+00
   0.0000000000000000E+00
   0.0000000000000000E+00
   0.0000000000000000E+00
   0.0000000000000000E+00
   0.0000000000000000E+00
   0.0000000000000000E+00
   0.0000000000000000E+00
   0.0000000000000000E+00
   0.0000000000000000E+00
   0.0000000000000000E+00
   0.0000000000000000E+00
   0.0000000000000000E+00
   0.0000000000000000E+00
   0.0000000000000000E+00
   0.0000000000000000E+00
   0.0000000000000000E+00
   0.0000000000000000E+00
   0.0000000000000000E+00
   0.0000000000000000E+00
   0.0000000000000000E+00
   0.0000000000000000E+00
   0.0000000000000000E+00
   0.0000000000000000E+00
   0.0000000000000000E+00
   0.0000000000000000E+00
   0.0000000000000000E+00
   0.0000000000000000E+00
   0.0000000000000000E+00
   0.0000000000000000E+00
   0.0000000000000000E+00
   0.0000000000000000E+00
   0.0000000000000000E+00
   0.0000000000000000E+00
   0.0000000000000000E+00
   0.0000000000000000E+00
   0.0000000000000000E+00
   0.0000000000000000E+00
   0.0000000000000000E+00
   0.0000000000000000E+00
   0.0000000000000000E+00
   0.0000000000000000E+00
   0.0000000000000000E+00
   0.0000000000000000E+00
   0.0000000000000000E+00
   0.0000000000000000E+00
   0.0000000000000000E+00
   0.0000000000000000E+00
   0.0000000000000000E+00
   0.0000000000000000E+00
   0.0000000000000000E+00
   0.9026035657050053E-03
  -0.1237609622472218E-02
  -0.1302768542647164E-02
   0.0000000000000000E+00
   0.0000000000000000E+00
   0.0000000000000000E+00
   0.0000000000000000E+00
  -0.1934098940991495E-01
   0.5114593634296468E-03
   0.2225296246063085E-02
   0.1418141499736337E-01
  -0.6757267143898372E-02
  -0.8153337058832217E-02
  -0.1324799615602256E-01
   0.4997217281887763E-02
   0.7479717740902944E-03
   0.3496395141153869E-02
   0.1956657501479226E-02
   0.3187937077487601E-02
   0.1778889242379767E-02
  -0.7300512124140606E-02
  -0.6834586447230889E-04
   0.4551811024532571E-02
  -0.4018368163087261E-03
  -0.6909969222378643E-04
  -0.2019727912279683E-03
   0.8167082898720497E-03
   0.0000000000000000E+00
   0.0000000000000000E+00
   0.0000000000000000E+00
   0.0000000000000000E+00
   0.5162820935004935E-03
   0.1647129208469843E-02
  -0.1286848989232389E-02
  -0.1012873730051046E-02
  -0.2098827252203441E-02
  -0.9837143302767646E-03
  -0.7637813386031308E-03
  -0.7292825316172355E-03
   0.7435762431957631E-04
  -0.5661449410901316E-03
   0.8176584205471488E-03
  -0.1729987935385403E-02
   0.3076670574780537E-03
  -0.7101906695342352E-04
  -0.8945501257184188E-03
  -0.1057768528941241E-02
   0.0000000000000000E+00
   0.0000000000000000E+00
   0.0000000000000000E+00
  -0.1036306231198494E-02
  -0.7792141715930106E-02
   0.1821307024723289E-01
  -0.2909582595912457E-04
  -0.1386294241354755E-02
  -0.2036812144575073E-02
  -0.5624401670073716E-02
  -0.1628735671371030E-02
  -0.6360348416393317E-02
  -0.4331605224793332E-02
   0.1518054044165249E-02
   0.3300680858650995E-01
   0.4059484705166833E-04
  -0.2767247367293292E-02
   0.3626607145508528E-02
   0.3821035563338411E-03
   0.0000000000000000E+00
   0.0000000000000000E+00
   0.0000000000000000E+00
   0.0000000000000000E+00
   0.0000000000000000E+00
   0.0000000000000000E+00
   0.0000000000000000E+00
   0.0000000000000000E+00
   0.0000000000000000E+00
   0.0000000000000000E+00
   0.0000000000000000E+00
   0.0000000000000000E+00
   0.0000000000000000E+00
   0.0000000000000000E+00
   0.0000000000000000E+00
   0.0000000000000000E+00
   0.0000000000000000E+00
   0.5017033414458574E-02
   0.3215976418041606E-02
   0.8138177118569991E-02
   0.6097276660077301E-02
   0.1117642100880994E-01
   0.1403883051478710E-01
  -0.3226660061858032E-03
   0.5155898893269519E-02
   0.2939192186522810E-02
   0.3378910792462731E-02
   0.3732072790781633E-02
  -0.1470694638139503E-01
  -0.6074324012998339E-03
   0.6660418724340244E-02
   0.1458778198639253E-02
   0.1973658705031793E-02
   0.4295815404643854E-02
  -0.2791678291583384E-02
   0.1289261196386945E-02
   0.2870340459797328E-02
   0.1561368174067848E-02
   0.2590542753176030E-02
   0.2031320594060389E-02
   0.2161086169681334E-02
   0.8581865425891469E-02
  -0.3834400642171221E-02
   0.6156742029440085E-02
   0.5531923961613366E-04
  -0.4324537609606023E-03
  -0.1677378877549522E-01
  -0.5006916732401564E-02
  -0.4827612172507051E-02
   0.3401814462071572E-02
  -0.6093727896898677E-02
   0.2793746557803505E-04
  -0.3286523653215603E-01
  -0.3181284539345037E-02
   0.4585039410239028E-02
   0.9862603691766949E-03
   0.2150223952057665E-02
   0.4549069855938089E-02
   0.2697222513771632E-02
   0.3243745399388748E-02
   0.5230383539391892E-02
   0.1964093303828510E-02
   0.7594392881004165E-03
  -0.5744558612969738E-04
  -0.5326847949846316E-02
  -0.6975864340780044E-02
  -0.9830072803000203E-03
   0.1076184554111784E-02
  -0.2101346924851327E-02
  -0.3211376701402684E-02
  -0.2540097973180917E-02
  -0.4136503886124698E-02
  -0.7569709457962551E-02
  -0.2022311562144409E-02
   0.6702868009560660E-03
  -0.1823387729876449E-03
   0.1250304917989536E-02
  -0.3526573940501549E-02
   0.4837764770465131E-02
  -0.8644308548698545E-02
   0.3925417587520410E-04
  -0.3378419502178440E-03
   0.2575569402812479E-02
   0.1615994245808834E-02
   0.2042618267206863E-02
  -0.5654769111520561E-02
SCALARS w double 1
LOOKUP_TABLE default
   0.0000000000000000E+00
   0.0000000000000000E+00
   0.0000000000000000E+00
   0.0000000000000000E+00
   0.0000000000000000E+00
   0.0000000000000000E+00
   0.0000000000000000E+00
   0.0000000000000000E+00
   0.0000000000000000E+00
   0.0000000000000000E+00
   0.0000000000000000E+00
   0.0000000000000000E+00
   0.0000000000000000E+00
   0.0000000000000000E+00
   0.0000000000000000E+00
   0.0000000000000000E+00
   0.0000000000000000E+00
   0.0000000000000000E+00
   0.0000000000000000E+00
   0.0000000000000000E+00
   0.0000000000000000E+00
   0.0000000000000000E+00
   0.0000000000000000E+00
   0.0000000000000000E+00
   0.0000000000000000E+00
   0.0000000000000000E+00
   0.0000000000000000E+00
   0.0000000000000000E+00
   0.0000000000000000E+00
   0.0000000000000000E+00
   0.0000000000000000E+00
   0.0000000000000000E+00
   0.0000000000000000E+00
  -0.1007314852087055E+00
  -0.4246354689305352E-01
   0.7792816606075139E-03
   0.5817725412278770E-02
   0.6830418981423454E-03
   0.1633443915765321E-02
   0.3337162605962988E-02
   0.2335756712233979E-02
   0.4623655570548423E-03
   0.3525746551785020E-02
   0.4534238249522979E-01
   0.6563023283799660E-01
   0.8962175062580294E-03
  -0.2268930475756367E-01
   0.4266449948805045E-02
   0.1344266452497906E-01
   0.1029869801639874E-01
   0.4871298307067803E-01
   0.2384156210073964E-02
  -0.6530995684207631E-02
  -0.7321715837643449E-03
   0.3050552314605581E-03
   0.3851127014675505E-02
  -0.3896107768887214E-01
   0.1820359851683832E-01
   0.1120885856939684E-01
   0.3396924900730483E-01
   0.8397810356557513E-02
   0.4985727496403774E-02
   0.5013156963663232E-02
   0.4925846156686292E-02
   0.6102936401185028E-02
   0.2712113357389092E-02
  -0.4130699503812182E-01
  -0.9927653372833346E-01
  -0.1120309810268857E+00
   0.5175673461981972E-02
   0.4300879490848414E-02
  -0.1002371314129122E+00
  -0.9888592420683162E-01
  -0.9832397333296473E-01
  -0.9441188129325308E-01
  -0.6791840020047660E-01
   0.5252414681071300E-02
  -0.1925599526042410E-01
  -0.1564576142771916E-01
  -0.5919473692179800E-02
   0.6901554447265306E-02
  -0.8000923998067873E-01
  -0.2775361798680069E-01
  -0.8083708859994697E-01
  -0.5860922897510061E-01
   0.3052508812252984E-02
   0.2690938755283277E-02
   0.2658126845073597E-02
   0.3454554047574037E-02
   0.3991136316446074E-02
   0.1200529829197869E-02
  -0.1348004426483648E-03
   0.2118945429630655E-02
   0.4884606278151321E-02
   0.3848715269691651E-02
   0.1135489126773411E-02
   0.1230715723000425E-02
   0.1510217804917537E-02
  -0.4268043941142207E-05
   0.7622068721515038E-04
   0.4381472559416484E-02
   0.2693625933317704E-02
   0.2308071613249362E-02
   0.4991804844713251E-02
   0.1136971085791841E-02
   0.2708029455846743E-02
   0.1991227786164658E-02
   0.4668469846129149E-04
   0.8385445356204789E-01
   0.2821840345127237E-02
  -0.8509615365193764E-03
  -0.1396602724982144E-03
   0.1410850451488673E+00
   0.1236450770487178E+00
  -0.1208459474062551E-02
  -0.4384002680332256E-02
  -0.2930715979383241E-03
  -0.6481520543602565E-02
  -0.1903425165505517E-02
   0.1559407488133363E+00
   0.7527804855128306E-01
   0.2566718926840959E-01
   0.1661271588737446E+00