# vtk DataFile Version 2.0
FUN3D:global_image_vtk
ASCII
DATASET UNSTRUCTURED_GRID
POINTS 213 double
   -0.5474685441685613E-02    0.2504941971167291E+01    0.8038138598665045E-04
    0.1245419105183472E+01    0.2504941971167291E+01    0.1039425058015378E-03
    0.2497696093128781E+01    0.2504941971167291E+01    0.1101298164666904E-03
    0.3750590968915823E+01    0.2504941971167291E+01    0.1356499004946969E-03
    0.5003221331742152E+01    0.2504941971167291E+01    0.9668873038904007E-04
    0.5004676687979097E+01    0.1281291202167038E+01    0.1638053019386034E-03
    0.5004772673778115E+01    0.2775079906482917E-01    0.1903478008449817E-03
    0.5003581183341212E+01   -0.1225853508883529E+01    0.1607765204484906E-03
    0.5001952533742193E+01   -0.2496589036641631E+01    0.1082258890300887E-03
    0.3750348111606544E+01   -0.2496589036641631E+01    0.1458753696816357E-03
    0.2498611462994928E+01   -0.2496589036641631E+01    0.1008933264252111E-03
    0.1247175269333277E+01   -0.2496589036641631E+01    0.1108587619172426E-03
   -0.3383959865717493E-02   -0.2496589036641631E+01    0.8107259626499620E-04
   -0.4257768979768262E-02   -0.1225734811642589E+01    0.3415458742317188E-04
   -0.5251592448510583E-02    0.2619486024420504E-01    0.1038724387187871E-03
   -0.5676060312427273E-02    0.1278221569065707E+01    0.8224601702167320E-04
    0.9003209617952610E+00    0.1608979112280157E+01    0.8704140727661304E-04
    0.3983172210692289E+01   -0.1561211904840277E+01    0.1757116720370610E-03
    0.4035602039224467E+01    0.1486760030415521E+01    0.1713312862106654E-03
    0.1036613723302903E+01   -0.1455626429916846E+01    0.1047189301527371E-03
    0.1094353480630804E+01   -0.2964622010671849E+00    0.1260590236920068E-03
    0.7298400267479996E+00    0.6874684746719111E+00    0.1044598640543308E-03
    0.1617018659308945E+01    0.8553208024939374E+00    0.1529810904974403E-03
    0.2143199662875792E+01   -0.1627128509216729E+01    0.1606170425226826E-03
    0.4088840445400889E+01   -0.4351047825936264E+00    0.2719933294106359E-03
    0.2977916511248924E+01   -0.8334991483094500E+00    0.2245596931855223E-03
    0.3044093241383419E+01   -0.1814361225108581E+01    0.1617000112426632E-03
    0.3427866614805211E+01    0.3813904839972498E+00    0.2936955483433001E-03
    0.4313225355351748E+01    0.5489133376342499E+00    0.2313009573588488E-03
    0.1823032737597359E+01    0.1771265193544254E+01    0.1836202887152707E-03
    0.2806311152168376E+01    0.1358629373600681E+01    0.1943492163985508E-03
    0.1891860875936711E+01   -0.8481310365607546E+00    0.1670645501813962E-03
    0.2268769200166910E+01    0.7723691819196590E-01    0.2072307783086441E-03
    0.5000000000000000E+01    0.2504941971167291E+01    0.1250000000000000E+01
    0.5000000000000000E+01    0.2504941971167291E+01    0.2500000000000000E+01
    0.5000000000000000E+01    0.2504941971167291E+01    0.3750000000000000E+01
    0.5000000000000000E+01    0.2504941971167291E+01    0.5000000000000000E+01
    0.3750000000000000E+01    0.2504941971167291E+01    0.5000000000000000E+01
    0.2500000000000000E+01    0.2504941971167291E+01    0.5000000000000000E+01
    0.1250000000000000E+01    0.2504941971167291E+01    0.5000000000000000E+01
    0.0000000000000000E+00    0.2504941971167291E+01    0.5000000000000000E+01
    0.0000000000000000E+00    0.2504941971167291E+01    0.3750000000000000E+01
    0.0000000000000000E+00    0.2504941971167291E+01    0.2500000000000000E+01
    0.0000000000000000E+00    0.2504941971167291E+01    0.1250000000000000E+01
    0.9588956434871098E+00    0.2504941971167291E+01    0.9696525519543873E+00
    0.3981953078951401E+01    0.2504941971167291E+01    0.4070563854751271E+01
    0.4036122187252336E+01    0.2504941971167291E+01    0.1017567520094671E+01
    0.9637572773153888E+00    0.2504941971167291E+01    0.3973598203142229E+01
    0.1546540136992396E+01    0.2504941971167291E+01    0.2931570169315600E+01
    0.6973799521244313E+00    0.2504941971167291E+01    0.3070319952453756E+01
    0.8903742148356886E+00    0.2504941971167291E+01    0.2056562238187738E+01
    0.2183041995146012E+01    0.2504941971167291E+01    0.3960694449828019E+01
    0.3855844872709870E+01    0.2504941971167291E+01    0.2933250588118630E+01
    0.3152611367438029E+01    0.2504941971167291E+01    0.3637668388416194E+01
    0.3103307385241870E+01    0.2504941971167291E+01    0.4332607813099731E+01
    0.3266711045517939E+01    0.2504941971167291E+01    0.1889656617463738E+01
    0.4232537554484796E+01    0.2504941971167291E+01    0.1918626969802351E+01
    0.1905522374036520E+01    0.2504941971167291E+01    0.7226290832134608E+00
    0.2879767723645806E+01    0.2504941971167291E+01    0.9080945892181984E+00
    0.2012711365064515E+01    0.2504941971167291E+01    0.1767082390977754E+01
    0.2669681472994637E+01    0.2504941971167291E+01    0.2853394335010791E+01
    0.5000000000000000E+01    0.1250000000000000E+01    0.5000000000000000E+01
    0.5000000000000000E+01    0.0000000000000000E+00    0.5000000000000000E+01
    0.5000000000000000E+01   -0.1250000000000000E+01    0.5000000000000000E+01
    0.5000000000000000E+01   -0.2496589036641631E+01    0.5000000000000000E+01
    0.5000000000000000E+01   -0.2496589036641631E+01    0.3750000000000000E+01
    0.5000000000000000E+01   -0.2496589036641631E+01    0.2500000000000000E+01
    0.5000000000000000E+01   -0.2496589036641631E+01    0.1250000000000000E+01
    0.5000000000000000E+01    0.1578994732800803E+01    0.9058375365086910E+00
    0.5000000000000000E+01   -0.1583989954232354E+01    0.3982050490726493E+01
    0.5000000000000000E+01    0.1453322699199022E+01    0.4033849428301197E+01
    0.5000000000000000E+01   -0.1479596339503735E+01    0.1040505887381675E+01
    0.5000000000000000E+01   -0.3227322616384110E+00    0.1099454400140349E+01
    0.5000000000000000E+01    0.6593508822075582E+00    0.7354504170366591E+00
    0.5000000000000000E+01    0.8256214013940779E+00    0.1622302608453282E+01
    0.5000000000000000E+01   -0.1650070333782557E+01    0.2145871574390382E+01
    0.5000000000000000E+01   -0.4612828702537229E+00    0.4086422318222992E+01
    0.5000000000000000E+01   -0.8579242121530853E+00    0.2979540174134984E+01
    0.5000000000000000E+01   -0.1836846154397680E+01    0.3045064261640043E+01
    0.5000000000000000E+01    0.3508002863614053E+00    0.3428197553792836E+01
    0.5000000000000000E+01    0.5185680230613409E+00    0.4309693860063405E+01
    0.5000000000000000E+01    0.1738996113203182E+01    0.1827272193562204E+01
    0.5000000000000000E+01    0.1325493893339706E+01    0.2808563282768077E+01
    0.5000000000000000E+01   -0.8731419609589618E+00    0.1895995683864404E+01
    0.5000000000000000E+01    0.4906150219227333E-01    0.2273179336307740E+01
    0.0000000000000000E+00    0.1250000000000000E+01    0.5000000000000000E+01
    0.0000000000000000E+00    0.0000000000000000E+00    0.5000000000000000E+01
    0.0000000000000000E+00   -0.1250000000000000E+01    0.5000000000000000E+01
    0.0000000000000000E+00   -0.2496589036641631E+01    0.5000000000000000E+01
    0.1250000000000000E+01   -0.2496589036641631E+01    0.5000000000000000E+01
    0.2500000000000000E+01   -0.2496589036641631E+01    0.5000000000000000E+01
    0.3750000000000000E+01   -0.2496589036641631E+01    0.5000000000000000E+01
    0.4042003247744892E+01    0.1558308132739014E+01    0.5000000000000000E+01
    0.9304122287900499E+00   -0.1548001304379777E+01    0.5000000000000000E+01
    0.1037243024609388E+01    0.1462892710085612E+01    0.5000000000000000E+01
    0.3946240828834967E+01   -0.1445243809615570E+01    0.5000000000000000E+01
    0.4092527262848217E+01   -0.3455338993778935E+00    0.5000000000000000E+01
    0.4293103109154542E+01    0.6277660831404320E+00    0.5000000000000000E+01
    0.3241512314643519E+01    0.7429886854239611E+00    0.5000000000000000E+01
    0.2844289952419609E+01   -0.1588117879734118E+01    0.5000000000000000E+01
    0.7159905765450471E+00   -0.6002320124191652E+00    0.5000000000000000E+01
    0.1754341919796891E+01   -0.7398147869923652E+00    0.5000000000000000E+01
    0.1870296826774691E+01   -0.1788622905643739E+01    0.5000000000000000E+01
    0.9220614901912976E+00    0.3083720183248586E+00    0.5000000000000000E+01
    0.3101523624086016E+01    0.1777901774806180E+01    0.5000000000000000E+01
    0.2192512063922564E+01    0.1576861561598471E+01    0.5000000000000000E+01
    0.2024793420196460E+01    0.4773861992750707E+00    0.5000000000000000E+01
    0.2990627757741975E+01   -0.4878110785814084E+00    0.5000000000000000E+01
    0.0000000000000000E+00   -0.2496589036641631E+01    0.1250000000000000E+01
    0.0000000000000000E+00   -0.2496589036641631E+01    0.2500000000000000E+01
    0.0000000000000000E+00   -0.2496589036641631E+01    0.3750000000000000E+01
    0.0000000000000000E+00    0.1558308132739014E+01    0.4042003247744892E+01
    0.0000000000000000E+00   -0.1548001304379777E+01    0.9304122287900499E+00
    0.0000000000000000E+00    0.1462892710085612E+01    0.1037243024609388E+01
    0.0000000000000000E+00   -0.1445243809615570E+01    0.3946240828834967E+01
    0.0000000000000000E+00   -0.3455338993778935E+00    0.4092527262848217E+01
    0.0000000000000000E+00    0.6277660831404320E+00    0.4293103109154542E+01
    0.0000000000000000E+00    0.7429886854239611E+00    0.3241512314643519E+01
    0.0000000000000000E+00   -0.1588117879734118E+01    0.2844289952419609E+01
    0.0000000000000000E+00   -0.6002320124191652E+00    0.7159905765450471E+00
    0.0000000000000000E+00   -0.7398147869923652E+00    0.1754341919796891E+01
    0.0000000000000000E+00   -0.1788622905643739E+01    0.1870296826774691E+01
    0.0000000000000000E+00    0.3083720183248586E+00    0.9220614901912976E+00
    0.0000000000000000E+00    0.1777901774806180E+01    0.3101523624086016E+01
    0.0000000000000000E+00    0.1576861561598471E+01    0.2192512063922564E+01
[...]
POINT_DATA 213
SCALARS rho double 1
LOOKUP_TABLE default
   0.1346125694799486E+01
   0.9572084527698848E+00
   0.9461020639211348E+00
   0.9421833078005974E+00
   0.8436100786780325E+00
   0.7742024922847153E+00
   0.7627632914266743E+00
   0.7661496233439377E+00
   0.8310481703386773E+00
   0.9353608197736556E+00
   0.9344036384018153E+00
   0.9615898876554411E+00
   0.1448480208898695E+01
   0.1495421840749721E+01
   0.1646754928392572E+01
   0.1426608058879071E+01
   0.1009808068726070E+01
   0.9511456929649172E+00
   0.9438291099791521E+00
   0.9574489508665576E+00
   0.9414832416692094E+00
   0.1037118221429510E+01
   0.9258147537236339E+00
   0.9322497228234216E+00
   0.9538141799817743E+00
   0.9520438484286468E+00
   0.9350971720266285E+00
   0.9565537237247197E+00
   0.9378700247643842E+00
   0.9303318784960884E+00
   0.9446515867341660E+00
   0.8862352513714580E+00
   0.9424046836504058E+00
   0.9637217258767099E+00
   0.1008362577746410E+01
   0.1006713364964684E+01
   0.1001959240598344E+01
   0.1003218316303133E+01
   0.1004120538097115E+01
   0.1005207992648869E+01
   0.1004249813845000E+01
   0.1008267843887173E+01
   0.1023867443071859E+01
   0.1063751875329063E+01
   0.1019386187167996E+01
   0.1001778934105113E+01
   0.9645975238514727E+00
   0.1005263110533506E+01
   0.1000745578325698E+01
   0.1008695104818921E+01
   0.1008032475148544E+01
   0.1002354650887902E+01
   0.9980224682756361E+00
   0.1000594440613363E+01
   0.1001621537595628E+01
   0.9828107810759750E+00
   0.9844011042080326E+00
   0.9834292502878215E+00
   0.9790423922949236E+00
   0.9904798796879867E+00
   0.9935224893985893E+00
   0.1002009103548673E+01
   0.1002132312054527E+01
   0.1002273033588850E+01
   0.1001793219496490E+01
   0.1009814972853571E+01
   0.1006499311750841E+01
   0.9560849991010086E+00
   0.9252996567744350E+00
   0.1007053712664343E+01
   0.1004491538496517E+01
   0.9144889717410847E+00
   0.9091476761103949E+00
   0.8752502590497050E+00
   0.9768039036236520E+00
   0.1000530366596375E+01
   0.1005826553461346E+01
   0.1012895293772603E+01
   0.1011677102428338E+01
   0.1010415988345231E+01
   0.1005456560094555E+01
   0.9909260254556818E+00
   0.1005152543422402E+01
   0.9860803849557815E+00
   0.1005592650639125E+01
   0.1004239968493898E+01
   0.1002886283630870E+01
   0.1003350788890112E+01
   0.1003998912070562E+01
   0.1005116700255501E+01
   0.1003224183260918E+01
   0.1002669183692494E+01
   0.1002590255900663E+01
   0.1004070004663921E+01
   0.1004304937934242E+01
   0.1001643036014979E+01
   0.1002279357350926E+01
   0.1002547248849712E+01
   0.1003472641583539E+01
   0.1003380931079367E+01
   0.1003233776575617E+01
   0.1004430854294985E+01
   0.1004325283195158E+01
   0.1003653379482931E+01
   0.1003719191866067E+01
   0.1004319534146517E+01
   0.1004463155507312E+01
   0.1003629980588781E+01
   0.1064490581512266E+01
   0.1028445780971712E+01
   0.1009607603151311E+01
   0.1006626774105416E+01
   0.1163979474294727E+01
   0.1086026004524933E+01
   0.1007908398974531E+01
   0.1007252664643175E+01
   0.1006796746944591E+01
   0.1013053608650707E+01
   0.1019342644428732E+01
   0.1235143811208751E+01
   0.1032536232941682E+01
   0.1046567728936132E+01
   0.1201703012929559E+01
   0.1014671125335846E+01
   0.1032295324204661E+01
   0.1028222151039542E+01
   0.1014641483576519E+01
   0.1029002257775232E+01
   0.1002002818487253E+01
   0.9607830581123273E+00
   0.1006859706960942E+01
   0.1001326954017767E+01
   0.1010800868394601E+01
   0.1012237273239348E+01
   0.1000940436430092E+01
   0.9979317235363299E+00
   0.9980683699399008E+00
   0.1001191956731893E+01
   0.9841985797788589E+00
   0.9815070579491287E+00
   0.9648654914823266E+00
   0.9680713427468229E+00
   0.9914149190848978E+00
   0.9910916479258615E+00
   0.9925598184554902E+00
   0.1001728510390163E+01
   0.9993250772522958E+00
   0.9941444029326851E+00
   0.1006981383549103E+01
   0.1022611654055051E+01
   0.1001121691838407E+01
   0.1008784265590431E+01
   0.1004775043990767E+01
   0.1009029447312610E+01
   0.9967197949835583E+00
   0.1005567613157459E+01
   0.1003325685875791E+01
   0.9949865129989314E+00
   0.9833521892985310E+00
   0.9944521638662738E+00
   0.9973482230933373E+00
   0.9932519263826578E+00
   0.1001312608257803E+01
   0.1003001448729934E+01
   0.1002189173489836E+01
   0.9947119516208364E+00
   0.9937839725528593E+00
   0.1004862069434489E+01
   0.1020102936715139E+01
   0.1005341234396260E+01
   0.9817063601323955E+00
   0.1004975501330321E+01
   0.1012376568818131E+01
   0.9873747459367839E+00
   0.9551282272201768E+00
   0.9865280377092386E+00
   0.9865952832725747E+00
   0.9920084248913102E+00
   0.9934470865515077E+00
   0.9960657346574081E+00
   0.1037405690911543E+01
   0.1033165796318660E+01
   0.1001443358076248E+01
   0.1001929574477501E+01
   0.9912286695833527E+00
   0.9911121698791672E+00
   0.9649300819276655E+00
   0.9933729920336414E+00
   0.1006089075114566E+01
   0.1001962080818380E+01
   0.9908628495099947E+00
   0.9742274508258578E+00
   0.9420781785273930E+00
   0.9821604770980668E+00
   0.9794777371330605E+00
   0.9704352201628049E+00
   0.9720842372307910E+00
   0.9557868488255794E+00
   0.9497981758166565E+00
   0.9529847958428809E+00
   0.1002637256815712E+01
   0.1002476301971338E+01
   0.1000513242293296E+01
   0.1001675737927711E+01
   0.9610108169555051E+00
   0.9492469479945096E+00
   0.9586432519823785E+00
   0.1001121462572086E+01
   0.1000500591165821E+01
   0.1001161102498030E+01
   0.9807429277002095E+00
   0.9805608284057303E+00
   0.9629214371749767E+00
SCALARS u double 1
LOOKUP_TABLE default
   0.0000000000000000E+00
   0.0000000000000000E+00
   0.0000000000000000E+00
   0.0000000000000000E+00
   0.0000000000000000E+00
   0.0000000000000000E+00
   0.0000000000000000E+00
   0.0000000000000000E+00
   0.0000000000000000E+00
   0.0000000000000000E+00
   0.0000000000000000E+00
   0.0000000000000000E+00
   0.0000000000000000E+00
   0.0000000000000000E+00
   0.0000000000000000E+00
   0.0000000000000000E+00
   0.0000000000000000E+00
   0.0000000000000000E+00
   0.0000000000000000E+00
   0.0000000000000000E+00
   0.0000000000000000E+00
   0.0000000000000000E+00
   0.0000000000000000E+00
   0.0000000000000000E+00
   0.0000000000000000E+00
   0.0000000000000000E+00
   0.0000000000000000E+00
   0.0000000000000000E+00
   0.0000000000000000E+00
   0.0000000000000000E+00
   0.0000000000000000E+00
   0.0000000000000000E+00
   0.0000000000000000E+00
   0.4946084386993434E+00
   0.5336296229756907E+00
   0.5182737288498362E+00
   0.4930696975865726E+00
   0.4847718119882062E+00
   0.4868108136442035E+00
   0.4891429098093137E+00
   0.4958014376696502E+00
   0.4899016128297543E+00
   0.4718097598371862E+00
   0.4448926899542661E+00
   0.4844425910253516E+00
   0.5097672108167700E+00
   0.4402157107713978E+00
   0.4949584587177312E+00
   0.5222981757325378E+00
   0.4962761335115233E+00
   0.5223877813982003E+00
   0.5038134104745517E+00
   0.5644352140018430E+00
   0.5245862238886817E+00
   0.4990946955319581E+00
   0.5729384847979166E+00
   0.5693720713982598E+00
   0.3752129680642818E+00
   0.4003935337901788E+00
   0.5599622500294615E+00
   0.5562276758869669E+00
   0.4942631174520498E+00
   0.4948654038981183E+00
   0.4925634782339338E+00
   0.4913991786263633E+00
   0.5162611628861948E+00
   0.5363588932426842E+00
   0.4951213607565086E+00
   0.4520531594596779E+00
   0.5129024774485863E+00
   0.5117690526057140E+00
   0.4786251287357761E+00
   0.4931155293895103E+00
   0.4600306954847104E+00
   0.5242629199214044E+00
   0.5299866667556200E+00
   0.5129711999011708E+00
   0.5328938855257163E+00
   0.5309772093607902E+00
   0.5309771259842799E+00
   0.5063651410030025E+00
   0.5279605766316241E+00
   0.5409254473562265E+00
   0.5363677255219759E+00
   0.5374194372006734E+00
   0.4965359093571998E+00
   0.4975361620511634E+00
   0.4963807509414336E+00
   0.4955144774570563E+00
   0.4904151887311843E+00
   0.4902491479130279E+00
   0.4861626503328902E+00
   0.4854037740486448E+00
   0.4931941380540754E+00
   0.4910329234573697E+00
   0.4831698316999560E+00
   0.4872469606633608E+00
   0.4880010970938740E+00
   0.4872294037415686E+00
   0.4882160211846439E+00
   0.4952567366074471E+00
   0.4900705809563695E+00
   0.4903581267292214E+00
   0.4944346859737087E+00
   0.4868163398039256E+00
   0.4892720557337942E+00
   0.4881455379228173E+00
   0.4878245185054144E+00
   0.4449022026058331E+00
   0.4700099664054342E+00
   0.4891756201711644E+00
   0.4885980866242063E+00
   0.4510286412384718E+00
   0.4681799610870996E+00
   0.4876648975168918E+00
   0.4868253758020692E+00
   0.4909267533067797E+00
   0.4793946319309056E+00
   0.4657884653235317E+00
   0.3794302312466286E+00
   0.4903697421068026E+00
   0.4487929174591143E+00
   0.4432385355146538E+00
   0.4845729179180132E+00
   0.4621884481230247E+00
   0.4663602298821454E+00
   0.4747774268384327E+00
   0.4893613111949485E+00
   0.5085681474525590E+00
   0.4304904287052747E+00
   0.4927280753845458E+00
   0.5320316185122093E+00
   0.4913826501723781E+00
   0.5209404404611950E+00
   0.5061319828037654E+00
   0.5690636320484876E+00
   0.5275039918499702E+00
   0.5015047795271266E+00
   0.5821373618550302E+00
   0.5691503700150758E+00
   0.3402452490584035E+00
   0.3785432685513305E+00
   0.5753091283257331E+00
   0.5668547247078710E+00
   0.5703055450884129E+00
   0.5291879661538441E+00
   0.5449833828586488E+00
   0.5719093999180257E+00
   0.5385694587039093E+00
   0.5475896936818108E+00
   0.5821565652872560E+00
   0.4925313045941643E+00
   0.5041557177606222E+00
   0.4961299804084147E+00
   0.5562803684715484E+00
   0.4757814624136994E+00
   0.4950174786287649E+00
   0.5496174671906490E+00
   0.5889519110689342E+00
   0.5839568630927729E+00
   0.5468163497855155E+00
   0.5803877175562151E+00
   0.5106055693623732E+00
   0.5029532236583073E+00
   0.5033085380544374E+00
   0.5676232052848256E+00
   0.5564629528825724E+00
   0.4947135441238650E+00
   0.5506799461272130E+00
   0.5513545696792000E+00
   0.5658254157185997E+00
   0.4919953536772952E+00
   0.4927852057903976E+00
   0.3865438337967247E+00
   0.3687907202028815E+00
   0.5574381187301711E+00
   0.5761778935204251E+00
   0.4194381851592961E+00
   0.5822999347170674E+00
   0.4268238595714791E+00
   0.5397390504891449E+00
   0.5016174621411390E+00
   0.5119228250841985E+00
   0.5048434167804948E+00
   0.5752768158075097E+00
   0.5878367583815448E+00
   0.5382358738597791E+00
   0.5679645541080479E+00
   0.5352016964044979E+00
   0.5338463699411110E+00
   0.5582293100211112E+00
   0.5511563292970199E+00
   0.4256775843158024E+00
   0.5272986084049548E+00
   0.5796794667547090E+00
   0.3318312940171053E+00
   0.4761441131745600E+00
   0.5446494937214363E+00
   0.4800669226999152E+00
   0.3006201115511700E+00
   0.5031625243238624E+00
   0.5017180912986877E+00
   0.5129133729564860E+00
   0.5414117117759620E+00
   0.3435217014693024E+00
   0.3398080158406884E+00
   0.3190194433768552E+00
   0.5066187044992939E+00
   0.5123864689663117E+00
   0.5329068385987581E+00
   0.5881307275852027E+00
   0.4644883168895546E+00
   0.3529622376732480E+00
SCALARS v double 1
LOOKUP_TABLE default
   0.0000000000000000E+00
   0.0000000000000000E+00
   0.0000000000000000E+00
   0.0000000000000000E+00
   0.0000000000000000E+00
   0.0000000000000000E+00
   0.0000000000000000E+00
   0.0000000000000000E+00
   0.0000000000000000E+00
   0.0000000000000000E+00
   0.0000000000000000E+00
   0.0000000000000000E+00
   0.0000000000000000E+00
   0.0000000000000000E+00
   0.0000000000000000E+00
   0.0000000000000000E+00
   0.0000000000000000E+00
   0.0000000000000000E+00
   0.0000000000000000E+00
   0.0000000000000000E+00
   0.0000000000000000E+00
   0.0000000000000000E+00
   0.0000000000000000E+00
   0.0000000000000000E+00
   0.0000000000000000E+00
   0.0000000000000000E+00
   0.0000000000000000E+00
   0.0000000000000000E+00
   0.0000000000000000E+00
   0.0000000000000000E+00
   0.0000000000000000E+00
   0.0000000000000000E+00
   0.0000000000000000E+00
   0.0000000000000000E+00
   0.0000000000000000E+00
   0.0000000000000000E+00
   0.0000000000000000E+00
   0.0000000000000000E+00
   0.0000000000000000E+00
   0.0000000000000000E+00
   0.0000000000000000E+00
   0.0000000000000000E+00
   0.0000000000000000E+00
   0.0000000000000000E+00
   0.0000000000000000E+00
   0.0000000000000000E+00
   0.0000000000000000E+00
   0.0000000000000000E+00
   0.0000000000000000E+00
   0.0000000000000000E+00
   0.0000000000000000E+00
   0.0000000000000000E+00
   0.0000000000000000E+00
   0.0000000000000000E+00
   0.0000000000000000E+00
   0.0000000000000000E+00
   0.0000000000000000E+00
   0.0000000000000000E+00
   0.0000000000000000E+00
   0.0000000000000000E+00
   0.0000000000000000E+00
   0.8513955811613892E-03
  -0.1262645973795144E-02
  -0.1293747166372517E-02
   0.0000000000000000E+00
   0.0000000000000000E+00
   0.0000000000000000E+00
   0.0000000000000000E+00
  -0.1933774508436806E-01
   0.5035656894084244E-03
   0.2213150714499409E-02
   0.1419313535297142E-01
  -0.6753674560650882E-02
  -0.8171004500865990E-02
  -0.1325788721839420E-01
   0.4993929179315217E-02
   0.7358933660225061E-03
   0.3478388746654418E-02
   0.1946723825224973E-02
   0.3168072237642960E-02
   0.1755557768418868E-02
  -0.7295454669118575E-02
  -0.6912294741252958E-04
   0.4552258090852334E-02
  -0.4165983997970630E-03
  -0.6650692316175451E-04
  -0.2024618789880558E-03
   0.8052041918870528E-03
   0.0000000000000000E+00
   0.0000000000000000E+00
   0.0000000000000000E+00
   0.0000000000000000E+00
   0.4747329015211573E-03
   0.1624022890336118E-02
  -0.1273125039757674E-02
  -0.9977717355643524E-03
  -0.2076428489903610E-02
  -0.9960614931635459E-03
  -0.7502640188205599E-03
  -0.7419340521054177E-03
   0.6055382081702486E-04
  -0.5966235828530527E-03
   0.8041021996319416E-03
  -0.1730002246124779E-02
   0.3146405610901024E-03
  -0.5710222946344898E-04
  -0.8890514588986175E-03
  -0.1052087314100812E-02
   0.0000000000000000E+00
   0.0000000000000000E+00
   0.0000000000000000E+00
  -0.1035601499315985E-02
  -0.7789944219966396E-02
   0.1821259126430256E-01
  -0.2902416832211286E-04
  -0.1377098223157772E-02
  -0.2028456949800808E-02
  -0.5613671771399409E-02
  -0.1620474384733183E-02
  -0.6357462323778444E-02
  -0.4327186040470205E-02
   0.1517793742393997E-02
   0.3300594270725432E-01
   0.4394529891645860E-04
  -0.2766565870048328E-02
   0.3629287490323766E-02
   0.3910358759835941E-03
   0.0000000000000000E+00
   0.0000000000000000E+00
   0.0000000000000000E+00
   0.0000000000000000E+00
   0.0000000000000000E+00
   0.0000000000000000E+00
   0.0000000000000000E+00
   0.0000000000000000E+00
   0.0000000000000000E+00
   0.0000000000000000E+00
   0.0000000000000000E+00
   0.0000000000000000E+00
   0.0000000000000000E+00
   0.0000000000000000E+00
   0.0000000000000000E+00
   0.0000000000000000E+00
   0.0000000000000000E+00
   0.5001778194300744E-02
   0.3214065062862069E-02
   0.8126045452904086E-02
   0.6096300950571469E-02
   0.1117411732824397E-01
   0.1403811528301658E-01
  -0.3216221136261349E-03
   0.5161911442166056E-02
   0.2930107582919862E-02
   0.3378096199376031E-02
   0.3728544905164124E-02
  -0.1469573980003331E-01
  -0.6136953940133041E-03
   0.6639776175211095E-02
   0.1457244625618732E-02
   0.1959300742849990E-02
   0.4263980416918020E-02
  -0.2812426141706061E-02
   0.1267609559344352E-02
   0.2851959406488592E-02
   0.1534868024478606E-02
   0.2563344858223811E-02
   0.2013569090148916E-02
   0.2154333993445134E-02
   0.8583998694219783E-02
  -0.3830083254552492E-02
   0.6155698672104241E-02
   0.4725666726708366E-04
  -0.4231582261537949E-03
  -0.1674129340079506E-01
  -0.4996659886774543E-02
  -0.4827349433998324E-02
   0.3399378243965560E-02
  -0.6077437480017191E-02
   0.3194967651227114E-04
  -0.3284948881620119E-01
  -0.3181989492213837E-02
   0.4581319064856237E-02
   0.9682240425758766E-03
   0.2133486655380383E-02
   0.4530687694527580E-02
   0.2692787736067454E-02
   0.3243073205161024E-02
   0.5223605123713682E-02
   0.1957627585406856E-02
   0.7485460432744221E-03
  -0.5693750600092847E-04
  -0.5322690150728267E-02
  -0.6972866683318725E-02
  -0.9635302968103863E-03
   0.1062718468046254E-02
  -0.2106021481894799E-02
  -0.3219291746159286E-02
  -0.2544864643407777E-02
  -0.4131306126131601E-02
  -0.7566170046231527E-02
  -0.2012358478751982E-02
   0.6515130058576160E-03
  -0.1916276745339254E-03
   0.1227816732432910E-02
  -0.3502806487757807E-02
   0.4846684259775065E-02
  -0.8642681612877042E-02
   0.3341928697726515E-04
  -0.3327777782658366E-03
   0.2558606052205725E-02
   0.1615750369082280E-02
   0.2039006090963716E-02
  -0.5641501457436012E-02
SCALARS w double 1
LOOKUP_TABLE default
   0.0000000000000000E+00
   0.0000000000000000E+00
   0.0000000000000000E+00
   0.0000000000000000E+00
   0.0000000000000000E+00
   0.0000000000000000E+00
   0.0000000000000000E+00
   0.0000000000000000E+00
   0.0000000000000000E+00
   0.0000000000000000E+00
   0.0000000000000000E+00
   0.0000000000000000E+00
   0.0000000000000000E+00
   0.0000000000000000E+00
   0.0000000000000000E+00
   0.0000000000000000E+00
   0.0000000000000000E+00
   0.0000000000000000E+00
   0.0000000000000000E+00
   0.0000000000000000E+00
   0.0000000000000000E+00
   0.0000000000000000E+00
   0.0000000000000000E+00
   0.0000000000000000E+00
   0.0000000000000000E+00
   0.0000000000000000E+00
   0.0000000000000000E+00
   0.0000000000000000E+00
   0.0000000000000000E+00
   0.0000000000000000E+00
   0.0000000000000000E+00
   0.0000000000000000E+00
   0.0000000000000000E+00
  -0.1007241857811167E+00
  -0.4245528614455833E-01
   0.7158753342158329E-03
   0.5704943508368822E-02
   0.5684952987828319E-03
   0.1606878236924422E-02
   0.3372604809871848E-02
   0.2364299407726613E-02
   0.4720647231029539E-03
   0.3528387233239872E-02
   0.4533336069993749E-01
   0.6563397479780840E-01
   0.8384124288462267E-03
  -0.2266132320857068E-01
   0.4271064981876476E-02
   0.1341970173203356E-01
   0.1029750710247950E-01
   0.4870834203597420E-01
   0.2381551739848562E-02
  -0.6534999688324497E-02
  -0.7372433809047568E-03
   0.3056375843561747E-03
   0.3846852337442486E-02
  -0.3893635248437933E-01
   0.1820273583950071E-01
   0.1120446067345941E-01
   0.3395774044575642E-01
   0.8380191409742293E-02
   0.4924617809274928E-02
   0.4973761374267075E-02
   0.4900522942020629E-02
   0.6056718439474667E-02
   0.2695309328972718E-02
  -0.4127769733683203E-01
  -0.9927104317521686E-01
  -0.1120360380747822E+00
   0.5144525321911841E-02
   0.4216388373216352E-02
  -0.1002595860498178E+00
  -0.9892594348324082E-01
  -0.9835483711117750E-01
  -0.9443969380244283E-01
  -0.6790972039233464E-01
   0.5196996599538793E-02
  -0.1927315221811505E-01
  -0.1563508313440323E-01
  -0.5964345942556907E-02
   0.6822779742910321E-02
  -0.7999951889477752E-01
  -0.2776431479536551E-01
  -0.8086526756697501E-01
  -0.5863339145969065E-01
   0.3073989813231765E-02
   0.2685175153804076E-02
   0.2644703083899175E-02
   0.3457404378210923E-02
   0.3998529301711235E-02
   0.1199876503919781E-02
  -0.1355432423738936E-03
   0.2028966161411482E-02
   0.4894373679366603E-02
   0.3864560761515689E-02
   0.1126430746216094E-02
   0.1188310616228037E-02
   0.1460245279978881E-02
  -0.2199458705605945E-04
   0.9121998183094612E-04
   0.4387187200570029E-02
   0.2712579861043526E-02
   0.2317255087091357E-02
   0.5007037340840666E-02
   0.1069971415949499E-02
   0.2707114403228302E-02
   0.2010664720078472E-02
   0.3391929618512758E-04
   0.8386260353137955E-01
   0.2832480963932994E-02
  -0.8469296579376400E-03
  -0.1274285268554939E-03
   0.1410903979832558E+00
   0.1236626536424301E+00
  -0.1228867734423857E-02
  -0.4383136242954807E-02
  -0.2804612760063010E-03
  -0.6477826836595580E-02
  -0.1895598713362090E-02
   0.1559394040485167E+00
   0.7528604328465954E-01
   0.2567550695143381E-01
   0.1661313051479510E+00