title="tecplot geometry and solution file"
variables = x y z mach temperature lambda1 lambda2 lambda3 lambda4 lambda5
zone t="boundary 1 bc-1", solutiontime= 0.3600000E+03, strandid=1001, i=32, j=46, f=feblock
  0.000000000000E+00  0.000000000000E+00  0.000000000000E+00  0.000000000000E+00  0.000000000000E+00  0.000000000000E+00  0.000000000000E+00
  0.000000000000E+00  0.000000000000E+00  0.000000000000E+00  0.000000000000E+00  0.000000000000E+00  0.000000000000E+00  0.000000000000E+00
  0.000000000000E+00  0.000000000000E+00  0.000000000000E+00  0.000000000000E+00  0.000000000000E+00  0.000000000000E+00  0.000000000000E+00
  0.000000000000E+00  0.000000000000E+00  0.000000000000E+00  0.000000000000E+00  0.000000000000E+00  0.000000000000E+00  0.000000000000E+00
  0.000000000000E+00  0.000000000000E+00  0.000000000000E+00  0.000000000000E+00
  0.250000000000E+01  0.250000000000E+01  0.125000000000E+01  0.146289271009E+01  0.157686156160E+01  0.308372018325E+00  0.000000000000E+00
 -0.125000000000E+01 -0.600232012419E+00  0.250000000000E+01  0.477386199275E+00  0.742988685424E+00 -0.739814786992E+00  0.177790177481E+01
  0.155830813274E+01  0.250000000000E+01 -0.250000000000E+01 -0.154800130438E+01 -0.487811078581E+00  0.250000000000E+01  0.627766083140E+00
 -0.345533899378E+00 -0.178862290564E+01 -0.158811787973E+01  0.125000000000E+01 -0.250000000000E+01 -0.144524380962E+01  0.000000000000E+00
 -0.125000000000E+01 -0.250000000000E+01 -0.250000000000E+01 -0.250000000000E+01
  0.000000000000E+00  0.125000000000E+01  0.000000000000E+00  0.103724302461E+01  0.219251206392E+01  0.922061490191E+00  0.000000000000E+00
  0.000000000000E+00  0.715990576545E+00  0.250000000000E+01  0.202479342020E+01  0.324151231464E+01  0.175434191980E+01  0.310152362409E+01
  0.404200324774E+01  0.375000000000E+01  0.000000000000E+00  0.930412228790E+00  0.299062775774E+01  0.500000000000E+01  0.429310310915E+01
  0.409252726285E+01  0.187029682677E+01  0.284428995242E+01  0.500000000000E+01  0.125000000000E+01  0.394624082883E+01  0.500000000000E+01
  0.500000000000E+01  0.250000000000E+01  0.375000000000E+01  0.500000000000E+01
  0.000000000000E+00  0.441238348384E+00  0.000000000000E+00  0.475214987021E+00  0.460123708856E+00  0.468827815405E+00  0.000000000000E+00
  0.000000000000E+00  0.402302516798E+00  0.469814974359E+00  0.464411128942E+00  0.478714034184E+00  0.489298241651E+00  0.483068557888E+00
  0.487930073118E+00  0.488961654628E+00  0.000000000000E+00  0.464775721414E+00  0.473795651891E+00  0.495346592024E+00  0.490266103446E+00
  0.486286083902E+00  0.445717618051E+00  0.464382274634E+00  0.496127394917E+00  0.443624103833E+00  0.486964461957E+00  0.497246279768E+00
  0.496059270892E+00  0.467732355362E+00  0.488212087362E+00  0.495098264817E+00
  0.999990295028E+00  0.102982719499E+01  0.999990757903E+00  0.104247294232E+01  0.101190080524E+01  0.102520618293E+01  0.999991416700E+00
  0.999992168096E+00  0.103891223624E+01  0.100826277309E+01  0.101252833877E+01  0.100300548289E+01  0.102702865700E+01  0.100605563290E+01
  0.100244400478E+01  0.100355660048E+01  0.999992721792E+00  0.103239739214E+01  0.100459524090E+01  0.100179336279E+01  0.100260305842E+01
  0.100234966417E+01  0.101657153079E+01  0.100617544692E+01  0.100168844809E+01  0.104043292670E+01  0.100303376377E+01  0.100118726928E+01
  0.100134171022E+01  0.100976788415E+01  0.100405369352E+01  0.100176112495E+01
  0.290930842940E-03  0.212334067843E-02  0.138769754762E-03  0.236337829009E-02  0.503625115967E-03 -0.378485261278E-03 -0.123092126627E-04
 -0.229400874527E-04  0.245701704709E-04  0.205370773170E-03  0.410412960145E-03 -0.181703759583E-03  0.345264458056E-03 -0.128569199283E-03
 -0.196256356812E-03 -0.326530846998E-03 -0.354101449446E-03 -0.257729128498E-02 -0.712535027046E-04 -0.683824173716E-04 -0.886112217968E-04
 -0.161634836280E-04 -0.272286841516E-03  0.207932086070E-03 -0.537330458187E-04 -0.288773104687E-02  0.378123659382E-04  0.355531846522E-04
  0.104982942803E-03  0.202484981238E-03  0.984778867801E-04  0.948514607087E-04
  0.269366564465E-04  0.335841386896E-03  0.220005255872E-04  0.332969520443E-03  0.719725866005E-04 -0.150148170614E-03  0.110059048325E-04
 -0.278023915457E-04 -0.337506797036E-04  0.228207890401E-04  0.488841850768E-04 -0.373740734887E-04  0.367953412825E-04 -0.362222727907E-04
 -0.362587815385E-04 -0.661540010162E-04 -0.317756606869E-04 -0.489284034456E-03 -0.182008223343E-04 -0.109443237602E-04 -0.164961407179E-04
 -0.525250575857E-05 -0.437989606312E-04  0.228926446307E-04 -0.105326819384E-04 -0.431342617033E-03  0.334320772078E-05  0.855408755197E-05
  0.253471772852E-04  0.243324987250E-04  0.147455782019E-04  0.248020334761E-04
  0.365839973155E-04  0.463250005971E-05  0.270476784983E-04 -0.574759788186E-06 -0.293338379967E-04  0.149605674679E-04  0.102594544610E-04
  0.401097765988E-04  0.274880990921E-04 -0.714262175129E-06 -0.409870308192E-04 -0.333968650769E-04 -0.132030926043E-04 -0.203224534023E-04
 -0.118987471554E-04  0.966614436910E-06  0.377710908512E-04  0.190082422186E-04 -0.315544849938E-04  0.637381122327E-06 -0.169202815276E-04
 -0.217359517058E-04 -0.285044441610E-04 -0.172853557154E-04 -0.818731921419E-05  0.126319769219E-04 -0.144653487099E-04 -0.142134372270E-04
 -0.104343317893E-04  0.607179881963E-06  0.640267851919E-06  0.409154048377E-06
 -0.621190709370E-04 -0.776890548302E-04 -0.263417416434E-04 -0.300323908983E-04  0.199121579675E-04 -0.130872377999E-03  0.178170219989E-04
  0.210617476872E-04  0.133344885300E-04  0.293210438551E-04 -0.313741342371E-04  0.358717995552E-05 -0.619420554570E-04  0.237196319504E-04
  0.101949151138E-04  0.199980847353E-04  0.595617170318E-04 -0.136158718329E-04 -0.215816084295E-04 -0.606292271132E-06  0.259533755838E-05
 -0.532688240831E-05 -0.108857142810E-03 -0.340176764171E-04 -0.427119036144E-06 -0.849548450102E-04 -0.145804510173E-04  0.149150327796E-06
 -0.138734932938E-05 -0.663032874568E-04 -0.192347163533E-04 -0.762544664695E-06
 -0.221286327915E-03 -0.864435851472E-03 -0.135802747731E-03 -0.949437776085E-03 -0.203008185956E-03  0.221472854280E-03 -0.170527324023E-03
 -0.127088624445E-03  0.962900843246E-05 -0.800301604863E-04 -0.161241232010E-03  0.756876839546E-04 -0.133440627545E-03  0.549193734351E-04
  0.816972521575E-04  0.136040309755E-03  0.106025681156E-03  0.109408824608E-02  0.312658272948E-04  0.281571381180E-04  0.369361186280E-04
  0.703252438233E-05  0.111130290739E-03 -0.793504405529E-04  0.223767636528E-04  0.116200931623E-02 -0.151139762426E-04 -0.150561188435E-04
 -0.442293337767E-04 -0.796920835290E-04 -0.411323548212E-04 -0.402211766871E-04
        12        19        11        11
        11         5        12        12
        10        14         5         5
        19        13        11        11
        19        24        13        13
        30        23        24        24
        19        12        22        22
        28        22        21        21
        11        13         6         6
         7         6         9         9
        15        12        14        14
        18        13        23        23
        15        25        21        21
        27        19        22        22
        18         8         9         9
        27        31        24        24
         4        11         6         6
         5        14        12        12
         4         2         5         5
        21        12        15        15
        14        16        15        15
        24        19        27        27
        22        29        27        27
        23        26        18        18
        17         8        18        18
         5        11         4         4
         6         3         4         4
        26        23        30        30
         5         2        10        10
        16        14        10        10
         3         6         7         7
        21        25        28        28
        29        22        28        28
         6        13         9         9
         2         4         1         1
        31        27        32        32
        25        15        20        20
        24        23        13        13
         8         7         9         9
        13        18         9         9
        31        30        24        24
        12        21        22        22
        29        32        27        27
         3         1         4         4
        26        17        18        18
        16        20        15        15
zone t="boundary 2 bc-2", solutiontime= 0.3600000E+03, strandid=1002, i=33, j=48, f=feblock
  0.500000000000E+01  0.375000000000E+01  0.250000000000E+01  0.288078410721E+01  0.125000000000E+01  0.190974100652E+01  0.326683758169E+01
  0.201431602454E+01  0.000000000000E+00  0.963108083381E+00  0.500000000000E+01  0.403552511878E+01  0.423153924130E+01  0.500000000000E+01
  0.385533350601E+01  0.500000000000E+01  0.398173246726E+01  0.315249557942E+01  0.267000324704E+01  0.154774304040E+01  0.218329375016E+01
  0.893127759452E+00  0.000000000000E+00  0.698517061619E+00  0.964171764089E+00  0.310324758057E+01  0.000000000000E+00  0.000000000000E+00
  0.125000000000E+01  0.500000000000E+01  0.375000000000E+01  0.250000000000E+01  0.000000000000E+00
 -0.250000000000E+01 -0.250000000000E+01 -0.250000000000E+01 -0.250000000000E+01 -0.250000000000E+01 -0.250000000000E+01 -0.250000000000E+01
 -0.250000000000E+01 -0.250000000000E+01 -0.250000000000E+01 -0.250000000000E+01 -0.250000000000E+01 -0.250000000000E+01 -0.250000000000E+01
 -0.250000000000E+01 -0.250000000000E+01 -0.250000000000E+01 -0.250000000000E+01 -0.250000000000E+01 -0.250000000000E+01 -0.250000000000E+01
 -0.250000000000E+01 -0.250000000000E+01 -0.250000000000E+01 -0.250000000000E+01 -0.250000000000E+01 -0.250000000000E+01 -0.250000000000E+01
 -0.250000000000E+01 -0.250000000000E+01 -0.250000000000E+01 -0.250000000000E+01 -0.250000000000E+01
  0.000000000000E+00  0.000000000000E+00  0.000000000000E+00  0.904659890645E+00  0.000000000000E+00  0.717002441913E+00  0.188609243358E+01
  0.176246431481E+01  0.000000000000E+00  0.961328577125E+00  0.125000000000E+01  0.101201586758E+01  0.191586535653E+01  0.250000000000E+01
  0.293121848150E+01  0.375000000000E+01  0.406975391361E+01  0.363585050272E+01  0.285047954584E+01  0.292817774674E+01  0.395907379566E+01
  0.205246550326E+01  0.125000000000E+01  0.306828197606E+01  0.397245519226E+01  0.433168271247E+01  0.250000000000E+01  0.375000000000E+01
  0.500000000000E+01  0.500000000000E+01  0.500000000000E+01  0.500000000000E+01  0.500000000000E+01
  0.000000000000E+00  0.000000000000E+00  0.000000000000E+00  0.380991906500E+00  0.000000000000E+00  0.343629824950E+00  0.585286157424E+00
  0.579373264282E+00  0.000000000000E+00  0.501056069140E+00  0.508460362676E+00  0.435373026572E+00  0.572640041190E+00  0.537002098944E+00
  0.568922553870E+00  0.514994090651E+00  0.508247257160E+00  0.527252853130E+00  0.567446661127E+00  0.531657143909E+00  0.505981016593E+00
  0.520795579399E+00  0.443624103833E+00  0.490663730453E+00  0.492155873749E+00  0.501390784676E+00  0.467732355362E+00  0.488212087362E+00
  0.490002767114E+00  0.491352304715E+00  0.486075475228E+00  0.490036479234E+00  0.495098264817E+00
  0.999993487379E+00  0.999993690057E+00  0.999993543115E+00  0.989539055875E+00  0.999993137282E+00  0.985524707174E+00  0.989838908967E+00
  0.991798516580E+00  0.999992721792E+00  0.984411112416E+00  0.985091906406E+00  0.984689080896E+00  0.990058464829E+00  0.100289621837E+01
  0.999855369243E+00  0.100485306649E+01  0.100121554699E+01  0.100055642931E+01  0.997896793475E+00  0.100350029570E+01  0.100058068723E+01
  0.101093276247E+01  0.104043292670E+01  0.100326475367E+01  0.100254498742E+01  0.100045587387E+01  0.100976788415E+01  0.100405369352E+01
  0.100192656835E+01  0.100045434508E+01  0.100058774183E+01  0.100109993754E+01  0.100176112495E+01
  0.136019313718E-04  0.114278013329E-03  0.158089131764E-03 -0.182892633216E-02 -0.249883351639E-03 -0.760499686204E-02  0.169452914559E-03
 -0.146144335848E-03 -0.354101449446E-03 -0.373374796411E-02  0.341484979445E-04  0.324777840849E-03  0.258219731904E-04  0.151861766957E-04
  0.740655161930E-05  0.104885084454E-04  0.131134206376E-04 -0.117166129801E-04  0.442830739183E-04  0.159022533729E-03 -0.667545991838E-05
 -0.201732833912E-03 -0.288773104687E-02  0.111731090213E-03  0.369042478109E-04  0.114760347644E-04  0.202484981238E-03  0.984778867801E-04
  0.107008099105E-03  0.138098169542E-04  0.569083776752E-04  0.967245391356E-04  0.948514607087E-04
 -0.188857930672E-04 -0.242510697862E-04  0.580427675370E-06 -0.520138326479E-03  0.432375575015E-04 -0.108789527992E-02 -0.506067534514E-04
 -0.373907428957E-04 -0.317756606869E-04 -0.591725545619E-03 -0.121891311942E-04 -0.120569112032E-03 -0.487750040836E-04 -0.361951795769E-05
 -0.193297258026E-04 -0.197431547603E-05 -0.499101383153E-05 -0.750032081734E-05 -0.213647415201E-04  0.567518001311E-05 -0.532698755329E-05
 -0.187308380996E-04 -0.431342617033E-03 -0.769058400517E-05  0.207673228222E-05 -0.146902920538E-05  0.243324987250E-04  0.147455782019E-04
  0.251705659287E-04 -0.482748077476E-06  0.599520537300E-05  0.198479482255E-04  0.248020334761E-04
  0.711727782440E-05 -0.153889855046E-05 -0.141335740684E-04 -0.858105228883E-04 -0.382365537910E-05 -0.104258440125E-03 -0.422954442699E-06
 -0.106450769166E-04  0.377710908512E-04 -0.715083911672E-04 -0.827751885707E-05 -0.150121699798E-04 -0.362952755969E-06  0.233737798597E-06
 -0.739919473992E-06  0.374857474783E-06 -0.399783959981E-06  0.110252199110E-05 -0.551150905753E-06 -0.250777213592E-05  0.349680667211E-07
 -0.549023217104E-05  0.126319769219E-04 -0.150691509732E-05 -0.971037751636E-07  0.297668522982E-06  0.607179881963E-06  0.640267851919E-06
  0.303852556558E-06  0.208092655075E-06  0.288814720068E-06 -0.162745179651E-06  0.409154048377E-06
 -0.726701234773E-05  0.360511989402E-05  0.249263477363E-04 -0.110199662954E-03  0.742532008259E-04 -0.794286233752E-04 -0.551823015631E-04
 -0.136312711461E-03  0.595617170318E-04 -0.116482539215E-03  0.171320525184E-04  0.191061911779E-05 -0.429667682488E-05  0.387491560585E-05
 -0.109732714170E-04  0.136371401197E-05 -0.558531901642E-05 -0.162841843016E-04 -0.277866618813E-04 -0.269497821585E-04 -0.147777513493E-04
 -0.113399620585E-03 -0.849548450102E-04 -0.292811742452E-04 -0.144774059087E-04 -0.109793223385E-04 -0.663032874568E-04 -0.192347163533E-04
 -0.424084019429E-05 -0.130418292109E-05 -0.369060846058E-05 -0.384782740460E-05 -0.762544664695E-06
  0.305863764638E-04 -0.479449451796E-04 -0.409861027051E-03  0.872546980406E-03 -0.520307147685E-03  0.326871114546E-02 -0.466479666113E-04
  0.553123638062E-04  0.106025681156E-03  0.157020914621E-02 -0.722318410039E-05 -0.804600140873E-04  0.101051576750E-04 -0.341466962234E-05
  0.589608974339E-05 -0.236449232404E-05 -0.201410699523E-05  0.757274259588E-05 -0.919525249324E-05 -0.590986708187E-04  0.490576241259E-05
  0.745965883566E-04  0.116200931623E-02 -0.378811356758E-04 -0.135668316506E-04 -0.212030350719E-05 -0.796920835290E-04 -0.411323548212E-04
 -0.446775122033E-04 -0.417094218179E-05 -0.214448063734E-04 -0.396137321636E-04 -0.402211766871E-04
        15         7        19        19
         8        20        19        19
        18        19        21        21
         7         4         8         8
         3         6         4         4
        19         7         8         8
        19        18        15        15
        14        13        15        15
         8        22        20        20
        27        24        22        22
        19        20        21        21
        32        26        21        21
        17        18        26        26
        17        16        15        15
        25        29        21        21
        12         7        13        13
        10         8         6         6
        25        20        24        24
         4         6         8         8
        12         2         4         4
        10        23        22        22
        26        31        17        17
        30        16        17        17
         4         7        12        12
        13        11        12        12
        21        20        25        25
        24        28        25        25
        22         8        10        10
         6         5        10        10
        31        26        32        32
         4         2         3         3
         5         6         3         3
        11        13        14        14
        22        23        27        27
        28        24        27        27
        15        13         7         7
         2        12         1         1
        29        25        33        33
        23        10         9         9
        21        26        18        18
        16        14        15        15
        18        17        15        15
        29        32        21        21
        22        24        20        20
        28        33        25        25
        11         1        12        12
        31        30        17        17
         5         9        10        10
zone t="boundary 3 bc-3", solutiontime= 0.3600000E+03, strandid=1003, i=33, j=48, f=feblock
  0.375000000000E+01  0.250000000000E+01  0.500000000000E+01  0.403552511878E+01  0.288078410721E+01  0.125000000000E+01  0.190974100652E+01
  0.500000000000E+01  0.326683758169E+01  0.423153924130E+01  0.201431602454E+01  0.000000000000E+00  0.963108083381E+00  0.500000000000E+01
  0.267000324704E+01  0.385533350601E+01  0.893127759452E+00  0.154774304040E+01  0.000000000000E+00  0.500000000000E+01  0.315249557942E+01
  0.218329375016E+01  0.398173246726E+01  0.000000000000E+00  0.698517061619E+00  0.964171764089E+00  0.125000000000E+01  0.000000000000E+00
  0.500000000000E+01  0.310324758057E+01  0.250000000000E+01  0.375000000000E+01  0.000000000000E+00
  0.250000000000E+01  0.250000000000E+01  0.250000000000E+01  0.250000000000E+01  0.250000000000E+01  0.250000000000E+01  0.250000000000E+01
  0.250000000000E+01  0.250000000000E+01  0.250000000000E+01  0.250000000000E+01  0.250000000000E+01  0.250000000000E+01  0.250000000000E+01
  0.250000000000E+01  0.250000000000E+01  0.250000000000E+01  0.250000000000E+01  0.250000000000E+01  0.250000000000E+01  0.250000000000E+01
  0.250000000000E+01  0.250000000000E+01  0.250000000000E+01  0.250000000000E+01  0.250000000000E+01  0.250000000000E+01  0.250000000000E+01
  0.250000000000E+01  0.250000000000E+01  0.250000000000E+01  0.250000000000E+01  0.250000000000E+01
  0.000000000000E+00  0.000000000000E+00  0.000000000000E+00  0.101201586758E+01  0.904659890645E+00  0.000000000000E+00  0.717002441913E+00
  0.125000000000E+01  0.188609243358E+01  0.191586535653E+01  0.176246431481E+01  0.000000000000E+00  0.961328577125E+00  0.250000000000E+01
  0.285047954584E+01  0.293121848150E+01  0.205246550326E+01  0.292817774674E+01  0.125000000000E+01  0.375000000000E+01  0.363585050272E+01
  0.395907379566E+01  0.406975391361E+01  0.250000000000E+01  0.306828197606E+01  0.397245519226E+01  0.500000000000E+01  0.375000000000E+01
  0.500000000000E+01  0.433168271247E+01  0.500000000000E+01  0.500000000000E+01  0.500000000000E+01
  0.000000000000E+00  0.000000000000E+00  0.000000000000E+00  0.443767745459E+00  0.402286944574E+00  0.000000000000E+00  0.377550369545E+00
  0.509232128688E+00  0.575832179754E+00  0.573707405285E+00  0.562554064412E+00  0.000000000000E+00  0.490563299840E+00  0.534527096543E+00
  0.556586982170E+00  0.564391577749E+00  0.522730517385E+00  0.522052000170E+00  0.441238348384E+00  0.517182331791E+00  0.524228630763E+00
  0.503687457534E+00  0.509488571178E+00  0.469814974359E+00  0.495614442414E+00  0.494483780212E+00  0.488562428343E+00  0.488961654628E+00
  0.492980744788E+00  0.499005552222E+00  0.486460936507E+00  0.484596927548E+00  0.495346592024E+00
  0.999989339439E+00  0.999989408764E+00  0.999989626853E+00  0.981541895460E+00  0.988773990194E+00  0.999989827144E+00  0.982469462434E+00
  0.984104309047E+00  0.990427545862E+00  0.990355285694E+00  0.994362997073E+00  0.999990295028E+00  0.988652071037E+00  0.100368369414E+01
  0.999769197113E+00  0.100118501219E+01  0.100834885320E+01  0.100252111043E+01  0.102982719499E+01  0.100443319461E+01  0.100199536635E+01
  0.100082056599E+01  0.100138192342E+01  0.100826277309E+01  0.100298787130E+01  0.100192389555E+01  0.100215267510E+01  0.100355660048E+01
  0.100047670023E+01  0.100056591053E+01  0.100126820231E+01  0.100066573360E+01  0.100179336279E+01
 -0.291833714080E-04  0.275167125599E-03 -0.104385975372E-03  0.174240895276E-02  0.611269354137E-02  0.238410574304E-03  0.404290821983E-02
 -0.368384889261E-03 -0.118359964849E-03 -0.151709037289E-03  0.144840479712E-02  0.290930842940E-03  0.291779941688E-02 -0.904610266854E-04
 -0.241021865976E-03 -0.455964968194E-04  0.651771954137E-03 -0.243014515451E-03  0.212334067843E-02 -0.391920898092E-04 -0.549803303751E-05
 -0.535150710392E-04 -0.242613722103E-04  0.205370773170E-03 -0.135149082186E-03 -0.143359717515E-03 -0.888449413947E-04 -0.326530846998E-03
 -0.270377527913E-04 -0.237155341916E-04 -0.112351984074E-03 -0.846851943945E-04 -0.683824173716E-04
 -0.359030566704E-04 -0.358608197194E-04  0.328031405531E-04  0.361872502118E-03  0.807077941657E-03 -0.111251051987E-04  0.433789191679E-03
  0.427176917975E-04 -0.645758298104E-04  0.416521221100E-05  0.842901869966E-04  0.269366564465E-04  0.334539648778E-03  0.227247102116E-04
 -0.606509811476E-04 -0.271765769922E-05  0.241127690974E-04 -0.666125508102E-04  0.335841386896E-03  0.869164517457E-05 -0.597378981689E-05
 -0.130349522100E-04 -0.460536604001E-06  0.228207890401E-04 -0.565278959915E-04 -0.214242605969E-04 -0.213828308370E-04 -0.661540010162E-04
  0.111710894670E-05 -0.739147661360E-05 -0.280173892204E-04 -0.129707074729E-04 -0.109443237602E-04
 -0.725922315853E-05  0.109433887756E-04  0.151147313059E-05 -0.436930040412E-04 -0.994433797366E-04  0.190092446609E-04  0.198864826296E-04
 -0.251744316548E-05 -0.100034593231E-04 -0.148958566905E-05 -0.756152032384E-05  0.365839973155E-04  0.243136649206E-04  0.169882125584E-05
 -0.190912738126E-05 -0.105779004208E-05 -0.366531481237E-05 -0.361674864761E-05  0.463250005971E-05  0.865464315183E-06  0.881444742464E-06
  0.992579963938E-06 -0.726898004156E-07 -0.714262175129E-06  0.609917534434E-06  0.382149155480E-06  0.747686698568E-06  0.966614436910E-06
  0.311492167233E-06 -0.869319272915E-07  0.129211688008E-06 -0.671145477250E-07  0.637381122327E-06
 -0.473672842415E-04 -0.772339020074E-04 -0.565381780433E-05  0.557054862823E-04  0.586881867874E-04 -0.371836477762E-04 -0.490751533925E-04
  0.320493464727E-04  0.125510406259E-03  0.493107879361E-04  0.147251719236E-03 -0.621190709370E-04  0.215437657377E-04  0.156232960281E-04
  0.226051098396E-04  0.287105018917E-04  0.763797274419E-04  0.136434438690E-04 -0.776890548302E-04  0.836921322513E-05  0.199833788502E-04
  0.772992482172E-05  0.121883606850E-04  0.293210438551E-04  0.293203635936E-04  0.644212421191E-05  0.712836505143E-06  0.199980847353E-04
  0.330792206363E-05  0.120438832222E-04  0.323324925544E-05  0.508085340568E-05 -0.606292271132E-06
  0.744185987865E-03  0.763362926351E-04  0.101128289373E-03 -0.801694970769E-03 -0.258836199486E-02 -0.747068847879E-04 -0.162011711745E-02
  0.106257614371E-03  0.672245514058E-04  0.487971842504E-04 -0.547253195535E-03 -0.221286327915E-03 -0.116590106061E-02  0.171108090328E-04
  0.104690530625E-03  0.133092986031E-04 -0.246362349819E-03  0.106227829185E-03 -0.864435851472E-03  0.805327706283E-05  0.246374816268E-05
  0.228218186834E-04  0.678377666604E-05 -0.800301604863E-04  0.585178829490E-04  0.584988480037E-04  0.378412471578E-04  0.136040309755E-03
  0.820778037115E-05  0.907558518555E-05  0.474233148708E-04  0.330843526555E-04  0.281571381180E-04
        15         9        16        16
        15        18        11        11
        22        15        21        21
        11         5         9         9
         5         7         2         2
        11         9        15        15
        16        21        15        15
        16        10        14        14
        18        17        11        11
        17        25        24        24
        22        18        15        15
        22        30        31        31
        30        21        23        23
        16        20        23        23
        22        27        26        26
        10         9         4         4
         7        11        13        13
        25        18        26        26
        11         7         5         5
         5         1         4         4
        17        19        13        13
        23        32        30        30
        23        20        29        29
         4         9         5         5
         4         8        10        10
        26        18        22        22
        26        28        25        25
        13        11        17        17
        13         6         7         7
        31        30        32        32
         2         1         5         5
         2         7         6         6
        14        10         8         8
        24        19        17        17
        24        25        28        28
         9        10        16        16
         3         4         1         1
        33        26        27        27
        12        13        19        19
        21        30        22        22
        16        14        20        20
        16        23        21        21
        22        31        27        27
        18        25        17        17
        26        33        28        28
         4         3         8         8
        23        29        32        32
        13        12         6         6
zone t="boundary 4 bc-4", solutiontime= 0.3600000E+03, strandid=1004, i=32, j=46, f=feblock
  0.125000000000E+01  0.219251206392E+01  0.103724302461E+01  0.500000000000E+01  0.250000000000E+01  0.375000000000E+01  0.404200324774E+01
  0.500000000000E+01  0.000000000000E+00  0.310152362409E+01  0.202479342020E+01  0.324151231464E+01  0.922061490191E+00  0.000000000000E+00
  0.299062775774E+01  0.394624082883E+01  0.500000000000E+01  0.409252726285E+01  0.500000000000E+01  0.429310310915E+01  0.175434191980E+01
  0.284428995242E+01  0.000000000000E+00  0.000000000000E+00  0.715990576545E+00  0.930412228790E+00  0.125000000000E+01  0.187029682677E+01
  0.500000000000E+01  0.375000000000E+01  0.250000000000E+01  0.000000000000E+00
  0.250000000000E+01  0.157686156160E+01  0.146289271009E+01  0.250000000000E+01  0.250000000000E+01  0.250000000000E+01  0.155830813274E+01
  0.125000000000E+01  0.250000000000E+01  0.177790177481E+01  0.477386199275E+00  0.742988685424E+00  0.308372018325E+00  0.125000000000E+01
 -0.487811078581E+00 -0.144524380962E+01 -0.125000000000E+01 -0.345533899378E+00  0.000000000000E+00  0.627766083140E+00 -0.739814786992E+00
 -0.158811787973E+01  0.000000000000E+00 -0.125000000000E+01 -0.600232012419E+00 -0.154800130438E+01 -0.250000000000E+01 -0.178862290564E+01
 -0.250000000000E+01 -0.250000000000E+01 -0.250000000000E+01 -0.250000000000E+01
  0.500000000000E+01  0.500000000000E+01  0.500000000000E+01  0.500000000000E+01  0.500000000000E+01  0.500000000000E+01  0.500000000000E+01
  0.500000000000E+01  0.500000000000E+01  0.500000000000E+01  0.500000000000E+01  0.500000000000E+01  0.500000000000E+01  0.500000000000E+01
  0.500000000000E+01  0.500000000000E+01  0.500000000000E+01  0.500000000000E+01  0.500000000000E+01  0.500000000000E+01  0.500000000000E+01
  0.500000000000E+01  0.500000000000E+01  0.500000000000E+01  0.500000000000E+01  0.500000000000E+01  0.500000000000E+01  0.500000000000E+01
  0.500000000000E+01  0.500000000000E+01  0.500000000000E+01  0.500000000000E+01
  0.488562428343E+00  0.488873127044E+00  0.490562939264E+00  0.492980744788E+00  0.486460936507E+00  0.484596927548E+00  0.485347896276E+00
  0.494163542317E+00  0.495346592024E+00  0.486528232758E+00  0.487819998460E+00  0.487068916091E+00  0.494045904395E+00  0.496127394917E+00
  0.487612357629E+00  0.483219722850E+00  0.492395510969E+00  0.487214141159E+00  0.494738985333E+00  0.487958525499E+00  0.489677249447E+00
  0.488029107105E+00  0.497246279768E+00  0.496059270892E+00  0.494951052257E+00  0.492800373677E+00  0.490002767114E+00  0.490005124553E+00
  0.491352304715E+00  0.486075475228E+00  0.490036479234E+00  0.495098264817E+00
  0.100215267510E+01  0.100152652958E+01  0.100178347660E+01  0.100047670023E+01  0.100126820231E+01  0.100066573360E+01  0.100025357725E+01
  0.100050391679E+01  0.100179336279E+01  0.100112367258E+01  0.100133045248E+01  0.100072432973E+01  0.100164366725E+01  0.100168844809E+01
  0.100096274503E+01  0.100000874853E+01  0.100082864314E+01  0.100022269190E+01  0.100062146074E+01  0.100023497311E+01  0.100174635719E+01
  0.100098855496E+01  0.100118726928E+01  0.100134171022E+01  0.100132635956E+01  0.100179873777E+01  0.100192656835E+01  0.100163748619E+01
  0.100045434508E+01  0.100058774183E+01  0.100109993754E+01  0.100176112495E+01
 -0.888449413947E-04 -0.831753862641E-04 -0.509764758028E-04 -0.270377527913E-04 -0.112351984074E-03 -0.846851943945E-04 -0.568052757139E-04
 -0.259364185830E-04 -0.683824173716E-04 -0.110096233334E-03 -0.371920069828E-04 -0.548518388267E-04  0.117924405685E-04 -0.537330458187E-04
  0.748202985329E-05  0.231482763564E-04  0.416606102439E-05 -0.381758156376E-05 -0.901908465161E-05 -0.410342254188E-04  0.574997741655E-04
  0.667039375167E-04  0.355531846522E-04  0.104982942803E-03  0.748248601836E-04  0.902666714373E-04  0.107008099105E-03  0.107703363256E-03
  0.138098169542E-04  0.569083776752E-04  0.967245391356E-04  0.948514607087E-04