title="tecplot geometry and solution file"
variables = x y z mach temperature lambda1 lambda2 lambda3 lambda4 lambda5
zone t="boundary 1 bc-1", solutiontime= 0.6000000E+02, strandid=1001, i=32, j=46, f=feblock
  0.000000000000E+00  0.000000000000E+00  0.000000000000E+00  0.000000000000E+00  0.000000000000E+00  0.000000000000E+00  0.000000000000E+00
  0.000000000000E+00  0.000000000000E+00  0.000000000000E+00  0.000000000000E+00  0.000000000000E+00  0.000000000000E+00  0.000000000000E+00
  0.000000000000E+00  0.000000000000E+00  0.000000000000E+00  0.000000000000E+00  0.000000000000E+00  0.000000000000E+00  0.000000000000E+00
  0.000000000000E+00  0.000000000000E+00  0.000000000000E+00  0.000000000000E+00  0.000000000000E+00  0.000000000000E+00  0.000000000000E+00
  0.000000000000E+00  0.000000000000E+00  0.000000000000E+00  0.000000000000E+00
  0.250000000000E+01  0.250000000000E+01  0.125000000000E+01  0.146289271009E+01  0.157686156160E+01  0.308372018325E+00  0.000000000000E+00
 -0.125000000000E+01 -0.600232012419E+00  0.250000000000E+01  0.477386199275E+00  0.742988685424E+00 -0.739814786992E+00  0.177790177481E+01
  0.155830813274E+01  0.250000000000E+01 -0.250000000000E+01 -0.154800130438E+01 -0.487811078581E+00  0.250000000000E+01  0.627766083140E+00
 -0.345533899378E+00 -0.178862290564E+01 -0.158811787973E+01  0.125000000000E+01 -0.250000000000E+01 -0.144524380962E+01  0.000000000000E+00
 -0.125000000000E+01 -0.250000000000E+01 -0.250000000000E+01 -0.250000000000E+01
  0.000000000000E+00  0.125000000000E+01  0.000000000000E+00  0.103724302461E+01  0.219251206392E+01  0.922061490191E+00  0.000000000000E+00
  0.000000000000E+00  0.715990576545E+00  0.250000000000E+01  0.202479342020E+01  0.324151231464E+01  0.175434191980E+01  0.310152362409E+01
  0.404200324774E+01  0.375000000000E+01  0.000000000000E+00  0.930412228790E+00  0.299062775774E+01  0.500000000000E+01  0.429310310915E+01
  0.409252726285E+01  0.187029682677E+01  0.284428995242E+01  0.500000000000E+01  0.125000000000E+01  0.394624082883E+01  0.500000000000E+01
  0.500000000000E+01  0.250000000000E+01  0.375000000000E+01  0.500000000000E+01
  0.000000000000E+00  0.441238348384E+00  0.000000000000E+00  0.475214987021E+00  0.460123708856E+00  0.468827815405E+00  0.000000000000E+00
  0.000000000000E+00  0.402302516798E+00  0.469814974359E+00  0.464411128942E+00  0.478714034184E+00  0.489298241651E+00  0.483068557888E+00
  0.487930073118E+00  0.488961654628E+00  0.000000000000E+00  0.464775721414E+00  0.473795651891E+00  0.495346592024E+00  0.490266103446E+00
  0.486286083902E+00  0.445717618051E+00  0.464382274634E+00  0.496127394917E+00  0.443624103833E+00  0.486964461957E+00  0.497246279768E+00
  0.496059270892E+00  0.467732355362E+00  0.488212087362E+00  0.495098264817E+00
  0.999990295028E+00  0.102982719499E+01  0.999990757903E+00  0.104247294232E+01  0.101190080524E+01  0.102520618293E+01  0.999991416700E+00
  0.999992168096E+00  0.103891223624E+01  0.100826277309E+01  0.101252833877E+01  0.100300548289E+01  0.102702865700E+01  0.100605563290E+01
  0.100244400478E+01  0.100355660048E+01  0.999992721792E+00  0.103239739214E+01  0.100459524090E+01  0.100179336279E+01  0.100260305842E+01
  0.100234966417E+01  0.101657153079E+01  0.100617544692E+01  0.100168844809E+01  0.104043292670E+01  0.100303376377E+01  0.100118726928E+01
  0.100134171022E+01  0.100976788415E+01  0.100405369352E+01  0.100176112495E+01
  0.290930842571E-03  0.212334067549E-02  0.138769755213E-03  0.236337828793E-02  0.503625119053E-03 -0.378485254416E-03 -0.123092121667E-04
 -0.229400885435E-04  0.245701718500E-04  0.205370775469E-03  0.410412958488E-03 -0.181703759495E-03  0.345264456679E-03 -0.128569199159E-03
 -0.196256358995E-03 -0.326530848423E-03 -0.354101450475E-03 -0.257729131432E-02 -0.712535002669E-04 -0.683824137760E-04 -0.886112216855E-04
 -0.161634814982E-04 -0.272286839519E-03  0.207932085892E-03 -0.537330462067E-04 -0.288773100641E-02  0.378123648749E-04  0.355531827086E-04
  0.104982942454E-03  0.202484977653E-03  0.984778862874E-04  0.948514623582E-04
  0.269366564350E-04  0.335841385917E-03  0.220005255057E-04  0.332969519666E-03  0.719725872273E-04 -0.150148168799E-03  0.110059048026E-04
 -0.278023915295E-04 -0.337506797267E-04  0.228207894521E-04  0.488841848211E-04 -0.373740733781E-04  0.367953407929E-04 -0.362222726540E-04
 -0.362587818915E-04 -0.661540011750E-04 -0.317756606014E-04 -0.489284039070E-03 -0.182008218281E-04 -0.109443234072E-04 -0.164961407067E-04
 -0.525250528906E-05 -0.437989601910E-04  0.228926446206E-04 -0.105326822301E-04 -0.431342609137E-03  0.334320744240E-05  0.855408716620E-05
  0.253471773141E-04  0.243324980833E-04  0.147455780959E-04  0.248020340523E-04
  0.365839972863E-04  0.463250004349E-05  0.270476784244E-04 -0.574760798243E-06 -0.293338382128E-04  0.149605665912E-04  0.102594545621E-04
  0.401097767469E-04  0.274880985822E-04 -0.714262175905E-06 -0.409870306128E-04 -0.333968649072E-04 -0.132030926289E-04 -0.203224534727E-04
 -0.118987472868E-04  0.966614423202E-06  0.377710909241E-04  0.190082434006E-04 -0.315544846035E-04  0.637381113592E-06 -0.169202814369E-04
 -0.217359517380E-04 -0.285044443231E-04 -0.172853559718E-04 -0.818731929399E-05  0.126319770474E-04 -0.144653487222E-04 -0.142134371948E-04
 -0.104343317327E-04  0.607179843581E-06  0.640267853718E-06  0.409154054036E-06
 -0.621190708443E-04 -0.776890542860E-04 -0.263417417542E-04 -0.300323910960E-04  0.199121578622E-04 -0.130872378421E-03  0.178170218964E-04
  0.210617478131E-04  0.133344891052E-04  0.293210442402E-04 -0.313741344906E-04  0.358717995017E-05 -0.619420546795E-04  0.237196322207E-04
  0.101949150438E-04  0.199980848297E-04  0.595617170613E-04 -0.136158731288E-04 -0.215816084141E-04 -0.606292272406E-06  0.259533753323E-05
 -0.532688230793E-05 -0.108857143016E-03 -0.340176763414E-04 -0.427119061985E-06 -0.849548448663E-04 -0.145804509457E-04  0.149150377929E-06
 -0.138734933215E-05 -0.663032874740E-04 -0.192347162132E-04 -0.762544718531E-06
 -0.221286327549E-03 -0.864435850143E-03 -0.135802748282E-03 -0.949437775138E-03 -0.203008187261E-03  0.221472851424E-03 -0.170527324460E-03
 -0.127088623769E-03  0.962900779225E-05 -0.800301614422E-04 -0.161241231320E-03  0.756876839144E-04 -0.133440626942E-03  0.549193733842E-04
  0.816972530882E-04  0.136040310364E-03  0.106025681615E-03  0.109408825804E-02  0.312658262560E-04  0.281571366357E-04  0.369361185730E-04
  0.703252346016E-05  0.111130289889E-03 -0.793504405213E-04  0.223767638340E-04  0.116200929943E-02 -0.151139757853E-04 -0.150561180175E-04
 -0.442293336328E-04 -0.796920820519E-04 -0.411323546347E-04 -0.402211774152E-04
        12        19        11        11
        11         5        12        12
        10        14         5         5
        19        13        11        11
        19        24        13        13
        30        23        24        24
        19        12        22        22
        28        22        21        21
        11        13         6         6
         7         6         9         9
        15        12        14        14
        18        13        23        23
        15        25        21        21
        27        19        22        22
        18         8         9         9
        27        31        24        24
         4        11         6         6
         5        14        12        12
         4         2         5         5
        21        12        15        15
        14        16        15        15
        24        19        27        27
        22        29        27        27
        23        26        18        18
        17         8        18        18
         5        11         4         4
         6         3         4         4
        26        23        30        30
         5         2        10        10
        16        14        10        10
         3         6         7         7
        21        25        28        28
        29        22        28        28
         6        13         9         9
         2         4         1         1
        31        27        32        32
        25        15        20        20
        24        23        13        13
         8         7         9         9
        13        18         9         9
        31        30        24        24
        12        21        22        22
        29        32        27        27
         3         1         4         4
        26        17        18        18
        16        20        15        15
zone t="boundary 2 bc-2", solutiontime= 0.6000000E+02, strandid=1002, i=33, j=48, f=feblock
  0.500000000000E+01  0.375000000000E+01  0.250000000000E+01  0.288078410721E+01  0.125000000000E+01  0.190974100652E+01  0.326683758169E+01
  0.201431602454E+01  0.000000000000E+00  0.963108083381E+00  0.500000000000E+01  0.403552511878E+01  0.423153924130E+01  0.500000000000E+01
  0.385533350601E+01  0.500000000000E+01  0.398173246726E+01  0.315249557942E+01  0.267000324704E+01  0.154774304040E+01  0.218329375016E+01
  0.893127759452E+00  0.000000000000E+00  0.698517061619E+00  0.964171764089E+00  0.310324758057E+01  0.000000000000E+00  0.000000000000E+00
  0.125000000000E+01  0.500000000000E+01  0.375000000000E+01  0.250000000000E+01  0.000000000000E+00
 -0.250000000000E+01 -0.250000000000E+01 -0.250000000000E+01 -0.250000000000E+01 -0.250000000000E+01 -0.250000000000E+01 -0.250000000000E+01
 -0.250000000000E+01 -0.250000000000E+01 -0.250000000000E+01 -0.250000000000E+01 -0.250000000000E+01 -0.250000000000E+01 -0.250000000000E+01
 -0.250000000000E+01 -0.250000000000E+01 -0.250000000000E+01 -0.250000000000E+01 -0.250000000000E+01 -0.250000000000E+01 -0.250000000000E+01
 -0.250000000000E+01 -0.250000000000E+01 -0.250000000000E+01 -0.250000000000E+01 -0.250000000000E+01 -0.250000000000E+01 -0.250000000000E+01
 -0.250000000000E+01 -0.250000000000E+01 -0.250000000000E+01 -0.250000000000E+01 -0.250000000000E+01
  0.000000000000E+00  0.000000000000E+00  0.000000000000E+00  0.904659890645E+00  0.000000000000E+00  0.717002441913E+00  0.188609243358E+01
  0.176246431481E+01  0.000000000000E+00  0.961328577125E+00  0.125000000000E+01  0.101201586758E+01  0.191586535653E+01  0.250000000000E+01
  0.293121848150E+01  0.375000000000E+01  0.406975391361E+01  0.363585050272E+01  0.285047954584E+01  0.292817774674E+01  0.395907379566E+01
  0.205246550326E+01  0.125000000000E+01  0.306828197606E+01  0.397245519226E+01  0.433168271247E+01  0.250000000000E+01  0.375000000000E+01
  0.500000000000E+01  0.500000000000E+01  0.500000000000E+01  0.500000000000E+01  0.500000000000E+01
  0.000000000000E+00  0.000000000000E+00  0.000000000000E+00  0.380991906500E+00  0.000000000000E+00  0.343629824950E+00  0.585286157424E+00
  0.579373264282E+00  0.000000000000E+00  0.501056069140E+00  0.508460362676E+00  0.435373026572E+00  0.572640041190E+00  0.537002098944E+00
  0.568922553870E+00  0.514994090651E+00  0.508247257160E+00  0.527252853130E+00  0.567446661127E+00  0.531657143909E+00  0.505981016593E+00
  0.520795579399E+00  0.443624103833E+00  0.490663730453E+00  0.492155873749E+00  0.501390784676E+00  0.467732355362E+00  0.488212087362E+00
  0.490002767114E+00  0.491352304715E+00  0.486075475228E+00  0.490036479234E+00  0.495098264817E+00
  0.999993487379E+00  0.999993690057E+00  0.999993543115E+00  0.989539055875E+00  0.999993137282E+00  0.985524707174E+00  0.989838908967E+00
  0.991798516580E+00  0.999992721792E+00  0.984411112416E+00  0.985091906406E+00  0.984689080896E+00  0.990058464829E+00  0.100289621837E+01
  0.999855369243E+00  0.100485306649E+01  0.100121554699E+01  0.100055642931E+01  0.997896793475E+00  0.100350029570E+01  0.100058068723E+01
  0.101093276247E+01  0.104043292670E+01  0.100326475367E+01  0.100254498742E+01  0.100045587387E+01  0.100976788415E+01  0.100405369352E+01
  0.100192656835E+01  0.100045434508E+01  0.100058774183E+01  0.100109993754E+01  0.100176112495E+01
  0.136019315654E-04  0.114278013383E-03  0.158089131568E-03 -0.182892633298E-02 -0.249883351693E-03 -0.760499686396E-02  0.169452915518E-03
 -0.146144334639E-03 -0.354101450475E-03 -0.373374796152E-02  0.341484974475E-04  0.324777846294E-03  0.258219723320E-04  0.151861768949E-04
  0.740655164520E-05  0.104885084994E-04  0.131134206155E-04 -0.117166129657E-04  0.442830740236E-04  0.159022535727E-03 -0.667546007120E-05
 -0.201732843304E-03 -0.288773100641E-02  0.111731091445E-03  0.369042462627E-04  0.114760346241E-04  0.202484977653E-03  0.984778862874E-04
  0.107008099190E-03  0.138098169307E-04  0.569083777751E-04  0.967245390325E-04  0.948514623582E-04
 -0.188857931046E-04 -0.242510697259E-04  0.580427668236E-06 -0.520138326376E-03  0.432375575716E-04 -0.108789528020E-02 -0.506067532988E-04
 -0.373907425272E-04 -0.317756606014E-04 -0.591725544671E-03 -0.121891313677E-04 -0.120569110871E-03 -0.487750043469E-04 -0.361951795776E-05
 -0.193297257948E-04 -0.197431548446E-05 -0.499101386066E-05 -0.750032079884E-05 -0.213647415025E-04  0.567518065756E-05 -0.532698759200E-05
 -0.187308405327E-04 -0.431342609137E-03 -0.769058353870E-05  0.207673189690E-05 -0.146902928119E-05  0.243324980833E-04  0.147455780959E-04
  0.251705661328E-04 -0.482748087529E-06  0.599520539196E-05  0.198479482689E-04  0.248020340523E-04
  0.711727780284E-05 -0.153889857852E-05 -0.141335740812E-04 -0.858105228730E-04 -0.382365524351E-05 -0.104258440032E-03 -0.422954422787E-06
 -0.106450769043E-04  0.377710909241E-04 -0.715083911056E-04 -0.827751885952E-05 -0.150121699336E-04 -0.362952765405E-06  0.233737797984E-06
 -0.739919475461E-06  0.374857476131E-06 -0.399783961369E-06  0.110252199501E-05 -0.551150904223E-06 -0.250777212154E-05  0.349680694500E-07
 -0.549023222712E-05  0.126319770474E-04 -0.150691507962E-05 -0.971037847558E-07  0.297668520969E-06  0.607179843581E-06  0.640267853718E-06
  0.303852556922E-06  0.208092654710E-06  0.288814716635E-06 -0.162745185342E-06  0.409154054036E-06
 -0.726701235568E-05  0.360511989837E-05  0.249263477613E-04 -0.110199663008E-03  0.742532008319E-04 -0.794286238761E-04 -0.551823016294E-04
 -0.136312711558E-03  0.595617170613E-04 -0.116482539348E-03  0.171320525028E-04  0.191061874756E-05 -0.429667683555E-05  0.387491559585E-05
 -0.109732714411E-04  0.136371401213E-05 -0.558531902430E-05 -0.162841843295E-04 -0.277866619356E-04 -0.269497821831E-04 -0.147777514034E-04
 -0.113399620597E-03 -0.849548448663E-04 -0.292811742795E-04 -0.144774059103E-04 -0.109793223814E-04 -0.663032874740E-04 -0.192347162132E-04
 -0.424084018876E-05 -0.130418292323E-05 -0.369060846627E-05 -0.384782739478E-05 -0.762544718531E-06
  0.305863763320E-04 -0.479449452526E-04 -0.409861027050E-03  0.872546980711E-03 -0.520307147652E-03  0.326871114621E-02 -0.466479670029E-04
  0.553123632669E-04  0.106025681615E-03  0.157020914495E-02 -0.722318385645E-05 -0.804600164637E-04  0.101051580772E-04 -0.341466968741E-05
  0.589608973446E-05 -0.236449233756E-05 -0.201410697660E-05  0.757274258363E-05 -0.919525253685E-05 -0.590986717361E-04  0.490576247823E-05
  0.745965924591E-04  0.116200929943E-02 -0.378811362696E-04 -0.135668309851E-04 -0.212030343152E-05 -0.796920820519E-04 -0.411323546347E-04
 -0.446775122823E-04 -0.417094216989E-05 -0.214448064132E-04 -0.396137321356E-04 -0.402211774152E-04
        15         7        19        19
         8        20        19        19
        18        19        21        21
         7         4         8         8
         3         6         4         4
        19         7         8         8
        19        18        15        15
        14        13        15        15
         8        22        20        20
        27        24        22        22
        19        20        21        21
        32        26        21        21
        17        18        26        26
        17        16        15        15
        25        29        21        21
        12         7        13        13
        10         8         6         6
        25        20        24        24
         4         6         8         8
        12         2         4         4
        10        23        22        22
        26        31        17        17
        30        16        17        17
         4         7        12        12
        13        11        12        12
        21        20        25        25
        24        28        25        25
        22         8        10        10
         6         5        10        10
        31        26        32        32
         4         2         3         3
         5         6         3         3
        11        13        14        14
        22        23        27        27
        28        24        27        27
        15        13         7         7
         2        12         1         1
        29        25        33        33
        23        10         9         9
        21        26        18        18
        16        14        15        15
        18        17        15        15
        29        32        21        21
        22        24        20        20
        28        33        25        25
        11         1        12        12
        31        30        17        17
         5         9        10        10
zone t="boundary 3 bc-3", solutiontime= 0.6000000E+02, strandid=1003, i=33, j=48, f=feblock
  0.375000000000E+01  0.250000000000E+01  0.500000000000E+01  0.403552511878E+01  0.288078410721E+01  0.125000000000E+01  0.190974100652E+01
  0.500000000000E+01  0.326683758169E+01  0.423153924130E+01  0.201431602454E+01  0.000000000000E+00  0.963108083381E+00  0.500000000000E+01
  0.267000324704E+01  0.385533350601E+01  0.893127759452E+00  0.154774304040E+01  0.000000000000E+00  0.500000000000E+01  0.315249557942E+01
  0.218329375016E+01  0.398173246726E+01  0.000000000000E+00  0.698517061619E+00  0.964171764089E+00  0.125000000000E+01  0.000000000000E+00
  0.500000000000E+01  0.310324758057E+01  0.250000000000E+01  0.375000000000E+01  0.000000000000E+00
  0.250000000000E+01  0.250000000000E+01  0.250000000000E+01  0.250000000000E+01  0.250000000000E+01  0.250000000000E+01  0.250000000000E+01
  0.250000000000E+01  0.250000000000E+01  0.250000000000E+01  0.250000000000E+01  0.250000000000E+01  0.250000000000E+01  0.250000000000E+01
  0.250000000000E+01  0.250000000000E+01  0.250000000000E+01  0.250000000000E+01  0.250000000000E+01  0.250000000000E+01  0.250000000000E+01
  0.250000000000E+01  0.250000000000E+01  0.250000000000E+01  0.250000000000E+01  0.250000000000E+01  0.250000000000E+01  0.250000000000E+01
  0.250000000000E+01  0.250000000000E+01  0.250000000000E+01  0.250000000000E+01  0.250000000000E+01
  0.000000000000E+00  0.000000000000E+00  0.000000000000E+00  0.101201586758E+01  0.904659890645E+00  0.000000000000E+00  0.717002441913E+00
  0.125000000000E+01  0.188609243358E+01  0.191586535653E+01  0.176246431481E+01  0.000000000000E+00  0.961328577125E+00  0.250000000000E+01
  0.285047954584E+01  0.293121848150E+01  0.205246550326E+01  0.292817774674E+01  0.125000000000E+01  0.375000000000E+01  0.363585050272E+01
  0.395907379566E+01  0.406975391361E+01  0.250000000000E+01  0.306828197606E+01  0.397245519226E+01  0.500000000000E+01  0.375000000000E+01
  0.500000000000E+01  0.433168271247E+01  0.500000000000E+01  0.500000000000E+01  0.500000000000E+01
  0.000000000000E+00  0.000000000000E+00  0.000000000000E+00  0.443767745459E+00  0.402286944574E+00  0.000000000000E+00  0.377550369545E+00
  0.509232128688E+00  0.575832179754E+00  0.573707405285E+00  0.562554064412E+00  0.000000000000E+00  0.490563299840E+00  0.534527096543E+00
  0.556586982170E+00  0.564391577749E+00  0.522730517385E+00  0.522052000170E+00  0.441238348384E+00  0.517182331791E+00  0.524228630763E+00
  0.503687457534E+00  0.509488571178E+00  0.469814974359E+00  0.495614442414E+00  0.494483780212E+00  0.488562428343E+00  0.488961654628E+00
  0.492980744788E+00  0.499005552222E+00  0.486460936507E+00  0.484596927548E+00  0.495346592024E+00
  0.999989339439E+00  0.999989408764E+00  0.999989626853E+00  0.981541895460E+00  0.988773990194E+00  0.999989827144E+00  0.982469462434E+00
  0.984104309047E+00  0.990427545862E+00  0.990355285694E+00  0.994362997073E+00  0.999990295028E+00  0.988652071037E+00  0.100368369414E+01
  0.999769197113E+00  0.100118501219E+01  0.100834885320E+01  0.100252111043E+01  0.102982719499E+01  0.100443319461E+01  0.100199536635E+01
  0.100082056599E+01  0.100138192342E+01  0.100826277309E+01  0.100298787130E+01  0.100192389555E+01  0.100215267510E+01  0.100355660048E+01
  0.100047670023E+01  0.100056591053E+01  0.100126820231E+01  0.100066573360E+01  0.100179336279E+01
 -0.291833706736E-04  0.275167125937E-03 -0.104385975363E-03  0.174240896256E-02  0.611269354011E-02  0.238410574240E-03  0.404290821659E-02
 -0.368384890537E-03 -0.118359962880E-03 -0.151709038747E-03  0.144840479992E-02  0.290930842571E-03  0.291779941309E-02 -0.904610264524E-04
 -0.241021866820E-03 -0.455964969112E-04  0.651771954461E-03 -0.243014515701E-03  0.212334067549E-02 -0.391920898162E-04 -0.549803287116E-05
 -0.535150716840E-04 -0.242613725343E-04  0.205370775469E-03 -0.135149083475E-03 -0.143359717112E-03 -0.888449425998E-04 -0.326530848423E-03
 -0.270377528203E-04 -0.237155344905E-04 -0.112351983170E-03 -0.846851941970E-04 -0.683824137760E-04
 -0.359030566692E-04 -0.358608197039E-04  0.328031404652E-04  0.361872502408E-03  0.807077939203E-03 -0.111251050374E-04  0.433789189264E-03
  0.427176913449E-04 -0.645758292249E-04  0.416521171371E-05  0.842901869069E-04  0.269366564350E-04  0.334539646290E-03  0.227247102780E-04
 -0.606509811667E-04 -0.271765772173E-05  0.241127684461E-04 -0.666125505655E-04  0.335841385917E-03  0.869164515373E-05 -0.597378980744E-05
 -0.130349521495E-04 -0.460536691643E-06  0.228207894521E-04 -0.565278964120E-04 -0.214242602232E-04 -0.213828312666E-04 -0.661540011750E-04
  0.111710894892E-05 -0.739147664878E-05 -0.280173890506E-04 -0.129707073884E-04 -0.109443234072E-04
 -0.725922314535E-05  0.109433887918E-04  0.151147310009E-05 -0.436930039961E-04 -0.994433796056E-04  0.190092446717E-04  0.198864826578E-04
 -0.251744316443E-05 -0.100034593775E-04 -0.148958565046E-05 -0.756152036838E-05  0.365839972863E-04  0.243136650789E-04  0.169882125794E-05
 -0.190912739040E-05 -0.105779004212E-05 -0.366531463647E-05 -0.361674862438E-05  0.463250004349E-05  0.865464312062E-06  0.881444745851E-06
  0.992579963968E-06 -0.726897966180E-07 -0.714262175905E-06  0.609917569562E-06  0.382149147298E-06  0.747686713538E-06  0.966614423202E-06
  0.311492167525E-06 -0.869319279127E-07  0.129211685021E-06 -0.671145487703E-07  0.637381113592E-06
 -0.473672843482E-04 -0.772339019478E-04 -0.565381775163E-05  0.557054860209E-04  0.586881873595E-04 -0.371836477302E-04 -0.490751528431E-04
  0.320493466430E-04  0.125510406278E-03  0.493107879106E-04  0.147251719596E-03 -0.621190708443E-04  0.215437664058E-04  0.156232960150E-04
  0.226051097969E-04  0.287105018457E-04  0.763797278726E-04  0.136434440561E-04 -0.776890542860E-04  0.836921323939E-05  0.199833788153E-04
  0.772992483645E-05  0.121883606772E-04  0.293210442402E-04  0.293203640400E-04  0.644212430728E-05  0.712836526284E-06  0.199980848297E-04
  0.330792206046E-05  0.120438832474E-04  0.323324925967E-05  0.508085340333E-05 -0.606292272406E-06
  0.744185987727E-03  0.763362926365E-04  0.101128289606E-03 -0.801694974609E-03 -0.258836199395E-02 -0.747068848095E-04 -0.162011711570E-02
  0.106257615023E-03  0.672245504764E-04  0.487971849407E-04 -0.547253196654E-03 -0.221286327549E-03 -0.116590105868E-02  0.171108089301E-04
  0.104690530952E-03  0.133092986432E-04 -0.246362349845E-03  0.106227829224E-03 -0.864435850143E-03  0.805327707590E-05  0.246374809695E-05
  0.228218189080E-04  0.678377681097E-05 -0.800301614422E-04  0.585178835357E-04  0.584988477688E-04  0.378412477152E-04  0.136040310364E-03
  0.820778037999E-05  0.907558530155E-05  0.474233144945E-04  0.330843525639E-04  0.281571366357E-04
        15         9        16        16
        15        18        11        11
        22        15        21        21
        11         5         9         9
         5         7         2         2
        11         9        15        15
        16        21        15        15
        16        10        14        14
        18        17        11        11
        17        25        24        24
        22        18        15        15
        22        30        31        31
        30        21        23        23
        16        20        23        23
        22        27        26        26
        10         9         4         4
         7        11        13        13
        25        18        26        26
        11         7         5         5
         5         1         4         4
        17        19        13        13
        23        32        30        30
        23        20        29        29
         4         9         5         5
         4         8        10        10
        26        18        22        22
        26        28        25        25
        13        11        17        17
        13         6         7         7
        31        30        32        32
         2         1         5         5
         2         7         6         6
        14        10         8         8
        24        19        17        17
        24        25        28        28
         9        10        16        16
         3         4         1         1
        33        26        27        27
        12        13        19        19
        21        30        22        22
        16        14        20        20
        16        23        21        21
        22        31        27        27
        18        25        17        17
        26        33        28        28
         4         3         8         8
        23        29        32        32
        13        12         6         6
zone t="boundary 4 bc-4", solutiontime= 0.6000000E+02, strandid=1004, i=32, j=46, f=feblock
  0.125000000000E+01  0.219251206392E+01  0.103724302461E+01  0.500000000000E+01  0.250000000000E+01  0.375000000000E+01  0.404200324774E+01
  0.500000000000E+01  0.000000000000E+00  0.310152362409E+01  0.202479342020E+01  0.324151231464E+01  0.922061490191E+00  0.000000000000E+00
  0.299062775774E+01  0.394624082883E+01  0.500000000000E+01  0.409252726285E+01  0.500000000000E+01  0.429310310915E+01  0.175434191980E+01
  0.284428995242E+01  0.000000000000E+00  0.000000000000E+00  0.715990576545E+00  0.930412228790E+00  0.125000000000E+01  0.187029682677E+01
  0.500000000000E+01  0.375000000000E+01  0.250000000000E+01  0.000000000000E+00
  0.250000000000E+01  0.157686156160E+01  0.146289271009E+01  0.250000000000E+01  0.250000000000E+01  0.250000000000E+01  0.155830813274E+01
  0.125000000000E+01  0.250000000000E+01  0.177790177481E+01  0.477386199275E+00  0.742988685424E+00  0.308372018325E+00  0.125000000000E+01
 -0.487811078581E+00 -0.144524380962E+01 -0.125000000000E+01 -0.345533899378E+00  0.000000000000E+00  0.627766083140E+00 -0.739814786992E+00
 -0.158811787973E+01  0.000000000000E+00 -0.125000000000E+01 -0.600232012419E+00 -0.154800130438E+01 -0.250000000000E+01 -0.178862290564E+01
 -0.250000000000E+01 -0.250000000000E+01 -0.250000000000E+01 -0.250000000000E+01
  0.500000000000E+01  0.500000000000E+01  0.500000000000E+01  0.500000000000E+01  0.500000000000E+01  0.500000000000E+01  0.500000000000E+01
  0.500000000000E+01  0.500000000000E+01  0.500000000000E+01  0.500000000000E+01  0.500000000000E+01  0.500000000000E+01  0.500000000000E+01
  0.500000000000E+01  0.500000000000E+01  0.500000000000E+01  0.500000000000E+01  0.500000000000E+01  0.500000000000E+01  0.500000000000E+01
  0.500000000000E+01  0.500000000000E+01  0.500000000000E+01  0.500000000000E+01  0.500000000000E+01  0.500000000000E+01  0.500000000000E+01
  0.500000000000E+01  0.500000000000E+01  0.500000000000E+01  0.500000000000E+01
  0.488562428343E+00  0.488873127044E+00  0.490562939264E+00  0.492980744788E+00  0.486460936507E+00  0.484596927548E+00  0.485347896276E+00
  0.494163542317E+00  0.495346592024E+00  0.486528232758E+00  0.487819998460E+00  0.487068916091E+00  0.494045904395E+00  0.496127394917E+00
  0.487612357629E+00  0.483219722850E+00  0.492395510969E+00  0.487214141159E+00  0.494738985333E+00  0.487958525499E+00  0.489677249447E+00
  0.488029107105E+00  0.497246279768E+00  0.496059270892E+00  0.494951052257E+00  0.492800373677E+00  0.490002767114E+00  0.490005124553E+00
  0.491352304715E+00  0.486075475228E+00  0.490036479234E+00  0.495098264817E+00
  0.100215267510E+01  0.100152652958E+01  0.100178347660E+01  0.100047670023E+01  0.100126820231E+01  0.100066573360E+01  0.100025357725E+01
  0.100050391679E+01  0.100179336279E+01  0.100112367258E+01  0.100133045248E+01  0.100072432973E+01  0.100164366725E+01  0.100168844809E+01
  0.100096274503E+01  0.100000874853E+01  0.100082864314E+01  0.100022269190E+01  0.100062146074E+01  0.100023497311E+01  0.100174635719E+01
  0.100098855496E+01  0.100118726928E+01  0.100134171022E+01  0.100132635956E+01  0.100179873777E+01  0.100192656835E+01  0.100163748619E+01
  0.100045434508E+01  0.100058774183E+01  0.100109993754E+01  0.100176112495E+01
 -0.888449425998E-04 -0.831753849514E-04 -0.509764759559E-04 -0.270377528203E-04 -0.112351983170E-03 -0.846851941970E-04 -0.568052755238E-04
 -0.259364186235E-04 -0.683824137760E-04 -0.110096233345E-03 -0.371920069251E-04 -0.548518389912E-04  0.117924397524E-04 -0.537330462067E-04
  0.748202976203E-05  0.231482765110E-04  0.416606103104E-05 -0.381758145077E-05 -0.901908465454E-05 -0.410342255004E-04  0.574997745137E-04
  0.667039382716E-04  0.355531827086E-04  0.104982942454E-03  0.748248598992E-04  0.902666725870E-04  0.107008099190E-03  0.107703364025E-03
  0.138098169307E-04  0.569083777751E-04  0.967245390325E-04  0.948514623582E-04