title="tecplot geometry and solution file"
variables = x y z mach temperature lambda1 lambda2 lambda3 lambda4 lambda5
zone t="boundary 1 bc-1", solutiontime= 0.4000000E+02, strandid=1001, i=32, j=46, f=feblock
  0.000000000000E+00  0.000000000000E+00  0.000000000000E+00  0.000000000000E+00  0.000000000000E+00  0.000000000000E+00  0.000000000000E+00
  0.000000000000E+00  0.000000000000E+00  0.000000000000E+00  0.000000000000E+00  0.000000000000E+00  0.000000000000E+00  0.000000000000E+00
  0.000000000000E+00  0.000000000000E+00  0.000000000000E+00  0.000000000000E+00  0.000000000000E+00  0.000000000000E+00  0.000000000000E+00
  0.000000000000E+00  0.000000000000E+00  0.000000000000E+00  0.000000000000E+00  0.000000000000E+00  0.000000000000E+00  0.000000000000E+00
  0.000000000000E+00  0.000000000000E+00  0.000000000000E+00  0.000000000000E+00
  0.250000000000E+01  0.250000000000E+01  0.125000000000E+01  0.146289271009E+01  0.157686156160E+01  0.308372018325E+00  0.000000000000E+00
 -0.125000000000E+01 -0.600232012419E+00  0.250000000000E+01  0.477386199275E+00  0.742988685424E+00 -0.739814786992E+00  0.177790177481E+01
  0.155830813274E+01  0.250000000000E+01 -0.250000000000E+01 -0.154800130438E+01 -0.487811078581E+00  0.250000000000E+01  0.627766083140E+00
 -0.345533899378E+00 -0.178862290564E+01 -0.158811787973E+01  0.125000000000E+01 -0.250000000000E+01 -0.144524380962E+01  0.000000000000E+00
 -0.125000000000E+01 -0.250000000000E+01 -0.250000000000E+01 -0.250000000000E+01
  0.000000000000E+00  0.125000000000E+01  0.000000000000E+00  0.103724302461E+01  0.219251206392E+01  0.922061490191E+00  0.000000000000E+00
  0.000000000000E+00  0.715990576545E+00  0.250000000000E+01  0.202479342020E+01  0.324151231464E+01  0.175434191980E+01  0.310152362409E+01
  0.404200324774E+01  0.375000000000E+01  0.000000000000E+00  0.930412228790E+00  0.299062775774E+01  0.500000000000E+01  0.429310310915E+01
  0.409252726285E+01  0.187029682677E+01  0.284428995242E+01  0.500000000000E+01  0.125000000000E+01  0.394624082883E+01  0.500000000000E+01
  0.500000000000E+01  0.250000000000E+01  0.375000000000E+01  0.500000000000E+01
  0.000000000000E+00  0.441238348384E+00  0.000000000000E+00  0.475214987021E+00  0.460123708856E+00  0.468827815405E+00  0.000000000000E+00
  0.000000000000E+00  0.402302516798E+00  0.469814974359E+00  0.464411128942E+00  0.478714034184E+00  0.489298241651E+00  0.483068557888E+00
  0.487930073118E+00  0.488961654628E+00  0.000000000000E+00  0.464775721414E+00  0.473795651891E+00  0.495346592024E+00  0.490266103446E+00
  0.486286083902E+00  0.445717618051E+00  0.464382274634E+00  0.496127394917E+00  0.443624103833E+00  0.486964461957E+00  0.497246279768E+00
  0.496059270892E+00  0.467732355362E+00  0.488212087362E+00  0.495098264817E+00
  0.999990295028E+00  0.102982719499E+01  0.999990757903E+00  0.104247294232E+01  0.101190080524E+01  0.102520618293E+01  0.999991416700E+00
  0.999992168096E+00  0.103891223624E+01  0.100826277309E+01  0.101252833877E+01  0.100300548289E+01  0.102702865700E+01  0.100605563290E+01
  0.100244400478E+01  0.100355660048E+01  0.999992721792E+00  0.103239739214E+01  0.100459524090E+01  0.100179336279E+01  0.100260305842E+01
  0.100234966417E+01  0.101657153079E+01  0.100617544692E+01  0.100168844809E+01  0.104043292670E+01  0.100303376377E+01  0.100118726928E+01
  0.100134171022E+01  0.100976788415E+01  0.100405369352E+01  0.100176112495E+01
  0.290930163434E-03  0.212333429116E-02  0.138770434811E-03  0.236337669913E-02  0.503628598475E-03 -0.378475884376E-03 -0.123082850066E-04
 -0.229406749385E-04  0.245710263629E-04  0.205373188961E-03  0.410411913438E-03 -0.181703900930E-03  0.345259442818E-03 -0.128569175591E-03
 -0.196256877605E-03 -0.326533076480E-03 -0.354101697002E-03 -0.257730384369E-02 -0.712521363888E-04 -0.683808765910E-04 -0.886109999699E-04
 -0.161611858601E-04 -0.272285055150E-03  0.207932286137E-03 -0.537332552317E-04 -0.288771192836E-02  0.378132017945E-04  0.355504021666E-04
  0.104980511747E-03  0.202483003907E-03  0.984774411767E-04  0.948520669924E-04
  0.269366568285E-04  0.335839987191E-03  0.220004547406E-04  0.332968886863E-03  0.719732684330E-04 -0.150146253632E-03  0.110059036440E-04
 -0.278024154649E-04 -0.337507909040E-04  0.228212297505E-04  0.488840244975E-04 -0.373740073269E-04  0.367942212294E-04 -0.362222238860E-04
 -0.362588712402E-04 -0.661544452477E-04 -0.317756108167E-04 -0.489286050150E-03 -0.182005162180E-04 -0.109440271812E-04 -0.164960757630E-04
 -0.525187594023E-05 -0.437986178922E-04  0.228926731741E-04 -0.105327439865E-04 -0.431339018692E-03  0.334345071620E-05  0.855338919583E-05
  0.253464791699E-04  0.243321139734E-04  0.147454936442E-04  0.248022333813E-04
  0.365839063949E-04  0.463248588819E-05  0.270474922619E-04 -0.575755878691E-06 -0.293338716422E-04  0.149598032996E-04  0.102595596687E-04
  0.401098636534E-04  0.274876587751E-04 -0.714264592297E-06 -0.409870867001E-04 -0.333965542863E-04 -0.132030990567E-04 -0.203223217764E-04
 -0.118987393970E-04  0.966617034147E-06  0.377710955384E-04  0.190087390458E-04 -0.315542725120E-04  0.637378222323E-06 -0.169201551596E-04
 -0.217357439995E-04 -0.285045034860E-04 -0.172854762092E-04 -0.818763435296E-05  0.126320226120E-04 -0.144652678847E-04 -0.142139362338E-04
 -0.104345189872E-04  0.607161854945E-06  0.640262837120E-06  0.409154375799E-06
 -0.621189598323E-04 -0.776888124738E-04 -0.263418941057E-04 -0.300325616288E-04  0.199119300485E-04 -0.130872462906E-03  0.178168636450E-04
  0.210618520997E-04  0.133347220282E-04  0.293210183249E-04 -0.313739602823E-04  0.358717288082E-05 -0.619416235610E-04  0.237197130227E-04
  0.101949843957E-04  0.199982286223E-04  0.595617049402E-04 -0.136161569405E-04 -0.215815855966E-04 -0.606291303910E-06  0.259542340102E-05
 -0.532689233896E-05 -0.108857145887E-03 -0.340176185216E-04 -0.427093214882E-06 -0.849548531542E-04 -0.145804498232E-04  0.149227241344E-06
 -0.138729906032E-05 -0.663032086539E-04 -0.192346683096E-04 -0.762553935741E-06
 -0.221285672587E-03 -0.864433130021E-03 -0.135803492227E-03 -0.949437060406E-03 -0.203009643529E-03  0.221469016699E-03 -0.170527878049E-03
 -0.127088146308E-03  0.962866158168E-05 -0.800311774985E-04 -0.161240800644E-03  0.756877429469E-04 -0.133438506724E-03  0.549193751929E-04
  0.816974555453E-04  0.136041245637E-03  0.106025793370E-03  0.109409335808E-02  0.312652340885E-04  0.281564887120E-04  0.369359959715E-04
  0.703151435208E-05  0.111129542801E-03 -0.793505406921E-04  0.223768448307E-04  0.116200140396E-02 -0.151143495232E-04 -0.150549360645E-04
 -0.442282720944E-04 -0.796912576321E-04 -0.411321724334E-04 -0.402214440808E-04
        12        19        11        11
        11         5        12        12
        10        14         5         5
        19        13        11        11
        19        24        13        13
        30        23        24        24
        19        12        22        22
        28        22        21        21
        11        13         6         6
         7         6         9         9
        15        12        14        14
        18        13        23        23
        15        25        21        21
        27        19        22        22
        18         8         9         9
        27        31        24        24
         4        11         6         6
         5        14        12        12
         4         2         5         5
        21        12        15        15
        14        16        15        15
        24        19        27        27
        22        29        27        27
        23        26        18        18
        17         8        18        18
         5        11         4         4
         6         3         4         4
        26        23        30        30
         5         2        10        10
        16        14        10        10
         3         6         7         7
        21        25        28        28
        29        22        28        28
         6        13         9         9
         2         4         1         1
        31        27        32        32
        25        15        20        20
        24        23        13        13
         8         7         9         9
        13        18         9         9
        31        30        24        24
        12        21        22        22
        29        32        27        27
         3         1         4         4
        26        17        18        18
        16        20        15        15
zone t="boundary 2 bc-2", solutiontime= 0.4000000E+02, strandid=1002, i=33, j=48, f=feblock
  0.500000000000E+01  0.375000000000E+01  0.250000000000E+01  0.288078410721E+01  0.125000000000E+01  0.190974100652E+01  0.326683758169E+01
  0.201431602454E+01  0.000000000000E+00  0.963108083381E+00  0.500000000000E+01  0.403552511878E+01  0.423153924130E+01  0.500000000000E+01
  0.385533350601E+01  0.500000000000E+01  0.398173246726E+01  0.315249557942E+01  0.267000324704E+01  0.154774304040E+01  0.218329375016E+01
  0.893127759452E+00  0.000000000000E+00  0.698517061619E+00  0.964171764089E+00  0.310324758057E+01  0.000000000000E+00  0.000000000000E+00
  0.125000000000E+01  0.500000000000E+01  0.375000000000E+01  0.250000000000E+01  0.000000000000E+00
 -0.250000000000E+01 -0.250000000000E+01 -0.250000000000E+01 -0.250000000000E+01 -0.250000000000E+01 -0.250000000000E+01 -0.250000000000E+01
 -0.250000000000E+01 -0.250000000000E+01 -0.250000000000E+01 -0.250000000000E+01 -0.250000000000E+01 -0.250000000000E+01 -0.250000000000E+01
 -0.250000000000E+01 -0.250000000000E+01 -0.250000000000E+01 -0.250000000000E+01 -0.250000000000E+01 -0.250000000000E+01 -0.250000000000E+01
 -0.250000000000E+01 -0.250000000000E+01 -0.250000000000E+01 -0.250000000000E+01 -0.250000000000E+01 -0.250000000000E+01 -0.250000000000E+01
 -0.250000000000E+01 -0.250000000000E+01 -0.250000000000E+01 -0.250000000000E+01 -0.250000000000E+01
  0.000000000000E+00  0.000000000000E+00  0.000000000000E+00  0.904659890645E+00  0.000000000000E+00  0.717002441913E+00  0.188609243358E+01
  0.176246431481E+01  0.000000000000E+00  0.961328577125E+00  0.125000000000E+01  0.101201586758E+01  0.191586535653E+01  0.250000000000E+01
  0.293121848150E+01  0.375000000000E+01  0.406975391361E+01  0.363585050272E+01  0.285047954584E+01  0.292817774674E+01  0.395907379566E+01
  0.205246550326E+01  0.125000000000E+01  0.306828197606E+01  0.397245519226E+01  0.433168271247E+01  0.250000000000E+01  0.375000000000E+01
  0.500000000000E+01  0.500000000000E+01  0.500000000000E+01  0.500000000000E+01  0.500000000000E+01
  0.000000000000E+00  0.000000000000E+00  0.000000000000E+00  0.380991906500E+00  0.000000000000E+00  0.343629824950E+00  0.585286157424E+00
  0.579373264282E+00  0.000000000000E+00  0.501056069140E+00  0.508460362676E+00  0.435373026572E+00  0.572640041190E+00  0.537002098944E+00
  0.568922553870E+00  0.514994090651E+00  0.508247257160E+00  0.527252853130E+00  0.567446661127E+00  0.531657143909E+00  0.505981016593E+00
  0.520795579399E+00  0.443624103833E+00  0.490663730453E+00  0.492155873749E+00  0.501390784676E+00  0.467732355362E+00  0.488212087362E+00
  0.490002767114E+00  0.491352304715E+00  0.486075475228E+00  0.490036479234E+00  0.495098264817E+00
  0.999993487379E+00  0.999993690057E+00  0.999993543115E+00  0.989539055875E+00  0.999993137282E+00  0.985524707174E+00  0.989838908967E+00
  0.991798516580E+00  0.999992721792E+00  0.984411112416E+00  0.985091906406E+00  0.984689080896E+00  0.990058464829E+00  0.100289621837E+01
  0.999855369243E+00  0.100485306649E+01  0.100121554699E+01  0.100055642931E+01  0.997896793475E+00  0.100350029570E+01  0.100058068723E+01
  0.101093276247E+01  0.104043292670E+01  0.100326475367E+01  0.100254498742E+01  0.100045587387E+01  0.100976788415E+01  0.100405369352E+01
  0.100192656835E+01  0.100045434508E+01  0.100058774183E+01  0.100109993754E+01  0.100176112495E+01
  0.136019792486E-04  0.114277992474E-03  0.158088903897E-03 -0.182892653512E-02 -0.249883365839E-03 -0.760499351780E-02  0.169452754012E-03
 -0.146143651378E-03 -0.354101697002E-03 -0.373374575145E-02  0.341483951401E-04  0.324779066350E-03  0.258219333826E-04  0.151861560542E-04
  0.740671345201E-05  0.104884746838E-04  0.131134584167E-04 -0.117165677343E-04  0.442826733399E-04  0.159023185366E-03 -0.667541640176E-05
 -0.201736713877E-03 -0.288771192836E-02  0.111730893083E-03  0.369025442052E-04  0.114758921575E-04  0.202483003907E-03  0.984774411767E-04
  0.107008412189E-03  0.138098430609E-04  0.569084128728E-04  0.967242481819E-04  0.948520669924E-04
 -0.188858016321E-04 -0.242510482464E-04  0.580418800404E-06 -0.520138107779E-03  0.432375428934E-04 -0.108789469496E-02 -0.506068118742E-04
 -0.373904552408E-04 -0.317756108167E-04 -0.591724965287E-03 -0.121891587293E-04 -0.120568810307E-03 -0.487750140275E-04 -0.361953221530E-05
 -0.193296817053E-04 -0.197432815600E-05 -0.499100018289E-05 -0.750029413083E-05 -0.213648349157E-04  0.567542308721E-05 -0.532695060361E-05
 -0.187316992320E-04 -0.431339018692E-03 -0.769059873913E-05  0.207631221245E-05 -0.146905493489E-05  0.243321139734E-04  0.147454936442E-04
  0.251708282844E-04 -0.482749513184E-06  0.599521154020E-05  0.198479126415E-04  0.248022333813E-04
  0.711726223177E-05 -0.153891014816E-05 -0.141335696629E-04 -0.858105059353E-04 -0.382360440744E-05 -0.104258375176E-03 -0.422954246103E-06
 -0.106450719055E-04  0.377710955384E-04 -0.715083589757E-04 -0.827751962719E-05 -0.150121602675E-04 -0.362952916393E-06  0.233737610391E-06
 -0.739918700408E-06  0.374857283112E-06 -0.399783827041E-06  0.110252710526E-05 -0.551151274717E-06 -0.250776951632E-05  0.349731787004E-07
 -0.549027662150E-05  0.126320226120E-04 -0.150693728002E-05 -0.971282332535E-07  0.297669814104E-06  0.607161854945E-06  0.640262837120E-06
  0.303859949166E-06  0.208091986991E-06  0.288813094215E-06 -0.162748055979E-06  0.409154375799E-06
 -0.726701604715E-05  0.360513083458E-05  0.249263667556E-04 -0.110199656612E-03  0.742531758156E-04 -0.794287766106E-04 -0.551823005724E-04
 -0.136312744282E-03  0.595617049402E-04 -0.116482629901E-03  0.171320430823E-04  0.191055305440E-05 -0.429667862522E-05  0.387491604679E-05
 -0.109732731877E-04  0.136371236845E-05 -0.558531528371E-05 -0.162841928375E-04 -0.277866902913E-04 -0.269497559293E-04 -0.147777723609E-04
 -0.113399588960E-03 -0.849548531542E-04 -0.292811326757E-04 -0.144773686358E-04 -0.109793291685E-04 -0.663032086539E-04 -0.192346683096E-04
 -0.424083218051E-05 -0.130418520514E-05 -0.369060661931E-05 -0.384781833202E-05 -0.762553935741E-06
  0.305863351056E-04 -0.479449541997E-04 -0.409860976503E-03  0.872547013955E-03 -0.520307144489E-03  0.326870969277E-02 -0.466478894340E-04
  0.553120380726E-04  0.106025793370E-03  0.157020814744E-02 -0.722313810574E-05 -0.804605615577E-04  0.101051752073E-04 -0.341465625324E-05
  0.589601774672E-05 -0.236447572302E-05 -0.201412455305E-05  0.757271708783E-05 -0.919508200297E-05 -0.590989824149E-04  0.490573397638E-05
  0.745982519199E-04  0.116200140396E-02 -0.378810701597E-04 -0.135660998254E-04 -0.212024349489E-05 -0.796912576321E-04 -0.411321724334E-04
 -0.446776947987E-04 -0.417095059217E-05 -0.214448210969E-04 -0.396136172015E-04 -0.402214440808E-04
        15         7        19        19
         8        20        19        19
        18        19        21        21
         7         4         8         8
         3         6         4         4
        19         7         8         8
        19        18        15        15
        14        13        15        15
         8        22        20        20
        27        24        22        22
        19        20        21        21
        32        26        21        21
        17        18        26        26
        17        16        15        15
        25        29        21        21
        12         7        13        13
        10         8         6         6
        25        20        24        24
         4         6         8         8
        12         2         4         4
        10        23        22        22
        26        31        17        17
        30        16        17        17
         4         7        12        12
        13        11        12        12
        21        20        25        25
        24        28        25        25
        22         8        10        10
         6         5        10        10
        31        26        32        32
         4         2         3         3
         5         6         3         3
        11        13        14        14
        22        23        27        27
        28        24        27        27
        15        13         7         7
         2        12         1         1
        29        25        33        33
        23        10         9         9
        21        26        18        18
        16        14        15        15
        18        17        15        15
        29        32        21        21
        22        24        20        20
        28        33        25        25
        11         1        12        12
        31        30        17        17
         5         9        10        10
zone t="boundary 3 bc-3", solutiontime= 0.4000000E+02, strandid=1003, i=33, j=48, f=feblock
  0.375000000000E+01  0.250000000000E+01  0.500000000000E+01  0.403552511878E+01  0.288078410721E+01  0.125000000000E+01  0.190974100652E+01
  0.500000000000E+01  0.326683758169E+01  0.423153924130E+01  0.201431602454E+01  0.000000000000E+00  0.963108083381E+00  0.500000000000E+01
  0.267000324704E+01  0.385533350601E+01  0.893127759452E+00  0.154774304040E+01  0.000000000000E+00  0.500000000000E+01  0.315249557942E+01
  0.218329375016E+01  0.398173246726E+01  0.000000000000E+00  0.698517061619E+00  0.964171764089E+00  0.125000000000E+01  0.000000000000E+00
  0.500000000000E+01  0.310324758057E+01  0.250000000000E+01  0.375000000000E+01  0.000000000000E+00
  0.250000000000E+01  0.250000000000E+01  0.250000000000E+01  0.250000000000E+01  0.250000000000E+01  0.250000000000E+01  0.250000000000E+01
  0.250000000000E+01  0.250000000000E+01  0.250000000000E+01  0.250000000000E+01  0.250000000000E+01  0.250000000000E+01  0.250000000000E+01
  0.250000000000E+01  0.250000000000E+01  0.250000000000E+01  0.250000000000E+01  0.250000000000E+01  0.250000000000E+01  0.250000000000E+01
  0.250000000000E+01  0.250000000000E+01  0.250000000000E+01  0.250000000000E+01  0.250000000000E+01  0.250000000000E+01  0.250000000000E+01
  0.250000000000E+01  0.250000000000E+01  0.250000000000E+01  0.250000000000E+01  0.250000000000E+01
  0.000000000000E+00  0.000000000000E+00  0.000000000000E+00  0.101201586758E+01  0.904659890645E+00  0.000000000000E+00  0.717002441913E+00
  0.125000000000E+01  0.188609243358E+01  0.191586535653E+01  0.176246431481E+01  0.000000000000E+00  0.961328577125E+00  0.250000000000E+01
  0.285047954584E+01  0.293121848150E+01  0.205246550326E+01  0.292817774674E+01  0.125000000000E+01  0.375000000000E+01  0.363585050272E+01
  0.395907379566E+01  0.406975391361E+01  0.250000000000E+01  0.306828197606E+01  0.397245519226E+01  0.500000000000E+01  0.375000000000E+01
  0.500000000000E+01  0.433168271247E+01  0.500000000000E+01  0.500000000000E+01  0.500000000000E+01
  0.000000000000E+00  0.000000000000E+00  0.000000000000E+00  0.443767745459E+00  0.402286944574E+00  0.000000000000E+00  0.377550369545E+00
  0.509232128688E+00  0.575832179754E+00  0.573707405285E+00  0.562554064412E+00  0.000000000000E+00  0.490563299840E+00  0.534527096543E+00
  0.556586982170E+00  0.564391577749E+00  0.522730517385E+00  0.522052000170E+00  0.441238348384E+00  0.517182331791E+00  0.524228630763E+00
  0.503687457534E+00  0.509488571178E+00  0.469814974359E+00  0.495614442414E+00  0.494483780212E+00  0.488562428343E+00  0.488961654628E+00
  0.492980744788E+00  0.499005552222E+00  0.486460936507E+00  0.484596927548E+00  0.495346592024E+00
  0.999989339439E+00  0.999989408764E+00  0.999989626853E+00  0.981541895460E+00  0.988773990194E+00  0.999989827144E+00  0.982469462434E+00
  0.984104309047E+00  0.990427545862E+00  0.990355285694E+00  0.994362997073E+00  0.999990295028E+00  0.988652071037E+00  0.100368369414E+01
  0.999769197113E+00  0.100118501219E+01  0.100834885320E+01  0.100252111043E+01  0.102982719499E+01  0.100443319461E+01  0.100199536635E+01
  0.100082056599E+01  0.100138192342E+01  0.100826277309E+01  0.100298787130E+01  0.100192389555E+01  0.100215267510E+01  0.100355660048E+01
  0.100047670023E+01  0.100056591053E+01  0.100126820231E+01  0.100066573360E+01  0.100179336279E+01
 -0.291827028062E-04  0.275166961835E-03 -0.104385982686E-03  0.174241793555E-02  0.611268156104E-02  0.238410265559E-03  0.404289686529E-02
 -0.368386433747E-03 -0.118357069383E-03 -0.151710753778E-03  0.144840576981E-02  0.290930163434E-03  0.291778779578E-02 -0.904607593206E-04
 -0.241022451146E-03 -0.455966852545E-04  0.651771624366E-03 -0.243013787579E-03  0.212333429116E-02 -0.391920937623E-04 -0.549806248355E-05
 -0.535154612350E-04 -0.242615811742E-04  0.205373188961E-03 -0.135150444688E-03 -0.143359743811E-03 -0.888451063650E-04 -0.326533076480E-03
 -0.270377697588E-04 -0.237156210896E-04 -0.112352046249E-03 -0.846850608742E-04 -0.683808765910E-04
 -0.359029892341E-04 -0.358606764183E-04  0.328030265230E-04  0.361873156260E-03  0.807074676596E-03 -0.111248970926E-04  0.433785981857E-03
  0.427172216396E-04 -0.645751183241E-04  0.416468550937E-05  0.842900796690E-04  0.269366568285E-04  0.334536336921E-03  0.227247774178E-04
 -0.606510552941E-04 -0.271770631906E-05  0.241122755887E-04 -0.666122610784E-04  0.335839987191E-03  0.869163086593E-05 -0.597377740680E-05
 -0.130349287378E-04 -0.460586334895E-06  0.228212297505E-04 -0.565283323684E-04 -0.214240635337E-04 -0.213830495487E-04 -0.661544452477E-04
  0.111711649313E-05 -0.739146931719E-05 -0.280174303260E-04 -0.129706751753E-04 -0.109440271812E-04
 -0.725921087642E-05  0.109433817515E-04  0.151143550810E-05 -0.436929808460E-04 -0.994431980273E-04  0.190092339877E-04  0.198865211560E-04
 -0.251743949843E-05 -0.100034989284E-04 -0.148956152483E-05 -0.756153491889E-05  0.365839063949E-04  0.243138483068E-04  0.169882304151E-05
 -0.190914415619E-05 -0.105779157608E-05 -0.366513031076E-05 -0.361674323662E-05  0.463248588819E-05  0.865462379632E-06  0.881443647380E-06
  0.992572793098E-06 -0.726899135516E-07 -0.714264592297E-06  0.609918959954E-06  0.382133458703E-06  0.747688566557E-06  0.966617034147E-06
  0.311490784839E-06 -0.869306640592E-07  0.129210804717E-06 -0.671154907775E-07  0.637378222323E-06
 -0.473673787019E-04 -0.772337486516E-04 -0.565376207811E-05  0.557050469097E-04  0.586884065610E-04 -0.371835741806E-04 -0.490747202358E-04
  0.320495094489E-04  0.125510381495E-03  0.493107896443E-04  0.147251690674E-03 -0.621189598323E-04  0.215440189408E-04  0.156232716384E-04
  0.226051137966E-04  0.287104509232E-04  0.763797493476E-04  0.136436175731E-04 -0.776888124738E-04  0.836922932840E-05  0.199833202934E-04
  0.772993898480E-05  0.121883576862E-04  0.293210183249E-04  0.293206537981E-04  0.644216544968E-05  0.712861322790E-06  0.199982286223E-04
  0.330792191210E-05  0.120438993016E-04  0.323324763056E-05  0.508085398260E-05 -0.606291303910E-06
  0.744185694437E-03  0.763364652073E-04  0.101128508272E-03 -0.801698589442E-03 -0.258835669434E-02 -0.747068231839E-04 -0.162011205238E-02
  0.106258362639E-03  0.672232476923E-04  0.487979804764E-04 -0.547253610672E-03 -0.221285672587E-03 -0.116589591216E-02  0.171106926205E-04
  0.104690770979E-03  0.133093826043E-04 -0.246362146596E-03  0.106227484623E-03 -0.864433130021E-03  0.805328589328E-05  0.246375534985E-05
  0.228219546692E-04  0.678386794796E-05 -0.800311774985E-04  0.585185098457E-04  0.584988057771E-04  0.378413552365E-04  0.136041245637E-03
  0.820778314250E-05  0.907561211320E-05  0.474233533573E-04  0.330842950948E-04  0.281564887120E-04
        15         9        16        16
        15        18        11        11
        22        15        21        21
        11         5         9         9
         5         7         2         2
        11         9        15        15
        16        21        15        15
        16        10        14        14
        18        17        11        11
        17        25        24        24
        22        18        15        15
        22        30        31        31
        30        21        23        23
        16        20        23        23
        22        27        26        26
        10         9         4         4
         7        11        13        13
        25        18        26        26
        11         7         5         5
         5         1         4         4
        17        19        13        13
        23        32        30        30
        23        20        29        29
         4         9         5         5
         4         8        10        10
        26        18        22        22
        26        28        25        25
        13        11        17        17
        13         6         7         7
        31        30        32        32
         2         1         5         5
         2         7         6         6
        14        10         8         8
        24        19        17        17
        24        25        28        28
         9        10        16        16
         3         4         1         1
        33        26        27        27
        12        13        19        19
        21        30        22        22
        16        14        20        20
        16        23        21        21
        22        31        27        27
        18        25        17        17
        26        33        28        28
         4         3         8         8
        23        29        32        32
        13        12         6         6
zone t="boundary 4 bc-4", solutiontime= 0.4000000E+02, strandid=1004, i=32, j=46, f=feblock
  0.125000000000E+01  0.219251206392E+01  0.103724302461E+01  0.500000000000E+01  0.250000000000E+01  0.375000000000E+01  0.404200324774E+01
  0.500000000000E+01  0.000000000000E+00  0.310152362409E+01  0.202479342020E+01  0.324151231464E+01  0.922061490191E+00  0.000000000000E+00
  0.299062775774E+01  0.394624082883E+01  0.500000000000E+01  0.409252726285E+01  0.500000000000E+01  0.429310310915E+01  0.175434191980E+01
  0.284428995242E+01  0.000000000000E+00  0.000000000000E+00  0.715990576545E+00  0.930412228790E+00  0.125000000000E+01  0.187029682677E+01
  0.500000000000E+01  0.375000000000E+01  0.250000000000E+01  0.000000000000E+00
  0.250000000000E+01  0.157686156160E+01  0.146289271009E+01  0.250000000000E+01  0.250000000000E+01  0.250000000000E+01  0.155830813274E+01
  0.125000000000E+01  0.250000000000E+01  0.177790177481E+01  0.477386199275E+00  0.742988685424E+00  0.308372018325E+00  0.125000000000E+01
 -0.487811078581E+00 -0.144524380962E+01 -0.125000000000E+01 -0.345533899378E+00  0.000000000000E+00  0.627766083140E+00 -0.739814786992E+00
 -0.158811787973E+01  0.000000000000E+00 -0.125000000000E+01 -0.600232012419E+00 -0.154800130438E+01 -0.250000000000E+01 -0.178862290564E+01
 -0.250000000000E+01 -0.250000000000E+01 -0.250000000000E+01 -0.250000000000E+01
  0.500000000000E+01  0.500000000000E+01  0.500000000000E+01  0.500000000000E+01  0.500000000000E+01  0.500000000000E+01  0.500000000000E+01
  0.500000000000E+01  0.500000000000E+01  0.500000000000E+01  0.500000000000E+01  0.500000000000E+01  0.500000000000E+01  0.500000000000E+01
  0.500000000000E+01  0.500000000000E+01  0.500000000000E+01  0.500000000000E+01  0.500000000000E+01  0.500000000000E+01  0.500000000000E+01
  0.500000000000E+01  0.500000000000E+01  0.500000000000E+01  0.500000000000E+01  0.500000000000E+01  0.500000000000E+01  0.500000000000E+01
  0.500000000000E+01  0.500000000000E+01  0.500000000000E+01  0.500000000000E+01
  0.488562428343E+00  0.488873127044E+00  0.490562939264E+00  0.492980744788E+00  0.486460936507E+00  0.484596927548E+00  0.485347896276E+00
  0.494163542317E+00  0.495346592024E+00  0.486528232758E+00  0.487819998460E+00  0.487068916091E+00  0.494045904395E+00  0.496127394917E+00
  0.487612357629E+00  0.483219722850E+00  0.492395510969E+00  0.487214141159E+00  0.494738985333E+00  0.487958525499E+00  0.489677249447E+00
  0.488029107105E+00  0.497246279768E+00  0.496059270892E+00  0.494951052257E+00  0.492800373677E+00  0.490002767114E+00  0.490005124553E+00
  0.491352304715E+00  0.486075475228E+00  0.490036479234E+00  0.495098264817E+00
  0.100215267510E+01  0.100152652958E+01  0.100178347660E+01  0.100047670023E+01  0.100126820231E+01  0.100066573360E+01  0.100025357725E+01
  0.100050391679E+01  0.100179336279E+01  0.100112367258E+01  0.100133045248E+01  0.100072432973E+01  0.100164366725E+01  0.100168844809E+01
  0.100096274503E+01  0.100000874853E+01  0.100082864314E+01  0.100022269190E+01  0.100062146074E+01  0.100023497311E+01  0.100174635719E+01
  0.100098855496E+01  0.100118726928E+01  0.100134171022E+01  0.100132635956E+01  0.100179873777E+01  0.100192656835E+01  0.100163748619E+01
  0.100045434508E+01  0.100058774183E+01  0.100109993754E+01  0.100176112495E+01
 -0.888451063650E-04 -0.831749156216E-04 -0.509761650932E-04 -0.270377697588E-04 -0.112352046249E-03 -0.846850608742E-04 -0.568052064408E-04
 -0.259364166831E-04 -0.683808765910E-04 -0.110096369108E-03 -0.371916176384E-04 -0.548518996012E-04  0.117920254409E-04 -0.537332552317E-04
  0.748177885617E-05  0.231483421675E-04  0.416612434955E-05 -0.381757103307E-05 -0.901909990768E-05 -0.410344488295E-04  0.575002537156E-04
  0.667045074586E-04  0.355504021666E-04  0.104980511747E-03  0.748244679504E-04  0.902668922817E-04  0.107008412189E-03  0.107703755159E-03
  0.138098430609E-04  0.569084128728E-04  0.967242481819E-04  0.948520669924E-04