title="tecplot geometry and solution file"
variables = x y z mach temperature lambda1 lambda2 lambda3 lambda4 lambda5 lambda6
zone t="boundary 1 bc-1", solutiontime= 0.2000000E+02, strandid=1001, i=32, j=46, f=feblock
  0.000000000000E+00  0.000000000000E+00  0.000000000000E+00  0.000000000000E+00  0.000000000000E+00  0.000000000000E+00  0.000000000000E+00
  0.000000000000E+00  0.000000000000E+00  0.000000000000E+00  0.000000000000E+00  0.000000000000E+00  0.000000000000E+00  0.000000000000E+00
  0.000000000000E+00  0.000000000000E+00  0.000000000000E+00  0.000000000000E+00  0.000000000000E+00  0.000000000000E+00  0.000000000000E+00
  0.000000000000E+00  0.000000000000E+00  0.000000000000E+00  0.000000000000E+00  0.000000000000E+00  0.000000000000E+00  0.000000000000E+00
  0.000000000000E+00  0.000000000000E+00  0.000000000000E+00  0.000000000000E+00
  0.250000000000E+01  0.250000000000E+01  0.125000000000E+01  0.146289271009E+01  0.157686156160E+01  0.308372018325E+00  0.000000000000E+00
 -0.125000000000E+01 -0.600232012419E+00  0.250000000000E+01  0.477386199275E+00  0.742988685424E+00 -0.739814786992E+00  0.177790177481E+01
  0.155830813274E+01  0.250000000000E+01 -0.250000000000E+01 -0.154800130438E+01 -0.487811078581E+00  0.250000000000E+01  0.627766083140E+00
 -0.345533899378E+00 -0.178862290564E+01 -0.158811787973E+01  0.125000000000E+01 -0.250000000000E+01 -0.144524380962E+01  0.000000000000E+00
 -0.125000000000E+01 -0.250000000000E+01 -0.250000000000E+01 -0.250000000000E+01
  0.000000000000E+00  0.125000000000E+01  0.000000000000E+00  0.103724302461E+01  0.219251206392E+01  0.922061490191E+00  0.000000000000E+00
  0.000000000000E+00  0.715990576545E+00  0.250000000000E+01  0.202479342020E+01  0.324151231464E+01  0.175434191980E+01  0.310152362409E+01
  0.404200324774E+01  0.375000000000E+01  0.000000000000E+00  0.930412228790E+00  0.299062775774E+01  0.500000000000E+01  0.429310310915E+01
  0.409252726285E+01  0.187029682677E+01  0.284428995242E+01  0.500000000000E+01  0.125000000000E+01  0.394624082883E+01  0.500000000000E+01
  0.500000000000E+01  0.250000000000E+01  0.375000000000E+01  0.500000000000E+01
  0.000000000000E+00  0.441238864710E+00  0.000000000000E+00  0.475212333418E+00  0.460125600047E+00  0.468825459916E+00  0.000000000000E+00
  0.000000000000E+00  0.402299647307E+00  0.469815278546E+00  0.464413480260E+00  0.478714152972E+00  0.489298547802E+00  0.483067971662E+00
  0.487929224832E+00  0.488960767301E+00  0.000000000000E+00  0.464773408827E+00  0.473796242669E+00  0.495345969094E+00  0.490265403772E+00
  0.486285557293E+00  0.445720648663E+00  0.464383522981E+00  0.496127006189E+00  0.443623519427E+00  0.486963956588E+00  0.497245800655E+00
  0.496058644718E+00  0.467732961393E+00  0.488211579388E+00  0.495097551278E+00
  0.999990335442E+00  0.102982730935E+01  0.999990797222E+00  0.104247144519E+01  0.101190167613E+01  0.102520600953E+01  0.999991453848E+00
  0.999992202332E+00  0.103891124272E+01  0.100826302705E+01  0.101252909219E+01  0.100300571845E+01  0.102702848665E+01  0.100605562865E+01
  0.100244399774E+01  0.100355656280E+01  0.999992753610E+00  0.103239691667E+01  0.100459561267E+01  0.100179353455E+01  0.100260307775E+01
  0.100234974224E+01  0.101657231252E+01  0.100617628259E+01  0.100168864675E+01  0.104043187424E+01  0.100303393289E+01  0.100118748788E+01
  0.100134189338E+01  0.100976788455E+01  0.100405369623E+01  0.100176128351E+01
  0.880595158213E-03  0.383255739100E-02  0.115950091930E-02  0.730935837891E-02  0.132696360990E-03  0.114758526340E-01  0.106482578108E-02
  0.386881005166E-03  0.133101806522E-01 -0.568466270018E-03  0.685312233440E-03 -0.121379724159E-02  0.129741018099E-02 -0.643165639156E-03
 -0.159392669866E-02 -0.144925282896E-02  0.480566866303E-03  0.753933490477E-02 -0.943010774809E-03 -0.622658598112E-02 -0.221735785657E-02
 -0.154909514138E-02  0.421863055279E-03 -0.825608435181E-03 -0.644645639455E-02  0.405263341702E-02 -0.125040424407E-02 -0.714817573679E-02
 -0.634700409493E-02 -0.640636195030E-03 -0.136630685916E-02 -0.596641963874E-02
  0.239733338921E-04  0.531487531469E-03  0.532875647648E-04  0.899819119741E-03 -0.469588551059E-04  0.176766894943E-02  0.838214365803E-04
  0.628766386786E-04  0.203863915568E-02 -0.180533348363E-03  0.637983373101E-04 -0.255582123519E-03  0.105111472711E-03 -0.187492216297E-03
 -0.315367931525E-03 -0.323643297402E-03  0.445763956999E-04  0.117308491013E-02 -0.185994290614E-03 -0.127878483855E-02 -0.441759032997E-03
 -0.297086764427E-03 -0.215291813732E-04 -0.158984543041E-03 -0.134854732326E-02  0.493457278596E-03 -0.247410731669E-03 -0.149965560847E-02
 -0.132653335512E-02 -0.166043369713E-03 -0.290527669639E-03 -0.123974563569E-02
  0.457381964115E-04  0.193481429737E-04  0.563306099872E-04  0.202182227354E-03  0.435578023575E-04  0.140077468504E-03  0.771883245699E-04
 -0.209627713980E-04  0.194905963815E-04 -0.184556645995E-05  0.399132556786E-04  0.481825630101E-04 -0.396973736077E-04  0.204156148139E-04
  0.109836400119E-05 -0.103489166123E-05 -0.322186202797E-04 -0.179009509123E-03  0.183145706773E-04  0.209523480219E-07  0.674667000895E-05
  0.578307046783E-05 -0.146639901232E-04 -0.271511566631E-04  0.213335371196E-04 -0.184613385305E-04 -0.944162746297E-05  0.366756861762E-05
 -0.111596239105E-04 -0.465922898554E-05 -0.127745404737E-05  0.102072813856E-05
 -0.220440801112E-03 -0.178198114739E-03 -0.275502029759E-03  0.265829336932E-04  0.246401948327E-03  0.324136428440E-03 -0.188762671972E-03
 -0.171727390810E-03  0.300467192529E-03  0.259007093220E-03  0.557201509710E-03  0.292864598599E-03  0.662034806890E-03  0.253205523997E-03
  0.194493146960E-03  0.220858298799E-03 -0.101965959300E-03  0.197839181975E-03  0.355582047011E-03  0.850566541635E-04  0.186668484040E-03
  0.230401148761E-03  0.407889943853E-03  0.285951302328E-03  0.810242365480E-04  0.209640674275E-03  0.210982341442E-03  0.767388497167E-04
  0.923364521873E-04  0.316549206091E-03  0.215419681848E-03  0.900089793337E-04
 -0.676242246907E-03 -0.158484675625E-02 -0.109998883468E-02 -0.292084357792E-02 -0.598666462219E-04 -0.476887749658E-02  0.101760020541E-03
  0.176079167828E-03 -0.554881059643E-02  0.228379159508E-03 -0.302890780329E-03  0.472661567557E-03 -0.545017612923E-03  0.250981274895E-03
  0.635017352937E-03  0.580998561855E-03 -0.161741364757E-03 -0.314724333949E-02  0.346115530644E-03  0.258467566423E-02  0.895933595595E-03
  0.613932194448E-03 -0.201473330506E-03  0.294451863095E-03  0.268087760295E-02 -0.166119414839E-02  0.489999145007E-03  0.298127790751E-02
  0.264109741951E-02  0.230138157299E-03  0.544500952521E-03  0.247632437881E-02
 -0.421484220300E-09 -0.694739670675E-09 -0.504589031124E-09 -0.177123073206E-08 -0.462181792457E-09 -0.312118126064E-09  0.405062358041E-09
  0.953583041509E-10  0.108434282851E-07 -0.374341275144E-09 -0.169080093829E-08 -0.743923851353E-09 -0.127094331402E-08 -0.506806763173E-09
 -0.179497287218E-09 -0.313840960137E-09 -0.672174731487E-10  0.187367339231E-08 -0.839950227156E-09 -0.611590576435E-10 -0.961671966758E-10
 -0.162696565515E-09 -0.870047901113E-09 -0.705335649971E-09 -0.524972994295E-11 -0.112656054471E-08 -0.194333569487E-09  0.358089952534E-10
 -0.546169533954E-11 -0.558960212167E-09 -0.270250626595E-09 -0.560217140769E-10
        12        19        11        11
        11         5        12        12
        10        14         5         5
        19        13        11        11
        19        24        13        13
        30        23        24        24
        19        12        22        22
        28        22        21        21
        11        13         6         6
         7         6         9         9
        15        12        14        14
        18        13        23        23
        15        25        21        21
        27        19        22        22
        18         8         9         9
        27        31        24        24
         4        11         6         6
         5        14        12        12
         4         2         5         5
        21        12        15        15
        14        16        15        15
        24        19        27        27
        22        29        27        27
        23        26        18        18
        17         8        18        18
         5        11         4         4
         6         3         4         4
        26        23        30        30
         5         2        10        10
        16        14        10        10
         3         6         7         7
        21        25        28        28
        29        22        28        28
         6        13         9         9
         2         4         1         1
        31        27        32        32
        25        15        20        20
        24        23        13        13
         8         7         9         9
        13        18         9         9
        31        30        24        24
        12        21        22        22
        29        32        27        27
         3         1         4         4
        26        17        18        18
        16        20        15        15
zone t="boundary 2 bc-2", solutiontime= 0.2000000E+02, strandid=1002, i=33, j=48, f=feblock
  0.500000000000E+01  0.375000000000E+01  0.250000000000E+01  0.288078410721E+01  0.125000000000E+01  0.190974100652E+01  0.326683758169E+01
  0.201431602454E+01  0.000000000000E+00  0.963108083381E+00  0.500000000000E+01  0.403552511878E+01  0.423153924130E+01  0.500000000000E+01
  0.385533350601E+01  0.500000000000E+01  0.398173246726E+01  0.315249557942E+01  0.267000324704E+01  0.154774304040E+01  0.218329375016E+01
  0.893127759452E+00  0.000000000000E+00  0.698517061619E+00  0.964171764089E+00  0.310324758057E+01  0.000000000000E+00  0.000000000000E+00
  0.125000000000E+01  0.500000000000E+01  0.375000000000E+01  0.250000000000E+01  0.000000000000E+00
 -0.250000000000E+01 -0.250000000000E+01 -0.250000000000E+01 -0.250000000000E+01 -0.250000000000E+01 -0.250000000000E+01 -0.250000000000E+01
 -0.250000000000E+01 -0.250000000000E+01 -0.250000000000E+01 -0.250000000000E+01 -0.250000000000E+01 -0.250000000000E+01 -0.250000000000E+01
 -0.250000000000E+01 -0.250000000000E+01 -0.250000000000E+01 -0.250000000000E+01 -0.250000000000E+01 -0.250000000000E+01 -0.250000000000E+01
 -0.250000000000E+01 -0.250000000000E+01 -0.250000000000E+01 -0.250000000000E+01 -0.250000000000E+01 -0.250000000000E+01 -0.250000000000E+01
 -0.250000000000E+01 -0.250000000000E+01 -0.250000000000E+01 -0.250000000000E+01 -0.250000000000E+01
  0.000000000000E+00  0.000000000000E+00  0.000000000000E+00  0.904659890645E+00  0.000000000000E+00  0.717002441913E+00  0.188609243358E+01
  0.176246431481E+01  0.000000000000E+00  0.961328577125E+00  0.125000000000E+01  0.101201586758E+01  0.191586535653E+01  0.250000000000E+01
  0.293121848150E+01  0.375000000000E+01  0.406975391361E+01  0.363585050272E+01  0.285047954584E+01  0.292817774674E+01  0.395907379566E+01
  0.205246550326E+01  0.125000000000E+01  0.306828197606E+01  0.397245519226E+01  0.433168271247E+01  0.250000000000E+01  0.375000000000E+01
  0.500000000000E+01  0.500000000000E+01  0.500000000000E+01  0.500000000000E+01  0.500000000000E+01
  0.000000000000E+00  0.000000000000E+00  0.000000000000E+00  0.380991677071E+00  0.000000000000E+00  0.343629846333E+00  0.585283712637E+00
  0.579371274939E+00  0.000000000000E+00  0.501053781697E+00  0.508459764195E+00  0.435372705232E+00  0.572637650783E+00  0.537001621764E+00
  0.568921604272E+00  0.514994863512E+00  0.508249384174E+00  0.527254272376E+00  0.567446148296E+00  0.531657889979E+00  0.505982349932E+00
  0.520795557933E+00  0.443623519427E+00  0.490664279058E+00  0.492156105736E+00  0.501392667577E+00  0.467732961393E+00  0.488211579388E+00
  0.490002415326E+00  0.491354393416E+00  0.486078174930E+00  0.490037677861E+00  0.495097551278E+00
  0.999993511960E+00  0.999993715260E+00  0.999993570321E+00  0.989539101465E+00  0.999993167142E+00  0.985524838689E+00  0.989838839696E+00
  0.991798259717E+00  0.999992753610E+00  0.984411184056E+00  0.985091609572E+00  0.984689131748E+00  0.990058406085E+00  0.100289567776E+01
  0.999855182158E+00  0.100485299288E+01  0.100121572260E+01  0.100055639449E+01  0.997896752171E+00  0.100350023825E+01  0.100058089063E+01
  0.101093252220E+01  0.104043187424E+01  0.100326541074E+01  0.100254508116E+01  0.100045601675E+01  0.100976788455E+01  0.100405369623E+01
  0.100192661355E+01  0.100045469615E+01  0.100058772260E+01  0.100109988203E+01  0.100176128351E+01
 -0.504591004470E-03 -0.375502200593E-03 -0.813823506527E-04  0.625950678718E-02  0.408901827321E-03  0.124112003118E-01 -0.999293094093E-03
  0.464644367469E-03  0.480566866303E-03  0.613505665833E-02 -0.129006846605E-02 -0.154710649414E-02 -0.996608131274E-03 -0.851030492928E-03
 -0.617990785424E-03 -0.558806658257E-03 -0.411309838298E-03 -0.478643188121E-03 -0.823068076294E-03 -0.101730733056E-02 -0.621151316172E-03
  0.348979861688E-03  0.405263341702E-02 -0.666304845044E-03 -0.116052326660E-02 -0.744159270735E-03 -0.640636195030E-03 -0.136630685916E-02
 -0.538203490251E-02 -0.649392666002E-03 -0.246936097081E-02 -0.473441376082E-02 -0.596641963874E-02
  0.134391388369E-03 -0.434260327873E-04 -0.107950079649E-04  0.971081301752E-03 -0.580463183526E-04  0.138362254774E-02 -0.312030487777E-04
 -0.638157714974E-04  0.445763956999E-04  0.715493321322E-03  0.293085534675E-03 -0.265444371510E-04  0.133788576666E-03  0.217469189072E-03
  0.136275452893E-03  0.131190069240E-03  0.154566159291E-03  0.126064765644E-03  0.278749680494E-04 -0.106137989884E-03  0.515095798999E-04
 -0.452852376626E-04  0.493457278596E-03 -0.542036033336E-04 -0.137930044814E-03  0.738815291116E-04 -0.166043369713E-03 -0.290527669639E-03
 -0.969452374255E-03  0.320369401137E-04 -0.248984060417E-03 -0.737375000744E-03 -0.123974563569E-02
 -0.326517974224E-04  0.120670892824E-04  0.436396715456E-04  0.131010795020E-03  0.249104143381E-04  0.131472937176E-03 -0.164238329717E-04
 -0.190911648307E-05 -0.322186202797E-04  0.459760376758E-04 -0.202351870821E-04 -0.603081570816E-04  0.987490728885E-06  0.157068370811E-05
  0.169511222558E-05 -0.267240210447E-05  0.431679349919E-06 -0.172916036676E-05  0.313188311576E-05  0.505985189542E-05 -0.335497378241E-05
  0.456177591263E-05 -0.184613385305E-04 -0.191604250482E-07 -0.624525549191E-06 -0.125926207989E-05 -0.465922898554E-05 -0.127745404737E-05
 -0.640279937289E-06 -0.550117667069E-06 -0.309848756661E-07  0.373071385996E-06  0.102072813856E-05
 -0.400559269843E-04 -0.480310426864E-04 -0.628196460093E-04  0.176918647703E-03 -0.105928350240E-03 -0.510806177179E-04  0.325395574278E-03
  0.389434497119E-03 -0.101965959300E-03  0.141102283826E-03  0.688345556357E-04  0.241700753384E-03  0.131879001474E-03  0.580443357462E-04
  0.128126068198E-03  0.457148798939E-04  0.119337169623E-03  0.169570644929E-03  0.206969807039E-03  0.209563468448E-03  0.194064864885E-03
  0.286751472695E-03  0.209640674275E-03  0.219111444188E-03  0.192208555925E-03  0.167221163366E-03  0.316549206091E-03  0.215419681848E-03
  0.127890642285E-03  0.691375291071E-04  0.149389431478E-03  0.161598052141E-03  0.900089793337E-04
  0.150636172678E-03  0.446911416155E-03  0.708665011282E-03 -0.278964603344E-02  0.487445806558E-03 -0.524036158797E-02  0.307968687632E-03
 -0.198655447227E-03 -0.161741364757E-03 -0.253913328577E-02  0.278115611345E-03  0.488111857052E-03  0.249668808494E-03  0.163371450732E-03
  0.123364683509E-03  0.112959287054E-03  0.574640941190E-04  0.892748659701E-04  0.235219064244E-03  0.355512897192E-03  0.167957332602E-03
 -0.156535981296E-03 -0.166119414839E-02  0.219376492532E-03  0.425555720885E-03  0.204254238833E-03  0.230138157299E-03  0.544500952521E-03
  0.218727589380E-02  0.196492323390E-03  0.926924159360E-03  0.188289682083E-02  0.247632437881E-02
 -0.197233276174E-12 -0.206074016889E-11 -0.545521616900E-11 -0.289185873846E-09 -0.179813897732E-10 -0.569464525018E-09 -0.334766659709E-09
 -0.156562264044E-08 -0.672174731487E-10 -0.124002310561E-08 -0.244284794899E-10 -0.502632352990E-10  0.125518659486E-09  0.554076889259E-10
  0.184974490261E-10 -0.202929957507E-10 -0.323783594764E-10 -0.448031829214E-10 -0.114471178683E-09 -0.311490364044E-09 -0.100055363930E-09
 -0.104773114475E-08 -0.112656054471E-08 -0.413702761694E-09 -0.125906799421E-09 -0.608006110911E-10 -0.558960212167E-09 -0.270250626595E-09
 -0.143197264512E-09 -0.189901793959E-11 -0.343487978454E-10 -0.118804646487E-09 -0.560217140769E-10
        15         7        19        19
         8        20        19        19
        18        19        21        21
         7         4         8         8
         3         6         4         4
        19         7         8         8
        19        18        15        15
        14        13        15        15
         8        22        20        20
        27        24        22        22
        19        20        21        21
        32        26        21        21
        17        18        26        26
        17        16        15        15
        25        29        21        21
        12         7        13        13
        10         8         6         6
        25        20        24        24
         4         6         8         8
        12         2         4         4
        10        23        22        22
        26        31        17        17
        30        16        17        17
         4         7        12        12
        13        11        12        12
        21        20        25        25
        24        28        25        25
        22         8        10        10
         6         5        10        10
        31        26        32        32
         4         2         3         3
         5         6         3         3
        11        13        14        14
        22        23        27        27
        28        24        27        27
        15        13         7         7
         2        12         1         1
        29        25        33        33
        23        10         9         9
        21        26        18        18
        16        14        15        15
        18        17        15        15
        29        32        21        21
        22        24        20        20
        28        33        25        25
        11         1        12        12
        31        30        17        17
         5         9        10        10
zone t="boundary 3 bc-3", solutiontime= 0.2000000E+02, strandid=1003, i=33, j=48, f=feblock
  0.375000000000E+01  0.250000000000E+01  0.500000000000E+01  0.403552511878E+01  0.288078410721E+01  0.125000000000E+01  0.190974100652E+01
  0.500000000000E+01  0.326683758169E+01  0.423153924130E+01  0.201431602454E+01  0.000000000000E+00  0.963108083381E+00  0.500000000000E+01
  0.267000324704E+01  0.385533350601E+01  0.893127759452E+00  0.154774304040E+01  0.000000000000E+00  0.500000000000E+01  0.315249557942E+01
  0.218329375016E+01  0.398173246726E+01  0.000000000000E+00  0.698517061619E+00  0.964171764089E+00  0.125000000000E+01  0.000000000000E+00
  0.500000000000E+01  0.310324758057E+01  0.250000000000E+01  0.375000000000E+01  0.000000000000E+00
  0.250000000000E+01  0.250000000000E+01  0.250000000000E+01  0.250000000000E+01  0.250000000000E+01  0.250000000000E+01  0.250000000000E+01
  0.250000000000E+01  0.250000000000E+01  0.250000000000E+01  0.250000000000E+01  0.250000000000E+01  0.250000000000E+01  0.250000000000E+01
  0.250000000000E+01  0.250000000000E+01  0.250000000000E+01  0.250000000000E+01  0.250000000000E+01  0.250000000000E+01  0.250000000000E+01
  0.250000000000E+01  0.250000000000E+01  0.250000000000E+01  0.250000000000E+01  0.250000000000E+01  0.250000000000E+01  0.250000000000E+01
  0.250000000000E+01  0.250000000000E+01  0.250000000000E+01  0.250000000000E+01  0.250000000000E+01
  0.000000000000E+00  0.000000000000E+00  0.000000000000E+00  0.101201586758E+01  0.904659890645E+00  0.000000000000E+00  0.717002441913E+00
  0.125000000000E+01  0.188609243358E+01  0.191586535653E+01  0.176246431481E+01  0.000000000000E+00  0.961328577125E+00  0.250000000000E+01
  0.285047954584E+01  0.293121848150E+01  0.205246550326E+01  0.292817774674E+01  0.125000000000E+01  0.375000000000E+01  0.363585050272E+01
  0.395907379566E+01  0.406975391361E+01  0.250000000000E+01  0.306828197606E+01  0.397245519226E+01  0.500000000000E+01  0.375000000000E+01
  0.500000000000E+01  0.433168271247E+01  0.500000000000E+01  0.500000000000E+01  0.500000000000E+01
  0.000000000000E+00  0.000000000000E+00  0.000000000000E+00  0.443768049813E+00  0.402287063289E+00  0.000000000000E+00  0.377550015530E+00
  0.509231651017E+00  0.575830373842E+00  0.573705119893E+00  0.562552484917E+00  0.000000000000E+00  0.490560996922E+00  0.534526640478E+00
  0.556587161529E+00  0.564391003890E+00  0.522730520214E+00  0.522053035057E+00  0.441238864710E+00  0.517182885172E+00  0.524230081365E+00
  0.503688666615E+00  0.509490322369E+00  0.469815278546E+00  0.495614921017E+00  0.494483812152E+00  0.488562139423E+00  0.488960767301E+00
  0.492982637025E+00  0.499007441401E+00  0.486462299176E+00  0.484599832491E+00  0.495345969094E+00
  0.999989380190E+00  0.999989451040E+00  0.999989665041E+00  0.981541820811E+00  0.988773959065E+00  0.999989868921E+00  0.982469495615E+00
  0.984104107106E+00  0.990427340160E+00  0.990355127069E+00  0.994362617112E+00  0.999990335442E+00  0.988651707786E+00  0.100368299998E+01
  0.999769041194E+00  0.100118460274E+01  0.100834871539E+01  0.100252122579E+01  0.102982730935E+01  0.100443305346E+01  0.100199527495E+01
  0.100082072308E+01  0.100138208455E+01  0.100826302705E+01  0.100298818591E+01  0.100192398684E+01  0.100215265586E+01  0.100355656280E+01
  0.100047708080E+01  0.100056610141E+01  0.100126814609E+01  0.100066576236E+01  0.100179353455E+01
 -0.311610817051E-03 -0.158405524110E-04 -0.416369643902E-03  0.114678852609E-02  0.560828369975E-02  0.520958755534E-03  0.764281132105E-02
 -0.144000070268E-02 -0.840126880638E-03 -0.992580535630E-03  0.459592731784E-03  0.880595158213E-03  0.505909363902E-02 -0.781639415354E-03
 -0.773084574919E-03 -0.669994712640E-03 -0.439566381669E-03 -0.789352057326E-03  0.383255739100E-02 -0.552924580834E-03 -0.424523278225E-03
 -0.537295840885E-03 -0.426392181485E-03 -0.568466270018E-03 -0.745838283233E-03 -0.142903562272E-02 -0.469137982760E-02 -0.144925282896E-02
 -0.533349098761E-03 -0.664654969816E-03 -0.435298405638E-02 -0.234732865020E-02 -0.622658598112E-02
 -0.361460989852E-04 -0.503040474120E-04  0.989764992146E-04  0.480355751928E-03  0.835214369664E-03 -0.141864082938E-03  0.941275634410E-03
  0.256214744844E-03  0.557503828462E-04  0.156012402256E-03 -0.765181116049E-04  0.239733338921E-04  0.244738585005E-03  0.205344276190E-03
  0.477698916629E-04  0.123357658700E-03 -0.264251113659E-03 -0.522966142874E-04  0.531487531469E-03  0.136342644616E-03  0.132020012857E-03
  0.785695225712E-04  0.145916688320E-03 -0.180533348363E-03 -0.155649726029E-03 -0.177421482150E-03 -0.828318745065E-03 -0.323643297402E-03
  0.496564287111E-04  0.859443267985E-04 -0.665914500445E-03 -0.229517475157E-03 -0.127878483855E-02
 -0.784791491733E-05  0.187889356624E-05  0.132629595093E-04 -0.199676894837E-04 -0.744808729454E-04  0.458300192819E-04 -0.654449584292E-05
  0.210984743209E-05 -0.830937253048E-05  0.497868989157E-05 -0.103576105008E-05  0.457381964115E-04  0.676365841710E-04  0.490486102720E-05
  0.106020755510E-05  0.176937135890E-05 -0.217072454964E-04 -0.778467875428E-05  0.193481429737E-04  0.292655535972E-05  0.102108098339E-05
  0.717226908727E-05  0.276127438452E-06 -0.184556645995E-05 -0.597341166762E-05  0.202606948771E-05  0.255395490445E-05 -0.103489166123E-05
  0.105670247292E-05  0.441285177062E-07  0.607600149711E-06 -0.100846793404E-06  0.209523480219E-07
 -0.437346095356E-04 -0.975607003675E-04 -0.370541125206E-04  0.589927717199E-04  0.142318672642E-03 -0.123582770754E-03  0.104066695446E-03
  0.338816747733E-04  0.244778987637E-03  0.123701199807E-03  0.394487848238E-03 -0.220440801112E-03  0.148642809992E-03  0.546404589715E-04
  0.166871681317E-03  0.127785848748E-03  0.368192470917E-03  0.184314884650E-03 -0.178198114739E-03  0.536936085298E-04  0.161027664481E-03
  0.177931422334E-03  0.121901136914E-03  0.259007093220E-03  0.254023872269E-03  0.182636426092E-03  0.134016771627E-03  0.220858298799E-03
  0.624584379548E-04  0.162183120503E-03  0.161218280052E-03  0.145474319816E-03  0.850566541635E-04
  0.616101447751E-03  0.541806731357E-03  0.157290768394E-03 -0.711128533349E-03 -0.249870948227E-02  0.717288861219E-04 -0.325784591986E-02
  0.352697244907E-03  0.229827841181E-03  0.245387751397E-03 -0.186603814091E-03 -0.676242246907E-03 -0.196542629012E-02  0.147079605418E-03
  0.216028071769E-03  0.148407544875E-03  0.191829669425E-03  0.258355304430E-03 -0.158484675625E-02  0.108196466738E-03  0.683495304811E-04
  0.130643473267E-03  0.669155596192E-04  0.228379159508E-03  0.267662875970E-03  0.534403619763E-03  0.189566240037E-02  0.580998561855E-03
  0.150662707164E-03  0.173415414279E-03  0.172489524415E-02  0.877582407897E-03  0.258467566423E-02
 -0.463241724972E-11 -0.147966434781E-10 -0.194083020487E-11 -0.152004777519E-09 -0.246244853624E-09 -0.952278433838E-10 -0.181267684362E-08
 -0.357174070285E-10 -0.249688491771E-09  0.898362341244E-10 -0.111992584010E-08 -0.421484220300E-09 -0.220726902320E-08  0.229830573744E-10
 -0.946233859097E-10 -0.621327648046E-11 -0.751404035358E-09 -0.317232516334E-09 -0.694739670675E-09 -0.245607421408E-10 -0.500601418334E-10
 -0.805001794482E-10 -0.263146598115E-10 -0.374341275144E-09 -0.470654042300E-09 -0.131303136419E-09 -0.826901613110E-10 -0.313840960137E-09
 -0.491542726253E-11 -0.338420841416E-10 -0.533734670760E-10 -0.100700703107E-10 -0.611590576435E-10
        15         9        16        16
        15        18        11        11
        22        15        21        21
        11         5         9         9
         5         7         2         2
        11         9        15        15
        16        21        15        15
        16        10        14        14
        18        17        11        11
        17        25        24        24
        22        18        15        15
        22        30        31        31
        30        21        23        23
        16        20        23        23
        22        27        26        26
        10         9         4         4
         7        11        13        13
        25        18        26        26
        11         7         5         5
         5         1         4         4
        17        19        13        13
        23        32        30        30
        23        20        29        29
         4         9         5         5
         4         8        10        10
        26        18        22        22
        26        28        25        25
        13        11        17        17
        13         6         7         7
        31        30        32        32
         2         1         5         5
         2         7         6         6
        14        10         8         8
        24        19        17        17
        24        25        28        28
         9        10        16        16
         3         4         1         1
        33        26        27        27
        12        13        19        19
        21        30        22        22
        16        14        20        20
        16        23        21        21
        22        31        27        27
        18        25        17        17
        26        33        28        28
         4         3         8         8
        23        29        32        32
        13        12         6         6
zone t="boundary 4 bc-4", solutiontime= 0.2000000E+02, strandid=1004, i=32, j=46, f=feblock
  0.125000000000E+01  0.219251206392E+01  0.103724302461E+01  0.500000000000E+01  0.250000000000E+01  0.375000000000E+01  0.404200324774E+01
  0.500000000000E+01  0.000000000000E+00  0.310152362409E+01  0.202479342020E+01  0.324151231464E+01  0.922061490191E+00  0.000000000000E+00
  0.299062775774E+01  0.394624082883E+01  0.500000000000E+01  0.409252726285E+01  0.500000000000E+01  0.429310310915E+01  0.175434191980E+01
  0.284428995242E+01  0.000000000000E+00  0.000000000000E+00  0.715990576545E+00  0.930412228790E+00  0.125000000000E+01  0.187029682677E+01
  0.500000000000E+01  0.375000000000E+01  0.250000000000E+01  0.000000000000E+00
  0.250000000000E+01  0.157686156160E+01  0.146289271009E+01  0.250000000000E+01  0.250000000000E+01  0.250000000000E+01  0.155830813274E+01
  0.125000000000E+01  0.250000000000E+01  0.177790177481E+01  0.477386199275E+00  0.742988685424E+00  0.308372018325E+00  0.125000000000E+01
 -0.487811078581E+00 -0.144524380962E+01 -0.125000000000E+01 -0.345533899378E+00  0.000000000000E+00  0.627766083140E+00 -0.739814786992E+00
 -0.158811787973E+01  0.000000000000E+00 -0.125000000000E+01 -0.600232012419E+00 -0.154800130438E+01 -0.250000000000E+01 -0.178862290564E+01
 -0.250000000000E+01 -0.250000000000E+01 -0.250000000000E+01 -0.250000000000E+01
  0.500000000000E+01  0.500000000000E+01  0.500000000000E+01  0.500000000000E+01  0.500000000000E+01  0.500000000000E+01  0.500000000000E+01
  0.500000000000E+01  0.500000000000E+01  0.500000000000E+01  0.500000000000E+01  0.500000000000E+01  0.500000000000E+01  0.500000000000E+01
  0.500000000000E+01  0.500000000000E+01  0.500000000000E+01  0.500000000000E+01  0.500000000000E+01  0.500000000000E+01  0.500000000000E+01
  0.500000000000E+01  0.500000000000E+01  0.500000000000E+01  0.500000000000E+01  0.500000000000E+01  0.500000000000E+01  0.500000000000E+01
  0.500000000000E+01  0.500000000000E+01  0.500000000000E+01  0.500000000000E+01