title="tecplot geometry and solution file"
variables = x y z mach temperature lambda1 lambda2 lambda3 lambda4 lambda5 lambda6
zone t="boundary 1 bc-1", solutiontime= 0.2000000E+02, strandid=1001, i=32, j=46, f=feblock
  0.000000000000E+00  0.000000000000E+00  0.000000000000E+00  0.000000000000E+00  0.000000000000E+00  0.000000000000E+00  0.000000000000E+00
  0.000000000000E+00  0.000000000000E+00  0.000000000000E+00  0.000000000000E+00  0.000000000000E+00  0.000000000000E+00  0.000000000000E+00
  0.000000000000E+00  0.000000000000E+00  0.000000000000E+00  0.000000000000E+00  0.000000000000E+00  0.000000000000E+00  0.000000000000E+00
  0.000000000000E+00  0.000000000000E+00  0.000000000000E+00  0.000000000000E+00  0.000000000000E+00  0.000000000000E+00  0.000000000000E+00
  0.000000000000E+00  0.000000000000E+00  0.000000000000E+00  0.000000000000E+00
  0.250000000000E+01  0.250000000000E+01  0.125000000000E+01  0.146289271009E+01  0.157686156160E+01  0.308372018325E+00  0.000000000000E+00
 -0.125000000000E+01 -0.600232012419E+00  0.250000000000E+01  0.477386199275E+00  0.742988685424E+00 -0.739814786992E+00  0.177790177481E+01
  0.155830813274E+01  0.250000000000E+01 -0.250000000000E+01 -0.154800130438E+01 -0.487811078581E+00  0.250000000000E+01  0.627766083140E+00
 -0.345533899378E+00 -0.178862290564E+01 -0.158811787973E+01  0.125000000000E+01 -0.250000000000E+01 -0.144524380962E+01  0.000000000000E+00
 -0.125000000000E+01 -0.250000000000E+01 -0.250000000000E+01 -0.250000000000E+01
  0.000000000000E+00  0.125000000000E+01  0.000000000000E+00  0.103724302461E+01  0.219251206392E+01  0.922061490191E+00  0.000000000000E+00
  0.000000000000E+00  0.715990576545E+00  0.250000000000E+01  0.202479342020E+01  0.324151231464E+01  0.175434191980E+01  0.310152362409E+01
  0.404200324774E+01  0.375000000000E+01  0.000000000000E+00  0.930412228790E+00  0.299062775774E+01  0.500000000000E+01  0.429310310915E+01
  0.409252726285E+01  0.187029682677E+01  0.284428995242E+01  0.500000000000E+01  0.125000000000E+01  0.394624082883E+01  0.500000000000E+01
  0.500000000000E+01  0.250000000000E+01  0.375000000000E+01  0.500000000000E+01
  0.000000000000E+00  0.441238864710E+00  0.000000000000E+00  0.475212333418E+00  0.460125600047E+00  0.468825459916E+00  0.000000000000E+00
  0.000000000000E+00  0.402299647307E+00  0.469815278546E+00  0.464413480260E+00  0.478714152972E+00  0.489298547802E+00  0.483067971662E+00
  0.487929224832E+00  0.488960767301E+00  0.000000000000E+00  0.464773408827E+00  0.473796242669E+00  0.495345969094E+00  0.490265403772E+00
  0.486285557293E+00  0.445720648663E+00  0.464383522981E+00  0.496127006189E+00  0.443623519427E+00  0.486963956588E+00  0.497245800655E+00
  0.496058644718E+00  0.467732961393E+00  0.488211579388E+00  0.495097551278E+00
  0.999990335442E+00  0.102982730935E+01  0.999990797222E+00  0.104247144519E+01  0.101190167613E+01  0.102520600953E+01  0.999991453848E+00
  0.999992202332E+00  0.103891124272E+01  0.100826302705E+01  0.101252909219E+01  0.100300571845E+01  0.102702848665E+01  0.100605562865E+01
  0.100244399774E+01  0.100355656280E+01  0.999992753610E+00  0.103239691667E+01  0.100459561267E+01  0.100179353455E+01  0.100260307775E+01
  0.100234974224E+01  0.101657231252E+01  0.100617628259E+01  0.100168864675E+01  0.104043187424E+01  0.100303393289E+01  0.100118748788E+01
  0.100134189338E+01  0.100976788455E+01  0.100405369623E+01  0.100176128351E+01
 -0.154111343111E+00 -0.778377904998E+00 -0.175263000734E+00 -0.124484397465E+01 -0.866840207043E-01 -0.149135998315E+01 -0.129751537974E+00
 -0.429567427454E-01 -0.149713850606E+01  0.420152638091E-01 -0.974237865723E-01  0.176819812961E+00 -0.779942709153E-01  0.980799165656E-01
  0.239943808262E+00  0.235644768412E+00 -0.762416393505E-01 -0.962776369175E+00  0.128927413700E+00  0.857209781256E+00  0.310938648726E+00
  0.206608914712E+00 -0.448707831814E-01  0.109147113649E+00  0.886857290793E+00 -0.608682643126E+00  0.160850595541E+00  0.975241623437E+00
  0.863637744648E+00  0.873650345938E-01  0.175188858474E+00  0.812956884001E+00
 -0.596495936380E-02 -0.112947088528E+00 -0.835004725595E-02 -0.159471396668E+00 -0.415720750972E-02 -0.226573767275E+00 -0.902288929459E-02
 -0.781567724825E-02 -0.223394330361E+00  0.197964428789E-01 -0.889617235883E-02  0.373215423528E-01  0.301918799621E-02  0.288662931352E-01
  0.472378359936E-01  0.519634700554E-01 -0.688609781076E-02 -0.150206674064E+00  0.258292352022E-01  0.175612799050E+00  0.618613235183E-01
  0.397695941097E-01  0.542170410635E-02  0.210264822011E-01  0.185432062834E+00 -0.746514944664E-01  0.318841690647E-01  0.204666407345E+00
  0.180532130943E+00  0.221442935494E-01  0.374270168682E-01  0.168946562782E+00
 -0.104575830479E-01 -0.321440029933E-02 -0.140832534776E-01 -0.321838066817E-01 -0.369718529072E-02 -0.167418407709E-01 -0.116485261794E-01
  0.447899256172E-02  0.764981891235E-03  0.343350367328E-03 -0.343575967552E-02 -0.325688856438E-02  0.386483937321E-02 -0.529955078586E-03
  0.141703884450E-02  0.847834631363E-04  0.600874932629E-02  0.204882088993E-01 -0.264027783503E-03 -0.712617600152E-04  0.978979250477E-03
  0.109569393876E-02  0.764615063490E-03  0.367017848522E-02 -0.208373440299E-02  0.265129222215E-02  0.204747446019E-02  0.571248640140E-03
  0.200197305923E-02  0.555819137456E-03  0.184289615072E-03 -0.174709343660E-03
  0.374011168084E-01  0.334854908327E-01  0.407242160262E-01 -0.937775820291E-04 -0.365196341027E-01 -0.400215631879E-01  0.232624050858E-01
  0.198643949801E-01 -0.298377114071E-01 -0.399860860101E-01 -0.738991578668E-01 -0.405812187213E-01 -0.817933682297E-01 -0.379728798583E-01
 -0.278571990704E-01 -0.329139520317E-01  0.149171747233E-01 -0.243627446403E-01 -0.466141711418E-01 -0.116232883591E-01 -0.256663594944E-01
 -0.306447898278E-01 -0.550303993329E-01 -0.377007782049E-01 -0.110823063559E-01 -0.285066409971E-01 -0.280335684218E-01 -0.104737904267E-01
 -0.125693651826E-01 -0.424767092838E-01 -0.287319528761E-01 -0.123950028768E-01
  0.123562498025E+00  0.320714294847E+00  0.167442333909E+00  0.498315823083E+00  0.361005030931E-01  0.619677650078E+00 -0.111734077513E-01
 -0.281377738532E-01  0.622606677455E+00 -0.168705253637E-01  0.426809250874E-01 -0.690736549860E-01  0.338569787665E-01 -0.386214447475E-01
 -0.959649913666E-01 -0.950597298236E-01  0.249359132917E-01  0.402723742157E+00 -0.476749770419E-01 -0.355754344430E+00 -0.125716652212E+00
 -0.818006531971E-01  0.218299966218E-01 -0.389476407910E-01 -0.368783893852E+00  0.248292319536E+00 -0.627929762464E-01 -0.406718424868E+00
 -0.359350846786E+00 -0.315505789971E-01 -0.695850910358E-01 -0.337388580198E+00
  0.716339287391E-07  0.154655244323E-06  0.761471213984E-07  0.279937950844E-06  0.808814586106E-07  0.600226933435E-07 -0.451057593797E-07
 -0.139669979828E-07 -0.125928633811E-05  0.685119096580E-07  0.225407342571E-06  0.107006183603E-06  0.153638737731E-06  0.797898767783E-07
  0.252906290968E-07  0.484542763240E-07  0.801427041558E-08 -0.267740757143E-06  0.106151953339E-06  0.742662557330E-08  0.113350743566E-07
  0.198542321092E-07  0.942733819843E-07  0.948747227118E-07 -0.415953190146E-09  0.132694059795E-06  0.256010440708E-07 -0.626430270342E-08
 -0.972690455509E-10  0.748160141331E-07  0.369436145627E-07  0.756801032235E-08
        12        19        11        11
        11         5        12        12
        10        14         5         5
        19        13        11        11
        19        24        13        13
        30        23        24        24
        19        12        22        22
        28        22        21        21
        11        13         6         6
         7         6         9         9
        15        12        14        14
        18        13        23        23
        15        25        21        21
        27        19        22        22
        18         8         9         9
        27        31        24        24
         4        11         6         6
         5        14        12        12
         4         2         5         5
        21        12        15        15
        14        16        15        15
        24        19        27        27
        22        29        27        27
        23        26        18        18
        17         8        18        18
         5        11         4         4
         6         3         4         4
        26        23        30        30
         5         2        10        10
        16        14        10        10
         3         6         7         7
        21        25        28        28
        29        22        28        28
         6        13         9         9
         2         4         1         1
        31        27        32        32
        25        15        20        20
        24        23        13        13
         8         7         9         9
        13        18         9         9
        31        30        24        24
        12        21        22        22
        29        32        27        27
         3         1         4         4
        26        17        18        18
        16        20        15        15
zone t="boundary 2 bc-2", solutiontime= 0.2000000E+02, strandid=1002, i=33, j=48, f=feblock
  0.500000000000E+01  0.375000000000E+01  0.250000000000E+01  0.288078410721E+01  0.125000000000E+01  0.190974100652E+01  0.326683758169E+01
  0.201431602454E+01  0.000000000000E+00  0.963108083381E+00  0.500000000000E+01  0.403552511878E+01  0.423153924130E+01  0.500000000000E+01
  0.385533350601E+01  0.500000000000E+01  0.398173246726E+01  0.315249557942E+01  0.267000324704E+01  0.154774304040E+01  0.218329375016E+01
  0.893127759452E+00  0.000000000000E+00  0.698517061619E+00  0.964171764089E+00  0.310324758057E+01  0.000000000000E+00  0.000000000000E+00
  0.125000000000E+01  0.500000000000E+01  0.375000000000E+01  0.250000000000E+01  0.000000000000E+00
 -0.250000000000E+01 -0.250000000000E+01 -0.250000000000E+01 -0.250000000000E+01 -0.250000000000E+01 -0.250000000000E+01 -0.250000000000E+01
 -0.250000000000E+01 -0.250000000000E+01 -0.250000000000E+01 -0.250000000000E+01 -0.250000000000E+01 -0.250000000000E+01 -0.250000000000E+01
 -0.250000000000E+01 -0.250000000000E+01 -0.250000000000E+01 -0.250000000000E+01 -0.250000000000E+01 -0.250000000000E+01 -0.250000000000E+01
 -0.250000000000E+01 -0.250000000000E+01 -0.250000000000E+01 -0.250000000000E+01 -0.250000000000E+01 -0.250000000000E+01 -0.250000000000E+01
 -0.250000000000E+01 -0.250000000000E+01 -0.250000000000E+01 -0.250000000000E+01 -0.250000000000E+01
  0.000000000000E+00  0.000000000000E+00  0.000000000000E+00  0.904659890645E+00  0.000000000000E+00  0.717002441913E+00  0.188609243358E+01
  0.176246431481E+01  0.000000000000E+00  0.961328577125E+00  0.125000000000E+01  0.101201586758E+01  0.191586535653E+01  0.250000000000E+01
  0.293121848150E+01  0.375000000000E+01  0.406975391361E+01  0.363585050272E+01  0.285047954584E+01  0.292817774674E+01  0.395907379566E+01
  0.205246550326E+01  0.125000000000E+01  0.306828197606E+01  0.397245519226E+01  0.433168271247E+01  0.250000000000E+01  0.375000000000E+01
  0.500000000000E+01  0.500000000000E+01  0.500000000000E+01  0.500000000000E+01  0.500000000000E+01
  0.000000000000E+00  0.000000000000E+00  0.000000000000E+00  0.380991677071E+00  0.000000000000E+00  0.343629846333E+00  0.585283712637E+00
  0.579371274939E+00  0.000000000000E+00  0.501053781697E+00  0.508459764195E+00  0.435372705232E+00  0.572637650783E+00  0.537001621764E+00
  0.568921604272E+00  0.514994863512E+00  0.508249384174E+00  0.527254272376E+00  0.567446148296E+00  0.531657889979E+00  0.505982349932E+00
  0.520795557933E+00  0.443623519427E+00  0.490664279058E+00  0.492156105736E+00  0.501392667577E+00  0.467732961393E+00  0.488211579388E+00
  0.490002415326E+00  0.491354393416E+00  0.486078174930E+00  0.490037677861E+00  0.495097551278E+00
  0.999993511960E+00  0.999993715260E+00  0.999993570321E+00  0.989539101465E+00  0.999993167142E+00  0.985524838689E+00  0.989838839696E+00
  0.991798259717E+00  0.999992753610E+00  0.984411184056E+00  0.985091609572E+00  0.984689131748E+00  0.990058406085E+00  0.100289567776E+01
  0.999855182158E+00  0.100485299288E+01  0.100121572260E+01  0.100055639449E+01  0.997896752171E+00  0.100350023825E+01  0.100058089063E+01
  0.101093252220E+01  0.104043187424E+01  0.100326541074E+01  0.100254508116E+01  0.100045601675E+01  0.100976788455E+01  0.100405369623E+01
  0.100192661355E+01  0.100045469615E+01  0.100058772260E+01  0.100109988203E+01  0.100176128351E+01
  0.631004765487E-01  0.497843703086E-01  0.303118038710E-01 -0.582444351655E+00 -0.592723124961E-01 -0.192528620890E+01  0.129238294726E+00
 -0.197800560685E-01 -0.762416393505E-01 -0.893551230397E+00  0.166108853876E+00  0.189872175414E+00  0.130672873629E+00  0.111385940385E+00
  0.820089957347E-01  0.749073526794E-01  0.551675359741E-01  0.637955872659E-01  0.104571654653E+00  0.124945003063E+00  0.835222110695E-01
 -0.314510459125E-01 -0.608682643126E+00  0.836824425903E-01  0.153125964388E+00  0.100459387879E+00  0.873650345938E-01  0.175188858474E+00
  0.732670472336E+00  0.872426862616E-01  0.334450895358E+00  0.643231274144E+00  0.812956884001E+00
 -0.171042896877E-01  0.472424381452E-02 -0.444234255616E-03 -0.100597008909E+00  0.109436573578E-01 -0.239666496784E+00  0.900413420874E-04
  0.967460653379E-02 -0.688609781076E-02 -0.105737564306E+00 -0.374511971401E-01 -0.205501012953E-02 -0.192040517535E-01 -0.285007117771E-01
 -0.190903609552E-01 -0.175682042995E-01 -0.210911992666E-01 -0.176395671634E-01 -0.680103101210E-02  0.102503751322E-01 -0.748102786307E-02
  0.851488160756E-02 -0.746514944664E-01  0.539268743953E-02  0.176580886914E-01 -0.103517682691E-01  0.221442935494E-01  0.374270168682E-01
  0.131668719918E+00 -0.440735832667E-02  0.335900679199E-01  0.998638200898E-01  0.168946562782E+00
  0.380641567883E-02 -0.100476786419E-02 -0.590429630052E-02 -0.135970832724E-01 -0.314189136845E-02 -0.239100824944E-01  0.189236297365E-02
 -0.151262668138E-03  0.600874932629E-02 -0.920777946822E-02  0.220229236916E-02  0.706580136334E-02 -0.134516695311E-03 -0.211773049957E-03
 -0.168899573007E-03  0.332579029009E-03 -0.441257017909E-04  0.172863078443E-03 -0.272473368302E-03 -0.647748645056E-03  0.427886466569E-03
 -0.693367160871E-03  0.265129222215E-02 -0.120031801972E-03  0.710902308469E-04  0.148752717796E-03  0.555819137456E-03  0.184289615072E-03
  0.691218163826E-04  0.571548919884E-04 -0.135208280577E-04 -0.406086818030E-04 -0.174709343660E-03
  0.496492162552E-02  0.497749390385E-02  0.754307706300E-02 -0.256381040899E-01  0.174333053711E-01 -0.536559824280E-02 -0.387064710500E-01
 -0.516621330981E-01  0.149171747233E-01 -0.243214224090E-01 -0.735679176943E-02 -0.270042819582E-01 -0.156407360120E-01 -0.708205608829E-02
 -0.162622549284E-01 -0.596509648830E-02 -0.158530789326E-01 -0.224091755727E-01 -0.264985410984E-01 -0.276096340937E-01 -0.258442485720E-01
 -0.411753166528E-01 -0.285066409971E-01 -0.293727824099E-01 -0.259301230886E-01 -0.223411895472E-01 -0.424767092838E-01 -0.287319528761E-01
 -0.174839780932E-01 -0.930455928965E-02 -0.202522928526E-01 -0.219889648101E-01 -0.123950028768E-01
 -0.169754751856E-01 -0.478738634985E-01 -0.833821758048E-01  0.266014601017E+00 -0.100537857653E+00  0.825002367520E+00 -0.382135489446E-01
  0.108310741568E-01  0.249359132917E-01  0.370516881037E+00 -0.360004416406E-01 -0.572577396734E-01 -0.320988658498E-01 -0.213501784001E-01
 -0.159875613106E-01 -0.151464789680E-01 -0.756684715591E-02 -0.115607363964E-01 -0.284887036751E-01 -0.423023279421E-01 -0.223683774956E-01
  0.146490407412E-01  0.248292319536E+00 -0.267892708176E-01 -0.558328322256E-01 -0.274545576060E-01 -0.315505789971E-01 -0.695850910358E-01
 -0.297668148950E+00 -0.263640318534E-01 -0.125504248381E+00 -0.255722737756E+00 -0.337388580198E+00
  0.297399410015E-10  0.333638360832E-09  0.657112657044E-09  0.348339252498E-07  0.248021681228E-08  0.785442717191E-07  0.335730456846E-07
  0.201753237827E-06  0.801427041558E-08  0.161853282209E-06  0.368000639633E-08  0.917499688332E-08 -0.139463115246E-07 -0.587393557179E-08
 -0.659858551676E-09  0.299634326835E-08  0.448414489777E-08  0.723420758033E-08  0.146347498506E-07  0.416083036652E-07  0.141392387925E-07
  0.147824551475E-06  0.132694059795E-06  0.570810074563E-07  0.173294438695E-07  0.861421764926E-08  0.748160141331E-07  0.369436145627E-07
  0.197154065695E-07  0.237705926237E-09  0.469800117265E-08  0.163417620269E-07  0.756801032235E-08
        15         7        19        19
         8        20        19        19
        18        19        21        21
         7         4         8         8
         3         6         4         4
        19         7         8         8
        19        18        15        15
        14        13        15        15
         8        22        20        20
        27        24        22        22
        19        20        21        21
        32        26        21        21
        17        18        26        26
        17        16        15        15
        25        29        21        21
        12         7        13        13
        10         8         6         6
        25        20        24        24
         4         6         8         8
        12         2         4         4
        10        23        22        22
        26        31        17        17
        30        16        17        17
         4         7        12        12
        13        11        12        12
        21        20        25        25
        24        28        25        25
        22         8        10        10
         6         5        10        10
        31        26        32        32
         4         2         3         3
         5         6         3         3
        11        13        14        14
        22        23        27        27
        28        24        27        27
        15        13         7         7
         2        12         1         1
        29        25        33        33
        23        10         9         9
        21        26        18        18
        16        14        15        15
        18        17        15        15
        29        32        21        21
        22        24        20        20
        28        33        25        25
        11         1        12        12
        31        30        17        17
         5         9        10        10
zone t="boundary 3 bc-3", solutiontime= 0.2000000E+02, strandid=1003, i=33, j=48, f=feblock
  0.375000000000E+01  0.250000000000E+01  0.500000000000E+01  0.403552511878E+01  0.288078410721E+01  0.125000000000E+01  0.190974100652E+01
  0.500000000000E+01  0.326683758169E+01  0.423153924130E+01  0.201431602454E+01  0.000000000000E+00  0.963108083381E+00  0.500000000000E+01
  0.267000324704E+01  0.385533350601E+01  0.893127759452E+00  0.154774304040E+01  0.000000000000E+00  0.500000000000E+01  0.315249557942E+01
  0.218329375016E+01  0.398173246726E+01  0.000000000000E+00  0.698517061619E+00  0.964171764089E+00  0.125000000000E+01  0.000000000000E+00
  0.500000000000E+01  0.310324758057E+01  0.250000000000E+01  0.375000000000E+01  0.000000000000E+00
  0.250000000000E+01  0.250000000000E+01  0.250000000000E+01  0.250000000000E+01  0.250000000000E+01  0.250000000000E+01  0.250000000000E+01
  0.250000000000E+01  0.250000000000E+01  0.250000000000E+01  0.250000000000E+01  0.250000000000E+01  0.250000000000E+01  0.250000000000E+01
  0.250000000000E+01  0.250000000000E+01  0.250000000000E+01  0.250000000000E+01  0.250000000000E+01  0.250000000000E+01  0.250000000000E+01
  0.250000000000E+01  0.250000000000E+01  0.250000000000E+01  0.250000000000E+01  0.250000000000E+01  0.250000000000E+01  0.250000000000E+01
  0.250000000000E+01  0.250000000000E+01  0.250000000000E+01  0.250000000000E+01  0.250000000000E+01
  0.000000000000E+00  0.000000000000E+00  0.000000000000E+00  0.101201586758E+01  0.904659890645E+00  0.000000000000E+00  0.717002441913E+00
  0.125000000000E+01  0.188609243358E+01  0.191586535653E+01  0.176246431481E+01  0.000000000000E+00  0.961328577125E+00  0.250000000000E+01
  0.285047954584E+01  0.293121848150E+01  0.205246550326E+01  0.292817774674E+01  0.125000000000E+01  0.375000000000E+01  0.363585050272E+01
  0.395907379566E+01  0.406975391361E+01  0.250000000000E+01  0.306828197606E+01  0.397245519226E+01  0.500000000000E+01  0.375000000000E+01
  0.500000000000E+01  0.433168271247E+01  0.500000000000E+01  0.500000000000E+01  0.500000000000E+01
  0.000000000000E+00  0.000000000000E+00  0.000000000000E+00  0.443768049813E+00  0.402287063289E+00  0.000000000000E+00  0.377550015530E+00
  0.509231651017E+00  0.575830373842E+00  0.573705119893E+00  0.562552484917E+00  0.000000000000E+00  0.490560996922E+00  0.534526640478E+00
  0.556587161529E+00  0.564391003890E+00  0.522730520214E+00  0.522053035057E+00  0.441238864710E+00  0.517182885172E+00  0.524230081365E+00
  0.503688666615E+00  0.509490322369E+00  0.469815278546E+00  0.495614921017E+00  0.494483812152E+00  0.488562139423E+00  0.488960767301E+00
  0.492982637025E+00  0.499007441401E+00  0.486462299176E+00  0.484599832491E+00  0.495345969094E+00
  0.999989380190E+00  0.999989451040E+00  0.999989665041E+00  0.981541820811E+00  0.988773959065E+00  0.999989868921E+00  0.982469495615E+00
  0.984104107106E+00  0.990427340160E+00  0.990355127069E+00  0.994362617112E+00  0.999990335442E+00  0.988651707786E+00  0.100368299998E+01
  0.999769041194E+00  0.100118460274E+01  0.100834871539E+01  0.100252122579E+01  0.102982730935E+01  0.100443305346E+01  0.100199527495E+01
  0.100082072308E+01  0.100138208455E+01  0.100826302705E+01  0.100298818591E+01  0.100192398684E+01  0.100215265586E+01  0.100355656280E+01
  0.100047708080E+01  0.100056610141E+01  0.100126814609E+01  0.100066576236E+01  0.100179353455E+01
  0.437332265604E-01 -0.328784625311E-01  0.716807277079E-01 -0.409271459676E+00 -0.156042767305E+01 -0.970015807906E-01 -0.155378345517E+01
  0.245985260747E+00  0.123208164457E+00  0.154728488069E+00 -0.261165130870E+00 -0.154111343111E+00 -0.105590649927E+01  0.116928208759E+00
  0.136545185485E+00  0.963344145980E-01 -0.326748824447E-01  0.131823582499E+00 -0.778377904998E+00  0.797046728772E-01  0.584158048844E-01
  0.796777815678E-01  0.607301912956E-01  0.420152638091E-01  0.111907804064E+00  0.211108676968E+00  0.651168647738E+00  0.235644768412E+00
  0.755083724628E-01  0.930452950123E-01  0.605662675417E+00  0.328894296395E+00  0.857209781256E+00
  0.101252519396E-01  0.974334201163E-02 -0.179901795866E-01 -0.114092729521E+00 -0.215756989330E+00  0.206049124386E-01 -0.193280262216E+00
 -0.399141676960E-01  0.164337131271E-02 -0.211349624460E-01 -0.566239682646E-02 -0.596495936380E-02 -0.799310387309E-01 -0.306146036790E-01
  0.185398270028E-02 -0.161512953398E-01  0.284549512611E-01  0.137120973735E-01 -0.112947088528E+00 -0.195425325917E-01 -0.170103309303E-01
 -0.931475690468E-02 -0.197841003759E-01  0.197964428789E-01  0.262065431046E-01  0.265307916963E-01  0.115411417340E+00  0.519634700554E-01
 -0.688909603923E-02 -0.108942167715E-01  0.937377339454E-01  0.326505645667E-01  0.175612799050E+00
  0.190817481608E-02 -0.108070037876E-02 -0.238982117474E-02  0.782915968082E-02  0.221623560658E-01 -0.869356181627E-02  0.451454688367E-03
 -0.111549173380E-04  0.245967924981E-02 -0.380044622491E-03  0.203976516406E-02 -0.104575830479E-01 -0.117976095001E-01 -0.884958902203E-03
  0.119676274867E-03 -0.110158990146E-03  0.407406167027E-02  0.154591340454E-02 -0.321440029933E-02 -0.496664774570E-03 -0.245482417705E-03
 -0.106791917793E-02 -0.169079833642E-04  0.343350367328E-03  0.932382490060E-03 -0.297582704778E-03 -0.452489528792E-03  0.847834631363E-04
 -0.176881557992E-03  0.524689844407E-05 -0.999875011842E-04  0.229099195027E-04 -0.712617600152E-04
  0.120543980839E-01  0.225294520328E-01  0.622906028187E-02 -0.159547520184E-01 -0.263691130428E-01  0.217265363200E-01 -0.807546203350E-02
 -0.955201669222E-02 -0.488433262426E-01 -0.234933077452E-01 -0.711632434661E-01  0.374011168084E-01 -0.233857290375E-01 -0.937032350842E-02
 -0.251034775045E-01 -0.208783996758E-01 -0.600240638621E-01 -0.268919675877E-01  0.334854908327E-01 -0.832073944400E-02 -0.240832693109E-01
 -0.249082294197E-01 -0.179729648415E-01 -0.399860860101E-01 -0.386605888597E-01 -0.257774243368E-01 -0.184444234660E-01 -0.329139520317E-01
 -0.886188428100E-02 -0.233507533883E-01 -0.223660053452E-01 -0.203661903552E-01 -0.116232883591E-01
 -0.181733222342E+00 -0.790277228569E-01 -0.357407313395E-01  0.211747097304E+00  0.675659471767E+00 -0.749209502204E-02  0.653105635863E+00
 -0.628890534176E-01 -0.380234020550E-01 -0.400286799177E-01  0.102167922074E+00  0.123562498025E+00  0.416176466970E+00 -0.219918191953E-01
 -0.431273165164E-01 -0.217907662773E-01  0.101396009367E-01 -0.456150506768E-01  0.320714294847E+00 -0.156395788534E-01 -0.965528826075E-02
 -0.204798497925E-01 -0.986918191128E-02 -0.168705253637E-01 -0.407913339997E-01 -0.794216021900E-01 -0.263275374105E+00 -0.950597298236E-01
 -0.213873295744E-01 -0.245809227891E-01 -0.240267347815E+00 -0.123112513590E+00 -0.355754344430E+00
  0.723910576077E-09  0.253283184611E-08  0.205489060784E-09  0.237535616939E-07  0.421465478074E-07  0.170944632928E-07  0.325381937303E-06
  0.443880810828E-08  0.662163514121E-07 -0.189101794732E-07  0.226233000515E-06  0.716339287391E-07  0.394444164844E-06 -0.539153198250E-08
  0.165910390779E-07 -0.306339894339E-08  0.158145339238E-06  0.543985864579E-07  0.154655244323E-06  0.295638083945E-08  0.221314799793E-08
  0.807778541927E-08  0.331783348671E-08  0.685119096580E-07  0.782732420701E-07  0.174358413852E-07  0.945549259341E-08  0.484542763240E-07
  0.737974230686E-09  0.385975203894E-08  0.634385131744E-08  0.119241812835E-08  0.742662557330E-08
        15         9        16        16
        15        18        11        11
        22        15        21        21
        11         5         9         9
         5         7         2         2
        11         9        15        15
        16        21        15        15
        16        10        14        14
        18        17        11        11
        17        25        24        24
        22        18        15        15
        22        30        31        31
        30        21        23        23
        16        20        23        23
        22        27        26        26
        10         9         4         4
         7        11        13        13
        25        18        26        26
        11         7         5         5
         5         1         4         4
        17        19        13        13
        23        32        30        30
        23        20        29        29
         4         9         5         5
         4         8        10        10
        26        18        22        22
        26        28        25        25
        13        11        17        17
        13         6         7         7
        31        30        32        32
         2         1         5         5
         2         7         6         6
        14        10         8         8
        24        19        17        17
        24        25        28        28
         9        10        16        16
         3         4         1         1
        33        26        27        27
        12        13        19        19
        21        30        22        22
        16        14        20        20
        16        23        21        21
        22        31        27        27
        18        25        17        17
        26        33        28        28
         4         3         8         8
        23        29        32        32
        13        12         6         6
zone t="boundary 4 bc-4", solutiontime= 0.2000000E+02, strandid=1004, i=32, j=46, f=feblock
  0.125000000000E+01  0.219251206392E+01  0.103724302461E+01  0.500000000000E+01  0.250000000000E+01  0.375000000000E+01  0.404200324774E+01
  0.500000000000E+01  0.000000000000E+00  0.310152362409E+01  0.202479342020E+01  0.324151231464E+01  0.922061490191E+00  0.000000000000E+00
  0.299062775774E+01  0.394624082883E+01  0.500000000000E+01  0.409252726285E+01  0.500000000000E+01  0.429310310915E+01  0.175434191980E+01
  0.284428995242E+01  0.000000000000E+00  0.000000000000E+00  0.715990576545E+00  0.930412228790E+00  0.125000000000E+01  0.187029682677E+01
  0.500000000000E+01  0.375000000000E+01  0.250000000000E+01  0.000000000000E+00
  0.250000000000E+01  0.157686156160E+01  0.146289271009E+01  0.250000000000E+01  0.250000000000E+01  0.250000000000E+01  0.155830813274E+01
  0.125000000000E+01  0.250000000000E+01  0.177790177481E+01  0.477386199275E+00  0.742988685424E+00  0.308372018325E+00  0.125000000000E+01
 -0.487811078581E+00 -0.144524380962E+01 -0.125000000000E+01 -0.345533899378E+00  0.000000000000E+00  0.627766083140E+00 -0.739814786992E+00
 -0.158811787973E+01  0.000000000000E+00 -0.125000000000E+01 -0.600232012419E+00 -0.154800130438E+01 -0.250000000000E+01 -0.178862290564E+01
 -0.250000000000E+01 -0.250000000000E+01 -0.250000000000E+01 -0.250000000000E+01
  0.500000000000E+01  0.500000000000E+01  0.500000000000E+01  0.500000000000E+01  0.500000000000E+01  0.500000000000E+01  0.500000000000E+01
  0.500000000000E+01  0.500000000000E+01  0.500000000000E+01  0.500000000000E+01  0.500000000000E+01  0.500000000000E+01  0.500000000000E+01
  0.500000000000E+01  0.500000000000E+01  0.500000000000E+01  0.500000000000E+01  0.500000000000E+01  0.500000000000E+01  0.500000000000E+01
  0.500000000000E+01  0.500000000000E+01  0.500000000000E+01  0.500000000000E+01  0.500000000000E+01  0.500000000000E+01  0.500000000000E+01
  0.500000000000E+01  0.500000000000E+01  0.500000000000E+01  0.500000000000E+01