title="tecplot geometry and solution file"
variables = x y z mach temperature lambda1 lambda2 lambda3 lambda4 lambda5 lambda6
zone t="boundary 1 bc-1", solutiontime= 0.6000000E+02, strandid=1001, i=32, j=46, f=feblock
  0.000000000000E+00  0.000000000000E+00  0.000000000000E+00  0.000000000000E+00  0.000000000000E+00  0.000000000000E+00  0.000000000000E+00
  0.000000000000E+00  0.000000000000E+00  0.000000000000E+00  0.000000000000E+00  0.000000000000E+00  0.000000000000E+00  0.000000000000E+00
  0.000000000000E+00  0.000000000000E+00  0.000000000000E+00  0.000000000000E+00  0.000000000000E+00  0.000000000000E+00  0.000000000000E+00
  0.000000000000E+00  0.000000000000E+00  0.000000000000E+00  0.000000000000E+00  0.000000000000E+00  0.000000000000E+00  0.000000000000E+00
  0.000000000000E+00  0.000000000000E+00  0.000000000000E+00  0.000000000000E+00
  0.250000000000E+01  0.250000000000E+01  0.125000000000E+01  0.146289271009E+01  0.157686156160E+01  0.308372018325E+00  0.000000000000E+00
 -0.125000000000E+01 -0.600232012419E+00  0.250000000000E+01  0.477386199275E+00  0.742988685424E+00 -0.739814786992E+00  0.177790177481E+01
  0.155830813274E+01  0.250000000000E+01 -0.250000000000E+01 -0.154800130438E+01 -0.487811078581E+00  0.250000000000E+01  0.627766083140E+00
 -0.345533899378E+00 -0.178862290564E+01 -0.158811787973E+01  0.125000000000E+01 -0.250000000000E+01 -0.144524380962E+01  0.000000000000E+00
 -0.125000000000E+01 -0.250000000000E+01 -0.250000000000E+01 -0.250000000000E+01
  0.000000000000E+00  0.125000000000E+01  0.000000000000E+00  0.103724302461E+01  0.219251206392E+01  0.922061490191E+00  0.000000000000E+00
  0.000000000000E+00  0.715990576545E+00  0.250000000000E+01  0.202479342020E+01  0.324151231464E+01  0.175434191980E+01  0.310152362409E+01
  0.404200324774E+01  0.375000000000E+01  0.000000000000E+00  0.930412228790E+00  0.299062775774E+01  0.500000000000E+01  0.429310310915E+01
  0.409252726285E+01  0.187029682677E+01  0.284428995242E+01  0.500000000000E+01  0.125000000000E+01  0.394624082883E+01  0.500000000000E+01
  0.500000000000E+01  0.250000000000E+01  0.375000000000E+01  0.500000000000E+01
  0.000000000000E+00  0.441238864710E+00  0.000000000000E+00  0.475212333418E+00  0.460125600047E+00  0.468825459916E+00  0.000000000000E+00
  0.000000000000E+00  0.402299647307E+00  0.469815278546E+00  0.464413480260E+00  0.478714152972E+00  0.489298547802E+00  0.483067971662E+00
  0.487929224832E+00  0.488960767301E+00  0.000000000000E+00  0.464773408827E+00  0.473796242669E+00  0.495345969094E+00  0.490265403772E+00
  0.486285557293E+00  0.445720648663E+00  0.464383522981E+00  0.496127006189E+00  0.443623519427E+00  0.486963956588E+00  0.497245800655E+00
  0.496058644718E+00  0.467732961393E+00  0.488211579388E+00  0.495097551278E+00
  0.999990335442E+00  0.102982730935E+01  0.999990797222E+00  0.104247144519E+01  0.101190167613E+01  0.102520600953E+01  0.999991453848E+00
  0.999992202332E+00  0.103891124272E+01  0.100826302705E+01  0.101252909219E+01  0.100300571845E+01  0.102702848665E+01  0.100605562865E+01
  0.100244399774E+01  0.100355656280E+01  0.999992753610E+00  0.103239691667E+01  0.100459561267E+01  0.100179353455E+01  0.100260307775E+01
  0.100234974224E+01  0.101657231252E+01  0.100617628259E+01  0.100168864675E+01  0.104043187424E+01  0.100303393289E+01  0.100118748788E+01
  0.100134189338E+01  0.100976788455E+01  0.100405369623E+01  0.100176128351E+01
  0.880212881217E-03  0.384029622610E-02  0.115887021564E-02  0.731430815593E-02  0.129979432407E-03  0.114768502314E-01  0.106467416791E-02
  0.387017617374E-03  0.133149100002E-01 -0.573734311888E-03  0.680993309018E-03 -0.121884342035E-02  0.129586016093E-02 -0.648296631755E-03
 -0.157683770464E-02 -0.145466789662E-02  0.480640549467E-03  0.754673181730E-02 -0.949092480136E-03 -0.624228289237E-02 -0.219760858544E-02
 -0.154199746324E-02  0.420439090556E-03 -0.828009544167E-03 -0.646337895903E-02  0.405233972368E-02 -0.124144921185E-02 -0.717737119666E-02
 -0.635672594121E-02 -0.647141417803E-03 -0.136464188758E-02 -0.597017918223E-02
  0.239179640050E-04  0.532715690127E-03  0.531755268564E-04  0.900602261256E-03 -0.477012579795E-04  0.176845951689E-02  0.837694184886E-04
  0.627883167775E-04  0.203982232976E-02 -0.181506619149E-03  0.625175954293E-04 -0.256225603888E-03  0.104571738554E-03 -0.188069060429E-03
 -0.310567353067E-03 -0.323881726129E-03  0.445422409456E-04  0.117438407451E-02 -0.187194183676E-03 -0.128414988738E-02 -0.436560766575E-03
 -0.294495531017E-03 -0.219780134509E-04 -0.159226695173E-03 -0.135341685300E-02  0.493093412609E-03 -0.244674809649E-03 -0.150708658631E-02
 -0.132951779426E-02 -0.167309557475E-03 -0.289763294943E-03 -0.124142876917E-02
  0.457535154254E-04  0.193519466379E-04  0.563521253220E-04  0.202199544833E-03  0.433142497390E-04  0.139655863306E-03  0.770864951243E-04
 -0.209917325775E-04  0.193539030195E-04 -0.184197659834E-05  0.398880641331E-04  0.479979890786E-04 -0.395284939232E-04  0.203179014498E-04
  0.124014257126E-05 -0.952247916540E-06 -0.322086018384E-04 -0.178984221903E-03  0.183686507894E-04  0.108534815315E-06  0.661897151370E-05
  0.555832260883E-05 -0.145564869798E-04 -0.271817559032E-04  0.218887660898E-04 -0.184809232778E-04 -0.969744151817E-05  0.386992723771E-05
 -0.110222312365E-04 -0.467506518611E-05 -0.133043220593E-05  0.100681665309E-05
 -0.220390662035E-03 -0.177155665713E-03 -0.275356336041E-03  0.272470709642E-04  0.246913841744E-03  0.324156064349E-03 -0.188777452966E-03
 -0.171796106861E-03  0.300648104634E-03  0.259690777904E-03  0.556885933938E-03  0.292452471249E-03  0.661951960854E-03  0.253120350271E-03
  0.194558779840E-03  0.220447011231E-03 -0.101973330351E-03  0.198145322219E-03  0.355099823785E-03  0.853318023515E-04  0.187172402852E-03
  0.230392076089E-03  0.408120840842E-03  0.285782351916E-03  0.817417522022E-04  0.209649808046E-03  0.211172625414E-03  0.774913565983E-04
  0.929014174071E-04  0.316723239959E-03  0.215438247193E-03  0.903611475882E-04
 -0.676046155279E-03 -0.158800209527E-02 -0.109944542374E-02 -0.292290793958E-02 -0.587396780020E-04 -0.476935612480E-02  0.101683700577E-03
  0.175837131294E-03 -0.555080325748E-02  0.230564668415E-03 -0.301053577391E-03  0.474738752988E-03 -0.544303080693E-03  0.253050216238E-03
  0.627422356971E-03  0.583124048528E-03 -0.161760958655E-03 -0.315031328579E-02  0.348667010507E-03  0.259169489598E-02  0.887188745521E-03
  0.610580045566E-03 -0.200889891166E-03  0.295411258827E-03  0.268811223199E-02 -0.166105999582E-02  0.485991163946E-03  0.299373667231E-02
  0.264536030364E-02  0.232845099700E-03  0.543737648334E-03  0.247804219395E-02
 -0.420224975479E-09 -0.683032217100E-09 -0.503444210269E-09 -0.175434984148E-08 -0.455930276214E-09 -0.306498123124E-09  0.405689390651E-09
  0.955513294227E-10  0.108476968322E-07 -0.370429197169E-09 -0.168475172986E-08 -0.740847212590E-09 -0.127025060459E-08 -0.504756986183E-09
 -0.178606100040E-09 -0.313111288373E-09 -0.670367216752E-10  0.187751890744E-08 -0.838578301946E-09 -0.606002668228E-10 -0.941983743710E-10
 -0.161318247866E-09 -0.868693744841E-09 -0.705064515952E-09 -0.334761687491E-11 -0.112486627818E-08 -0.194155741873E-09  0.381857630191E-10
 -0.445444918724E-11 -0.558382975915E-09 -0.270308583526E-09 -0.559379310690E-10
        12        19        11        11
        11         5        12        12
        10        14         5         5
        19        13        11        11
        19        24        13        13
        30        23        24        24
        19        12        22        22
        28        22        21        21
        11        13         6         6
         7         6         9         9
        15        12        14        14
        18        13        23        23
        15        25        21        21
        27        19        22        22
        18         8         9         9
        27        31        24        24
         4        11         6         6
         5        14        12        12
         4         2         5         5
        21        12        15        15
        14        16        15        15
        24        19        27        27
        22        29        27        27
        23        26        18        18
        17         8        18        18
         5        11         4         4
         6         3         4         4
        26        23        30        30
         5         2        10        10
        16        14        10        10
         3         6         7         7
        21        25        28        28
        29        22        28        28
         6        13         9         9
         2         4         1         1
        31        27        32        32
        25        15        20        20
        24        23        13        13
         8         7         9         9
        13        18         9         9
        31        30        24        24
        12        21        22        22
        29        32        27        27
         3         1         4         4
        26        17        18        18
        16        20        15        15
zone t="boundary 2 bc-2", solutiontime= 0.6000000E+02, strandid=1002, i=33, j=48, f=feblock
  0.500000000000E+01  0.375000000000E+01  0.250000000000E+01  0.288078410721E+01  0.125000000000E+01  0.190974100652E+01  0.326683758169E+01
  0.201431602454E+01  0.000000000000E+00  0.963108083381E+00  0.500000000000E+01  0.403552511878E+01  0.423153924130E+01  0.500000000000E+01
  0.385533350601E+01  0.500000000000E+01  0.398173246726E+01  0.315249557942E+01  0.267000324704E+01  0.154774304040E+01  0.218329375016E+01
  0.893127759452E+00  0.000000000000E+00  0.698517061619E+00  0.964171764089E+00  0.310324758057E+01  0.000000000000E+00  0.000000000000E+00
  0.125000000000E+01  0.500000000000E+01  0.375000000000E+01  0.250000000000E+01  0.000000000000E+00
 -0.250000000000E+01 -0.250000000000E+01 -0.250000000000E+01 -0.250000000000E+01 -0.250000000000E+01 -0.250000000000E+01 -0.250000000000E+01
 -0.250000000000E+01 -0.250000000000E+01 -0.250000000000E+01 -0.250000000000E+01 -0.250000000000E+01 -0.250000000000E+01 -0.250000000000E+01
 -0.250000000000E+01 -0.250000000000E+01 -0.250000000000E+01 -0.250000000000E+01 -0.250000000000E+01 -0.250000000000E+01 -0.250000000000E+01
 -0.250000000000E+01 -0.250000000000E+01 -0.250000000000E+01 -0.250000000000E+01 -0.250000000000E+01 -0.250000000000E+01 -0.250000000000E+01
 -0.250000000000E+01 -0.250000000000E+01 -0.250000000000E+01 -0.250000000000E+01 -0.250000000000E+01
  0.000000000000E+00  0.000000000000E+00  0.000000000000E+00  0.904659890645E+00  0.000000000000E+00  0.717002441913E+00  0.188609243358E+01
  0.176246431481E+01  0.000000000000E+00  0.961328577125E+00  0.125000000000E+01  0.101201586758E+01  0.191586535653E+01  0.250000000000E+01
  0.293121848150E+01  0.375000000000E+01  0.406975391361E+01  0.363585050272E+01  0.285047954584E+01  0.292817774674E+01  0.395907379566E+01
  0.205246550326E+01  0.125000000000E+01  0.306828197606E+01  0.397245519226E+01  0.433168271247E+01  0.250000000000E+01  0.375000000000E+01
  0.500000000000E+01  0.500000000000E+01  0.500000000000E+01  0.500000000000E+01  0.500000000000E+01
  0.000000000000E+00  0.000000000000E+00  0.000000000000E+00  0.380991677071E+00  0.000000000000E+00  0.343629846333E+00  0.585283712637E+00
  0.579371274939E+00  0.000000000000E+00  0.501053781697E+00  0.508459764195E+00  0.435372705232E+00  0.572637650783E+00  0.537001621764E+00
  0.568921604272E+00  0.514994863512E+00  0.508249384174E+00  0.527254272376E+00  0.567446148296E+00  0.531657889979E+00  0.505982349932E+00
  0.520795557933E+00  0.443623519427E+00  0.490664279058E+00  0.492156105736E+00  0.501392667577E+00  0.467732961393E+00  0.488211579388E+00
  0.490002415326E+00  0.491354393416E+00  0.486078174930E+00  0.490037677861E+00  0.495097551278E+00
  0.999993511960E+00  0.999993715260E+00  0.999993570321E+00  0.989539101465E+00  0.999993167142E+00  0.985524838689E+00  0.989838839696E+00
  0.991798259717E+00  0.999992753610E+00  0.984411184056E+00  0.985091609572E+00  0.984689131748E+00  0.990058406085E+00  0.100289567776E+01
  0.999855182158E+00  0.100485299288E+01  0.100121572260E+01  0.100055639449E+01  0.997896752171E+00  0.100350023825E+01  0.100058089063E+01
  0.101093252220E+01  0.104043187424E+01  0.100326541074E+01  0.100254508116E+01  0.100045601675E+01  0.100976788455E+01  0.100405369623E+01
  0.100192661355E+01  0.100045469615E+01  0.100058772260E+01  0.100109988203E+01  0.100176128351E+01
 -0.504802367519E-03 -0.375570923768E-03 -0.814405986176E-04  0.625766837753E-02  0.409135154685E-03  0.124199768281E-01 -0.100038820628E-02
  0.462459869471E-03  0.480640549467E-03  0.613476821566E-02 -0.128949408052E-02 -0.155348830319E-02 -0.995528287208E-03 -0.851274399723E-03
 -0.617886818046E-03 -0.558936055051E-03 -0.411534619628E-03 -0.478969836779E-03 -0.824563286578E-03 -0.101667949509E-02 -0.619874960312E-03
  0.348845808316E-03  0.405233972368E-02 -0.669886697696E-03 -0.116279332399E-02 -0.743668874783E-03 -0.647141417803E-03 -0.136464188758E-02
 -0.537750515401E-02 -0.649346491946E-03 -0.246896151430E-02 -0.473330252786E-02 -0.597017918223E-02
  0.134436138242E-03 -0.434614465646E-04 -0.107997769780E-04  0.970689027755E-03 -0.580921099363E-04  0.138462716648E-02 -0.313130894044E-04
 -0.643765753192E-04  0.445422409456E-04  0.715053162023E-03  0.293305138795E-03 -0.278575963241E-04  0.134127029006E-03  0.217473132492E-03
  0.136288453501E-03  0.131214782531E-03  0.154605037682E-03  0.126041335895E-03  0.274700986471E-04 -0.105839815858E-03  0.520684268227E-04
 -0.455662291591E-04  0.493093412609E-03 -0.548731882013E-04 -0.137871419251E-03  0.742578995877E-04 -0.167309557475E-03 -0.289763294943E-03
 -0.969206702314E-03  0.320434515413E-04 -0.248988371132E-03 -0.737768945269E-03 -0.124142876917E-02
 -0.326309912158E-04  0.120905369366E-04  0.436614765445E-04  0.131000416828E-03  0.249051453471E-04  0.131496422903E-03 -0.164398146018E-04
 -0.190665591668E-05 -0.322086018384E-04  0.459207549744E-04 -0.202351341815E-04 -0.603626920184E-04  0.998085476652E-06  0.156992851544E-05
  0.169689575565E-05 -0.267466500256E-05  0.431340164480E-06 -0.175080459425E-05  0.310854155029E-05  0.505968598917E-05 -0.334591081407E-05
  0.455479842840E-05 -0.184809232778E-04 -0.394829565371E-07 -0.608299929116E-06 -0.125771600070E-05 -0.467506518611E-05 -0.133043220593E-05
 -0.604496511370E-06 -0.551407052808E-06 -0.282349547559E-07  0.385734577042E-06  0.100681665309E-05
 -0.400516835873E-04 -0.480358903054E-04 -0.628170280549E-04  0.177071507866E-03 -0.105975189349E-03 -0.508399199613E-04  0.325443010007E-03
  0.389488525781E-03 -0.101973330351E-03  0.141320201402E-03  0.688567432025E-04  0.242100815210E-03  0.131903024900E-03  0.580619613655E-04
  0.128123627523E-03  0.457217938961E-04  0.119364669532E-03  0.169507117893E-03  0.206927487500E-03  0.209472565636E-03  0.194292739810E-03
  0.287170311556E-03  0.209649808046E-03  0.219199565582E-03  0.192401636123E-03  0.167428512381E-03  0.316723239959E-03  0.215438247193E-03
  0.127899370662E-03  0.691274820752E-04  0.149401505806E-03  0.161544275807E-03  0.903611475882E-04
  0.150759352603E-03  0.446953620007E-03  0.708782061176E-03 -0.278885862462E-02  0.487420796799E-03 -0.524401328503E-02  0.308393329949E-03
 -0.197707163656E-03 -0.161760958655E-03 -0.253893412423E-02  0.277825320980E-03  0.490878484147E-03  0.249160397731E-03  0.163449124432E-03
  0.123318608642E-03  0.112988761008E-03  0.575298545040E-04  0.894114130444E-04  0.235879213593E-03  0.355218851284E-03  0.167332699980E-03
 -0.156465188611E-03 -0.166105999582E-02  0.220891601718E-03  0.426407769916E-03  0.203955963468E-03  0.232845099700E-03  0.543737648334E-03
  0.218549462035E-02  0.196474800239E-03  0.926776933074E-03  0.188259800422E-02  0.247804219395E-02
 -0.196325187685E-12 -0.203373354005E-11 -0.543804820262E-11 -0.288275480523E-09 -0.179669647134E-10 -0.569008203739E-09 -0.334536343145E-09
 -0.156605353180E-08 -0.670367216752E-10 -0.123949493127E-08 -0.243148461870E-10 -0.493177832369E-10  0.125611826194E-09  0.553528154491E-10
  0.185219981656E-10 -0.202770204576E-10 -0.324290120585E-10 -0.447242111871E-10 -0.114172329168E-09 -0.311095334188E-09 -0.100248373939E-09
 -0.104676004254E-08 -0.112486627818E-08 -0.413560391067E-09 -0.126098392315E-09 -0.611863174815E-10 -0.558382975915E-09 -0.270308583526E-09
 -0.144088044108E-09 -0.194424151476E-11 -0.346467263688E-10 -0.119702250754E-09 -0.559379310690E-10
        15         7        19        19
         8        20        19        19
        18        19        21        21
         7         4         8         8
         3         6         4         4
        19         7         8         8
        19        18        15        15
        14        13        15        15
         8        22        20        20
        27        24        22        22
        19        20        21        21
        32        26        21        21
        17        18        26        26
        17        16        15        15
        25        29        21        21
        12         7        13        13
        10         8         6         6
        25        20        24        24
         4         6         8         8
        12         2         4         4
        10        23        22        22
        26        31        17        17
        30        16        17        17
         4         7        12        12
        13        11        12        12
        21        20        25        25
        24        28        25        25
        22         8        10        10
         6         5        10        10
        31        26        32        32
         4         2         3         3
         5         6         3         3
        11        13        14        14
        22        23        27        27
        28        24        27        27
        15        13         7         7
         2        12         1         1
        29        25        33        33
        23        10         9         9
        21        26        18        18
        16        14        15        15
        18        17        15        15
        29        32        21        21
        22        24        20        20
        28        33        25        25
        11         1        12        12
        31        30        17        17
         5         9        10        10
zone t="boundary 3 bc-3", solutiontime= 0.6000000E+02, strandid=1003, i=33, j=48, f=feblock
  0.375000000000E+01  0.250000000000E+01  0.500000000000E+01  0.403552511878E+01  0.288078410721E+01  0.125000000000E+01  0.190974100652E+01
  0.500000000000E+01  0.326683758169E+01  0.423153924130E+01  0.201431602454E+01  0.000000000000E+00  0.963108083381E+00  0.500000000000E+01
  0.267000324704E+01  0.385533350601E+01  0.893127759452E+00  0.154774304040E+01  0.000000000000E+00  0.500000000000E+01  0.315249557942E+01
  0.218329375016E+01  0.398173246726E+01  0.000000000000E+00  0.698517061619E+00  0.964171764089E+00  0.125000000000E+01  0.000000000000E+00
  0.500000000000E+01  0.310324758057E+01  0.250000000000E+01  0.375000000000E+01  0.000000000000E+00
  0.250000000000E+01  0.250000000000E+01  0.250000000000E+01  0.250000000000E+01  0.250000000000E+01  0.250000000000E+01  0.250000000000E+01
  0.250000000000E+01  0.250000000000E+01  0.250000000000E+01  0.250000000000E+01  0.250000000000E+01  0.250000000000E+01  0.250000000000E+01
  0.250000000000E+01  0.250000000000E+01  0.250000000000E+01  0.250000000000E+01  0.250000000000E+01  0.250000000000E+01  0.250000000000E+01
  0.250000000000E+01  0.250000000000E+01  0.250000000000E+01  0.250000000000E+01  0.250000000000E+01  0.250000000000E+01  0.250000000000E+01
  0.250000000000E+01  0.250000000000E+01  0.250000000000E+01  0.250000000000E+01  0.250000000000E+01
  0.000000000000E+00  0.000000000000E+00  0.000000000000E+00  0.101201586758E+01  0.904659890645E+00  0.000000000000E+00  0.717002441913E+00
  0.125000000000E+01  0.188609243358E+01  0.191586535653E+01  0.176246431481E+01  0.000000000000E+00  0.961328577125E+00  0.250000000000E+01
  0.285047954584E+01  0.293121848150E+01  0.205246550326E+01  0.292817774674E+01  0.125000000000E+01  0.375000000000E+01  0.363585050272E+01
  0.395907379566E+01  0.406975391361E+01  0.250000000000E+01  0.306828197606E+01  0.397245519226E+01  0.500000000000E+01  0.375000000000E+01
  0.500000000000E+01  0.433168271247E+01  0.500000000000E+01  0.500000000000E+01  0.500000000000E+01
  0.000000000000E+00  0.000000000000E+00  0.000000000000E+00  0.443768049813E+00  0.402287063289E+00  0.000000000000E+00  0.377550015530E+00
  0.509231651017E+00  0.575830373842E+00  0.573705119893E+00  0.562552484917E+00  0.000000000000E+00  0.490560996922E+00  0.534526640478E+00
  0.556587161529E+00  0.564391003890E+00  0.522730520214E+00  0.522053035057E+00  0.441238864710E+00  0.517182885172E+00  0.524230081365E+00
  0.503688666615E+00  0.509490322369E+00  0.469815278546E+00  0.495614921017E+00  0.494483812152E+00  0.488562139423E+00  0.488960767301E+00
  0.492982637025E+00  0.499007441401E+00  0.486462299176E+00  0.484599832491E+00  0.495345969094E+00
  0.999989380190E+00  0.999989451040E+00  0.999989665041E+00  0.981541820811E+00  0.988773959065E+00  0.999989868921E+00  0.982469495615E+00
  0.984104107106E+00  0.990427340160E+00  0.990355127069E+00  0.994362617112E+00  0.999990335442E+00  0.988651707786E+00  0.100368299998E+01
  0.999769041194E+00  0.100118460274E+01  0.100834871539E+01  0.100252122579E+01  0.102982730935E+01  0.100443305346E+01  0.100199527495E+01
  0.100082072308E+01  0.100138208455E+01  0.100826302705E+01  0.100298818591E+01  0.100192398684E+01  0.100215265586E+01  0.100355656280E+01
  0.100047708080E+01  0.100056610141E+01  0.100126814609E+01  0.100066576236E+01  0.100179353455E+01
 -0.311849820279E-03 -0.155765885408E-04 -0.416369625723E-03  0.114301814127E-02  0.561770753215E-02  0.521027932284E-03  0.765110943872E-02
 -0.143915408029E-02 -0.842199993548E-03 -0.991750660976E-03  0.459390562192E-03  0.880212881217E-03  0.506314916353E-02 -0.781833479978E-03
 -0.772880022120E-03 -0.670046627641E-03 -0.437123310145E-03 -0.788723909433E-03  0.384029622610E-02 -0.552924657292E-03 -0.424586118069E-03
 -0.537459857163E-03 -0.426802212068E-03 -0.573734311888E-03 -0.750126330893E-03 -0.143134002294E-02 -0.467896979293E-02 -0.145466789662E-02
 -0.533360812019E-03 -0.664025349053E-03 -0.435632086305E-02 -0.234638970632E-02 -0.624228289237E-02
 -0.361912615823E-04 -0.503995692247E-04  0.990486471617E-04  0.479776125670E-03  0.836786914779E-03 -0.141786449247E-03  0.942783361965E-03
  0.256482977800E-03  0.554150800921E-04  0.156269102945E-03 -0.764971102598E-04  0.239179640050E-04  0.245347918437E-03  0.205352445449E-03
  0.479394083628E-04  0.123352314628E-03 -0.263687745851E-03 -0.517822638532E-04  0.532715690127E-03  0.136379436035E-03  0.131998864598E-03
  0.788069157511E-04  0.145896110244E-03 -0.181506619149E-03 -0.155996533245E-03 -0.177243114449E-03 -0.826145948952E-03 -0.323881726129E-03
  0.496285256191E-04  0.863254728184E-04 -0.667253797222E-03 -0.229315380207E-03 -0.128414988738E-02
 -0.785790757600E-05  0.187714461364E-05  0.132825577038E-04 -0.199588396208E-04 -0.745962450616E-04  0.458239097417E-04 -0.659950145420E-05
  0.211035045459E-05 -0.829979983820E-05  0.497089176028E-05 -0.104978720736E-05  0.457535154254E-04  0.676074262653E-04  0.490530232876E-05
  0.106916487055E-05  0.177587670804E-05 -0.216502369636E-04 -0.780694107427E-05  0.193519466379E-04  0.292713478160E-05  0.103015692541E-05
  0.715408495341E-05  0.276821467755E-06 -0.184197659834E-05 -0.595772306516E-05  0.203390019163E-05  0.248638513260E-05 -0.952247916540E-06
  0.105840865464E-05  0.331330229377E-07  0.603050235657E-06 -0.109772833871E-06  0.108534815315E-06
 -0.437092111158E-04 -0.976982575700E-04 -0.370912438873E-04  0.592775913038E-04  0.142409705850E-03 -0.123649265502E-03  0.103951816695E-03
  0.338242459237E-04  0.244794270415E-03  0.123704824533E-03  0.394657115597E-03 -0.220390662035E-03  0.148951961747E-03  0.546714947248E-04
  0.166845512236E-03  0.127811693181E-03  0.368601006870E-03  0.184342389840E-03 -0.177155665713E-03  0.537022417534E-04  0.161033520541E-03
  0.178167684322E-03  0.121891561530E-03  0.259690777904E-03  0.254258477609E-03  0.182675902217E-03  0.134110486539E-03  0.220447011231E-03
  0.624481752835E-04  0.162383214550E-03  0.161200470293E-03  0.145492315705E-03  0.853318023515E-04
  0.616286609372E-03  0.541635978932E-03  0.157188093055E-03 -0.709552319397E-03 -0.250274257713E-02  0.715919063979E-04 -0.326143262590E-02
  0.352283749447E-03  0.230692002281E-03  0.244994103678E-03 -0.186542962747E-03 -0.676046155279E-03 -0.196715791410E-02  0.147138887240E-03
  0.215901292752E-03  0.148416197900E-03  0.190776680586E-03  0.257999330648E-03 -0.158800209527E-02  0.108178042999E-03  0.683750338800E-04
  0.130648581372E-03  0.670667026812E-04  0.230564668415E-03  0.269356824714E-03  0.535213374692E-03  0.189045235898E-02  0.583124048528E-03
  0.150674418092E-03  0.173070854449E-03  0.172647479255E-02  0.877188985155E-03  0.259169489598E-02
 -0.462604744706E-11 -0.147950740769E-10 -0.194016397383E-11 -0.151795658542E-09 -0.246218376280E-09 -0.952114106655E-10 -0.181235987569E-08
 -0.356241512231E-10 -0.249719114779E-09  0.899999905733E-10 -0.112063302474E-08 -0.420224975479E-09 -0.219909983489E-08  0.229021988698E-10
 -0.942964861488E-10 -0.625849082222E-11 -0.747831601453E-09 -0.316661771409E-09 -0.683032217100E-09 -0.245299255101E-10 -0.500585147852E-10
 -0.806030453293E-10 -0.263259496079E-10 -0.370429197169E-09 -0.469270342630E-09 -0.131114160320E-09 -0.832321184887E-10 -0.313111288373E-09
 -0.492056911410E-11 -0.341291563447E-10 -0.540856245446E-10 -0.103107941186E-10 -0.606002668228E-10
        15         9        16        16
        15        18        11        11
        22        15        21        21
        11         5         9         9
         5         7         2         2
        11         9        15        15
        16        21        15        15
        16        10        14        14
        18        17        11        11
        17        25        24        24
        22        18        15        15
        22        30        31        31
        30        21        23        23
        16        20        23        23
        22        27        26        26
        10         9         4         4
         7        11        13        13
        25        18        26        26
        11         7         5         5
         5         1         4         4
        17        19        13        13
        23        32        30        30
        23        20        29        29
         4         9         5         5
         4         8        10        10
        26        18        22        22
        26        28        25        25
        13        11        17        17
        13         6         7         7
        31        30        32        32
         2         1         5         5
         2         7         6         6
        14        10         8         8
        24        19        17        17
        24        25        28        28
         9        10        16        16
         3         4         1         1
        33        26        27        27
        12        13        19        19
        21        30        22        22
        16        14        20        20
        16        23        21        21
        22        31        27        27
        18        25        17        17
        26        33        28        28
         4         3         8         8
        23        29        32        32
        13        12         6         6
zone t="boundary 4 bc-4", solutiontime= 0.6000000E+02, strandid=1004, i=32, j=46, f=feblock
  0.125000000000E+01  0.219251206392E+01  0.103724302461E+01  0.500000000000E+01  0.250000000000E+01  0.375000000000E+01  0.404200324774E+01
  0.500000000000E+01  0.000000000000E+00  0.310152362409E+01  0.202479342020E+01  0.324151231464E+01  0.922061490191E+00  0.000000000000E+00
  0.299062775774E+01  0.394624082883E+01  0.500000000000E+01  0.409252726285E+01  0.500000000000E+01  0.429310310915E+01  0.175434191980E+01
  0.284428995242E+01  0.000000000000E+00  0.000000000000E+00  0.715990576545E+00  0.930412228790E+00  0.125000000000E+01  0.187029682677E+01
  0.500000000000E+01  0.375000000000E+01  0.250000000000E+01  0.000000000000E+00
  0.250000000000E+01  0.157686156160E+01  0.146289271009E+01  0.250000000000E+01  0.250000000000E+01  0.250000000000E+01  0.155830813274E+01
  0.125000000000E+01  0.250000000000E+01  0.177790177481E+01  0.477386199275E+00  0.742988685424E+00  0.308372018325E+00  0.125000000000E+01
 -0.487811078581E+00 -0.144524380962E+01 -0.125000000000E+01 -0.345533899378E+00  0.000000000000E+00  0.627766083140E+00 -0.739814786992E+00
 -0.158811787973E+01  0.000000000000E+00 -0.125000000000E+01 -0.600232012419E+00 -0.154800130438E+01 -0.250000000000E+01 -0.178862290564E+01
 -0.250000000000E+01 -0.250000000000E+01 -0.250000000000E+01 -0.250000000000E+01
  0.500000000000E+01  0.500000000000E+01  0.500000000000E+01  0.500000000000E+01  0.500000000000E+01  0.500000000000E+01  0.500000000000E+01
  0.500000000000E+01  0.500000000000E+01  0.500000000000E+01  0.500000000000E+01  0.500000000000E+01  0.500000000000E+01  0.500000000000E+01
  0.500000000000E+01  0.500000000000E+01  0.500000000000E+01  0.500000000000E+01  0.500000000000E+01  0.500000000000E+01  0.500000000000E+01
  0.500000000000E+01  0.500000000000E+01  0.500000000000E+01  0.500000000000E+01  0.500000000000E+01  0.500000000000E+01  0.500000000000E+01
  0.500000000000E+01  0.500000000000E+01  0.500000000000E+01  0.500000000000E+01