# vtk DataFile Version 2.0
FUN3D:global_image_vtk
ASCII
DATASET UNSTRUCTURED_GRID
POINTS 213 double
    0.0000000000000000E+00    0.2500000000000000E+01    0.0000000000000000E+00
    0.1250000000000000E+01    0.2500000000000000E+01    0.0000000000000000E+00
    0.2500000000000000E+01    0.2500000000000000E+01    0.0000000000000000E+00
    0.3750000000000000E+01    0.2500000000000000E+01    0.0000000000000000E+00
    0.5000000000000000E+01    0.2500000000000000E+01    0.0000000000000000E+00
    0.5000000000000000E+01    0.1250000000000000E+01    0.0000000000000000E+00
    0.5000000000000000E+01    0.0000000000000000E+00    0.0000000000000000E+00
    0.5000000000000000E+01   -0.1250000000000000E+01    0.0000000000000000E+00
    0.5000000000000000E+01   -0.2500000000000000E+01    0.0000000000000000E+00
    0.3750000000000000E+01   -0.2500000000000000E+01    0.0000000000000000E+00
    0.2500000000000000E+01   -0.2500000000000000E+01    0.0000000000000000E+00
    0.1250000000000000E+01   -0.2500000000000000E+01    0.0000000000000000E+00
    0.0000000000000000E+00   -0.2500000000000000E+01    0.0000000000000000E+00
    0.0000000000000000E+00   -0.1250000000000000E+01    0.0000000000000000E+00
    0.0000000000000000E+00    0.0000000000000000E+00    0.0000000000000000E+00
    0.0000000000000000E+00    0.1250000000000000E+01    0.0000000000000000E+00
    0.9058375365086910E+00    0.1578994732800803E+01    0.0000000000000000E+00
    0.3982050490726493E+01   -0.1583989954232354E+01    0.0000000000000000E+00
    0.4033849428301197E+01    0.1453322699199022E+01    0.0000000000000000E+00
    0.1040505887381675E+01   -0.1479596339503735E+01    0.0000000000000000E+00
    0.1099454400140349E+01   -0.3227322616384110E+00    0.0000000000000000E+00
    0.7354504170366591E+00    0.6593508822075582E+00    0.0000000000000000E+00
    0.1622302608453282E+01    0.8256214013940779E+00    0.0000000000000000E+00
    0.2145871574390382E+01   -0.1650070333782557E+01    0.0000000000000000E+00
    0.4086422318222992E+01   -0.4612828702537229E+00    0.0000000000000000E+00
    0.2979540174134984E+01   -0.8579242121530853E+00    0.0000000000000000E+00
    0.3045064261640043E+01   -0.1836846154397680E+01    0.0000000000000000E+00
    0.3428197553792836E+01    0.3508002863614053E+00    0.0000000000000000E+00
    0.4309693860063405E+01    0.5185680230613409E+00    0.0000000000000000E+00
    0.1827272193562204E+01    0.1738996113203182E+01    0.0000000000000000E+00
    0.2808563282768077E+01    0.1325493893339706E+01    0.0000000000000000E+00
    0.1895995683864404E+01   -0.8731419609589618E+00    0.0000000000000000E+00
    0.2273179336307740E+01    0.4906150219227333E-01    0.0000000000000000E+00
    0.5000000000000000E+01    0.2500000000000000E+01    0.1250000000000000E+01
    0.5000000000000000E+01    0.2500000000000000E+01    0.2500000000000000E+01
    0.5000000000000000E+01    0.2500000000000000E+01    0.3750000000000000E+01
    0.5000000000000000E+01    0.2500000000000000E+01    0.5000000000000000E+01
    0.3750000000000000E+01    0.2500000000000000E+01    0.5000000000000000E+01
    0.2500000000000000E+01    0.2500000000000000E+01    0.5000000000000000E+01
    0.1250000000000000E+01    0.2500000000000000E+01    0.5000000000000000E+01
    0.0000000000000000E+00    0.2500000000000000E+01    0.5000000000000000E+01
    0.0000000000000000E+00    0.2500000000000000E+01    0.3750000000000000E+01
    0.0000000000000000E+00    0.2500000000000000E+01    0.2500000000000000E+01
    0.0000000000000000E+00    0.2500000000000000E+01    0.1250000000000000E+01
    0.9631080833812172E+00    0.2500000000000000E+01    0.9613285771248219E+00
    0.3981732467264904E+01    0.2500000000000000E+01    0.4069753913607991E+01
    0.4035525118777670E+01    0.2500000000000000E+01    0.1012015867579395E+01
    0.9641717640894248E+00    0.2500000000000000E+01    0.3972455192261839E+01
    0.1547743040396780E+01    0.2500000000000000E+01    0.2928177746738678E+01
    0.6985170616192014E+00    0.2500000000000000E+01    0.3068281976055466E+01
    0.8931277594515110E+00    0.2500000000000000E+01    0.2052465503257726E+01
    0.2183293750162785E+01    0.2500000000000000E+01    0.3959073795658649E+01
    0.3855333506014705E+01    0.2500000000000000E+01    0.2931218481500625E+01
    0.3152495579421047E+01    0.2500000000000000E+01    0.3635850502723324E+01
    0.3103247580566054E+01    0.2500000000000000E+01    0.4331682712472464E+01
    0.3266837581688852E+01    0.2500000000000000E+01    0.1886092433583972E+01
    0.4231539241296245E+01    0.2500000000000000E+01    0.1915865356532799E+01
    0.1909741006522088E+01    0.2500000000000000E+01    0.7170024419130505E+00
    0.2880784107213163E+01    0.2500000000000000E+01    0.9046598906449592E+00
    0.2014316024535771E+01    0.2500000000000000E+01    0.1762464314805728E+01
    0.2670003247036656E+01    0.2500000000000000E+01    0.2850479545835163E+01
    0.5000000000000000E+01    0.1250000000000000E+01    0.5000000000000000E+01
    0.5000000000000000E+01    0.0000000000000000E+00    0.5000000000000000E+01
    0.5000000000000000E+01   -0.1250000000000000E+01    0.5000000000000000E+01
    0.5000000000000000E+01   -0.2500000000000000E+01    0.5000000000000000E+01
    0.5000000000000000E+01   -0.2500000000000000E+01    0.3750000000000000E+01
    0.5000000000000000E+01   -0.2500000000000000E+01    0.2500000000000000E+01
    0.5000000000000000E+01   -0.2500000000000000E+01    0.1250000000000000E+01
    0.5000000000000000E+01    0.1578994732800803E+01    0.9058375365086910E+00
    0.5000000000000000E+01   -0.1583989954232354E+01    0.3982050490726493E+01
    0.5000000000000000E+01    0.1453322699199022E+01    0.4033849428301197E+01
    0.5000000000000000E+01   -0.1479596339503735E+01    0.1040505887381675E+01
    0.5000000000000000E+01   -0.3227322616384110E+00    0.1099454400140349E+01
    0.5000000000000000E+01    0.6593508822075582E+00    0.7354504170366591E+00
    0.5000000000000000E+01    0.8256214013940779E+00    0.1622302608453282E+01
    0.5000000000000000E+01   -0.1650070333782557E+01    0.2145871574390382E+01
    0.5000000000000000E+01   -0.4612828702537229E+00    0.4086422318222992E+01
    0.5000000000000000E+01   -0.8579242121530853E+00    0.2979540174134984E+01
    0.5000000000000000E+01   -0.1836846154397680E+01    0.3045064261640043E+01
    0.5000000000000000E+01    0.3508002863614053E+00    0.3428197553792836E+01
    0.5000000000000000E+01    0.5185680230613409E+00    0.4309693860063405E+01
    0.5000000000000000E+01    0.1738996113203182E+01    0.1827272193562204E+01
    0.5000000000000000E+01    0.1325493893339706E+01    0.2808563282768077E+01
    0.5000000000000000E+01   -0.8731419609589618E+00    0.1895995683864404E+01
    0.5000000000000000E+01    0.4906150219227333E-01    0.2273179336307740E+01
    0.0000000000000000E+00    0.1250000000000000E+01    0.5000000000000000E+01
    0.0000000000000000E+00    0.0000000000000000E+00    0.5000000000000000E+01
    0.0000000000000000E+00   -0.1250000000000000E+01    0.5000000000000000E+01
    0.0000000000000000E+00   -0.2500000000000000E+01    0.5000000000000000E+01
    0.1250000000000000E+01   -0.2500000000000000E+01    0.5000000000000000E+01
    0.2500000000000000E+01   -0.2500000000000000E+01    0.5000000000000000E+01
    0.3750000000000000E+01   -0.2500000000000000E+01    0.5000000000000000E+01
    0.4042003247744892E+01    0.1558308132739014E+01    0.5000000000000000E+01
    0.9304122287900499E+00   -0.1548001304379777E+01    0.5000000000000000E+01
    0.1037243024609388E+01    0.1462892710085612E+01    0.5000000000000000E+01
    0.3946240828834967E+01   -0.1445243809615570E+01    0.5000000000000000E+01
    0.4092527262848217E+01   -0.3455338993778935E+00    0.5000000000000000E+01
    0.4293103109154542E+01    0.6277660831404320E+00    0.5000000000000000E+01
    0.3241512314643519E+01    0.7429886854239611E+00    0.5000000000000000E+01
    0.2844289952419609E+01   -0.1588117879734118E+01    0.5000000000000000E+01
    0.7159905765450471E+00   -0.6002320124191652E+00    0.5000000000000000E+01
    0.1754341919796891E+01   -0.7398147869923652E+00    0.5000000000000000E+01
    0.1870296826774691E+01   -0.1788622905643739E+01    0.5000000000000000E+01
    0.9220614901912976E+00    0.3083720183248586E+00    0.5000000000000000E+01
    0.3101523624086016E+01    0.1777901774806180E+01    0.5000000000000000E+01
    0.2192512063922564E+01    0.1576861561598471E+01    0.5000000000000000E+01
    0.2024793420196460E+01    0.4773861992750707E+00    0.5000000000000000E+01
    0.2990627757741975E+01   -0.4878110785814084E+00    0.5000000000000000E+01
    0.0000000000000000E+00   -0.2500000000000000E+01    0.1250000000000000E+01
    0.0000000000000000E+00   -0.2500000000000000E+01    0.2500000000000000E+01
    0.0000000000000000E+00   -0.2500000000000000E+01    0.3750000000000000E+01
    0.0000000000000000E+00    0.1558308132739014E+01    0.4042003247744892E+01
    0.0000000000000000E+00   -0.1548001304379777E+01    0.9304122287900499E+00
    0.0000000000000000E+00    0.1462892710085612E+01    0.1037243024609388E+01
    0.0000000000000000E+00   -0.1445243809615570E+01    0.3946240828834967E+01
    0.0000000000000000E+00   -0.3455338993778935E+00    0.4092527262848217E+01
    0.0000000000000000E+00    0.6277660831404320E+00    0.4293103109154542E+01
    0.0000000000000000E+00    0.7429886854239611E+00    0.3241512314643519E+01
    0.0000000000000000E+00   -0.1588117879734118E+01    0.2844289952419609E+01
    0.0000000000000000E+00   -0.6002320124191652E+00    0.7159905765450471E+00
    0.0000000000000000E+00   -0.7398147869923652E+00    0.1754341919796891E+01
    0.0000000000000000E+00   -0.1788622905643739E+01    0.1870296826774691E+01
    0.0000000000000000E+00    0.3083720183248586E+00    0.9220614901912976E+00
    0.0000000000000000E+00    0.1777901774806180E+01    0.3101523624086016E+01
    0.0000000000000000E+00    0.1576861561598471E+01    0.2192512063922564E+01
[...]
POINT_DATA 213
SCALARS p double 1
LOOKUP_TABLE default
   0.9601855855076481E+00
   0.6835482513323693E+00
   0.6759190654405931E+00
   0.6727509326142239E+00
   0.6026580301547140E+00
   0.5527088821783619E+00
   0.5449820720848566E+00
   0.5474655332569912E+00
   0.5934152920752584E+00
   0.6680651416431024E+00
   0.6672973342417431E+00
   0.6869384699720872E+00
   0.1035320316386188E+01
   0.1067200879307855E+01
   0.1174754319859636E+01
   0.1018443767983991E+01
   0.7207189949256765E+00
   0.6791964028973964E+00
   0.6740292474401065E+00
   0.6843928082405285E+00
   0.6725556349312239E+00
   0.7402637213470981E+00
   0.6611486253400043E+00
   0.6658778838293721E+00
   0.6812432631406690E+00
   0.6799071584195414E+00
   0.6677515770268262E+00
   0.6831382946214083E+00
   0.6697149837056439E+00
   0.6643266691354189E+00
   0.6746471619229774E+00
   0.6331027567753821E+00
   0.6731069182423534E+00
   0.6772738394312164E+00
   0.7228656502230836E+00
   0.7222845009048797E+00
   0.7160306449107295E+00
   0.7170624729413261E+00
   0.7181467840482670E+00
   0.7195663072715682E+00
   0.7186154965073540E+00
   0.7227821162791622E+00
   0.7373956508588387E+00
   0.7823415323668257E+00
   0.7197267268651663E+00
   0.7165465048402825E+00
   0.6760934394443593E+00
   0.7194415067230765E+00
   0.7166030282098194E+00
   0.7226834300594981E+00
   0.7260679077855844E+00
   0.7165516403881987E+00
   0.7137005141026543E+00
   0.7161283600461565E+00
   0.7158477879250442E+00
   0.6952016011438118E+00
   0.6962503097694978E+00
   0.6900662985268753E+00
   0.6913088603229619E+00
   0.7033440284999098E+00
   0.7094475992980575E+00
   0.7160838993149884E+00
   0.7162557348760002E+00
   0.7165053624017095E+00
   0.7158931911621661E+00
   0.7247706647221335E+00
   0.7209587365146292E+00
   0.6725904411450551E+00
   0.6451077611776551E+00
   0.7221026437968380E+00
   0.7196943561844177E+00
   0.6358192506346262E+00
   0.6307815332561022E+00
   0.5995164665579940E+00
   0.6915331510218724E+00
   0.7155267410966296E+00
   0.7212041959560923E+00
   0.7290131894477455E+00
   0.7268947463288165E+00
   0.7265260912806083E+00
   0.7204474240923416E+00
   0.7037432128824576E+00
   0.7205066906329874E+00
   0.7023645670226014E+00
   0.7220876877985071E+00
   0.7185313780337624E+00
   0.7171997450718972E+00
   0.7176372475031848E+00
   0.7184010087160291E+00
   0.7193131847734032E+00
   0.7173679630564870E+00
   0.7166088852196372E+00
   0.7163146486492441E+00
   0.7184766079892196E+00
   0.7186512801042281E+00
   0.7154647270554760E+00
   0.7160687199089394E+00
   0.7162707759869497E+00
   0.7172829017547292E+00
   0.7174031824244541E+00
   0.7175450701029055E+00
   0.7186986467532098E+00
   0.7185412888825792E+00
   0.7180784296311059E+00
   0.7177506310533998E+00
   0.7184734769816149E+00
   0.7184295436328668E+00
   0.7175638752296429E+00
   0.7910447916121537E+00
   0.7417998001637577E+00
   0.7240569897706267E+00
   0.7207854218991786E+00
   0.8583189184805349E+00
   0.8087280708034443E+00
   0.7221083395728928E+00
   0.7211519427290642E+00
   0.7210138422731969E+00
   0.7257594585333386E+00
   0.7326287293961081E+00
   0.9166231764820798E+00
   0.7574566243300823E+00
   0.7600185935091457E+00
   0.8794486095730857E+00
   0.7291887898631074E+00
   0.7461263205621226E+00
   0.7435543662891166E+00
   0.7280652160392899E+00
   0.7236952008311179E+00
   0.7165804870104838E+00
   0.6757024543508289E+00
   0.7210109445194138E+00
   0.7177374683229040E+00
   0.7243733504434436E+00
   0.7309384017104807E+00
   0.7153766313542985E+00
   0.7126908408652384E+00
   0.7132987063768071E+00
   0.7154575129943563E+00
   0.6958113925641641E+00
   0.6940926117788181E+00
   0.6792012761148961E+00
   0.6842573998133459E+00
   0.7023438027781420E+00
   0.7064294036707508E+00
   0.7092516528372709E+00
   0.7176151528605844E+00
   0.7173907926624018E+00
   0.7117195769450418E+00
   0.7288331835955079E+00
   0.7352327514792442E+00
   0.7097529733600448E+00
   0.7230460147659318E+00
   0.7189791897708092E+00
   0.7231648255732889E+00
   0.7128302392816100E+00
   0.6918509477125817E+00
   0.7175393653389974E+00
   0.7113153222249043E+00
   0.6973276785771085E+00
   0.7095402573401899E+00
   0.7134565311350894E+00
   0.7078897989655768E+00
   0.7159199134364413E+00
   0.7175570424736381E+00
   0.7166974114593069E+00
   0.7110653937525050E+00
   0.7103506453925068E+00
   0.7187209087534775E+00
   0.7362206901760200E+00
   0.7210424010693803E+00
   0.6966938156683596E+00
   0.7191729578600400E+00
   0.7279742366698222E+00
   0.6957912732417099E+00
   0.6741413819683005E+00
   0.7020820630027617E+00
   0.7006029317730645E+00
   0.6996545710033736E+00
   0.7043405634214011E+00
   0.6875494859966300E+00
   0.7541453086877423E+00
   0.7257250050126036E+00
   0.7163730576653599E+00
   0.7164941955107474E+00
   0.7072977827402874E+00
   0.7062387301965692E+00
   0.6798330232475412E+00
   0.7081018174722645E+00
   0.7211938876062371E+00
   0.7177387867653539E+00
   0.7069474956878252E+00
   0.6847280450655066E+00
   0.6585988941331602E+00
   0.6907372989467379E+00
   0.6956026914364309E+00
   0.6931209807970310E+00
   0.6873766858828464E+00
   0.6731741247305421E+00
   0.6669550176967752E+00
   0.6793674967173741E+00
   0.7172157002513165E+00
   0.7168066014323552E+00
   0.7154499078203841E+00
   0.7175315261280909E+00
   0.6789121632334748E+00
   0.6691423832951328E+00
   0.6790153574828767E+00
   0.7156262414753479E+00
   0.7152941144485906E+00
   0.7168557068800977E+00
   0.6951126042801535E+00
   0.6910822042327219E+00
   0.6838693478853014E+00
SCALARS mach double 1
LOOKUP_TABLE default
   0.0000000000000000E+00
   0.0000000000000000E+00
   0.0000000000000000E+00
   0.0000000000000000E+00
   0.0000000000000000E+00
   0.0000000000000000E+00
   0.0000000000000000E+00
   0.0000000000000000E+00
   0.0000000000000000E+00
   0.0000000000000000E+00
   0.0000000000000000E+00
   0.0000000000000000E+00
   0.0000000000000000E+00
   0.0000000000000000E+00
   0.0000000000000000E+00
   0.0000000000000000E+00
   0.0000000000000000E+00
   0.0000000000000000E+00
   0.0000000000000000E+00
   0.0000000000000000E+00
   0.0000000000000000E+00
   0.0000000000000000E+00
   0.0000000000000000E+00
   0.0000000000000000E+00
   0.0000000000000000E+00
   0.0000000000000000E+00
   0.0000000000000000E+00
   0.0000000000000000E+00
   0.0000000000000000E+00
   0.0000000000000000E+00
   0.0000000000000000E+00
   0.0000000000000000E+00
   0.0000000000000000E+00
   0.5092316510168532E+00
   0.5345266404776648E+00
   0.5171828851720921E+00
   0.4929826370252322E+00
   0.4845998324913182E+00
   0.4864622991759207E+00
   0.4885621394231897E+00
   0.4953459690935934E+00
   0.4889607673012707E+00
   0.4698152785456368E+00
   0.4412388647100448E+00
   0.4905609969216747E+00
   0.5094903223686124E+00
   0.4437680498130006E+00
   0.4944838121517863E+00
   0.5220530350573086E+00
   0.4956149210170299E+00
   0.5227305202140524E+00
   0.5036886666153622E+00
   0.5643910038896021E+00
   0.5242300813645180E+00
   0.4990074414012426E+00
   0.5758303738416509E+00
   0.5737051198929585E+00
   0.3775500155300864E+00
   0.4022870632889253E+00
   0.5625524849171736E+00
   0.5565871615292035E+00
   0.4941652979855338E+00
   0.4947408786745459E+00
   0.4923972844266504E+00
   0.4913543934163693E+00
   0.5149948635124101E+00
   0.5370016217635344E+00
   0.5084597641947610E+00
   0.4720986603958183E+00
   0.5119119073712978E+00
   0.5110376819329546E+00
   0.4956045127080296E+00
   0.5103559851231473E+00
   0.4808056036974583E+00
   0.5354782659548123E+00
   0.5337779389647215E+00
   0.5120049583115521E+00
   0.5311732864573844E+00
   0.5295541635456147E+00
   0.5292772959870050E+00
   0.5056219939340821E+00
   0.5358284403341598E+00
   0.5407855099462324E+00
   0.5429789453437923E+00
   0.5391868994674877E+00
   0.4961270061892192E+00
   0.4972458006546554E+00
   0.4960586447183729E+00
   0.4950975512775713E+00
   0.4900024153259273E+00
   0.4900376778611031E+00
   0.4860781749296753E+00
   0.4853510563284309E+00
   0.4927997956853010E+00
   0.4905625259688459E+00
   0.4832229149675193E+00
   0.4872175951378949E+00
   0.4879622233654352E+00
   0.4870715677829097E+00
   0.4880308123569223E+00
   0.4949503983267451E+00
   0.4896774183086227E+00
   0.4900053939254863E+00
   0.4940452457447850E+00
   0.4865303852733456E+00
   0.4888740005613919E+00
   0.4878208686395141E+00
   0.4876145750240385E+00
   0.4436235194266633E+00
   0.4677329613932598E+00
   0.4882115793884091E+00
   0.4879292248317156E+00
   0.4647734088269067E+00
   0.4752123334176707E+00
   0.4869639565875085E+00
   0.4862855572929018E+00
   0.4902654037723445E+00
   0.4787141529717938E+00
   0.4643835229810739E+00
   0.4022996473074981E+00
   0.4892985478023369E+00
   0.4457206486634794E+00
   0.4688254599159187E+00
   0.4830679716623235E+00
   0.4601256000470797E+00
   0.4644134802602942E+00
   0.4737962426687884E+00
   0.5010537816969893E+00
   0.5082493841744837E+00
   0.4353727052320399E+00
   0.4921561057357283E+00
   0.5316578899790894E+00
   0.4906642790576541E+00
   0.5207955579331731E+00
   0.5059823499320911E+00
   0.5689216042718326E+00
   0.5272542723761932E+00
   0.5013926675767614E+00
   0.5852837126367495E+00
   0.5726376507831911E+00
   0.3436298463328737E+00
   0.3809916770709488E+00
   0.5793712749390237E+00
   0.5674461482962773E+00
   0.5707654255658438E+00
   0.5288682538964727E+00
   0.5447476935809443E+00
   0.5732728414810433E+00
   0.5383802069387510E+00
   0.5542539897125783E+00
   0.5870602581598063E+00
   0.4918966050482912E+00
   0.5038462103075564E+00
   0.4955073218517977E+00
   0.5581655046989648E+00
   0.4899042332644533E+00
   0.4947408023466994E+00
   0.5497815361407493E+00
   0.5912714812982772E+00
   0.5845138445807363E+00
   0.5465425247044330E+00
   0.5815205522585429E+00
   0.5103956940786284E+00
   0.5026524429128780E+00
   0.5030727922656476E+00
   0.5675215026827217E+00
   0.5563190594453725E+00
   0.4944371374416071E+00
   0.5523470321923036E+00
   0.5528913350063898E+00
   0.5690553633916968E+00
   0.4915647960354031E+00
   0.4913829270400852E+00
   0.3894726836890059E+00
   0.3711844399314070E+00
   0.5592878931079280E+00
   0.5784848378518291E+00
   0.4227804377643533E+00
   0.5854876613008011E+00
   0.4393465126488367E+00
   0.5443809298429667E+00
   0.5169017588681988E+00
   0.5115829927587559E+00
   0.5046291181083683E+00
   0.5758006058918661E+00
   0.5884484890205317E+00
   0.5427316557566564E+00
   0.5687390031666527E+00
   0.5341718551397686E+00
   0.5330412179680656E+00
   0.5585871919573722E+00
   0.5562731355700831E+00
   0.4330681806243675E+00
   0.5315643195228735E+00
   0.5812967124565261E+00
   0.3318898729995062E+00
   0.4786006762738896E+00
   0.5494637381644965E+00
   0.4851061196926674E+00
   0.3009035099971696E+00
   0.5029798725128979E+00
   0.5014733263950922E+00
   0.5126202708071802E+00
   0.5407118625145398E+00
   0.3456736097368517E+00
   0.3422980690068312E+00
   0.3204831628410802E+00
   0.5064090437287749E+00
   0.5121161214814719E+00
   0.5323895710813035E+00
   0.5909228094419223E+00
   0.4690168284869331E+00
   0.3541833525958678E+00
SCALARS temperature double 1
LOOKUP_TABLE default
   0.9999903354419442E+00
   0.9999898689205647E+00
   0.9999894510400693E+00
   0.9999893801902688E+00
   0.9999896650411060E+00
   0.9999903149781376E+00
   0.9999915203668054E+00
   0.9999928468985743E+00
   0.9999935119603561E+00
   0.9999937152598013E+00
   0.9999935703212824E+00
   0.9999931671422051E+00
   0.9999927536104490E+00
   0.9999922023317356E+00
   0.9999914538476085E+00
   0.9999907972221941E+00
   0.9999904103872144E+00
   0.9999934212757094E+00
   0.9999896369470583E+00
   0.9999925510879650E+00
   0.9999916801684354E+00
   0.9999909561694326E+00
   0.9999906199977006E+00
   0.9999931823322321E+00
   0.9999921699858075E+00
   0.9999927192043122E+00
   0.9999935059120917E+00
   0.9999905262668655E+00
   0.9999907171386887E+00
   0.9999898385468372E+00
   0.9999896592085086E+00
   0.9999923505495051E+00
   0.9999912666267794E+00
   0.9841041071060893E+00
   0.1003682999983998E+01
   0.1004433053458641E+01
   0.1000477080796083E+01
   0.1000665762355459E+01
   0.1001268146092536E+01
   0.1002152655857852E+01
   0.1001793534547652E+01
   0.1003556562795912E+01
   0.1008263027046866E+01
   0.1029827309347704E+01
   0.9886517077855711E+00
   0.1001382084548938E+01
   0.9815418208109841E+00
   0.1001923986838667E+01
   0.1002521225785721E+01
   0.1002988185910657E+01
   0.1008348715386544E+01
   0.1000820723079400E+01
   0.1001184602739037E+01
   0.1001995274948803E+01
   0.1000566101408254E+01
   0.9904273401599600E+00
   0.9903551270688233E+00
   0.9824694956149063E+00
   0.9887739590654973E+00
   0.9943626171121476E+00
   0.9997690411944444E+00
   0.1000504390234352E+01
   0.1000621968463506E+01
   0.1000829046622080E+01
   0.1000454696154763E+01
   0.1004852992884451E+01
   0.1002895677755084E+01
   0.9850916095724520E+00
   0.9764440656429175E+00
   0.1003879552495330E+01
   0.1003053353777527E+01
   0.9735158283848740E+00
   0.9715373647723621E+00
   0.9590424091687562E+00
   0.9912160311558307E+00
   0.1001285661326475E+01
   0.1003832283692312E+01
   0.1007638000393391E+01
   0.1005965003899548E+01
   0.1006629021486246E+01
   0.1003140701339287E+01
   0.9944290333582549E+00
   0.1003551346990672E+01
   0.9972161049224192E+00
   0.1005284557617575E+01
   0.1001688646753434E+01
   0.1001187487881275E+01
   0.1001341893380822E+01
   0.1001761283510027E+01
   0.1001926613549071E+01
   0.1001099882025656E+01
   0.1000587722603056E+01
   0.1000253737115933E+01
   0.1001798823401194E+01
   0.1001783504316859E+01
   0.1000008882343447E+01
   0.1000222846891846E+01
   0.1000235234197715E+01
   0.1000724341475849E+01
   0.1000988500557082E+01
   0.1001326510613484E+01
   0.1001746391750218E+01
   0.1001637483031526E+01
   0.1001643734432242E+01
   0.1001123623622594E+01
   0.1001526509550427E+01
   0.1001330480873259E+01
   0.1000962730846559E+01
   0.1040431874235100E+01
   0.1009767884549366E+01
   0.1004053696228779E+01
   0.1002443997740154E+01
   0.1032396916668706E+01
   0.1042471445190920E+01
   0.1003033932889598E+01
   0.1002349742243341E+01
   0.1002603077749414E+01
   0.1003005718453321E+01
   0.1006176282591543E+01
   0.1038911242721211E+01
   0.1027028486645174E+01
   0.1016572312524887E+01
   0.1025206009527876E+01
   0.1006055628645845E+01
   0.1011901676127853E+01
   0.1012529092191372E+01
   0.1004595612672385E+01
   0.9844111840563375E+00
   0.1001215722601365E+01
   0.9846891317483674E+00
   0.1002545081162788E+01
   0.1003500238250133E+01
   0.1003265410743760E+01
   0.1010932522196300E+01
   0.1000580890629382E+01
   0.9998551821576295E+00
   0.1000556394492431E+01
   0.1000456016748769E+01
   0.9898388396963076E+00
   0.9900584060845671E+00
   0.9855248386894119E+00
   0.9895391014648651E+00
   0.9917982597172328E+00
   0.9978967521710497E+00
   0.1000400665098202E+01
   0.1002928488754824E+01
   0.1005009240602284E+01
   0.1002279220189607E+01
   0.1013233438491736E+01
   0.1006635293626022E+01
   0.9925739088452749E+00
   0.1003435433866048E+01
   0.1001788548303899E+01
   0.1003349964558429E+01
   0.1001319118654575E+01
   0.9637831601817600E+00
   0.1001225521032244E+01
   0.1000902908696895E+01
   0.9928715321909369E+00
   0.9989547674349344E+00
   0.1001501152223985E+01
   0.9978124306319042E+00
   0.1000980367577530E+01
   0.1001573690667030E+01
   0.1001190440114208E+01
   0.1000788259793306E+01
   0.1000698707745252E+01
   0.1001334969412603E+01
   0.1010421100387482E+01
   0.1004072317823486E+01
   0.9935535173427384E+00
   0.1001859735875068E+01
   0.1006698329130213E+01
   0.9867961148559886E+00
   0.9881139509642985E+00
   0.9963581812076535E+00
   0.9943136310957997E+00
   0.9875207630284853E+00
   0.9926772818487601E+00
   0.9669777728248600E+00
   0.1017799936473287E+01
   0.9830460560490046E+00
   0.1001477051598620E+01
   0.1001159311543601E+01
   0.9989604763481039E+00
   0.9976211437751148E+00
   0.9864412373254599E+00
   0.9980017420843140E+00
   0.1003591443287340E+01
   0.1002874922721030E+01
   0.9988423948732169E+00
   0.9841137479587447E+00
   0.9789346932716478E+00
   0.9848203264474009E+00
   0.9942455071203830E+00
   0.9999509607358993E+00
   0.9900002013672592E+00
   0.9860936525722587E+00
   0.9832199553102067E+00
   0.9981606462560991E+00
   0.1001438729640102E+01
   0.1001055193268221E+01
   0.1001120204329873E+01
   0.1002862206389264E+01
   0.9892634071046780E+00
   0.9869749857591830E+00
   0.9918320399207636E+00
   0.1000754920930170E+01
   0.1000915434571680E+01
   0.1002438690650330E+01
   0.9922711175082849E+00
   0.9866562387926625E+00
   0.9943602880204375E+00
SCALARS lambda1 double 1
LOOKUP_TABLE default
  -0.1541121564876867E+00
  -0.9707045837230252E-01
  -0.3298727208429155E-01
   0.4383208855616945E-01
   0.7168113596781041E-01
   0.6331579819318697E-01
   0.8186867928370420E-01
   0.5349575403424311E-01
   0.6313362527165158E-01
   0.4979237290454521E-01
   0.3032810540585587E-01
  -0.5931522993686842E-01
  -0.7625190349592133E-01
  -0.4299976243717174E-01
  -0.1296850403187411E+00
  -0.1751080707123891E+00
  -0.1055037000025198E+00
   0.5688713604827474E-01
   0.6094038007286708E-01
  -0.4888346151633380E-01
  -0.3601032640903724E-01
  -0.8696254469893668E-01
  -0.3607408496944143E-01
  -0.1756334073468721E-02
   0.6601469119834733E-01
   0.6740775274433248E-02
   0.5628579444911985E-02
   0.2780516697362578E-01
   0.6670663702816504E-01
  -0.3943770642673294E-01
  -0.7039426926292753E-02
  -0.3549214757535964E-01
  -0.1496733297394587E-01
   0.2456970147292737E+00
   0.1169864962297684E+00
   0.7972008631367977E-01
   0.7553172542337783E-01
   0.3287285592894884E+00
   0.6062438711879342E+00
   0.6485366422423067E+00
   0.8610788195455543E+00
   0.2358668362243563E+00
   0.4356158071595890E-01
  -0.7804664358714165E+00
  -0.1058026050955613E+01
   0.6080492090819643E-01
  -0.4079907227547823E+00
   0.2114191358454637E+00
   0.1319045034044942E+00
   0.1127327868244776E+00
  -0.3309588777921316E-01
   0.7980949830184708E-01
   0.9633388408837608E-01
   0.5834330701524194E-01
   0.9287808408495273E-01
   0.1239419683252642E+00
   0.1544557714613445E+00
  -0.1557193320496048E+01
  -0.1564301090290043E+01
  -0.2613283690124744E+00
   0.1364534872600093E+00
   0.7520676632894878E-01
   0.6977602374270669E-01
   0.8501582602564525E-01
   0.8723292600813042E-01
   0.7493446748390330E-01
   0.1114254323200830E+00
   0.1660179448068562E+00
   0.3081009634566126E+00
   0.6122952744576485E-01
   0.6393500037181014E-01
   0.1117413648257793E+00
   0.1394433442492858E+00
   0.8873191143270656E-01
   0.1764004180621175E+00
   0.1285825352797207E+00
   0.5595291183617359E-01
   0.9572559719466101E-01
   0.9339517876234982E-01
   0.8203956129080102E-01
   0.5081695346347376E-01
   0.1563400933219745E+00
   0.1014729640032694E+00
   0.1370757894786173E+00
   0.1229952501450759E+00
   0.8907423416559070E+00
   0.9814390346106512E+00
   0.8658057165668318E+00
   0.8135531230701203E+00
   0.7319384245725178E+00
   0.6430549127935200E+00
   0.3343545049641920E+00
   0.2285820470400691E+00
   0.7314025316850267E+00
   0.6460037773477142E+00
   0.2198877332921178E+00
   0.2800644684399690E+00
   0.2799019172617359E+00
   0.4734970801611507E+00
   0.5021765127902841E+00
   0.9124679974998910E+00
   0.8319616666359635E+00
   0.7739224274018565E+00
   0.7875940621609044E+00
   0.5038314796913038E+00
   0.6288344180939380E+00
   0.6758782558431192E+00
   0.5337255440044681E+00
  -0.6090671371895934E+00
   0.8875754586773815E-01
   0.1749446658101880E+00
   0.2364236028170233E+00
  -0.9641814546092700E+00
  -0.1246410394525661E+01
   0.1591992520399166E+00
   0.2047337420477230E+00
   0.3068540000138232E+00
   0.1776194363432262E+00
   0.1097465016182769E+00
  -0.1497795312662046E+01
  -0.7781224843411702E-01
  -0.4461117637486053E-01