title="tecplot geometry and solution file"
variables = x y z mach temperature lambda1 lambda2 lambda3 lambda4 lambda5 lambda6
zone t="boundary 1 bc-1", solutiontime= 0.5000000E+02, strandid=1001, i=32, j=46, f=feblock
  0.000000000000E+00  0.000000000000E+00  0.000000000000E+00  0.000000000000E+00  0.000000000000E+00  0.000000000000E+00  0.000000000000E+00
  0.000000000000E+00  0.000000000000E+00  0.000000000000E+00  0.000000000000E+00  0.000000000000E+00  0.000000000000E+00  0.000000000000E+00
  0.000000000000E+00  0.000000000000E+00  0.000000000000E+00  0.000000000000E+00  0.000000000000E+00  0.000000000000E+00  0.000000000000E+00
  0.000000000000E+00  0.000000000000E+00  0.000000000000E+00  0.000000000000E+00  0.000000000000E+00  0.000000000000E+00  0.000000000000E+00
  0.000000000000E+00  0.000000000000E+00  0.000000000000E+00  0.000000000000E+00
  0.250000000000E+01  0.250000000000E+01  0.125000000000E+01  0.146289271009E+01  0.157686156160E+01  0.308372018325E+00  0.000000000000E+00
 -0.125000000000E+01 -0.600232012419E+00  0.250000000000E+01  0.477386199275E+00  0.742988685424E+00 -0.739814786992E+00  0.177790177481E+01
  0.155830813274E+01  0.250000000000E+01 -0.250000000000E+01 -0.154800130438E+01 -0.487811078581E+00  0.250000000000E+01  0.627766083140E+00
 -0.345533899378E+00 -0.178862290564E+01 -0.158811787973E+01  0.125000000000E+01 -0.250000000000E+01 -0.144524380962E+01  0.000000000000E+00
 -0.125000000000E+01 -0.250000000000E+01 -0.250000000000E+01 -0.250000000000E+01
  0.000000000000E+00  0.125000000000E+01  0.000000000000E+00  0.103724302461E+01  0.219251206392E+01  0.922061490191E+00  0.000000000000E+00
  0.000000000000E+00  0.715990576545E+00  0.250000000000E+01  0.202479342020E+01  0.324151231464E+01  0.175434191980E+01  0.310152362409E+01
  0.404200324774E+01  0.375000000000E+01  0.000000000000E+00  0.930412228790E+00  0.299062775774E+01  0.500000000000E+01  0.429310310915E+01
  0.409252726285E+01  0.187029682677E+01  0.284428995242E+01  0.500000000000E+01  0.125000000000E+01  0.394624082883E+01  0.500000000000E+01
  0.500000000000E+01  0.250000000000E+01  0.375000000000E+01  0.500000000000E+01
  0.000000000000E+00  0.441238864710E+00  0.000000000000E+00  0.475212333418E+00  0.460125600047E+00  0.468825459916E+00  0.000000000000E+00
  0.000000000000E+00  0.402299647307E+00  0.469815278546E+00  0.464413480260E+00  0.478714152972E+00  0.489298547802E+00  0.483067971662E+00
  0.487929224832E+00  0.488960767301E+00  0.000000000000E+00  0.464773408827E+00  0.473796242669E+00  0.495345969094E+00  0.490265403772E+00
  0.486285557293E+00  0.445720648663E+00  0.464383522981E+00  0.496127006189E+00  0.443623519427E+00  0.486963956588E+00  0.497245800655E+00
  0.496058644718E+00  0.467732961393E+00  0.488211579388E+00  0.495097551278E+00
  0.999990335442E+00  0.102982730935E+01  0.999990797222E+00  0.104247144519E+01  0.101190167613E+01  0.102520600953E+01  0.999991453848E+00
  0.999992202332E+00  0.103891124272E+01  0.100826302705E+01  0.101252909219E+01  0.100300571845E+01  0.102702848665E+01  0.100605562865E+01
  0.100244399774E+01  0.100355656280E+01  0.999992753610E+00  0.103239691667E+01  0.100459561267E+01  0.100179353455E+01  0.100260307775E+01
  0.100234974224E+01  0.101657231252E+01  0.100617628259E+01  0.100168864675E+01  0.104043187424E+01  0.100303393289E+01  0.100118748788E+01
  0.100134189338E+01  0.100976788455E+01  0.100405369623E+01  0.100176128351E+01
  0.880212860931E-03  0.384029615234E-02  0.115887021549E-02  0.731430818126E-02  0.129979482105E-03  0.114768504961E-01  0.106467420279E-02
  0.387017597143E-03  0.133149101366E-01 -0.573734282099E-03  0.680993238176E-03 -0.121884359449E-02  0.129586021070E-02 -0.648296586267E-03
 -0.157683746493E-02 -0.145466784706E-02  0.480640536073E-03  0.754673123434E-02 -0.949092654538E-03 -0.624228334609E-02 -0.219760792141E-02
 -0.154199679894E-02  0.420439165790E-03 -0.828009503613E-03 -0.646337979288E-02  0.405234021506E-02 -0.124144908239E-02 -0.717737256190E-02
 -0.635672628728E-02 -0.647141419412E-03 -0.136464179235E-02 -0.597017951295E-02
  0.239179630374E-04  0.532715668875E-03  0.531755233121E-04  0.900602257935E-03 -0.477012456685E-04  0.176845956997E-02  0.837694168354E-04
  0.627883161849E-04  0.203982233766E-02 -0.181506611847E-03  0.625175839949E-04 -0.256225637871E-03  0.104571745591E-03 -0.188069049945E-03
 -0.310567313722E-03 -0.323881712708E-03  0.445422441600E-04  0.117438397511E-02 -0.187194220102E-03 -0.128414995703E-02 -0.436560615636E-03
 -0.294495361356E-03 -0.219779941568E-04 -0.159226691943E-03 -0.135341700664E-02  0.493093514902E-03 -0.244674805627E-03 -0.150708686031E-02
 -0.132951784364E-02 -0.167309551874E-03 -0.289763286142E-03 -0.124142879648E-02
  0.457535152105E-04  0.193519464234E-04  0.563521204356E-04  0.202199519682E-03  0.433142515528E-04  0.139655834742E-03  0.770864956699E-04
 -0.209917287105E-04  0.193538903298E-04 -0.184197634712E-05  0.398880691697E-04  0.479979929018E-04 -0.395284944353E-04  0.203179023964E-04
  0.124014315281E-05 -0.952246020721E-06 -0.322086017024E-04 -0.178984198110E-03  0.183686557726E-04  0.108536035601E-06  0.661899208120E-05
  0.555832137757E-05 -0.145565026323E-04 -0.271817625515E-04  0.218887610868E-04 -0.184809216893E-04 -0.969745291164E-05  0.386993040681E-05
 -0.110222311766E-04 -0.467506553595E-05 -0.133043311926E-05  0.100681610685E-05
 -0.220390658017E-03 -0.177155640162E-03 -0.275356335410E-03  0.272470814131E-04  0.246913845925E-03  0.324156074432E-03 -0.188777458249E-03
 -0.171796103267E-03  0.300648127862E-03  0.259690786315E-03  0.556885938532E-03  0.292452446143E-03  0.661951984407E-03  0.253120345028E-03
  0.194558781554E-03  0.220447027857E-03 -0.101973329779E-03  0.198145309812E-03  0.355099815689E-03  0.853317994133E-04  0.187172439890E-03
  0.230392102586E-03  0.408120834387E-03  0.285782344676E-03  0.817417679601E-04  0.209649798770E-03  0.211172629202E-03  0.774913877623E-04
  0.929014270986E-04  0.316723233391E-03  0.215438266634E-03  0.903611488401E-04
 -0.676046137821E-03 -0.158800206212E-02 -0.109944542358E-02 -0.292290794904E-02 -0.587397007153E-04 -0.476935623263E-02  0.101683678966E-03
  0.175837150315E-03 -0.555080331306E-02  0.230564654829E-03 -0.301053549937E-03  0.474738827544E-03 -0.544303101678E-03  0.253050196641E-03
  0.627422253206E-03  0.583124024824E-03 -0.161760950635E-03 -0.315031304743E-02  0.348667084546E-03  0.259169508670E-02  0.887188453160E-03
  0.610579749952E-03 -0.200889923464E-03  0.295411242027E-03  0.268811258111E-02 -0.166106020086E-02  0.485991110971E-03  0.299373724938E-02
  0.264536044918E-02  0.232845099390E-03  0.543737605658E-03  0.247804232972E-02
 -0.420224947435E-09 -0.683031889435E-09 -0.503444205313E-09 -0.175434955226E-08 -0.455930208331E-09 -0.306498032445E-09  0.405689410459E-09
  0.955513293118E-10  0.108476971453E-07 -0.370429139957E-09 -0.168475167464E-08 -0.740847180422E-09 -0.127025057369E-08 -0.504756959649E-09
 -0.178606082388E-09 -0.313111276752E-09 -0.670367257656E-10  0.187751877666E-08 -0.838578308256E-09 -0.606002559009E-10 -0.941983154156E-10
 -0.161318221035E-09 -0.868693647241E-09 -0.705064571781E-09 -0.334755247779E-11 -0.112486578960E-08 -0.194155762841E-09  0.381858602730E-10
 -0.445442337965E-11 -0.558382955938E-09 -0.270308622859E-09 -0.559379383314E-10
        12        19        11        11
        11         5        12        12
        10        14         5         5
        19        13        11        11
        19        24        13        13
        30        23        24        24
        19        12        22        22
        28        22        21        21
        11        13         6         6
         7         6         9         9
        15        12        14        14
        18        13        23        23
        15        25        21        21
        27        19        22        22
        18         8         9         9
        27        31        24        24
         4        11         6         6
         5        14        12        12
         4         2         5         5
        21        12        15        15
        14        16        15        15
        24        19        27        27
        22        29        27        27
        23        26        18        18
        17         8        18        18
         5        11         4         4
         6         3         4         4
        26        23        30        30
         5         2        10        10
        16        14        10        10
         3         6         7         7
        21        25        28        28
        29        22        28        28
         6        13         9         9
         2         4         1         1
        31        27        32        32
        25        15        20        20
        24        23        13        13
         8         7         9         9
        13        18         9         9
        31        30        24        24
        12        21        22        22
        29        32        27        27
         3         1         4         4
        26        17        18        18
        16        20        15        15
zone t="boundary 2 bc-2", solutiontime= 0.5000000E+02, strandid=1002, i=33, j=48, f=feblock
  0.500000000000E+01  0.375000000000E+01  0.250000000000E+01  0.288078410721E+01  0.125000000000E+01  0.190974100652E+01  0.326683758169E+01
  0.201431602454E+01  0.000000000000E+00  0.963108083381E+00  0.500000000000E+01  0.403552511878E+01  0.423153924130E+01  0.500000000000E+01
  0.385533350601E+01  0.500000000000E+01  0.398173246726E+01  0.315249557942E+01  0.267000324704E+01  0.154774304040E+01  0.218329375016E+01
  0.893127759452E+00  0.000000000000E+00  0.698517061619E+00  0.964171764089E+00  0.310324758057E+01  0.000000000000E+00  0.000000000000E+00
  0.125000000000E+01  0.500000000000E+01  0.375000000000E+01  0.250000000000E+01  0.000000000000E+00
 -0.250000000000E+01 -0.250000000000E+01 -0.250000000000E+01 -0.250000000000E+01 -0.250000000000E+01 -0.250000000000E+01 -0.250000000000E+01
 -0.250000000000E+01 -0.250000000000E+01 -0.250000000000E+01 -0.250000000000E+01 -0.250000000000E+01 -0.250000000000E+01 -0.250000000000E+01
 -0.250000000000E+01 -0.250000000000E+01 -0.250000000000E+01 -0.250000000000E+01 -0.250000000000E+01 -0.250000000000E+01 -0.250000000000E+01
 -0.250000000000E+01 -0.250000000000E+01 -0.250000000000E+01 -0.250000000000E+01 -0.250000000000E+01 -0.250000000000E+01 -0.250000000000E+01
 -0.250000000000E+01 -0.250000000000E+01 -0.250000000000E+01 -0.250000000000E+01 -0.250000000000E+01
  0.000000000000E+00  0.000000000000E+00  0.000000000000E+00  0.904659890645E+00  0.000000000000E+00  0.717002441913E+00  0.188609243358E+01
  0.176246431481E+01  0.000000000000E+00  0.961328577125E+00  0.125000000000E+01  0.101201586758E+01  0.191586535653E+01  0.250000000000E+01
  0.293121848150E+01  0.375000000000E+01  0.406975391361E+01  0.363585050272E+01  0.285047954584E+01  0.292817774674E+01  0.395907379566E+01
  0.205246550326E+01  0.125000000000E+01  0.306828197606E+01  0.397245519226E+01  0.433168271247E+01  0.250000000000E+01  0.375000000000E+01
  0.500000000000E+01  0.500000000000E+01  0.500000000000E+01  0.500000000000E+01  0.500000000000E+01
  0.000000000000E+00  0.000000000000E+00  0.000000000000E+00  0.380991677071E+00  0.000000000000E+00  0.343629846333E+00  0.585283712637E+00
  0.579371274939E+00  0.000000000000E+00  0.501053781697E+00  0.508459764195E+00  0.435372705232E+00  0.572637650783E+00  0.537001621764E+00
  0.568921604272E+00  0.514994863512E+00  0.508249384174E+00  0.527254272376E+00  0.567446148296E+00  0.531657889979E+00  0.505982349932E+00
  0.520795557933E+00  0.443623519427E+00  0.490664279058E+00  0.492156105736E+00  0.501392667577E+00  0.467732961393E+00  0.488211579388E+00
  0.490002415326E+00  0.491354393416E+00  0.486078174930E+00  0.490037677861E+00  0.495097551278E+00
  0.999993511960E+00  0.999993715260E+00  0.999993570321E+00  0.989539101465E+00  0.999993167142E+00  0.985524838689E+00  0.989838839696E+00
  0.991798259717E+00  0.999992753610E+00  0.984411184056E+00  0.985091609572E+00  0.984689131748E+00  0.990058406085E+00  0.100289567776E+01
  0.999855182158E+00  0.100485299288E+01  0.100121572260E+01  0.100055639449E+01  0.997896752171E+00  0.100350023825E+01  0.100058089063E+01
  0.101093252220E+01  0.104043187424E+01  0.100326541074E+01  0.100254508116E+01  0.100045601675E+01  0.100976788455E+01  0.100405369623E+01
  0.100192661355E+01  0.100045469615E+01  0.100058772260E+01  0.100109988203E+01  0.100176128351E+01
 -0.504802353356E-03 -0.375570923171E-03 -0.814406148555E-04  0.625766838618E-02  0.409135158077E-03  0.124199769913E-01 -0.100038811079E-02
  0.462459922361E-03  0.480640536073E-03  0.613476822897E-02 -0.128949413290E-02 -0.155348783465E-02 -0.995528391360E-03 -0.851274383407E-03
 -0.617886834976E-03 -0.558936048322E-03 -0.411534633154E-03 -0.478969840151E-03 -0.824563325591E-03 -0.101667941894E-02 -0.619874888870E-03
  0.348845614974E-03  0.405234021506E-02 -0.669886635636E-03 -0.116279326542E-02 -0.743668840583E-03 -0.647141419412E-03 -0.136464179235E-02
 -0.537750534802E-02 -0.649346500106E-03 -0.246896152340E-02 -0.473330250906E-02 -0.597017951295E-02
  0.134436135534E-03 -0.434614412284E-04 -0.107997785259E-04  0.970689037249E-03 -0.580921101036E-04  0.138462717887E-02 -0.313130633662E-04
 -0.643765552208E-04  0.445422441600E-04  0.715053161601E-03  0.293305124870E-03 -0.278574923345E-04  0.134126999990E-03  0.217473135920E-03
  0.136288451911E-03  0.131214783709E-03  0.154605034573E-03  0.126041335358E-03  0.274700989287E-04 -0.105839779610E-03  0.520684355237E-04
 -0.455662517879E-04  0.493093514902E-03 -0.548731646374E-04 -0.137871420833E-03  0.742579022663E-04 -0.167309551874E-03 -0.289763286142E-03
 -0.969206738796E-03  0.320434507687E-04 -0.248988369004E-03 -0.737768927523E-03 -0.124142879648E-02
 -0.326309926193E-04  0.120905348982E-04  0.436614750766E-04  0.131000418472E-03  0.249051472128E-04  0.131496425192E-03 -0.164398127919E-04
 -0.190665461068E-05 -0.322086017024E-04  0.459207566601E-04 -0.202351344048E-04 -0.603626876771E-04  0.998084357442E-06  0.156992854713E-05
  0.169689536612E-05 -0.267466481246E-05  0.431339938380E-06 -0.175080453010E-05  0.310854106496E-05  0.505968673105E-05 -0.334590994933E-05
  0.455479901589E-05 -0.184809216893E-04 -0.394806738491E-07 -0.608299869628E-06 -0.125771595703E-05 -0.467506553595E-05 -0.133043311926E-05
 -0.604497120642E-06 -0.551407037913E-06 -0.282351087223E-07  0.385734907566E-06  0.100681610685E-05
 -0.400516842593E-04 -0.480358903451E-04 -0.628170261852E-04  0.177071507652E-03 -0.105975190640E-03 -0.508399174227E-04  0.325443000873E-03
  0.389488520763E-03 -0.101973329779E-03  0.141320193938E-03  0.688567422975E-04  0.242100777947E-03  0.131903023849E-03  0.580619607815E-04
  0.128123626990E-03  0.457217942636E-04  0.119364668758E-03  0.169507118720E-03  0.206927484592E-03  0.209472570826E-03  0.194292739355E-03
  0.287170324857E-03  0.209649798770E-03  0.219199570938E-03  0.192401644080E-03  0.167428510893E-03  0.316723233391E-03  0.215438266634E-03
  0.127899369891E-03  0.691274823670E-04  0.149401506956E-03  0.161544277774E-03  0.903611488401E-04
  0.150759341693E-03  0.446953614614E-03  0.708782063630E-03 -0.278885863065E-02  0.487420795334E-03 -0.524401335303E-02  0.308393286962E-03
 -0.197707189479E-03 -0.161760950635E-03 -0.253893413027E-02  0.277825344549E-03  0.490878277792E-03  0.249160444687E-03  0.163449117513E-03
  0.123318614839E-03  0.112988758200E-03  0.575298601896E-04  0.894114138743E-04  0.235879228018E-03  0.355218813150E-03  0.167332670161E-03
 -0.156465110993E-03 -0.166106020086E-02  0.220891572580E-03  0.426407746765E-03  0.203955949663E-03  0.232845099390E-03  0.543737605658E-03
  0.218549470268E-02  0.196474803233E-03  0.926776935599E-03  0.188259799283E-02  0.247804232972E-02
 -0.196325289455E-12 -0.203373581870E-11 -0.543804928935E-11 -0.288275538153E-09 -0.179669660129E-10 -0.569008244850E-09 -0.334536357704E-09
 -0.156605356924E-08 -0.670367257656E-10 -0.123949492937E-08 -0.243148588629E-10 -0.493178645022E-10  0.125611818308E-09  0.553528235693E-10
  0.185219990122E-10 -0.202770200606E-10 -0.324290104176E-10 -0.447242182055E-10 -0.114172343967E-09 -0.311095371454E-09 -0.100248379078E-09
 -0.104676001124E-08 -0.112486578960E-08 -0.413560454336E-09 -0.126098413473E-09 -0.611863128644E-10 -0.558382955938E-09 -0.270308622859E-09
 -0.144088037541E-09 -0.194424009806E-11 -0.346467211033E-10 -0.119702235894E-09 -0.559379383314E-10
        15         7        19        19
         8        20        19        19
        18        19        21        21
         7         4         8         8
         3         6         4         4
        19         7         8         8
        19        18        15        15
        14        13        15        15
         8        22        20        20
        27        24        22        22
        19        20        21        21
        32        26        21        21
        17        18        26        26
        17        16        15        15
        25        29        21        21
        12         7        13        13
        10         8         6         6
        25        20        24        24
         4         6         8         8
        12         2         4         4
        10        23        22        22
        26        31        17        17
        30        16        17        17
         4         7        12        12
        13        11        12        12
        21        20        25        25
        24        28        25        25
        22         8        10        10
         6         5        10        10
        31        26        32        32
         4         2         3         3
         5         6         3         3
        11        13        14        14
        22        23        27        27
        28        24        27        27
        15        13         7         7
         2        12         1         1
        29        25        33        33
        23        10         9         9
        21        26        18        18
        16        14        15        15
        18        17        15        15
        29        32        21        21
        22        24        20        20
        28        33        25        25
        11         1        12        12
        31        30        17        17
         5         9        10        10
zone t="boundary 3 bc-3", solutiontime= 0.5000000E+02, strandid=1003, i=33, j=48, f=feblock
  0.375000000000E+01  0.250000000000E+01  0.500000000000E+01  0.403552511878E+01  0.288078410721E+01  0.125000000000E+01  0.190974100652E+01
  0.500000000000E+01  0.326683758169E+01  0.423153924130E+01  0.201431602454E+01  0.000000000000E+00  0.963108083381E+00  0.500000000000E+01
  0.267000324704E+01  0.385533350601E+01  0.893127759452E+00  0.154774304040E+01  0.000000000000E+00  0.500000000000E+01  0.315249557942E+01
  0.218329375016E+01  0.398173246726E+01  0.000000000000E+00  0.698517061619E+00  0.964171764089E+00  0.125000000000E+01  0.000000000000E+00
  0.500000000000E+01  0.310324758057E+01  0.250000000000E+01  0.375000000000E+01  0.000000000000E+00
  0.250000000000E+01  0.250000000000E+01  0.250000000000E+01  0.250000000000E+01  0.250000000000E+01  0.250000000000E+01  0.250000000000E+01
  0.250000000000E+01  0.250000000000E+01  0.250000000000E+01  0.250000000000E+01  0.250000000000E+01  0.250000000000E+01  0.250000000000E+01
  0.250000000000E+01  0.250000000000E+01  0.250000000000E+01  0.250000000000E+01  0.250000000000E+01  0.250000000000E+01  0.250000000000E+01
  0.250000000000E+01  0.250000000000E+01  0.250000000000E+01  0.250000000000E+01  0.250000000000E+01  0.250000000000E+01  0.250000000000E+01
  0.250000000000E+01  0.250000000000E+01  0.250000000000E+01  0.250000000000E+01  0.250000000000E+01
  0.000000000000E+00  0.000000000000E+00  0.000000000000E+00  0.101201586758E+01  0.904659890645E+00  0.000000000000E+00  0.717002441913E+00
  0.125000000000E+01  0.188609243358E+01  0.191586535653E+01  0.176246431481E+01  0.000000000000E+00  0.961328577125E+00  0.250000000000E+01
  0.285047954584E+01  0.293121848150E+01  0.205246550326E+01  0.292817774674E+01  0.125000000000E+01  0.375000000000E+01  0.363585050272E+01
  0.395907379566E+01  0.406975391361E+01  0.250000000000E+01  0.306828197606E+01  0.397245519226E+01  0.500000000000E+01  0.375000000000E+01
  0.500000000000E+01  0.433168271247E+01  0.500000000000E+01  0.500000000000E+01  0.500000000000E+01
  0.000000000000E+00  0.000000000000E+00  0.000000000000E+00  0.443768049813E+00  0.402287063289E+00  0.000000000000E+00  0.377550015530E+00
  0.509231651017E+00  0.575830373842E+00  0.573705119893E+00  0.562552484917E+00  0.000000000000E+00  0.490560996922E+00  0.534526640478E+00
  0.556587161529E+00  0.564391003890E+00  0.522730520214E+00  0.522053035057E+00  0.441238864710E+00  0.517182885172E+00  0.524230081365E+00
  0.503688666615E+00  0.509490322369E+00  0.469815278546E+00  0.495614921017E+00  0.494483812152E+00  0.488562139423E+00  0.488960767301E+00
  0.492982637025E+00  0.499007441401E+00  0.486462299176E+00  0.484599832491E+00  0.495345969094E+00
  0.999989380190E+00  0.999989451040E+00  0.999989665041E+00  0.981541820811E+00  0.988773959065E+00  0.999989868921E+00  0.982469495615E+00
  0.984104107106E+00  0.990427340160E+00  0.990355127069E+00  0.994362617112E+00  0.999990335442E+00  0.988651707786E+00  0.100368299998E+01
  0.999769041194E+00  0.100118460274E+01  0.100834871539E+01  0.100252122579E+01  0.102982730935E+01  0.100443305346E+01  0.100199527495E+01
  0.100082072308E+01  0.100138208455E+01  0.100826302705E+01  0.100298818591E+01  0.100192398684E+01  0.100215265586E+01  0.100355656280E+01
  0.100047708080E+01  0.100056610141E+01  0.100126814609E+01  0.100066576236E+01  0.100179353455E+01
 -0.311849809161E-03 -0.155765870138E-04 -0.416369627077E-03  0.114301831974E-02  0.561770747705E-02  0.521027927729E-03  0.765110941384E-02
 -0.143915411016E-02 -0.842199961080E-03 -0.991750699449E-03  0.459390613499E-03  0.880212860931E-03  0.506314897846E-02 -0.781833479187E-03
 -0.772880043737E-03 -0.670046627590E-03 -0.437123315451E-03 -0.788723879418E-03  0.384029615234E-02 -0.552924656756E-03 -0.424586133355E-03
 -0.537459821705E-03 -0.426802232056E-03 -0.573734282099E-03 -0.750126375809E-03 -0.143134002815E-02 -0.467896986759E-02 -0.145466784706E-02
 -0.533360820016E-03 -0.664025326406E-03 -0.435632091530E-02 -0.234638968853E-02 -0.624228334609E-02
 -0.361912611692E-04 -0.503995690567E-04  0.990486456564E-04  0.479776133998E-03  0.836786868030E-03 -0.141786442884E-03  0.942783329188E-03
  0.256482970376E-03  0.554150913616E-04  0.156269092356E-03 -0.764971045126E-04  0.239179630374E-04  0.245347850821E-03  0.205352447641E-03
  0.479394085559E-04  0.123352317207E-03 -0.263687751760E-03 -0.517822528903E-04  0.532715668875E-03  0.136379437021E-03  0.131998863230E-03
  0.788069264197E-04  0.145896106795E-03 -0.181506611847E-03 -0.155996534559E-03 -0.177243112828E-03 -0.826145989534E-03 -0.323881712708E-03
  0.496285248900E-04  0.863254800557E-04 -0.667253796851E-03 -0.229315374740E-03 -0.128414995703E-02
 -0.785790722493E-05  0.187714479462E-05  0.132825571157E-04 -0.199588388563E-04 -0.745962425886E-04  0.458239101242E-04 -0.659950193963E-05
  0.211035046808E-05 -0.829980076831E-05  0.497089223360E-05 -0.104978805350E-05  0.457535152105E-04  0.676074305196E-04  0.490530234999E-05
  0.106916463237E-05  0.177587664222E-05 -0.216502313585E-04 -0.780694033588E-05  0.193519464234E-04  0.292713466687E-05  0.103015703190E-05
  0.715408456074E-05  0.276821459882E-06 -0.184197634712E-05 -0.595772264265E-05  0.203390090287E-05  0.248638505846E-05 -0.952246020721E-06
  0.105840860410E-05  0.331330342594E-07  0.603049463832E-06 -0.109772787184E-06  0.108536035601E-06
 -0.437092129789E-04 -0.976982564912E-04 -0.370912429544E-04  0.592775852046E-04  0.142409716569E-03 -0.123649265514E-03  0.103951824961E-03
  0.338242492502E-04  0.244794270762E-03  0.123704824150E-03  0.394657122211E-03 -0.220390658017E-03  0.148951968961E-03  0.546714945754E-04
  0.166845512895E-03  0.127811692676E-03  0.368601007233E-03  0.184342396253E-03 -0.177155640162E-03  0.537022420968E-04  0.161033519699E-03
  0.178167686430E-03  0.121891561713E-03  0.259690786315E-03  0.254258488218E-03  0.182675910073E-03  0.134110492899E-03  0.220447027857E-03
  0.624481753124E-04  0.162383214762E-03  0.161200470922E-03  0.145492317606E-03  0.853317994133E-04
  0.616286606436E-03  0.541635979560E-03  0.157188097535E-03 -0.709552390799E-03 -0.250274254837E-02  0.715919023237E-04 -0.326143261097E-02
  0.352283763090E-03  0.230691985936E-03  0.244994120634E-03 -0.186542985629E-03 -0.676046137821E-03 -0.196715782955E-02  0.147138885992E-03
  0.215901300484E-03  0.148416196753E-03  0.190776683184E-03  0.257999316481E-03 -0.158800206212E-02  0.108178042326E-03  0.683750396012E-04
  0.130648564920E-03  0.670667107104E-04  0.230564654829E-03  0.269356843635E-03  0.535213375102E-03  0.189045239481E-02  0.583124024824E-03
  0.150674421086E-03  0.173070843533E-03  0.172647481306E-02  0.877188976556E-03  0.259169508670E-02
 -0.462604750725E-11 -0.147950739337E-10 -0.194016407037E-11 -0.151795660518E-09 -0.246218373907E-09 -0.952114081752E-10 -0.181235982820E-08
 -0.356241579568E-10 -0.249719148605E-09  0.899999870987E-10 -0.112063307353E-08 -0.420224947435E-09 -0.219909959231E-08  0.229022045866E-10
 -0.942965014999E-10 -0.625848624726E-11 -0.747831519394E-09 -0.316661793004E-09 -0.683031889435E-09 -0.245299256006E-10 -0.500585174388E-10
 -0.806030494124E-10 -0.263259495305E-10 -0.370429139957E-09 -0.469270319993E-09 -0.131114162510E-09 -0.832321194319E-10 -0.313111276752E-09
 -0.492056894084E-11 -0.341291562256E-10 -0.540856216712E-10 -0.103107939019E-10 -0.606002559009E-10
        15         9        16        16
        15        18        11        11
        22        15        21        21
        11         5         9         9
         5         7         2         2
        11         9        15        15
        16        21        15        15
        16        10        14        14
        18        17        11        11
        17        25        24        24
        22        18        15        15
        22        30        31        31
        30        21        23        23
        16        20        23        23
        22        27        26        26
        10         9         4         4
         7        11        13        13
        25        18        26        26
        11         7         5         5
         5         1         4         4
        17        19        13        13
        23        32        30        30
        23        20        29        29
         4         9         5         5
         4         8        10        10
        26        18        22        22
        26        28        25        25
        13        11        17        17
        13         6         7         7
        31        30        32        32
         2         1         5         5
         2         7         6         6
        14        10         8         8
        24        19        17        17
        24        25        28        28
         9        10        16        16
         3         4         1         1
        33        26        27        27
        12        13        19        19
        21        30        22        22
        16        14        20        20
        16        23        21        21
        22        31        27        27
        18        25        17        17
        26        33        28        28
         4         3         8         8
        23        29        32        32
        13        12         6         6
zone t="boundary 4 bc-4", solutiontime= 0.5000000E+02, strandid=1004, i=32, j=46, f=feblock
  0.125000000000E+01  0.219251206392E+01  0.103724302461E+01  0.500000000000E+01  0.250000000000E+01  0.375000000000E+01  0.404200324774E+01
  0.500000000000E+01  0.000000000000E+00  0.310152362409E+01  0.202479342020E+01  0.324151231464E+01  0.922061490191E+00  0.000000000000E+00
  0.299062775774E+01  0.394624082883E+01  0.500000000000E+01  0.409252726285E+01  0.500000000000E+01  0.429310310915E+01  0.175434191980E+01
  0.284428995242E+01  0.000000000000E+00  0.000000000000E+00  0.715990576545E+00  0.930412228790E+00  0.125000000000E+01  0.187029682677E+01
  0.500000000000E+01  0.375000000000E+01  0.250000000000E+01  0.000000000000E+00
  0.250000000000E+01  0.157686156160E+01  0.146289271009E+01  0.250000000000E+01  0.250000000000E+01  0.250000000000E+01  0.155830813274E+01
  0.125000000000E+01  0.250000000000E+01  0.177790177481E+01  0.477386199275E+00  0.742988685424E+00  0.308372018325E+00  0.125000000000E+01
 -0.487811078581E+00 -0.144524380962E+01 -0.125000000000E+01 -0.345533899378E+00  0.000000000000E+00  0.627766083140E+00 -0.739814786992E+00
 -0.158811787973E+01  0.000000000000E+00 -0.125000000000E+01 -0.600232012419E+00 -0.154800130438E+01 -0.250000000000E+01 -0.178862290564E+01
 -0.250000000000E+01 -0.250000000000E+01 -0.250000000000E+01 -0.250000000000E+01
  0.500000000000E+01  0.500000000000E+01  0.500000000000E+01  0.500000000000E+01  0.500000000000E+01  0.500000000000E+01  0.500000000000E+01
  0.500000000000E+01  0.500000000000E+01  0.500000000000E+01  0.500000000000E+01  0.500000000000E+01  0.500000000000E+01  0.500000000000E+01
  0.500000000000E+01  0.500000000000E+01  0.500000000000E+01  0.500000000000E+01  0.500000000000E+01  0.500000000000E+01  0.500000000000E+01
  0.500000000000E+01  0.500000000000E+01  0.500000000000E+01  0.500000000000E+01  0.500000000000E+01  0.500000000000E+01  0.500000000000E+01
  0.500000000000E+01  0.500000000000E+01  0.500000000000E+01  0.500000000000E+01