TITLE="Adjoint Convergence History"
VARIABLES="Iteration" "R_1" "R_2" "R_3" "R_4" "R_5" "R_6" "Simulation_Time"
ZONE I=6 F=POINT
1  0.7699147503E-03  0.1224917764E-03  0.4115704912E-05  0.1681233239E-04  0.4435309948E-03  0.0000000000E+00  0.1022400000E+01
2  0.4714896967E-03  0.1017342663E-03  0.2953500814E-04  0.7047396337E-04  0.2206515403E-03  0.8738095880E-10  0.3053600000E+01
3  0.3558017898E-03  0.6316395989E-04  0.1478878006E-04  0.3313532067E-04  0.1677979232E-03  0.9384963401E-10  0.5083700000E+01
4  0.2658883321E-03  0.4959963464E-04  0.1035950538E-04  0.1762034589E-04  0.1245936059E-03  0.7636232065E-10  0.7112400000E+01
5  0.1951929241E-03  0.3874286945E-04  0.6675981432E-05  0.1490649090E-04  0.9264952923E-04  0.5808475543E-10  0.9141300000E+01
6  0.1416955806E-03  0.2942452564E-04  0.4446710902E-05  0.1098901263E-04  0.6717192725E-04  0.4376199691E-10  0.1117130000E+02
