title="tecplot geometry and solution file"
variables = x y z mach temperature lambda1 lambda2 lambda3 lambda4 lambda5 lambda6
zone t="boundary 1 bc-1", solutiontime= 0.7000000E+02, strandid=1001, i=32, j=46, f=feblock
  0.000000000000E+00  0.000000000000E+00  0.000000000000E+00  0.000000000000E+00  0.000000000000E+00  0.000000000000E+00  0.000000000000E+00
  0.000000000000E+00  0.000000000000E+00  0.000000000000E+00  0.000000000000E+00  0.000000000000E+00  0.000000000000E+00  0.000000000000E+00
  0.000000000000E+00  0.000000000000E+00  0.000000000000E+00  0.000000000000E+00  0.000000000000E+00  0.000000000000E+00  0.000000000000E+00
  0.000000000000E+00  0.000000000000E+00  0.000000000000E+00  0.000000000000E+00  0.000000000000E+00  0.000000000000E+00  0.000000000000E+00
  0.000000000000E+00  0.000000000000E+00  0.000000000000E+00  0.000000000000E+00
  0.250000000000E+01  0.250000000000E+01  0.125000000000E+01  0.146289271009E+01  0.157686156160E+01  0.308372018325E+00  0.000000000000E+00
 -0.125000000000E+01 -0.600232012419E+00  0.250000000000E+01  0.477386199275E+00  0.742988685424E+00 -0.739814786992E+00  0.177790177481E+01
  0.155830813274E+01  0.250000000000E+01 -0.250000000000E+01 -0.154800130438E+01 -0.487811078581E+00  0.250000000000E+01  0.627766083140E+00
 -0.345533899378E+00 -0.178862290564E+01 -0.158811787973E+01  0.125000000000E+01 -0.250000000000E+01 -0.144524380962E+01  0.000000000000E+00
 -0.125000000000E+01 -0.250000000000E+01 -0.250000000000E+01 -0.250000000000E+01
  0.000000000000E+00  0.125000000000E+01  0.000000000000E+00  0.103724302461E+01  0.219251206392E+01  0.922061490191E+00  0.000000000000E+00
  0.000000000000E+00  0.715990576545E+00  0.250000000000E+01  0.202479342020E+01  0.324151231464E+01  0.175434191980E+01  0.310152362409E+01
  0.404200324774E+01  0.375000000000E+01  0.000000000000E+00  0.930412228790E+00  0.299062775774E+01  0.500000000000E+01  0.429310310915E+01
  0.409252726285E+01  0.187029682677E+01  0.284428995242E+01  0.500000000000E+01  0.125000000000E+01  0.394624082883E+01  0.500000000000E+01
  0.500000000000E+01  0.250000000000E+01  0.375000000000E+01  0.500000000000E+01
  0.000000000000E+00  0.441238864710E+00  0.000000000000E+00  0.475212333418E+00  0.460125600047E+00  0.468825459916E+00  0.000000000000E+00
  0.000000000000E+00  0.402299647307E+00  0.469815278546E+00  0.464413480260E+00  0.478714152972E+00  0.489298547802E+00  0.483067971662E+00
  0.487929224832E+00  0.488960767301E+00  0.000000000000E+00  0.464773408827E+00  0.473796242669E+00  0.495345969094E+00  0.490265403772E+00
  0.486285557293E+00  0.445720648663E+00  0.464383522981E+00  0.496127006189E+00  0.443623519427E+00  0.486963956588E+00  0.497245800655E+00
  0.496058644718E+00  0.467732961393E+00  0.488211579388E+00  0.495097551278E+00
  0.999990335442E+00  0.102982730935E+01  0.999990797222E+00  0.104247144519E+01  0.101190167613E+01  0.102520600953E+01  0.999991453848E+00
  0.999992202332E+00  0.103891124272E+01  0.100826302705E+01  0.101252909219E+01  0.100300571845E+01  0.102702848665E+01  0.100605562865E+01
  0.100244399774E+01  0.100355656280E+01  0.999992753610E+00  0.103239691667E+01  0.100459561267E+01  0.100179353455E+01  0.100260307775E+01
  0.100234974224E+01  0.101657231252E+01  0.100617628259E+01  0.100168864675E+01  0.104043187424E+01  0.100303393289E+01  0.100118748788E+01
  0.100134189338E+01  0.100976788455E+01  0.100405369623E+01  0.100176128351E+01
  0.880212881408E-03  0.384029622598E-02  0.115887021586E-02  0.731430815673E-02  0.129979431082E-03  0.114768502276E-01  0.106467416767E-02
  0.387017618480E-03  0.133149099985E-01 -0.573734311339E-03  0.680993309333E-03 -0.121884341424E-02  0.129586015226E-02 -0.648296631654E-03
 -0.157683771586E-02 -0.145466789551E-02  0.480640550239E-03  0.754673184418E-02 -0.949092474346E-03 -0.624228287669E-02 -0.219760860739E-02
 -0.154199746957E-02  0.420439089248E-03 -0.828009544629E-03 -0.646337893846E-02  0.405233969880E-02 -0.124144922004E-02 -0.717737116474E-02
 -0.635672593306E-02 -0.647141412945E-03 -0.136464189230E-02 -0.597017917263E-02
  0.239179640358E-04  0.532715690378E-03  0.531755269163E-04  0.900602261518E-03 -0.477012583893E-04  0.176845951593E-02  0.837694185640E-04
  0.627883167259E-04  0.203982232975E-02 -0.181506619142E-03  0.625175954271E-04 -0.256225602573E-03  0.104571736821E-03 -0.188069060655E-03
 -0.310567355594E-03 -0.323881726286E-03  0.445422408364E-04  0.117438407889E-02 -0.187194182322E-03 -0.128414988362E-02 -0.436560771928E-03
 -0.294495533014E-03 -0.219780137559E-04 -0.159226695501E-03 -0.135341684853E-02  0.493093407983E-03 -0.244674811144E-03 -0.150708657971E-02
 -0.132951779304E-02 -0.167309556824E-03 -0.289763295954E-03 -0.124142876723E-02
  0.457535153966E-04  0.193519466498E-04  0.563521253468E-04  0.202199545232E-03  0.433142496215E-04  0.139655863822E-03  0.770864950855E-04
 -0.209917326584E-04  0.193539033701E-04 -0.184197660984E-05  0.398880637144E-04  0.479979892323E-04 -0.395284938714E-04  0.203179014130E-04
  0.124014260897E-05 -0.952247975785E-06 -0.322086018816E-04 -0.178984222363E-03  0.183686504306E-04  0.108534759337E-06  0.661897156973E-05
  0.555832300165E-05 -0.145564867263E-04 -0.271817556409E-04  0.218887657434E-04 -0.184809233754E-04 -0.969744112103E-05  0.386992635099E-05
 -0.110222318785E-04 -0.467506515825E-05 -0.133043216660E-05  0.100681668427E-05
 -0.220390662114E-03 -0.177155666162E-03 -0.275356336112E-03  0.272470708110E-04  0.246913841518E-03  0.324156064338E-03 -0.188777452917E-03
 -0.171796107020E-03  0.300648103982E-03  0.259690777492E-03  0.556885934135E-03  0.292452471877E-03  0.661951960141E-03  0.253120350339E-03
  0.194558779897E-03  0.220447011028E-03 -0.101973330361E-03  0.198145323553E-03  0.355099823978E-03  0.853318022171E-04  0.187172402233E-03
  0.230392075760E-03  0.408120840866E-03  0.285782351985E-03  0.817417516448E-04  0.209649807883E-03  0.211172625021E-03  0.774913558198E-04
  0.929014171134E-04  0.316723239963E-03  0.215438246798E-03  0.903611473869E-04
 -0.676046155416E-03 -0.158800209527E-02 -0.109944542394E-02 -0.292290793993E-02 -0.587396773826E-04 -0.476935612323E-02  0.101683700888E-03
  0.175837130480E-03 -0.555080325669E-02  0.230564668230E-03 -0.301053577466E-03  0.474738750380E-03 -0.544303077030E-03  0.253050216239E-03
  0.627422361875E-03  0.583124048143E-03 -0.161760958905E-03 -0.315031329676E-02  0.348667008022E-03  0.259169488923E-02  0.887188755196E-03
  0.610580048554E-03 -0.200889890573E-03  0.295411259075E-03  0.268811222328E-02 -0.166105998549E-02  0.485991167449E-03  0.299373665875E-02
  0.264536030022E-02  0.232845097732E-03  0.543737650410E-03  0.247804218985E-02
 -0.420224975808E-09 -0.683032220613E-09 -0.503444210468E-09 -0.175434984479E-08 -0.455930277367E-09 -0.306498128118E-09  0.405689390151E-09
  0.955513302073E-10  0.108476968299E-07 -0.370429198116E-09 -0.168475173229E-08 -0.740847213771E-09 -0.127025060687E-08 -0.504756987002E-09
 -0.178606100660E-09 -0.313111288809E-09 -0.670367206742E-10  0.187751892215E-08 -0.838578303171E-09 -0.606002673197E-10 -0.941983760226E-10
 -0.161318248571E-09 -0.868693749869E-09 -0.705064514910E-09 -0.334761876168E-11 -0.112486629620E-08 -0.194155741699E-09  0.381857607886E-10
 -0.445444968868E-11 -0.558382977669E-09 -0.270308582814E-09 -0.559379311437E-10
        12        19        11        11
        11         5        12        12
        10        14         5         5
        19        13        11        11
        19        24        13        13
        30        23        24        24
        19        12        22        22
        28        22        21        21
        11        13         6         6
         7         6         9         9
        15        12        14        14
        18        13        23        23
        15        25        21        21
        27        19        22        22
        18         8         9         9
        27        31        24        24
         4        11         6         6
         5        14        12        12
         4         2         5         5
        21        12        15        15
        14        16        15        15
        24        19        27        27
        22        29        27        27
        23        26        18        18
        17         8        18        18
         5        11         4         4
         6         3         4         4
        26        23        30        30
         5         2        10        10
        16        14        10        10
         3         6         7         7
        21        25        28        28
        29        22        28        28
         6        13         9         9
         2         4         1         1
        31        27        32        32
        25        15        20        20
        24        23        13        13
         8         7         9         9
        13        18         9         9
        31        30        24        24
        12        21        22        22
        29        32        27        27
         3         1         4         4
        26        17        18        18
        16        20        15        15
zone t="boundary 2 bc-2", solutiontime= 0.7000000E+02, strandid=1002, i=33, j=48, f=feblock
  0.500000000000E+01  0.375000000000E+01  0.250000000000E+01  0.288078410721E+01  0.125000000000E+01  0.190974100652E+01  0.326683758169E+01
  0.201431602454E+01  0.000000000000E+00  0.963108083381E+00  0.500000000000E+01  0.403552511878E+01  0.423153924130E+01  0.500000000000E+01
  0.385533350601E+01  0.500000000000E+01  0.398173246726E+01  0.315249557942E+01  0.267000324704E+01  0.154774304040E+01  0.218329375016E+01
  0.893127759452E+00  0.000000000000E+00  0.698517061619E+00  0.964171764089E+00  0.310324758057E+01  0.000000000000E+00  0.000000000000E+00
  0.125000000000E+01  0.500000000000E+01  0.375000000000E+01  0.250000000000E+01  0.000000000000E+00
 -0.250000000000E+01 -0.250000000000E+01 -0.250000000000E+01 -0.250000000000E+01 -0.250000000000E+01 -0.250000000000E+01 -0.250000000000E+01
 -0.250000000000E+01 -0.250000000000E+01 -0.250000000000E+01 -0.250000000000E+01 -0.250000000000E+01 -0.250000000000E+01 -0.250000000000E+01
 -0.250000000000E+01 -0.250000000000E+01 -0.250000000000E+01 -0.250000000000E+01 -0.250000000000E+01 -0.250000000000E+01 -0.250000000000E+01
 -0.250000000000E+01 -0.250000000000E+01 -0.250000000000E+01 -0.250000000000E+01 -0.250000000000E+01 -0.250000000000E+01 -0.250000000000E+01
 -0.250000000000E+01 -0.250000000000E+01 -0.250000000000E+01 -0.250000000000E+01 -0.250000000000E+01
  0.000000000000E+00  0.000000000000E+00  0.000000000000E+00  0.904659890645E+00  0.000000000000E+00  0.717002441913E+00  0.188609243358E+01
  0.176246431481E+01  0.000000000000E+00  0.961328577125E+00  0.125000000000E+01  0.101201586758E+01  0.191586535653E+01  0.250000000000E+01
  0.293121848150E+01  0.375000000000E+01  0.406975391361E+01  0.363585050272E+01  0.285047954584E+01  0.292817774674E+01  0.395907379566E+01
  0.205246550326E+01  0.125000000000E+01  0.306828197606E+01  0.397245519226E+01  0.433168271247E+01  0.250000000000E+01  0.375000000000E+01
  0.500000000000E+01  0.500000000000E+01  0.500000000000E+01  0.500000000000E+01  0.500000000000E+01
  0.000000000000E+00  0.000000000000E+00  0.000000000000E+00  0.380991677071E+00  0.000000000000E+00  0.343629846333E+00  0.585283712637E+00
  0.579371274939E+00  0.000000000000E+00  0.501053781697E+00  0.508459764195E+00  0.435372705232E+00  0.572637650783E+00  0.537001621764E+00
  0.568921604272E+00  0.514994863512E+00  0.508249384174E+00  0.527254272376E+00  0.567446148296E+00  0.531657889979E+00  0.505982349932E+00
  0.520795557933E+00  0.443623519427E+00  0.490664279058E+00  0.492156105736E+00  0.501392667577E+00  0.467732961393E+00  0.488211579388E+00
  0.490002415326E+00  0.491354393416E+00  0.486078174930E+00  0.490037677861E+00  0.495097551278E+00
  0.999993511960E+00  0.999993715260E+00  0.999993570321E+00  0.989539101465E+00  0.999993167142E+00  0.985524838689E+00  0.989838839696E+00
  0.991798259717E+00  0.999992753610E+00  0.984411184056E+00  0.985091609572E+00  0.984689131748E+00  0.990058406085E+00  0.100289567776E+01
  0.999855182158E+00  0.100485299288E+01  0.100121572260E+01  0.100055639449E+01  0.997896752171E+00  0.100350023825E+01  0.100058089063E+01
  0.101093252220E+01  0.104043187424E+01  0.100326541074E+01  0.100254508116E+01  0.100045601675E+01  0.100976788455E+01  0.100405369623E+01
  0.100192661355E+01  0.100045469615E+01  0.100058772260E+01  0.100109988203E+01  0.100176128351E+01
 -0.504802368084E-03 -0.375570923864E-03 -0.814405981149E-04  0.625766837667E-02  0.409135154518E-03  0.124199768246E-01 -0.100038821044E-02
  0.462459867530E-03  0.480640550239E-03  0.613476821148E-02 -0.128949407849E-02 -0.155348832323E-02 -0.995528282800E-03 -0.851274400499E-03
 -0.617886817445E-03 -0.558936055272E-03 -0.411534619331E-03 -0.478969836340E-03 -0.824563285931E-03 -0.101667949771E-02 -0.619874960892E-03
  0.348845815584E-03  0.405233969880E-02 -0.669886697074E-03 -0.116279332618E-02 -0.743668875256E-03 -0.647141412945E-03 -0.136464189230E-02
 -0.537750515755E-02 -0.649346491801E-03 -0.246896151428E-02 -0.473330252841E-02 -0.597017917263E-02
  0.134436138363E-03 -0.434614467715E-04 -0.107997769242E-04  0.970689027471E-03 -0.580921099464E-04  0.138462716656E-02 -0.313130904939E-04
 -0.643765758769E-04  0.445422408364E-04  0.715053161212E-03  0.293305139415E-03 -0.278576006616E-04  0.134127030310E-03  0.217473132353E-03
  0.136288453613E-03  0.131214782487E-03  0.154605037790E-03  0.126041335994E-03  0.274700986553E-04 -0.105839817034E-03  0.520684266876E-04
 -0.455662274424E-04  0.493093407983E-03 -0.548731886240E-04 -0.137871419903E-03  0.742578994985E-04 -0.167309556824E-03 -0.289763295954E-03
 -0.969206702587E-03  0.320434515497E-04 -0.248988371175E-03 -0.737768945513E-03 -0.124142876723E-02
 -0.326309911669E-04  0.120905370135E-04  0.436614766085E-04  0.131000416765E-03  0.249051452403E-04  0.131496422805E-03 -0.164398146787E-04
 -0.190665596486E-05 -0.322086018816E-04  0.459207547844E-04 -0.202351341743E-04 -0.603626922028E-04  0.998085521780E-06  0.156992851491E-05
  0.169689577137E-05 -0.267466500922E-05  0.431340174392E-06 -0.175080458141E-05  0.310854157716E-05  0.505968596807E-05 -0.334591082687E-05
  0.455479841198E-05 -0.184809233754E-04 -0.394830073050E-07 -0.608299943758E-06 -0.125771599292E-05 -0.467506515825E-05 -0.133043216660E-05
 -0.604496515662E-06 -0.551407051197E-06 -0.282349497526E-07  0.385734563992E-06  0.100681668427E-05
 -0.400516835789E-04 -0.480358902908E-04 -0.628170281213E-04  0.177071507906E-03 -0.105975189320E-03 -0.508399198934E-04  0.325443010436E-03
  0.389488526003E-03 -0.101973330361E-03  0.141320201390E-03  0.688567432117E-04  0.242100816750E-03  0.131903024945E-03  0.580619613924E-04
  0.128123627587E-03  0.457217938775E-04  0.119364669554E-03  0.169507117931E-03  0.206927487612E-03  0.209472565673E-03  0.194292739725E-03
  0.287170311239E-03  0.209649807883E-03  0.219199565642E-03  0.192401635955E-03  0.167428512359E-03  0.316723239963E-03  0.215438246798E-03
  0.127899370670E-03  0.691274820747E-04  0.149401505797E-03  0.161544275821E-03  0.903611473869E-04
  0.150759352993E-03  0.446953620242E-03  0.708782061108E-03 -0.278885862422E-02  0.487420796796E-03 -0.524401328358E-02  0.308393331798E-03
 -0.197707162757E-03 -0.161760958905E-03 -0.253893412237E-02  0.277825320028E-03  0.490878492924E-03  0.249160395712E-03  0.163449124748E-03
  0.123318608398E-03  0.112988761100E-03  0.575298543664E-04  0.894114128643E-04  0.235879213351E-03  0.355218852559E-03  0.167332700249E-03
 -0.156465191715E-03 -0.166105998549E-02  0.220891601570E-03  0.426407770901E-03  0.203955963676E-03  0.232845097732E-03  0.543737650410E-03
  0.218549462172E-02  0.196474800187E-03  0.926776933077E-03  0.188259800446E-02  0.247804218985E-02
 -0.196325183591E-12 -0.203373344703E-11 -0.543804816037E-11 -0.288275478282E-09 -0.179669646615E-10 -0.569008202095E-09 -0.334536342449E-09
 -0.156605353009E-08 -0.670367206742E-10 -0.123949492626E-08 -0.243148456771E-10 -0.493177798803E-10  0.125611826448E-09  0.553528150468E-10
  0.185219980113E-10 -0.202770204911E-10 -0.324290121313E-10 -0.447242111077E-10 -0.114172328850E-09 -0.311095333239E-09 -0.100248373875E-09
 -0.104676004264E-08 -0.112486629620E-08 -0.413560389571E-09 -0.126098392136E-09 -0.611863175129E-10 -0.558382977669E-09 -0.270308582814E-09
 -0.144088044017E-09 -0.194424155803E-11 -0.346467264555E-10 -0.119702250855E-09 -0.559379311437E-10
        15         7        19        19
         8        20        19        19
        18        19        21        21
         7         4         8         8
         3         6         4         4
        19         7         8         8
        19        18        15        15
        14        13        15        15
         8        22        20        20
        27        24        22        22
        19        20        21        21
        32        26        21        21
        17        18        26        26
        17        16        15        15
        25        29        21        21
        12         7        13        13
        10         8         6         6
        25        20        24        24
         4         6         8         8
        12         2         4         4
        10        23        22        22
        26        31        17        17
        30        16        17        17
         4         7        12        12
        13        11        12        12
        21        20        25        25
        24        28        25        25
        22         8        10        10
         6         5        10        10
        31        26        32        32
         4         2         3         3
         5         6         3         3
        11        13        14        14
        22        23        27        27
        28        24        27        27
        15        13         7         7
         2        12         1         1
        29        25        33        33
        23        10         9         9
        21        26        18        18
        16        14        15        15
        18        17        15        15
        29        32        21        21
        22        24        20        20
        28        33        25        25
        11         1        12        12
        31        30        17        17
         5         9        10        10
zone t="boundary 3 bc-3", solutiontime= 0.7000000E+02, strandid=1003, i=33, j=48, f=feblock
  0.375000000000E+01  0.250000000000E+01  0.500000000000E+01  0.403552511878E+01  0.288078410721E+01  0.125000000000E+01  0.190974100652E+01
  0.500000000000E+01  0.326683758169E+01  0.423153924130E+01  0.201431602454E+01  0.000000000000E+00  0.963108083381E+00  0.500000000000E+01
  0.267000324704E+01  0.385533350601E+01  0.893127759452E+00  0.154774304040E+01  0.000000000000E+00  0.500000000000E+01  0.315249557942E+01
  0.218329375016E+01  0.398173246726E+01  0.000000000000E+00  0.698517061619E+00  0.964171764089E+00  0.125000000000E+01  0.000000000000E+00
  0.500000000000E+01  0.310324758057E+01  0.250000000000E+01  0.375000000000E+01  0.000000000000E+00
  0.250000000000E+01  0.250000000000E+01  0.250000000000E+01  0.250000000000E+01  0.250000000000E+01  0.250000000000E+01  0.250000000000E+01
  0.250000000000E+01  0.250000000000E+01  0.250000000000E+01  0.250000000000E+01  0.250000000000E+01  0.250000000000E+01  0.250000000000E+01
  0.250000000000E+01  0.250000000000E+01  0.250000000000E+01  0.250000000000E+01  0.250000000000E+01  0.250000000000E+01  0.250000000000E+01
  0.250000000000E+01  0.250000000000E+01  0.250000000000E+01  0.250000000000E+01  0.250000000000E+01  0.250000000000E+01  0.250000000000E+01
  0.250000000000E+01  0.250000000000E+01  0.250000000000E+01  0.250000000000E+01  0.250000000000E+01
  0.000000000000E+00  0.000000000000E+00  0.000000000000E+00  0.101201586758E+01  0.904659890645E+00  0.000000000000E+00  0.717002441913E+00
  0.125000000000E+01  0.188609243358E+01  0.191586535653E+01  0.176246431481E+01  0.000000000000E+00  0.961328577125E+00  0.250000000000E+01
  0.285047954584E+01  0.293121848150E+01  0.205246550326E+01  0.292817774674E+01  0.125000000000E+01  0.375000000000E+01  0.363585050272E+01
  0.395907379566E+01  0.406975391361E+01  0.250000000000E+01  0.306828197606E+01  0.397245519226E+01  0.500000000000E+01  0.375000000000E+01
  0.500000000000E+01  0.433168271247E+01  0.500000000000E+01  0.500000000000E+01  0.500000000000E+01
  0.000000000000E+00  0.000000000000E+00  0.000000000000E+00  0.443768049813E+00  0.402287063289E+00  0.000000000000E+00  0.377550015530E+00
  0.509231651017E+00  0.575830373842E+00  0.573705119893E+00  0.562552484917E+00  0.000000000000E+00  0.490560996922E+00  0.534526640478E+00
  0.556587161529E+00  0.564391003890E+00  0.522730520214E+00  0.522053035057E+00  0.441238864710E+00  0.517182885172E+00  0.524230081365E+00
  0.503688666615E+00  0.509490322369E+00  0.469815278546E+00  0.495614921017E+00  0.494483812152E+00  0.488562139423E+00  0.488960767301E+00
  0.492982637025E+00  0.499007441401E+00  0.486462299176E+00  0.484599832491E+00  0.495345969094E+00
  0.999989380190E+00  0.999989451040E+00  0.999989665041E+00  0.981541820811E+00  0.988773959065E+00  0.999989868921E+00  0.982469495615E+00
  0.984104107106E+00  0.990427340160E+00  0.990355127069E+00  0.994362617112E+00  0.999990335442E+00  0.988651707786E+00  0.100368299998E+01
  0.999769041194E+00  0.100118460274E+01  0.100834871539E+01  0.100252122579E+01  0.102982730935E+01  0.100443305346E+01  0.100199527495E+01
  0.100082072308E+01  0.100138208455E+01  0.100826302705E+01  0.100298818591E+01  0.100192398684E+01  0.100215265586E+01  0.100355656280E+01
  0.100047708080E+01  0.100056610141E+01  0.100126814609E+01  0.100066576236E+01  0.100179353455E+01
 -0.311849820592E-03 -0.155765887875E-04 -0.416369625704E-03  0.114301813685E-02  0.561770752987E-02  0.521027932270E-03  0.765110943669E-02
 -0.143915407976E-02 -0.842199994005E-03 -0.991750660215E-03  0.459390561065E-03  0.880212881408E-03  0.506314916329E-02 -0.781833480010E-03
 -0.772880021763E-03 -0.670046627568E-03 -0.437123310727E-03 -0.788723910407E-03  0.384029622598E-02 -0.552924657331E-03 -0.424586117900E-03
 -0.537459857342E-03 -0.426802211444E-03 -0.573734311339E-03 -0.750126328009E-03 -0.143134002270E-02 -0.467896979591E-02 -0.145466789551E-02
 -0.533360811817E-03 -0.664025349100E-03 -0.435632086272E-02 -0.234638970714E-02 -0.624228287669E-02
 -0.361912615647E-04 -0.503995691716E-04  0.990486471898E-04  0.479776125611E-03  0.836786915598E-03 -0.141786449324E-03  0.942783362404E-03
  0.256482977956E-03  0.554150798803E-04  0.156269103173E-03 -0.764971100839E-04  0.239179640358E-04  0.245347919263E-03  0.205352445400E-03
  0.479394083168E-04  0.123352314598E-03 -0.263687745759E-03 -0.517822643218E-04  0.532715690378E-03  0.136379436012E-03  0.131998864630E-03
  0.788069153660E-04  0.145896110377E-03 -0.181506619142E-03 -0.155996533068E-03 -0.177243114750E-03 -0.826145948921E-03 -0.323881726286E-03
  0.496285256543E-04  0.863254726682E-04 -0.667253797275E-03 -0.229315380448E-03 -0.128414988362E-02
 -0.785790758685E-05  0.187714459436E-05  0.132825577145E-04 -0.199588396477E-04 -0.745962451160E-04  0.458239097196E-04 -0.659950145356E-05
  0.211035045394E-05 -0.829979981792E-05  0.497089174994E-05 -0.104978718386E-05  0.457535153966E-04  0.676074262288E-04  0.490530232781E-05
  0.106916487271E-05  0.177587670537E-05 -0.216502369997E-04 -0.780694108322E-05  0.193519466498E-04  0.292713478386E-05  0.103015692000E-05
  0.715408497412E-05  0.276821461046E-06 -0.184197660984E-05 -0.595772306119E-05  0.203390017098E-05  0.248638516216E-05 -0.952247975785E-06
  0.105840865388E-05  0.331330241732E-07  0.603050263838E-06 -0.109772835039E-06  0.108534759337E-06
 -0.437092110637E-04 -0.976982575704E-04 -0.370912439056E-04  0.592775913862E-04  0.142409705433E-03 -0.123649265514E-03  0.103951816446E-03
  0.338242458469E-04  0.244794270388E-03  0.123704824544E-03  0.394657115278E-03 -0.220390662114E-03  0.148951961462E-03  0.546714947217E-04
  0.166845512273E-03  0.127811693193E-03  0.368601006756E-03  0.184342389751E-03 -0.177155666162E-03  0.537022417420E-04  0.161033520569E-03
  0.178167684195E-03  0.121891561545E-03  0.259690777492E-03  0.254258477282E-03  0.182675901967E-03  0.134110486366E-03  0.220447011028E-03
  0.624481752911E-04  0.162383214490E-03  0.161200470294E-03  0.145492315671E-03  0.853318022171E-04
  0.616286609389E-03  0.541635978964E-03  0.157188092952E-03 -0.709552317669E-03 -0.250274257635E-02  0.715919064732E-04 -0.326143262519E-02
  0.352283749189E-03  0.230692002535E-03  0.244994103335E-03 -0.186542962321E-03 -0.676046155416E-03 -0.196715791414E-02  0.147138887271E-03
  0.215901292635E-03  0.148416197889E-03  0.190776680808E-03  0.257999331120E-03 -0.158800209527E-02  0.108178043023E-03  0.683750338140E-04
  0.130648581536E-03  0.670667024197E-04  0.230564668230E-03  0.269356823552E-03  0.535213374691E-03  0.189045236014E-02  0.583124048143E-03
  0.150674418011E-03  0.173070854518E-03  0.172647479241E-02  0.877188985527E-03  0.259169488923E-02
 -0.462604744924E-11 -0.147950740887E-10 -0.194016397144E-11 -0.151795658614E-09 -0.246218376477E-09 -0.952114106884E-10 -0.181235987613E-08
 -0.356241510644E-10 -0.249719113832E-09  0.899999906179E-10 -0.112063302323E-08 -0.420224975808E-09 -0.219909983763E-08  0.229021987385E-10
 -0.942964859296E-10 -0.625849093802E-11 -0.747831601932E-09 -0.316661771275E-09 -0.683032220613E-09 -0.245299255276E-10 -0.500585148579E-10
 -0.806030453670E-10 -0.263259496478E-10 -0.370429198116E-09 -0.469270343338E-09 -0.131114160424E-09 -0.832321183533E-10 -0.313111288809E-09
 -0.492056912854E-11 -0.341291563395E-10 -0.540856244496E-10 -0.103107941001E-10 -0.606002673197E-10
        15         9        16        16
        15        18        11        11
        22        15        21        21
        11         5         9         9
         5         7         2         2
        11         9        15        15
        16        21        15        15
        16        10        14        14
        18        17        11        11
        17        25        24        24
        22        18        15        15
        22        30        31        31
        30        21        23        23
        16        20        23        23
        22        27        26        26
        10         9         4         4
         7        11        13        13
        25        18        26        26
        11         7         5         5
         5         1         4         4
        17        19        13        13
        23        32        30        30
        23        20        29        29
         4         9         5         5
         4         8        10        10
        26        18        22        22
        26        28        25        25
        13        11        17        17
        13         6         7         7
        31        30        32        32
         2         1         5         5
         2         7         6         6
        14        10         8         8
        24        19        17        17
        24        25        28        28
         9        10        16        16
         3         4         1         1
        33        26        27        27
        12        13        19        19
        21        30        22        22
        16        14        20        20
        16        23        21        21
        22        31        27        27
        18        25        17        17
        26        33        28        28
         4         3         8         8
        23        29        32        32
        13        12         6         6
zone t="boundary 4 bc-4", solutiontime= 0.7000000E+02, strandid=1004, i=32, j=46, f=feblock
  0.125000000000E+01  0.219251206392E+01  0.103724302461E+01  0.500000000000E+01  0.250000000000E+01  0.375000000000E+01  0.404200324774E+01
  0.500000000000E+01  0.000000000000E+00  0.310152362409E+01  0.202479342020E+01  0.324151231464E+01  0.922061490191E+00  0.000000000000E+00
  0.299062775774E+01  0.394624082883E+01  0.500000000000E+01  0.409252726285E+01  0.500000000000E+01  0.429310310915E+01  0.175434191980E+01
  0.284428995242E+01  0.000000000000E+00  0.000000000000E+00  0.715990576545E+00  0.930412228790E+00  0.125000000000E+01  0.187029682677E+01
  0.500000000000E+01  0.375000000000E+01  0.250000000000E+01  0.000000000000E+00
  0.250000000000E+01  0.157686156160E+01  0.146289271009E+01  0.250000000000E+01  0.250000000000E+01  0.250000000000E+01  0.155830813274E+01
  0.125000000000E+01  0.250000000000E+01  0.177790177481E+01  0.477386199275E+00  0.742988685424E+00  0.308372018325E+00  0.125000000000E+01
 -0.487811078581E+00 -0.144524380962E+01 -0.125000000000E+01 -0.345533899378E+00  0.000000000000E+00  0.627766083140E+00 -0.739814786992E+00
 -0.158811787973E+01  0.000000000000E+00 -0.125000000000E+01 -0.600232012419E+00 -0.154800130438E+01 -0.250000000000E+01 -0.178862290564E+01
 -0.250000000000E+01 -0.250000000000E+01 -0.250000000000E+01 -0.250000000000E+01
  0.500000000000E+01  0.500000000000E+01  0.500000000000E+01  0.500000000000E+01  0.500000000000E+01  0.500000000000E+01  0.500000000000E+01
  0.500000000000E+01  0.500000000000E+01  0.500000000000E+01  0.500000000000E+01  0.500000000000E+01  0.500000000000E+01  0.500000000000E+01
  0.500000000000E+01  0.500000000000E+01  0.500000000000E+01  0.500000000000E+01  0.500000000000E+01  0.500000000000E+01  0.500000000000E+01
  0.500000000000E+01  0.500000000000E+01  0.500000000000E+01  0.500000000000E+01  0.500000000000E+01  0.500000000000E+01  0.500000000000E+01
  0.500000000000E+01  0.500000000000E+01  0.500000000000E+01  0.500000000000E+01