# vtk DataFile Version 2.0
FUN3D:global_image_vtk
ASCII
DATASET UNSTRUCTURED_GRID
POINTS 213 double
    0.0000000000000000E+00    0.2500000000000000E+01    0.0000000000000000E+00
    0.1250000000000000E+01    0.2500000000000000E+01    0.0000000000000000E+00
    0.2500000000000000E+01    0.2500000000000000E+01    0.0000000000000000E+00
    0.3750000000000000E+01    0.2500000000000000E+01    0.0000000000000000E+00
    0.5000000000000000E+01    0.2500000000000000E+01    0.0000000000000000E+00
    0.5000000000000000E+01    0.1250000000000000E+01    0.0000000000000000E+00
    0.5000000000000000E+01    0.0000000000000000E+00    0.0000000000000000E+00
    0.5000000000000000E+01   -0.1250000000000000E+01    0.0000000000000000E+00
    0.5000000000000000E+01   -0.2500000000000000E+01    0.0000000000000000E+00
    0.3750000000000000E+01   -0.2500000000000000E+01    0.0000000000000000E+00
    0.2500000000000000E+01   -0.2500000000000000E+01    0.0000000000000000E+00
    0.1250000000000000E+01   -0.2500000000000000E+01    0.0000000000000000E+00
    0.0000000000000000E+00   -0.2500000000000000E+01    0.0000000000000000E+00
    0.0000000000000000E+00   -0.1250000000000000E+01    0.0000000000000000E+00
    0.0000000000000000E+00    0.0000000000000000E+00    0.0000000000000000E+00
    0.0000000000000000E+00    0.1250000000000000E+01    0.0000000000000000E+00
    0.9058375365086910E+00    0.1578994732800803E+01    0.0000000000000000E+00
    0.3982050490726493E+01   -0.1583989954232354E+01    0.0000000000000000E+00
    0.4033849428301197E+01    0.1453322699199022E+01    0.0000000000000000E+00
    0.1040505887381675E+01   -0.1479596339503735E+01    0.0000000000000000E+00
    0.1099454400140349E+01   -0.3227322616384110E+00    0.0000000000000000E+00
    0.7354504170366591E+00    0.6593508822075582E+00    0.0000000000000000E+00
    0.1622302608453282E+01    0.8256214013940779E+00    0.0000000000000000E+00
    0.2145871574390382E+01   -0.1650070333782557E+01    0.0000000000000000E+00
    0.4086422318222992E+01   -0.4612828702537229E+00    0.0000000000000000E+00
    0.2979540174134984E+01   -0.8579242121530853E+00    0.0000000000000000E+00
    0.3045064261640043E+01   -0.1836846154397680E+01    0.0000000000000000E+00
    0.3428197553792836E+01    0.3508002863614053E+00    0.0000000000000000E+00
    0.4309693860063405E+01    0.5185680230613409E+00    0.0000000000000000E+00
    0.1827272193562204E+01    0.1738996113203182E+01    0.0000000000000000E+00
    0.2808563282768077E+01    0.1325493893339706E+01    0.0000000000000000E+00
    0.1895995683864404E+01   -0.8731419609589618E+00    0.0000000000000000E+00
    0.2273179336307740E+01    0.4906150219227333E-01    0.0000000000000000E+00
    0.5000000000000000E+01    0.2500000000000000E+01    0.1250000000000000E+01
    0.5000000000000000E+01    0.2500000000000000E+01    0.2500000000000000E+01
    0.5000000000000000E+01    0.2500000000000000E+01    0.3750000000000000E+01
    0.5000000000000000E+01    0.2500000000000000E+01    0.5000000000000000E+01
    0.3750000000000000E+01    0.2500000000000000E+01    0.5000000000000000E+01
    0.2500000000000000E+01    0.2500000000000000E+01    0.5000000000000000E+01
    0.1250000000000000E+01    0.2500000000000000E+01    0.5000000000000000E+01
    0.0000000000000000E+00    0.2500000000000000E+01    0.5000000000000000E+01
    0.0000000000000000E+00    0.2500000000000000E+01    0.3750000000000000E+01
    0.0000000000000000E+00    0.2500000000000000E+01    0.2500000000000000E+01
    0.0000000000000000E+00    0.2500000000000000E+01    0.1250000000000000E+01
    0.9631080833812172E+00    0.2500000000000000E+01    0.9613285771248219E+00
    0.3981732467264904E+01    0.2500000000000000E+01    0.4069753913607991E+01
    0.4035525118777670E+01    0.2500000000000000E+01    0.1012015867579395E+01
    0.9641717640894248E+00    0.2500000000000000E+01    0.3972455192261839E+01
    0.1547743040396780E+01    0.2500000000000000E+01    0.2928177746738678E+01
    0.6985170616192014E+00    0.2500000000000000E+01    0.3068281976055466E+01
    0.8931277594515110E+00    0.2500000000000000E+01    0.2052465503257726E+01
    0.2183293750162785E+01    0.2500000000000000E+01    0.3959073795658649E+01
    0.3855333506014705E+01    0.2500000000000000E+01    0.2931218481500625E+01
    0.3152495579421047E+01    0.2500000000000000E+01    0.3635850502723324E+01
    0.3103247580566054E+01    0.2500000000000000E+01    0.4331682712472464E+01
    0.3266837581688852E+01    0.2500000000000000E+01    0.1886092433583972E+01
    0.4231539241296245E+01    0.2500000000000000E+01    0.1915865356532799E+01
    0.1909741006522088E+01    0.2500000000000000E+01    0.7170024419130505E+00
    0.2880784107213163E+01    0.2500000000000000E+01    0.9046598906449592E+00
    0.2014316024535771E+01    0.2500000000000000E+01    0.1762464314805728E+01
    0.2670003247036656E+01    0.2500000000000000E+01    0.2850479545835163E+01
    0.5000000000000000E+01    0.1250000000000000E+01    0.5000000000000000E+01
    0.5000000000000000E+01    0.0000000000000000E+00    0.5000000000000000E+01
    0.5000000000000000E+01   -0.1250000000000000E+01    0.5000000000000000E+01
    0.5000000000000000E+01   -0.2500000000000000E+01    0.5000000000000000E+01
    0.5000000000000000E+01   -0.2500000000000000E+01    0.3750000000000000E+01
    0.5000000000000000E+01   -0.2500000000000000E+01    0.2500000000000000E+01
    0.5000000000000000E+01   -0.2500000000000000E+01    0.1250000000000000E+01
    0.5000000000000000E+01    0.1578994732800803E+01    0.9058375365086910E+00
    0.5000000000000000E+01   -0.1583989954232354E+01    0.3982050490726493E+01
    0.5000000000000000E+01    0.1453322699199022E+01    0.4033849428301197E+01
    0.5000000000000000E+01   -0.1479596339503735E+01    0.1040505887381675E+01
    0.5000000000000000E+01   -0.3227322616384110E+00    0.1099454400140349E+01
    0.5000000000000000E+01    0.6593508822075582E+00    0.7354504170366591E+00
    0.5000000000000000E+01    0.8256214013940779E+00    0.1622302608453282E+01
    0.5000000000000000E+01   -0.1650070333782557E+01    0.2145871574390382E+01
    0.5000000000000000E+01   -0.4612828702537229E+00    0.4086422318222992E+01
    0.5000000000000000E+01   -0.8579242121530853E+00    0.2979540174134984E+01
    0.5000000000000000E+01   -0.1836846154397680E+01    0.3045064261640043E+01
    0.5000000000000000E+01    0.3508002863614053E+00    0.3428197553792836E+01
    0.5000000000000000E+01    0.5185680230613409E+00    0.4309693860063405E+01
    0.5000000000000000E+01    0.1738996113203182E+01    0.1827272193562204E+01
    0.5000000000000000E+01    0.1325493893339706E+01    0.2808563282768077E+01
    0.5000000000000000E+01   -0.8731419609589618E+00    0.1895995683864404E+01
    0.5000000000000000E+01    0.4906150219227333E-01    0.2273179336307740E+01
    0.0000000000000000E+00    0.1250000000000000E+01    0.5000000000000000E+01
    0.0000000000000000E+00    0.0000000000000000E+00    0.5000000000000000E+01
    0.0000000000000000E+00   -0.1250000000000000E+01    0.5000000000000000E+01
    0.0000000000000000E+00   -0.2500000000000000E+01    0.5000000000000000E+01
    0.1250000000000000E+01   -0.2500000000000000E+01    0.5000000000000000E+01
    0.2500000000000000E+01   -0.2500000000000000E+01    0.5000000000000000E+01
    0.3750000000000000E+01   -0.2500000000000000E+01    0.5000000000000000E+01
    0.4042003247744892E+01    0.1558308132739014E+01    0.5000000000000000E+01
    0.9304122287900499E+00   -0.1548001304379777E+01    0.5000000000000000E+01
    0.1037243024609388E+01    0.1462892710085612E+01    0.5000000000000000E+01
    0.3946240828834967E+01   -0.1445243809615570E+01    0.5000000000000000E+01
    0.4092527262848217E+01   -0.3455338993778935E+00    0.5000000000000000E+01
    0.4293103109154542E+01    0.6277660831404320E+00    0.5000000000000000E+01
    0.3241512314643519E+01    0.7429886854239611E+00    0.5000000000000000E+01
    0.2844289952419609E+01   -0.1588117879734118E+01    0.5000000000000000E+01
    0.7159905765450471E+00   -0.6002320124191652E+00    0.5000000000000000E+01
    0.1754341919796891E+01   -0.7398147869923652E+00    0.5000000000000000E+01
    0.1870296826774691E+01   -0.1788622905643739E+01    0.5000000000000000E+01
    0.9220614901912976E+00    0.3083720183248586E+00    0.5000000000000000E+01
    0.3101523624086016E+01    0.1777901774806180E+01    0.5000000000000000E+01
    0.2192512063922564E+01    0.1576861561598471E+01    0.5000000000000000E+01
    0.2024793420196460E+01    0.4773861992750707E+00    0.5000000000000000E+01
    0.2990627757741975E+01   -0.4878110785814084E+00    0.5000000000000000E+01
    0.0000000000000000E+00   -0.2500000000000000E+01    0.1250000000000000E+01
    0.0000000000000000E+00   -0.2500000000000000E+01    0.2500000000000000E+01
    0.0000000000000000E+00   -0.2500000000000000E+01    0.3750000000000000E+01
    0.0000000000000000E+00    0.1558308132739014E+01    0.4042003247744892E+01
    0.0000000000000000E+00   -0.1548001304379777E+01    0.9304122287900499E+00
    0.0000000000000000E+00    0.1462892710085612E+01    0.1037243024609388E+01
    0.0000000000000000E+00   -0.1445243809615570E+01    0.3946240828834967E+01
    0.0000000000000000E+00   -0.3455338993778935E+00    0.4092527262848217E+01
    0.0000000000000000E+00    0.6277660831404320E+00    0.4293103109154542E+01
    0.0000000000000000E+00    0.7429886854239611E+00    0.3241512314643519E+01
    0.0000000000000000E+00   -0.1588117879734118E+01    0.2844289952419609E+01
    0.0000000000000000E+00   -0.6002320124191652E+00    0.7159905765450471E+00
    0.0000000000000000E+00   -0.7398147869923652E+00    0.1754341919796891E+01
    0.0000000000000000E+00   -0.1788622905643739E+01    0.1870296826774691E+01
    0.0000000000000000E+00    0.3083720183248586E+00    0.9220614901912976E+00
    0.0000000000000000E+00    0.1777901774806180E+01    0.3101523624086016E+01
    0.0000000000000000E+00    0.1576861561598471E+01    0.2192512063922564E+01
[...]
POINT_DATA 213
SCALARS rho double 1
LOOKUP_TABLE default
   0.1344271453831875E+01
   0.9569758892166745E+00
   0.9462964147809870E+00
   0.9418612815224396E+00
   0.8437305331906317E+00
   0.7738004375885371E+00
   0.7629818871937880E+00
   0.7664577756020775E+00
   0.8307874097863625E+00
   0.9352972614518849E+00
   0.9342219799251487E+00
   0.9617195267904616E+00
   0.1449457454824556E+01
   0.1494090641766965E+01
   0.1644667275592919E+01
   0.1425832050059764E+01
   0.1009014433389054E+01
   0.9508810858959355E+00
   0.9436508665757188E+00
   0.9581561044782690E+00
   0.9415852450284838E+00
   0.1036377239658106E+01
   0.9256161091293305E+00
   0.9322349862358842E+00
   0.9537479562160392E+00
   0.9518769621837111E+00
   0.9348583141744898E+00
   0.9564028497515974E+00
   0.9376098401681320E+00
   0.9300661501941899E+00
   0.9445157502558718E+00
   0.8863506513627619E+00
   0.9423580002653020E+00
   0.9635005465917506E+00
   0.1008299016870420E+01
   0.1006735286677370E+01
   0.1001964668977464E+01
   0.1003219585218622E+01
   0.1004132031941510E+01
   0.1005228595307535E+01
   0.1004260407454626E+01
   0.1008308186756238E+01
   0.1023893137410205E+01
   0.1063553952918747E+01
   0.1019182516487360E+01
   0.1001780784103564E+01
   0.9643313011584790E+00
   0.1005283707297661E+01
   0.1000721160859183E+01
   0.1008742082164104E+01
   0.1008078082905080E+01
   0.1002349804306652E+01
   0.9979986751358465E+00
   0.1000583560389706E+01
   0.1001620111491236E+01
   0.9826892890498380E+00
   0.9842440072579076E+00
   0.9833313971440494E+00
   0.9788208206182503E+00
   0.9902638056044188E+00
   0.9934561522426145E+00
   0.1002011769491500E+01
   0.1002134461012318E+01
   0.1002276292782558E+01
   0.1001794751011386E+01
   0.1009778688548616E+01
   0.1006429089261980E+01
   0.9558787163602526E+00
   0.9249399100383985E+00
   0.1007036788276726E+01
   0.1004504966053627E+01
   0.9143642156078399E+00
   0.9089668069714849E+00
   0.8751688727400441E+00
   0.9767271636750804E+00
   0.1000452605013048E+01
   0.1005831127693716E+01
   0.1012882793209829E+01
   0.1011618941769597E+01
   0.1010438666834045E+01
   0.1005468345434407E+01
   0.9907612586395306E+00
   0.1005140303694485E+01
   0.9860567192623747E+00
   0.1005609722049496E+01
   0.1004248005447072E+01
   0.1002888442564968E+01
   0.1003345422009503E+01
   0.1003992738689881E+01
   0.1005101711945991E+01
   0.1003211645016966E+01
   0.1002663119092468E+01
   0.1002586215645998E+01
   0.1004060873392640E+01
   0.1004320335903289E+01
   0.1001641876418647E+01
   0.1002273078129388E+01
   0.1002543429295106E+01
   0.1003469485668029E+01
   0.1003372622277019E+01
   0.1003232226737970E+01
   0.1004423846228517E+01
   0.1004313062662269E+01
   0.1003659841775842E+01
   0.1003723114743835E+01
   0.1004329706422522E+01
   0.1004465014972738E+01
   0.1003623371756016E+01
   0.1064422811223874E+01
   0.1028473618063720E+01
   0.1009586656101947E+01
   0.1006638837286250E+01
   0.1163935517436823E+01
   0.1086087966165819E+01
   0.1007893416695489E+01
   0.1007245533769274E+01
   0.1006798075772428E+01
   0.1013018285882656E+01
   0.1019384604427855E+01
   0.1235203669613624E+01
   0.1032529467268575E+01
   0.1046681187591860E+01
   0.1200953644904639E+01
   0.1014718913965850E+01
   0.1032291150329819E+01
   0.1028095233667589E+01
   0.1014628636566564E+01
   0.1029216891090982E+01
   0.1001994848435666E+01
   0.9606929487866134E+00
   0.1006852578171626E+01
   0.1001327193077721E+01
   0.1010821899959247E+01
   0.1012246097536302E+01
   0.1000945999986525E+01
   0.9979121148560416E+00
   0.9980632190905028E+00
   0.1001184128491355E+01
   0.9841362057296265E+00
   0.9814879662963463E+00
   0.9648483396906649E+00
   0.9680877151842621E+00
   0.9914124474322790E+00
   0.9910858411259070E+00
   0.9925545071320950E+00
   0.1001727531042953E+01
   0.9993409362193001E+00
   0.9941410821603388E+00
   0.1007038749946094E+01
   0.1022539492986047E+01
   0.1001088101361888E+01
   0.1008798493384666E+01
   0.1004773844746625E+01
   0.1009050235333190E+01
   0.9966470335735882E+00
   0.1004988560087827E+01
   0.1003325530583379E+01
   0.9949431071393874E+00
   0.9832680873083601E+00
   0.9943957535710100E+00
   0.9973420622599047E+00
   0.9932190014802189E+00
   0.1001306475226427E+01
   0.1003001631862336E+01
   0.1002183570438995E+01
   0.9947078549642068E+00
   0.9937965460190705E+00
   0.1004867864301454E+01
   0.1020077605265775E+01
   0.1005364552390366E+01
   0.9816998157762689E+00
   0.1004973026376099E+01
   0.1012382317965337E+01
   0.9871424343787345E+00
   0.9551513537759404E+00
   0.9865075677189600E+00
   0.9864532958437173E+00
   0.9918946887963703E+00
   0.9933508217653066E+00
   0.9954406197164334E+00
   0.1037336788199903E+01
   0.1033536795797888E+01
   0.1001443350980265E+01
   0.1001930498140379E+01
   0.9912478441099036E+00
   0.9910920431430952E+00
   0.9648489944986681E+00
   0.9933282465205981E+00
   0.1006058642141082E+01
   0.1001954036696432E+01
   0.9908735743752983E+00
   0.9740945056333100E+00
   0.9418802257433528E+00
   0.9819379633538893E+00
   0.9794803513025538E+00
   0.9704172076654062E+00
   0.9720478941104455E+00
   0.9557351792167035E+00
   0.9496731314494419E+00
   0.9528673649772456E+00
   0.1002659530615947E+01
   0.1002471619966250E+01
   0.1000509328540152E+01
   0.1001677327828175E+01
   0.9607931295586836E+00
   0.9491625698516148E+00
   0.9584503136376870E+00
   0.1001121206997118E+01
   0.1000496132654197E+01
   0.1001156632720576E+01
   0.9807376177208785E+00
   0.9806000772740328E+00
   0.9628476250480861E+00
SCALARS u double 1
LOOKUP_TABLE default
   0.0000000000000000E+00
   0.0000000000000000E+00
   0.0000000000000000E+00
   0.0000000000000000E+00
   0.0000000000000000E+00
   0.0000000000000000E+00
   0.0000000000000000E+00
   0.0000000000000000E+00
   0.0000000000000000E+00
   0.0000000000000000E+00
   0.0000000000000000E+00
   0.0000000000000000E+00
   0.0000000000000000E+00
   0.0000000000000000E+00
   0.0000000000000000E+00
   0.0000000000000000E+00
   0.0000000000000000E+00
   0.0000000000000000E+00
   0.0000000000000000E+00
   0.0000000000000000E+00
   0.0000000000000000E+00
   0.0000000000000000E+00
   0.0000000000000000E+00
   0.0000000000000000E+00
   0.0000000000000000E+00
   0.0000000000000000E+00
   0.0000000000000000E+00
   0.0000000000000000E+00
   0.0000000000000000E+00
   0.0000000000000000E+00
   0.0000000000000000E+00
   0.0000000000000000E+00
   0.0000000000000000E+00
   0.4950174092608637E+00
   0.5338221515060090E+00
   0.5183268688982654E+00
   0.4930651180462595E+00
   0.4847581352454367E+00
   0.4867666876106099E+00
   0.4890763650244189E+00
   0.4957848754606610E+00
   0.4898301998994224E+00
   0.4717388487083458E+00
   0.4454814197390330E+00
   0.4833907030921339E+00
   0.5098396914593259E+00
   0.4390712195749053E+00
   0.4949403927850466E+00
   0.5225330433186014E+00
   0.4962454604655325E+00
   0.5226154990225306E+00
   0.5038881556455522E+00
   0.5646883476461046E+00
   0.5247508938261249E+00
   0.4991465787172715E+00
   0.5730561941286336E+00
   0.5696050847323673E+00
   0.3737941395354434E+00
   0.3998657967245261E+00
   0.5599326668505937E+00
   0.5564587686328706E+00
   0.4942629099101977E+00
   0.4948660564602359E+00
   0.4925736158507605E+00
   0.4914269661416635E+00
   0.5162356913607155E+00
   0.5361798409205835E+00
   0.4947413079740684E+00
   0.4524111494058116E+00
   0.5128777226181437E+00
   0.5117941108809549E+00
   0.4783517290554787E+00
   0.4931696398688977E+00
   0.4603173714698875E+00
   0.5244892890117024E+00
   0.5297434265190140E+00
   0.5129578807601626E+00
   0.5328358270963935E+00
   0.5308941197105277E+00
   0.5309855649492655E+00
   0.5063656234437172E+00
   0.5282462054018831E+00
   0.5410312778928450E+00
   0.5361261359075539E+00
   0.5374105321104486E+00
   0.4965364830283467E+00
   0.4975340862701569E+00
   0.4963842601268535E+00
   0.4955220294182379E+00
   0.4904581546051411E+00
   0.4903044302230266E+00
   0.4862182751494079E+00
   0.4854052750067651E+00
   0.4932164443350562E+00
   0.4909833505038572E+00
   0.4832195020883126E+00
   0.4872624318596133E+00
   0.4880127485374351E+00
   0.4872447335827647E+00
   0.4882696644679642E+00
   0.4952597655067261E+00
   0.4900967253589552E+00
   0.4903999938208373E+00
   0.4944233094362482E+00
   0.4868003741319691E+00
   0.4892386458040875E+00
   0.4881393746825018E+00
   0.4878458497500117E+00
   0.4446866334830938E+00
   0.4700028827271212E+00
   0.4891999080418505E+00
   0.4885247732913038E+00
   0.4506533218176447E+00
   0.4687378544058889E+00
   0.4877010369437857E+00
   0.4868353643808924E+00
   0.4908994599899086E+00
   0.4793551610070472E+00
   0.4658071865206738E+00
   0.3792725239345369E+00
   0.4901596482991822E+00
   0.4486686728704346E+00
   0.4436137397676947E+00
   0.4845147260861726E+00
   0.4621822670625760E+00
   0.4665749610792160E+00
   0.4748140369730383E+00
   0.4894494220808050E+00
   0.5085558194774475E+00
   0.4315073942290231E+00
   0.4927349398803859E+00
   0.5318289349339486E+00
   0.4913399286588598E+00
   0.5207019968285710E+00
   0.5060964755723485E+00
   0.5688797341117913E+00
   0.5273993142380454E+00
   0.5015045265193393E+00
   0.5821790079598093E+00
   0.5689618094715838E+00
   0.3406394463046906E+00
   0.3789869385169146E+00
   0.5751958224071677E+00
   0.5666485565860392E+00
   0.5704108803419722E+00
   0.5291056390177326E+00
   0.5451902758454350E+00
   0.5718804337950469E+00
   0.5389079155840578E+00
   0.5475507498207611E+00
   0.5821713869270765E+00
   0.4925601795110345E+00
   0.5042157451335249E+00
   0.4961735453520835E+00
   0.5565208006565465E+00
   0.4758845197759046E+00
   0.4950268541663849E+00
   0.5498525399655484E+00
   0.5891202261559322E+00
   0.5841957646957621E+00
   0.5469097474038831E+00
   0.5805417603318405E+00
   0.5106251392104767E+00
   0.5030200419975164E+00
   0.5033624848480713E+00
   0.5676445874631704E+00
   0.5563943065358798E+00
   0.4947255946602464E+00
   0.5505243856604024E+00
   0.5510857278322325E+00
   0.5657350956697583E+00
   0.4920070064559269E+00
   0.4927299122707301E+00
   0.3865140493945528E+00
   0.3687754551816123E+00
   0.5574921722539725E+00
   0.5763755601888735E+00
   0.4194304357088539E+00
   0.5824843246945935E+00
   0.4265209599440539E+00
   0.5392799878096013E+00
   0.5012032826746001E+00
   0.5119513285523315E+00
   0.5049119194443733E+00
   0.5751974746992461E+00
   0.5876371234408037E+00
   0.5379907683924655E+00
   0.5677472449675206E+00
   0.5351248844672377E+00
   0.5338056324341011E+00
   0.5580313661692856E+00
   0.5512707835556283E+00
   0.4261852357574337E+00
   0.5273356185560261E+00
   0.5795712434792263E+00
   0.3318687215262783E+00
   0.4760283347966202E+00
   0.5446196179805727E+00
   0.4798331726211048E+00
   0.3005293493977658E+00
   0.5031051256664948E+00
   0.5017116061484772E+00
   0.5129033587443838E+00
   0.5414839693575751E+00
   0.3437603655455820E+00
   0.3397710780528961E+00
   0.3189928575308553E+00
   0.5065936454378910E+00
   0.5123484363001084E+00
   0.5330313005420647E+00
   0.5879309992148672E+00
   0.4644180591157551E+00
   0.3531270529606981E+00
SCALARS v double 1
LOOKUP_TABLE default
   0.0000000000000000E+00
   0.0000000000000000E+00
   0.0000000000000000E+00
   0.0000000000000000E+00
   0.0000000000000000E+00
   0.0000000000000000E+00
   0.0000000000000000E+00
   0.0000000000000000E+00
   0.0000000000000000E+00
   0.0000000000000000E+00
   0.0000000000000000E+00
   0.0000000000000000E+00
   0.0000000000000000E+00
   0.0000000000000000E+00
   0.0000000000000000E+00
   0.0000000000000000E+00
   0.0000000000000000E+00
   0.0000000000000000E+00
   0.0000000000000000E+00
   0.0000000000000000E+00
   0.0000000000000000E+00
   0.0000000000000000E+00
   0.0000000000000000E+00
   0.0000000000000000E+00
   0.0000000000000000E+00
   0.0000000000000000E+00
   0.0000000000000000E+00
   0.0000000000000000E+00
   0.0000000000000000E+00
   0.0000000000000000E+00
   0.0000000000000000E+00
   0.0000000000000000E+00
   0.0000000000000000E+00
   0.0000000000000000E+00
   0.0000000000000000E+00
   0.0000000000000000E+00
   0.0000000000000000E+00
   0.0000000000000000E+00
   0.0000000000000000E+00
   0.0000000000000000E+00
   0.0000000000000000E+00
   0.0000000000000000E+00
   0.0000000000000000E+00
   0.0000000000000000E+00
   0.0000000000000000E+00
   0.0000000000000000E+00
   0.0000000000000000E+00
   0.0000000000000000E+00
   0.0000000000000000E+00
   0.0000000000000000E+00
   0.0000000000000000E+00
   0.0000000000000000E+00
   0.0000000000000000E+00
   0.0000000000000000E+00
   0.0000000000000000E+00
   0.0000000000000000E+00
   0.0000000000000000E+00
   0.0000000000000000E+00
   0.0000000000000000E+00
   0.0000000000000000E+00
   0.0000000000000000E+00
   0.7969876546688899E-03
  -0.1329212722125493E-02
  -0.1332494708313859E-02
   0.0000000000000000E+00
   0.0000000000000000E+00
   0.0000000000000000E+00
   0.0000000000000000E+00
  -0.1922571257590133E-01
   0.4770758529772609E-03
   0.2183360899215045E-02
   0.1427332940791273E-01
  -0.6488288092603352E-02
  -0.7821664986979103E-02
  -0.1327728299577243E-01
   0.4914471870864698E-02
   0.6907023818494399E-03
   0.3434391237724774E-02
   0.1920841700073976E-02
   0.3147944744443501E-02
   0.1704773377345128E-02
  -0.7316233408504880E-02
  -0.7701853249212010E-04
   0.4468726313808094E-02
  -0.4387273045299355E-03
  -0.6383962150484144E-04
  -0.1963415447064904E-03
   0.8071271220397578E-03
   0.0000000000000000E+00
   0.0000000000000000E+00
   0.0000000000000000E+00
   0.0000000000000000E+00
   0.4256504912452154E-03
   0.1616314216809825E-02
  -0.1297543589971555E-02
  -0.1022708629227646E-02
  -0.2134204995221892E-02
  -0.1063958985021852E-02
  -0.8199355382517293E-03
  -0.7616537271877676E-03
   0.5202279439472741E-04
  -0.6243832508937212E-03
   0.7916641404519122E-03
  -0.1745242323847817E-02
   0.2747218684477718E-03
  -0.8938447188726574E-04
  -0.9424091532484592E-03
  -0.1100151135808826E-02
   0.0000000000000000E+00
   0.0000000000000000E+00
   0.0000000000000000E+00
  -0.1061765289621158E-02
  -0.7641127570125058E-02
   0.1860855281522166E-01
  -0.2834506696499663E-04
  -0.1383132422777238E-02
  -0.2035128536469820E-02
  -0.5666379882087925E-02
  -0.1585213160977814E-02
  -0.5947017953692655E-02
  -0.4160603585998008E-02
   0.1565615612783260E-02
   0.3329524683507099E-01
   0.3055351296622041E-04
  -0.2766882942455792E-02
   0.3566485943733018E-02
   0.3596197266736884E-03
   0.0000000000000000E+00
   0.0000000000000000E+00
   0.0000000000000000E+00
   0.0000000000000000E+00
   0.0000000000000000E+00
   0.0000000000000000E+00
   0.0000000000000000E+00
   0.0000000000000000E+00
   0.0000000000000000E+00
   0.0000000000000000E+00
   0.0000000000000000E+00
   0.0000000000000000E+00
   0.0000000000000000E+00
   0.0000000000000000E+00
   0.0000000000000000E+00
   0.0000000000000000E+00
   0.0000000000000000E+00
   0.5047028159469973E-02
   0.3230790650180061E-02
   0.8149129369386105E-02
   0.6168366430258775E-02
   0.1122928716131087E-01
   0.1429277577528581E-01
  -0.2038826015654353E-03
   0.5118218883948849E-02
   0.2914944963211191E-02
   0.3373608448126175E-02
   0.3728336138386070E-02
  -0.1465719871420031E-01
  -0.6159685798936996E-03
   0.6651623888039874E-02
   0.1542020410839113E-02
   0.1969642190773070E-02
   0.4266263392126457E-02
  -0.2790959115478292E-02
   0.1226877071387190E-02
   0.2819168436509267E-02
   0.1497440038105637E-02
   0.2575325242377560E-02
   0.2030636157023452E-02
   0.2118039652193550E-02
   0.8700409762907603E-02
  -0.3733396266872637E-02
   0.6241190695180388E-02
   0.2516119036811912E-04
  -0.3854054641913811E-03
  -0.1674678963088623E-01
  -0.4881977541434904E-02
  -0.4720001419482141E-02
   0.3445219802644607E-02
  -0.6135724666125496E-02
   0.9934286326778073E-04
  -0.3291372986370390E-01
  -0.3046197708515995E-02
   0.4722742475495978E-02
   0.9228317605048717E-03
   0.2112172781211148E-02
   0.4518740588814219E-02
   0.2720453345538323E-02
   0.3212575253815644E-02
   0.5200792078497161E-02
   0.1941835661018851E-02
   0.7315695832622546E-03
  -0.2555947134847547E-04
  -0.5374645564133737E-02
  -0.6959621116771960E-02
  -0.9443745751553926E-03
   0.1105267472861265E-02
  -0.2080551289952928E-02
  -0.3200035291927024E-02
  -0.2527827072397246E-02
  -0.4115192092485625E-02
  -0.7593949258319644E-02
  -0.1985687115540536E-02
   0.6240226079763490E-03
  -0.2239116224429501E-03
   0.1216944752688359E-02
  -0.3483967178058326E-02
   0.5229133407469855E-02
  -0.8487626281646191E-02
   0.2313315138332215E-04
  -0.3395409801201014E-03
   0.2542660914493305E-02
   0.1663456171352444E-02
   0.2021437501596001E-02
  -0.5620782856528595E-02
SCALARS w double 1
LOOKUP_TABLE default
   0.0000000000000000E+00
   0.0000000000000000E+00
   0.0000000000000000E+00
   0.0000000000000000E+00
   0.0000000000000000E+00
   0.0000000000000000E+00
   0.0000000000000000E+00
   0.0000000000000000E+00
   0.0000000000000000E+00
   0.0000000000000000E+00
   0.0000000000000000E+00
   0.0000000000000000E+00
   0.0000000000000000E+00
   0.0000000000000000E+00
   0.0000000000000000E+00
   0.0000000000000000E+00
   0.0000000000000000E+00
   0.0000000000000000E+00
   0.0000000000000000E+00
   0.0000000000000000E+00
   0.0000000000000000E+00
   0.0000000000000000E+00
   0.0000000000000000E+00
   0.0000000000000000E+00
   0.0000000000000000E+00
   0.0000000000000000E+00
   0.0000000000000000E+00
   0.0000000000000000E+00
   0.0000000000000000E+00
   0.0000000000000000E+00
   0.0000000000000000E+00
   0.0000000000000000E+00
   0.0000000000000000E+00
  -0.1007611660788369E+00
  -0.4249292638138201E-01
   0.7371880158880158E-03
   0.5725813444904586E-02
   0.5698441466773121E-03
   0.1609788213018019E-02
   0.3375070620818514E-02
   0.2371768885395904E-02
   0.4590588775686108E-03
   0.3518226597566500E-02
   0.4521817984211828E-01
   0.6522938117497347E-01
   0.8689527107430826E-03
  -0.2261153881118275E-01
   0.4316551883943831E-02
   0.1358734030819508E-01
   0.1039452329298649E-01
   0.4900548647395202E-01
   0.2437441836997927E-02
  -0.6509925117964906E-02
  -0.7012092440755387E-03
   0.3411346691415956E-03
   0.3904109812029870E-02
  -0.3893250987186692E-01
   0.1798168128495494E-01
   0.1119637835888634E-01
   0.3403773500516073E-01
   0.8438807309677370E-02
   0.4937410961274328E-02
   0.4970464013125271E-02
   0.4871610262772154E-02
   0.6027254474185357E-02
   0.2599223081015862E-02
  -0.4144429685165038E-01
  -0.9954260338730876E-01
  -0.1121678253623920E+00
   0.5070924649160123E-02
   0.4230775549469474E-02
  -0.1004732182471047E+00
  -0.9895250366798425E-01
  -0.9875450293072408E-01
  -0.9462506501961429E-01
  -0.6807132491730454E-01
   0.5154958016999027E-02
  -0.1935331024562947E-01
  -0.1575800697698378E-01
  -0.6002876559514037E-02
   0.6819103852508173E-02
  -0.8010045003727093E-01
  -0.2781092943699681E-01
  -0.8096455307603249E-01
  -0.5873276310516882E-01
   0.3083622865208133E-02
   0.2685139421969747E-02
   0.2640431492458204E-02
   0.3450185680408516E-02
   0.4007074403595112E-02
   0.1201171081877681E-02
  -0.1438965607896399E-03
   0.2039892550429152E-02
   0.4895681931950095E-02
   0.3857384683716799E-02
   0.1114233422639045E-02
   0.1182713733729097E-02
   0.1465396675422841E-02
  -0.1653056566845920E-04
   0.8993988196299765E-04
   0.4386668055415991E-02
   0.2715726359871095E-02
   0.2322744830825603E-02
   0.5010599025677463E-02
   0.1071626140566633E-02
   0.2712224973354794E-02
   0.2013954187347870E-02
   0.2874428688807972E-04
   0.8374613542075870E-01
   0.2793869652163265E-02
  -0.8346651427073575E-03
  -0.1492919496211504E-03
   0.1409540839012120E+00
   0.1239332941504507E+00
  -0.1219092792111027E-02
  -0.4381936802041604E-02
  -0.3042985851078246E-03
  -0.6512248426106580E-02
  -0.1949571928585251E-02
   0.1557630971171924E+00
   0.7489978969149549E-01
   0.2550175064630893E-01
   0.1656445121782608E+00