# vtk DataFile Version 2.0
FUN3D:global_image_vtk
ASCII
DATASET UNSTRUCTURED_GRID
POINTS 213 double
    0.0000000000000000E+00    0.2500000000000000E+01    0.0000000000000000E+00
    0.1250000000000000E+01    0.2500000000000000E+01    0.0000000000000000E+00
    0.2500000000000000E+01    0.2500000000000000E+01    0.0000000000000000E+00
    0.3750000000000000E+01    0.2500000000000000E+01    0.0000000000000000E+00
    0.5000000000000000E+01    0.2500000000000000E+01    0.0000000000000000E+00
    0.5000000000000000E+01    0.1250000000000000E+01    0.0000000000000000E+00
    0.5000000000000000E+01    0.0000000000000000E+00    0.0000000000000000E+00
    0.5000000000000000E+01   -0.1250000000000000E+01    0.0000000000000000E+00
    0.5000000000000000E+01   -0.2500000000000000E+01    0.0000000000000000E+00
    0.3750000000000000E+01   -0.2500000000000000E+01    0.0000000000000000E+00
    0.2500000000000000E+01   -0.2500000000000000E+01    0.0000000000000000E+00
    0.1250000000000000E+01   -0.2500000000000000E+01    0.0000000000000000E+00
    0.0000000000000000E+00   -0.2500000000000000E+01    0.0000000000000000E+00
    0.0000000000000000E+00   -0.1250000000000000E+01    0.0000000000000000E+00
    0.0000000000000000E+00    0.0000000000000000E+00    0.0000000000000000E+00
    0.0000000000000000E+00    0.1250000000000000E+01    0.0000000000000000E+00
    0.9058375365086910E+00    0.1578994732800803E+01    0.0000000000000000E+00
    0.3982050490726493E+01   -0.1583989954232354E+01    0.0000000000000000E+00
    0.4033849428301197E+01    0.1453322699199022E+01    0.0000000000000000E+00
    0.1040505887381675E+01   -0.1479596339503735E+01    0.0000000000000000E+00
    0.1099454400140349E+01   -0.3227322616384110E+00    0.0000000000000000E+00
    0.7354504170366591E+00    0.6593508822075582E+00    0.0000000000000000E+00
    0.1622302608453282E+01    0.8256214013940779E+00    0.0000000000000000E+00
    0.2145871574390382E+01   -0.1650070333782557E+01    0.0000000000000000E+00
    0.4086422318222992E+01   -0.4612828702537229E+00    0.0000000000000000E+00
    0.2979540174134984E+01   -0.8579242121530853E+00    0.0000000000000000E+00
    0.3045064261640043E+01   -0.1836846154397680E+01    0.0000000000000000E+00
    0.3428197553792836E+01    0.3508002863614053E+00    0.0000000000000000E+00
    0.4309693860063405E+01    0.5185680230613409E+00    0.0000000000000000E+00
    0.1827272193562204E+01    0.1738996113203182E+01    0.0000000000000000E+00
    0.2808563282768077E+01    0.1325493893339706E+01    0.0000000000000000E+00
    0.1895995683864404E+01   -0.8731419609589618E+00    0.0000000000000000E+00
    0.2273179336307740E+01    0.4906150219227333E-01    0.0000000000000000E+00
    0.5000000000000000E+01    0.2500000000000000E+01    0.1250000000000000E+01
    0.5000000000000000E+01    0.2500000000000000E+01    0.2500000000000000E+01
    0.5000000000000000E+01    0.2500000000000000E+01    0.3750000000000000E+01
    0.5000000000000000E+01    0.2500000000000000E+01    0.5000000000000000E+01
    0.3750000000000000E+01    0.2500000000000000E+01    0.5000000000000000E+01
    0.2500000000000000E+01    0.2500000000000000E+01    0.5000000000000000E+01
    0.1250000000000000E+01    0.2500000000000000E+01    0.5000000000000000E+01
    0.0000000000000000E+00    0.2500000000000000E+01    0.5000000000000000E+01
    0.0000000000000000E+00    0.2500000000000000E+01    0.3750000000000000E+01
    0.0000000000000000E+00    0.2500000000000000E+01    0.2500000000000000E+01
    0.0000000000000000E+00    0.2500000000000000E+01    0.1250000000000000E+01
    0.9631080833812172E+00    0.2500000000000000E+01    0.9613285771248219E+00
    0.3981732467264904E+01    0.2500000000000000E+01    0.4069753913607991E+01
    0.4035525118777670E+01    0.2500000000000000E+01    0.1012015867579395E+01
    0.9641717640894248E+00    0.2500000000000000E+01    0.3972455192261839E+01
    0.1547743040396780E+01    0.2500000000000000E+01    0.2928177746738678E+01
    0.6985170616192014E+00    0.2500000000000000E+01    0.3068281976055466E+01
    0.8931277594515110E+00    0.2500000000000000E+01    0.2052465503257726E+01
    0.2183293750162785E+01    0.2500000000000000E+01    0.3959073795658649E+01
    0.3855333506014705E+01    0.2500000000000000E+01    0.2931218481500625E+01
    0.3152495579421047E+01    0.2500000000000000E+01    0.3635850502723324E+01
    0.3103247580566054E+01    0.2500000000000000E+01    0.4331682712472464E+01
    0.3266837581688852E+01    0.2500000000000000E+01    0.1886092433583972E+01
    0.4231539241296245E+01    0.2500000000000000E+01    0.1915865356532799E+01
    0.1909741006522088E+01    0.2500000000000000E+01    0.7170024419130505E+00
    0.2880784107213163E+01    0.2500000000000000E+01    0.9046598906449592E+00
    0.2014316024535771E+01    0.2500000000000000E+01    0.1762464314805728E+01
    0.2670003247036656E+01    0.2500000000000000E+01    0.2850479545835163E+01
    0.5000000000000000E+01    0.1250000000000000E+01    0.5000000000000000E+01
    0.5000000000000000E+01    0.0000000000000000E+00    0.5000000000000000E+01
    0.5000000000000000E+01   -0.1250000000000000E+01    0.5000000000000000E+01
    0.5000000000000000E+01   -0.2500000000000000E+01    0.5000000000000000E+01
    0.5000000000000000E+01   -0.2500000000000000E+01    0.3750000000000000E+01
    0.5000000000000000E+01   -0.2500000000000000E+01    0.2500000000000000E+01
    0.5000000000000000E+01   -0.2500000000000000E+01    0.1250000000000000E+01
    0.5000000000000000E+01    0.1578994732800803E+01    0.9058375365086910E+00
    0.5000000000000000E+01   -0.1583989954232354E+01    0.3982050490726493E+01
    0.5000000000000000E+01    0.1453322699199022E+01    0.4033849428301197E+01
    0.5000000000000000E+01   -0.1479596339503735E+01    0.1040505887381675E+01
    0.5000000000000000E+01   -0.3227322616384110E+00    0.1099454400140349E+01
    0.5000000000000000E+01    0.6593508822075582E+00    0.7354504170366591E+00
    0.5000000000000000E+01    0.8256214013940779E+00    0.1622302608453282E+01
    0.5000000000000000E+01   -0.1650070333782557E+01    0.2145871574390382E+01
    0.5000000000000000E+01   -0.4612828702537229E+00    0.4086422318222992E+01
    0.5000000000000000E+01   -0.8579242121530853E+00    0.2979540174134984E+01
    0.5000000000000000E+01   -0.1836846154397680E+01    0.3045064261640043E+01
    0.5000000000000000E+01    0.3508002863614053E+00    0.3428197553792836E+01
    0.5000000000000000E+01    0.5185680230613409E+00    0.4309693860063405E+01
    0.5000000000000000E+01    0.1738996113203182E+01    0.1827272193562204E+01
    0.5000000000000000E+01    0.1325493893339706E+01    0.2808563282768077E+01
    0.5000000000000000E+01   -0.8731419609589618E+00    0.1895995683864404E+01
    0.5000000000000000E+01    0.4906150219227333E-01    0.2273179336307740E+01
    0.0000000000000000E+00    0.1250000000000000E+01    0.5000000000000000E+01
    0.0000000000000000E+00    0.0000000000000000E+00    0.5000000000000000E+01
    0.0000000000000000E+00   -0.1250000000000000E+01    0.5000000000000000E+01
    0.0000000000000000E+00   -0.2500000000000000E+01    0.5000000000000000E+01
    0.1250000000000000E+01   -0.2500000000000000E+01    0.5000000000000000E+01
    0.2500000000000000E+01   -0.2500000000000000E+01    0.5000000000000000E+01
    0.3750000000000000E+01   -0.2500000000000000E+01    0.5000000000000000E+01
    0.4042003247744892E+01    0.1558308132739014E+01    0.5000000000000000E+01
    0.9304122287900499E+00   -0.1548001304379777E+01    0.5000000000000000E+01
    0.1037243024609388E+01    0.1462892710085612E+01    0.5000000000000000E+01
    0.3946240828834967E+01   -0.1445243809615570E+01    0.5000000000000000E+01
    0.4092527262848217E+01   -0.3455338993778935E+00    0.5000000000000000E+01
    0.4293103109154542E+01    0.6277660831404320E+00    0.5000000000000000E+01
    0.3241512314643519E+01    0.7429886854239611E+00    0.5000000000000000E+01
    0.2844289952419609E+01   -0.1588117879734118E+01    0.5000000000000000E+01
    0.7159905765450471E+00   -0.6002320124191652E+00    0.5000000000000000E+01
    0.1754341919796891E+01   -0.7398147869923652E+00    0.5000000000000000E+01
    0.1870296826774691E+01   -0.1788622905643739E+01    0.5000000000000000E+01
    0.9220614901912976E+00    0.3083720183248586E+00    0.5000000000000000E+01
    0.3101523624086016E+01    0.1777901774806180E+01    0.5000000000000000E+01
    0.2192512063922564E+01    0.1576861561598471E+01    0.5000000000000000E+01
    0.2024793420196460E+01    0.4773861992750707E+00    0.5000000000000000E+01
    0.2990627757741975E+01   -0.4878110785814084E+00    0.5000000000000000E+01
    0.0000000000000000E+00   -0.2500000000000000E+01    0.1250000000000000E+01
    0.0000000000000000E+00   -0.2500000000000000E+01    0.2500000000000000E+01
    0.0000000000000000E+00   -0.2500000000000000E+01    0.3750000000000000E+01
    0.0000000000000000E+00    0.1558308132739014E+01    0.4042003247744892E+01
    0.0000000000000000E+00   -0.1548001304379777E+01    0.9304122287900499E+00
    0.0000000000000000E+00    0.1462892710085612E+01    0.1037243024609388E+01
    0.0000000000000000E+00   -0.1445243809615570E+01    0.3946240828834967E+01
    0.0000000000000000E+00   -0.3455338993778935E+00    0.4092527262848217E+01
    0.0000000000000000E+00    0.6277660831404320E+00    0.4293103109154542E+01
    0.0000000000000000E+00    0.7429886854239611E+00    0.3241512314643519E+01
    0.0000000000000000E+00   -0.1588117879734118E+01    0.2844289952419609E+01
    0.0000000000000000E+00   -0.6002320124191652E+00    0.7159905765450471E+00
    0.0000000000000000E+00   -0.7398147869923652E+00    0.1754341919796891E+01
    0.0000000000000000E+00   -0.1788622905643739E+01    0.1870296826774691E+01
    0.0000000000000000E+00    0.3083720183248586E+00    0.9220614901912976E+00
    0.0000000000000000E+00    0.1777901774806180E+01    0.3101523624086016E+01
    0.0000000000000000E+00    0.1576861561598471E+01    0.2192512063922564E+01
[...]
POINT_DATA 213
SCALARS rho double 1
LOOKUP_TABLE default
   0.1344271449750176E+01
   0.9569758915553348E+00
   0.9462964200959271E+00
   0.9418612718929343E+00
   0.8437304900410492E+00
   0.7738004326021135E+00
   0.7629818923545170E+00
   0.7664577919363423E+00
   0.8307874046188999E+00
   0.9352972565159595E+00
   0.9342219822012759E+00
   0.9617195286396168E+00
   0.1449457451807618E+01
   0.1494090644662716E+01
   0.1644667277204177E+01
   0.1425832049575549E+01
   0.1009014435352246E+01
   0.9508810865006233E+00
   0.9436508501899916E+00
   0.9581561034484508E+00
   0.9415852462543766E+00
   0.1036377240648759E+01
   0.9256161101056335E+00
   0.9322349872514423E+00
   0.9537479579704201E+00
   0.9518769567196889E+00
   0.9348583129228469E+00
   0.9564028419902150E+00
   0.9376098403686577E+00
   0.9300661525860476E+00
   0.9445157493356440E+00
   0.8863506519304662E+00
   0.9423579969834127E+00
   0.9635003079922759E+00
   0.1008299039511914E+01
   0.1006735291839009E+01
   0.1001964617623819E+01
   0.1003219581551892E+01
   0.1004132053992169E+01
   0.1005228602964922E+01
   0.1004260408276859E+01
   0.1008308190003036E+01
   0.1023893138001630E+01
   0.1063553956096208E+01
   0.1019182513304046E+01
   0.1001780766443424E+01
   0.9643309939207234E+00
   0.1005283709011390E+01
   0.1000721163302676E+01
   0.1008742083839901E+01
   0.1008078083670681E+01
   0.1002349807136932E+01
   0.9979986848188782E+00
   0.1000583560954855E+01
   0.1001620123677906E+01
   0.9826893073889259E+00
   0.9842439642575476E+00
   0.9833314037112085E+00
   0.9788207413060993E+00
   0.9902638161504589E+00
   0.9934561553250137E+00
   0.1002011751677790E+01
   0.1002134465686979E+01
   0.1002276326550654E+01
   0.1001794758391335E+01
   0.1009778638885410E+01
   0.1006429109017516E+01
   0.9558786961035396E+00
   0.9249398411695916E+00
   0.1007036755524015E+01
   0.1004504925174852E+01
   0.9143642077255982E+00
   0.9089667861105238E+00
   0.8751688903722312E+00
   0.9767271885714358E+00
   0.1000452621148913E+01
   0.1005831087460265E+01
   0.1012882803225222E+01
   0.1011618951276811E+01
   0.1010438648581243E+01
   0.1005468280913244E+01
   0.9907612680193281E+00
   0.1005140325682017E+01
   0.9860567246293180E+00
   0.1005609737622722E+01
   0.1004248005740170E+01
   0.1002888437724275E+01
   0.1003345420478464E+01
   0.1003992731903476E+01
   0.1005101716205732E+01
   0.1003211645199608E+01
   0.1002663160013489E+01
   0.1002586231472191E+01
   0.1004060870975031E+01
   0.1004320346069442E+01
   0.1001641920442119E+01
   0.1002273116038136E+01
   0.1002543475641263E+01
   0.1003469520872006E+01
   0.1003372640318021E+01
   0.1003232230073993E+01
   0.1004423863500637E+01
   0.1004313070891118E+01
   0.1003659849431757E+01
   0.1003723103982404E+01
   0.1004329726476614E+01
   0.1004465021926478E+01
   0.1003623375387118E+01
   0.1064422801050726E+01
   0.1028473621467179E+01
   0.1009586657364690E+01
   0.1006638837513467E+01
   0.1163935522449655E+01
   0.1086087969851714E+01
   0.1007893419313066E+01
   0.1007245533350530E+01
   0.1006798074183511E+01
   0.1013018287009750E+01
   0.1019384609577787E+01
   0.1235203670049669E+01
   0.1032529466771675E+01
   0.1046681191677585E+01
   0.1200953642609220E+01
   0.1014718916076712E+01
   0.1032291153305965E+01
   0.1028095236789671E+01
   0.1014628639880928E+01
   0.1029216893275061E+01
   0.1001994816403710E+01
   0.9606929197107106E+00
   0.1006852582841265E+01
   0.1001327193356236E+01
   0.1010821905420695E+01
   0.1012246098910495E+01
   0.1000946006966713E+01
   0.9979121234054537E+00
   0.9980632373041481E+00
   0.1001184143414437E+01
   0.9841362011963151E+00
   0.9814879615545317E+00
   0.9648483322370287E+00
   0.9680877129643132E+00
   0.9914124472212150E+00
   0.9910858388733227E+00
   0.9925545095931546E+00
   0.1001727533894395E+01
   0.9993409402184037E+00
   0.9941410835133626E+00
   0.1007038753603810E+01
   0.1022539494137117E+01
   0.1001088098525223E+01
   0.1008798496301348E+01
   0.1004773846126416E+01
   0.1009050237488260E+01
   0.9966470332397743E+00
   0.1004988557993257E+01
   0.1003325535215992E+01
   0.9949431085504664E+00
   0.9832680782005648E+00
   0.9943957454994550E+00
   0.9973420656290609E+00
   0.9932190085629585E+00
   0.1001306487169727E+01
   0.1003001636984006E+01
   0.1002183579663472E+01
   0.9947078544999161E+00
   0.9937965521463273E+00
   0.1004867865562281E+01
   0.1020077607445938E+01
   0.1005364552430872E+01
   0.9816998152693478E+00
   0.1004973031274851E+01
   0.1012382323448551E+01
   0.9871424296255197E+00
   0.9551513534743908E+00
   0.9865075700346508E+00
   0.9864532950075717E+00
   0.9918946944284671E+00
   0.9933508198372906E+00
   0.9954406189970402E+00
   0.1037336789728438E+01
   0.1033536797990594E+01
   0.1001443320814533E+01
   0.1001930499797307E+01
   0.9912478515978050E+00
   0.9910920509410811E+00
   0.9648489990836010E+00
   0.9933282604854871E+00
   0.1006058638637304E+01
   0.1001954027110563E+01
   0.9908735804765093E+00
   0.9740945214065110E+00
   0.9418802141957384E+00
   0.9819379692037091E+00
   0.9794803560690510E+00
   0.9704172061921258E+00
   0.9720478947062738E+00
   0.9557351702889385E+00
   0.9496731213610599E+00
   0.9528673572393888E+00
   0.1002659534063451E+01
   0.1002471631970977E+01
   0.1000509329298001E+01
   0.1001677321730968E+01
   0.9607931434938208E+00
   0.9491625507087903E+00
   0.9584503069195054E+00
   0.1001121207785028E+01
   0.1000496140593599E+01
   0.1001156644177894E+01
   0.9807376183689187E+00
   0.9806000808946838E+00
   0.9628476109176023E+00
SCALARS u double 1
LOOKUP_TABLE default
   0.0000000000000000E+00
   0.0000000000000000E+00
   0.0000000000000000E+00
   0.0000000000000000E+00
   0.0000000000000000E+00
   0.0000000000000000E+00
   0.0000000000000000E+00
   0.0000000000000000E+00
   0.0000000000000000E+00
   0.0000000000000000E+00
   0.0000000000000000E+00
   0.0000000000000000E+00
   0.0000000000000000E+00
   0.0000000000000000E+00
   0.0000000000000000E+00
   0.0000000000000000E+00
   0.0000000000000000E+00
   0.0000000000000000E+00
   0.0000000000000000E+00
   0.0000000000000000E+00
   0.0000000000000000E+00
   0.0000000000000000E+00
   0.0000000000000000E+00
   0.0000000000000000E+00
   0.0000000000000000E+00
   0.0000000000000000E+00
   0.0000000000000000E+00
   0.0000000000000000E+00
   0.0000000000000000E+00
   0.0000000000000000E+00
   0.0000000000000000E+00
   0.0000000000000000E+00
   0.0000000000000000E+00
   0.4950176835701809E+00
   0.5338221300605371E+00
   0.5183269247791596E+00
   0.4930649880192366E+00
   0.4847578719331882E+00
   0.4867666423653347E+00
   0.4890763583300937E+00
   0.4957848880329641E+00
   0.4898301883790108E+00
   0.4717388493441506E+00
   0.4454814153587302E+00
   0.4833907048923157E+00
   0.5098397462670502E+00
   0.4390712699548461E+00
   0.4949403964695955E+00
   0.5225330362485354E+00
   0.4962454545658518E+00
   0.5226154963597831E+00
   0.5038881743029402E+00
   0.5646883609039984E+00
   0.5247509156866862E+00
   0.4991466119501309E+00
   0.5730561900932966E+00
   0.5696051096253550E+00
   0.3737941449627857E+00
   0.3998658123890081E+00
   0.5599326587320034E+00
   0.5564587630637038E+00
   0.4942627332974660E+00
   0.4948659466161270E+00
   0.4925735874286454E+00
   0.4914269544072058E+00
   0.5162356851547940E+00
   0.5361798305996528E+00
   0.4947413356161282E+00
   0.4524112203086236E+00
   0.5128777326251643E+00
   0.5117942041099124E+00
   0.4783517503921224E+00
   0.4931696655283838E+00
   0.4603173591431264E+00
   0.5244892719891577E+00
   0.5297434248113118E+00
   0.5129579301457564E+00
   0.5328358320396600E+00
   0.5308941037924600E+00
   0.5309856171151869E+00
   0.5063656735877802E+00
   0.5282461954746357E+00
   0.5410312730949544E+00
   0.5361261481086734E+00
   0.5374105276950039E+00
   0.4965364818581627E+00
   0.4975340903873434E+00
   0.4963842644371581E+00
   0.4955220267406008E+00
   0.4904581830732156E+00
   0.4903044384775788E+00
   0.4862182763991962E+00
   0.4854049561027946E+00
   0.4932164387750115E+00
   0.4909833312071487E+00
   0.4832194696292673E+00
   0.4872622776954766E+00
   0.4880124909440267E+00
   0.4872445931143829E+00
   0.4882696668991507E+00
   0.4952597556330076E+00
   0.4900967167386137E+00
   0.4904000090231351E+00
   0.4944232925330834E+00
   0.4868002480564180E+00
   0.4892385983522470E+00
   0.4881393369234293E+00
   0.4878457828408415E+00
   0.4446866579307128E+00
   0.4700028779616872E+00
   0.4891999056212459E+00
   0.4885247843444306E+00
   0.4506533042674284E+00
   0.4687378565324280E+00
   0.4877010456514700E+00
   0.4868353683079837E+00
   0.4908994715834301E+00
   0.4793551576296744E+00
   0.4658071746401798E+00
   0.3792725225418791E+00
   0.4901596530027661E+00
   0.4486686689566486E+00
   0.4436137388969804E+00
   0.4845147240875891E+00
   0.4621822644880342E+00
   0.4665749534002613E+00
   0.4748140298854372E+00
   0.4894494216306558E+00
   0.5085556973424360E+00
   0.4315073868792280E+00
   0.4927349360791387E+00
   0.5318289234069705E+00
   0.4913399195702617E+00
   0.5207019993127324E+00
   0.5060964599218011E+00
   0.5688797395553084E+00
   0.5273992817885252E+00
   0.5015044841159855E+00
   0.5821790085903721E+00
   0.5689618251249856E+00
   0.3406394441885711E+00
   0.3789869409813054E+00
   0.5751958207059670E+00
   0.5666485493441930E+00
   0.5704108783109845E+00
   0.5291056376122064E+00
   0.5451902710932107E+00
   0.5718804315148579E+00
   0.5389079125598429E+00
   0.5475507504578861E+00
   0.5821713868960798E+00
   0.4925601784132150E+00
   0.5042157546029981E+00
   0.4961735435792955E+00
   0.5565207963003319E+00
   0.4758845213308667E+00
   0.4950268383155214E+00
   0.5498525443359706E+00
   0.5891202296000621E+00
   0.5841957609214302E+00
   0.5469097664633997E+00
   0.5805417617847884E+00
   0.5106251438258956E+00
   0.5030200512792008E+00
   0.5033624679818338E+00
   0.5676446096787213E+00
   0.5563943082830259E+00
   0.4947255973013100E+00
   0.5505243828696476E+00
   0.5510857281550394E+00
   0.5657350949628183E+00
   0.4920070017312567E+00
   0.4927299096255851E+00
   0.3865140567511326E+00
   0.3687754531716938E+00
   0.5574921716659721E+00
   0.5763755545404218E+00
   0.4194304389853765E+00
   0.5824843240157642E+00
   0.4265209611473328E+00
   0.5392799843660578E+00
   0.5012032759619734E+00
   0.5119513208605312E+00
   0.5049119463431152E+00
   0.5751974973945918E+00
   0.5876371360455709E+00
   0.5379907803856387E+00
   0.5677472540396039E+00
   0.5351248667034467E+00
   0.5338056380073750E+00
   0.5580313798500429E+00
   0.5512707859847340E+00
   0.4261852750497235E+00
   0.5273356176565844E+00
   0.5795712528876779E+00
   0.3318687130733168E+00
   0.4760283322107126E+00
   0.5446196252052923E+00
   0.4798331895824285E+00
   0.3005293504271132E+00
   0.5031051137915951E+00
   0.5017115977373796E+00
   0.5129033211056441E+00
   0.5414840108865046E+00
   0.3437603851478097E+00
   0.3397710711439408E+00
   0.3189928566174913E+00
   0.5065936051707421E+00
   0.5123483779806395E+00
   0.5330313519534680E+00
   0.5879310000441206E+00
   0.4644180532758970E+00
   0.3531270505772790E+00
SCALARS v double 1
LOOKUP_TABLE default
   0.0000000000000000E+00
   0.0000000000000000E+00
   0.0000000000000000E+00
   0.0000000000000000E+00
   0.0000000000000000E+00
   0.0000000000000000E+00
   0.0000000000000000E+00
   0.0000000000000000E+00
   0.0000000000000000E+00
   0.0000000000000000E+00
   0.0000000000000000E+00
   0.0000000000000000E+00
   0.0000000000000000E+00
   0.0000000000000000E+00
   0.0000000000000000E+00
   0.0000000000000000E+00
   0.0000000000000000E+00
   0.0000000000000000E+00
   0.0000000000000000E+00
   0.0000000000000000E+00
   0.0000000000000000E+00
   0.0000000000000000E+00
   0.0000000000000000E+00
   0.0000000000000000E+00
   0.0000000000000000E+00
   0.0000000000000000E+00
   0.0000000000000000E+00
   0.0000000000000000E+00
   0.0000000000000000E+00
   0.0000000000000000E+00
   0.0000000000000000E+00
   0.0000000000000000E+00
   0.0000000000000000E+00
   0.0000000000000000E+00
   0.0000000000000000E+00
   0.0000000000000000E+00
   0.0000000000000000E+00
   0.0000000000000000E+00
   0.0000000000000000E+00
   0.0000000000000000E+00
   0.0000000000000000E+00
   0.0000000000000000E+00
   0.0000000000000000E+00
   0.0000000000000000E+00
   0.0000000000000000E+00
   0.0000000000000000E+00
   0.0000000000000000E+00
   0.0000000000000000E+00
   0.0000000000000000E+00
   0.0000000000000000E+00
   0.0000000000000000E+00
   0.0000000000000000E+00
   0.0000000000000000E+00
   0.0000000000000000E+00
   0.0000000000000000E+00
   0.0000000000000000E+00
   0.0000000000000000E+00
   0.0000000000000000E+00
   0.0000000000000000E+00
   0.0000000000000000E+00
   0.0000000000000000E+00
   0.7970254535448300E-03
  -0.1329294688803016E-02
  -0.1332592752632092E-02
   0.0000000000000000E+00
   0.0000000000000000E+00
   0.0000000000000000E+00
   0.0000000000000000E+00
  -0.1922562561749018E-01
   0.4770618240452028E-03
   0.2183360176809471E-02
   0.1427333017822265E-01
  -0.6488282105633085E-02
  -0.7821623015361164E-02
  -0.1327725060027308E-01
   0.4914481805342550E-02
   0.6907122104501738E-03
   0.3434418452993298E-02
   0.1920847400566859E-02
   0.3147960237121149E-02
   0.1704778378873579E-02
  -0.7316187347452304E-02
  -0.7701903115100067E-04
   0.4468738043907474E-02
  -0.4387156509753542E-03
  -0.6383742714040331E-04
  -0.1963394585724686E-03
   0.8071268027648346E-03
   0.0000000000000000E+00
   0.0000000000000000E+00
   0.0000000000000000E+00
   0.0000000000000000E+00
   0.4257020248010746E-03
   0.1616304637535297E-02
  -0.1297550946752612E-02
  -0.1022774981102648E-02
  -0.2134342411660016E-02
  -0.1064012660373561E-02
  -0.8200064283017003E-03
  -0.7617033223629346E-03
   0.5202259103759306E-04
  -0.6244091940769795E-03
   0.7916469215265788E-03
  -0.1745238510097637E-02
   0.2747128670804107E-03
  -0.8939747270899852E-04
  -0.9424310123351556E-03
  -0.1100227545583814E-02
   0.0000000000000000E+00
   0.0000000000000000E+00
   0.0000000000000000E+00
  -0.1061759100046086E-02
  -0.7641128908859760E-02
   0.1860854760408931E-01
  -0.2834554382907758E-04
  -0.1383129152031492E-02
  -0.2035122970280794E-02
  -0.5666383186259957E-02
  -0.1585210200054387E-02
  -0.5947016500339177E-02
  -0.4160601916607671E-02
   0.1565614819285640E-02
   0.3329524834933647E-01
   0.3055141353164288E-04
  -0.2766884857200163E-02
   0.3566484722716421E-02
   0.3596189352680116E-03
   0.0000000000000000E+00
   0.0000000000000000E+00
   0.0000000000000000E+00
   0.0000000000000000E+00
   0.0000000000000000E+00
   0.0000000000000000E+00
   0.0000000000000000E+00
   0.0000000000000000E+00
   0.0000000000000000E+00
   0.0000000000000000E+00
   0.0000000000000000E+00
   0.0000000000000000E+00
   0.0000000000000000E+00
   0.0000000000000000E+00
   0.0000000000000000E+00
   0.0000000000000000E+00
   0.0000000000000000E+00
   0.5047032585304640E-02
   0.3230791963017311E-02
   0.8149134304011060E-02
   0.6168367002335077E-02
   0.1122928643378148E-01
   0.1429277503659723E-01
  -0.2038826785486356E-03
   0.5118221843725800E-02
   0.2914950553666154E-02
   0.3373611847714710E-02
   0.3728336443067382E-02
  -0.1465719873249170E-01
  -0.6159699888575567E-03
   0.6651630361734110E-02
   0.1542014236066217E-02
   0.1969646522530526E-02
   0.4266273550596457E-02
  -0.2790960968944980E-02
   0.1226887082471227E-02
   0.2819172498257700E-02
   0.1497449168809007E-02
   0.2575339052565227E-02
   0.2030646460765749E-02
   0.2118046076156049E-02
   0.8700410481715767E-02
  -0.3733396989405928E-02
   0.6241189121619908E-02
   0.2516489027235519E-04
  -0.3854044921605885E-03
  -0.1674679016540827E-01
  -0.4881976933107065E-02
  -0.4720000832034065E-02
   0.3445223056086391E-02
  -0.6135724127923388E-02
   0.9934520010208585E-04
  -0.3291372934896344E-01
  -0.3046196744879211E-02
   0.4722743212203110E-02
   0.9228368087523723E-03
   0.2112175239439640E-02
   0.4518755702400190E-02
   0.2720465296392515E-02
   0.3212576504858654E-02
   0.5200804230697620E-02
   0.1941838973017627E-02
   0.7315897614604372E-03
  -0.2555237395859719E-04
  -0.5374632808517642E-02
  -0.6959591045870499E-02
  -0.9443816526001747E-03
   0.1105268431737198E-02
  -0.2080554146411047E-02
  -0.3200035926338525E-02
  -0.2527833401347802E-02
  -0.4115193595213531E-02
  -0.7593954948358249E-02
  -0.1985686406075356E-02
   0.6240402913537643E-03
  -0.2239081624242131E-03
   0.1216949789687861E-02
  -0.3483958328742622E-02
   0.5229139892918581E-02
  -0.8487626027818451E-02
   0.2315170837151643E-04
  -0.3395192808083228E-03
   0.2542663556181984E-02
   0.1663457704846968E-02
   0.2021438734535978E-02
  -0.5620784012056773E-02
SCALARS w double 1
LOOKUP_TABLE default
   0.0000000000000000E+00
   0.0000000000000000E+00
   0.0000000000000000E+00
   0.0000000000000000E+00
   0.0000000000000000E+00
   0.0000000000000000E+00
   0.0000000000000000E+00
   0.0000000000000000E+00
   0.0000000000000000E+00
   0.0000000000000000E+00
   0.0000000000000000E+00
   0.0000000000000000E+00
   0.0000000000000000E+00
   0.0000000000000000E+00
   0.0000000000000000E+00
   0.0000000000000000E+00
   0.0000000000000000E+00
   0.0000000000000000E+00
   0.0000000000000000E+00
   0.0000000000000000E+00
   0.0000000000000000E+00
   0.0000000000000000E+00
   0.0000000000000000E+00
   0.0000000000000000E+00
   0.0000000000000000E+00
   0.0000000000000000E+00
   0.0000000000000000E+00
   0.0000000000000000E+00
   0.0000000000000000E+00
   0.0000000000000000E+00
   0.0000000000000000E+00
   0.0000000000000000E+00
   0.0000000000000000E+00
  -0.1007612287216994E+00
  -0.4249297118236137E-01
   0.7371987188557737E-03
   0.5725799952701725E-02
   0.5699058046700853E-03
   0.1609783190242319E-02
   0.3375073098025034E-02
   0.2371773678917386E-02
   0.4590624807940567E-03
   0.3518225895534755E-02
   0.4521817585508422E-01
   0.6522937826035285E-01
   0.8689297872986430E-03
  -0.2261151819121170E-01
   0.4316553583587859E-02
   0.1358734843394684E-01
   0.1039452556452814E-01
   0.4900548417335798E-01
   0.2437443596950361E-02
  -0.6509940972716462E-02
  -0.7012226453880661E-03
   0.3411017262590261E-03
   0.3904107452210863E-02
  -0.3893254292329483E-01
   0.1798168103082590E-01
   0.1119638180727671E-01
   0.3403773261889469E-01
   0.8438810312672003E-02
   0.4937312288081341E-02
   0.4970345592956003E-02
   0.4871517429024125E-02
   0.6027191724849350E-02
   0.2599191851239485E-02
  -0.4144429578360000E-01
  -0.9954261841212410E-01
  -0.1121678216628728E+00
   0.5070875103365393E-02
   0.4230770786248162E-02
  -0.1004732302032287E+00
  -0.9895252481742102E-01
  -0.9875450924114655E-01
  -0.9462509591892729E-01
  -0.6807133806006567E-01
   0.5154922257062876E-02
  -0.1935330735350307E-01
  -0.1575800279836151E-01
  -0.6002862281234330E-02
   0.6819057447035481E-02
  -0.8010050790678058E-01
  -0.2781092444148910E-01
  -0.8096457334784186E-01
  -0.5873277542151864E-01
   0.3083625720803526E-02
   0.2685146497831226E-02
   0.2640431210649107E-02
   0.3450191955302059E-02
   0.4007083857048528E-02
   0.1201214396924626E-02
  -0.1438845826679707E-03
   0.2039877315642419E-02
   0.4895693687559970E-02
   0.3857385668847205E-02
   0.1114201968081555E-02
   0.1182682063262593E-02
   0.1465296267544305E-02
  -0.1653632808689757E-04
   0.8996631983703445E-04
   0.4386667936656910E-02
   0.2715724319993558E-02
   0.2322755377424809E-02
   0.5010601117490523E-02
   0.1071689416077408E-02
   0.2712217806255274E-02
   0.2013964165935848E-02
   0.2879092433179975E-04
   0.8374614360605170E-01
   0.2793870737041261E-02
  -0.8346628026713057E-03
  -0.1492945310262517E-03
   0.1409540848814802E+00
   0.1239332959574336E+00
  -0.1219093283720785E-02
  -0.4381936071480814E-02
  -0.3043057680815769E-03
  -0.6512246788196774E-02
  -0.1949570292744923E-02
   0.1557630977404079E+00
   0.7489979215408968E-01
   0.2550174920016650E-01
   0.1656445124906800E+00