# vtk DataFile Version 2.0
FUN3D:global_image_vtk
ASCII
DATASET UNSTRUCTURED_GRID
POINTS 213 double
    0.0000000000000000E+00    0.2500000000000000E+01    0.0000000000000000E+00
    0.1250000000000000E+01    0.2500000000000000E+01    0.0000000000000000E+00
    0.2500000000000000E+01    0.2500000000000000E+01    0.0000000000000000E+00
    0.3750000000000000E+01    0.2500000000000000E+01    0.0000000000000000E+00
    0.5000000000000000E+01    0.2500000000000000E+01    0.0000000000000000E+00
    0.5000000000000000E+01    0.1250000000000000E+01    0.0000000000000000E+00
    0.5000000000000000E+01    0.0000000000000000E+00    0.0000000000000000E+00
    0.5000000000000000E+01   -0.1250000000000000E+01    0.0000000000000000E+00
    0.5000000000000000E+01   -0.2500000000000000E+01    0.0000000000000000E+00
    0.3750000000000000E+01   -0.2500000000000000E+01    0.0000000000000000E+00
    0.2500000000000000E+01   -0.2500000000000000E+01    0.0000000000000000E+00
    0.1250000000000000E+01   -0.2500000000000000E+01    0.0000000000000000E+00
    0.0000000000000000E+00   -0.2500000000000000E+01    0.0000000000000000E+00
    0.0000000000000000E+00   -0.1250000000000000E+01    0.0000000000000000E+00
    0.0000000000000000E+00    0.0000000000000000E+00    0.0000000000000000E+00
    0.0000000000000000E+00    0.1250000000000000E+01    0.0000000000000000E+00
    0.9058375365086910E+00    0.1578994732800803E+01    0.0000000000000000E+00
    0.3982050490726493E+01   -0.1583989954232354E+01    0.0000000000000000E+00
    0.4033849428301197E+01    0.1453322699199022E+01    0.0000000000000000E+00
    0.1040505887381675E+01   -0.1479596339503735E+01    0.0000000000000000E+00
    0.1099454400140349E+01   -0.3227322616384110E+00    0.0000000000000000E+00
    0.7354504170366591E+00    0.6593508822075582E+00    0.0000000000000000E+00
    0.1622302608453282E+01    0.8256214013940779E+00    0.0000000000000000E+00
    0.2145871574390382E+01   -0.1650070333782557E+01    0.0000000000000000E+00
    0.4086422318222992E+01   -0.4612828702537229E+00    0.0000000000000000E+00
    0.2979540174134984E+01   -0.8579242121530853E+00    0.0000000000000000E+00
    0.3045064261640043E+01   -0.1836846154397680E+01    0.0000000000000000E+00
    0.3428197553792836E+01    0.3508002863614053E+00    0.0000000000000000E+00
    0.4309693860063405E+01    0.5185680230613409E+00    0.0000000000000000E+00
    0.1827272193562204E+01    0.1738996113203182E+01    0.0000000000000000E+00
    0.2808563282768077E+01    0.1325493893339706E+01    0.0000000000000000E+00
    0.1895995683864404E+01   -0.8731419609589618E+00    0.0000000000000000E+00
    0.2273179336307740E+01    0.4906150219227333E-01    0.0000000000000000E+00
    0.5000000000000000E+01    0.2500000000000000E+01    0.1250000000000000E+01
    0.5000000000000000E+01    0.2500000000000000E+01    0.2500000000000000E+01
    0.5000000000000000E+01    0.2500000000000000E+01    0.3750000000000000E+01
    0.5000000000000000E+01    0.2500000000000000E+01    0.5000000000000000E+01
    0.3750000000000000E+01    0.2500000000000000E+01    0.5000000000000000E+01
    0.2500000000000000E+01    0.2500000000000000E+01    0.5000000000000000E+01
    0.1250000000000000E+01    0.2500000000000000E+01    0.5000000000000000E+01
    0.0000000000000000E+00    0.2500000000000000E+01    0.5000000000000000E+01
    0.0000000000000000E+00    0.2500000000000000E+01    0.3750000000000000E+01
    0.0000000000000000E+00    0.2500000000000000E+01    0.2500000000000000E+01
    0.0000000000000000E+00    0.2500000000000000E+01    0.1250000000000000E+01
    0.9631080833812172E+00    0.2500000000000000E+01    0.9613285771248219E+00
    0.3981732467264904E+01    0.2500000000000000E+01    0.4069753913607991E+01
    0.4035525118777670E+01    0.2500000000000000E+01    0.1012015867579395E+01
    0.9641717640894248E+00    0.2500000000000000E+01    0.3972455192261839E+01
    0.1547743040396780E+01    0.2500000000000000E+01    0.2928177746738678E+01
    0.6985170616192014E+00    0.2500000000000000E+01    0.3068281976055466E+01
    0.8931277594515110E+00    0.2500000000000000E+01    0.2052465503257726E+01
    0.2183293750162785E+01    0.2500000000000000E+01    0.3959073795658649E+01
    0.3855333506014705E+01    0.2500000000000000E+01    0.2931218481500625E+01
    0.3152495579421047E+01    0.2500000000000000E+01    0.3635850502723324E+01
    0.3103247580566054E+01    0.2500000000000000E+01    0.4331682712472464E+01
    0.3266837581688852E+01    0.2500000000000000E+01    0.1886092433583972E+01
    0.4231539241296245E+01    0.2500000000000000E+01    0.1915865356532799E+01
    0.1909741006522088E+01    0.2500000000000000E+01    0.7170024419130505E+00
    0.2880784107213163E+01    0.2500000000000000E+01    0.9046598906449592E+00
    0.2014316024535771E+01    0.2500000000000000E+01    0.1762464314805728E+01
    0.2670003247036656E+01    0.2500000000000000E+01    0.2850479545835163E+01
    0.5000000000000000E+01    0.1250000000000000E+01    0.5000000000000000E+01
    0.5000000000000000E+01    0.0000000000000000E+00    0.5000000000000000E+01
    0.5000000000000000E+01   -0.1250000000000000E+01    0.5000000000000000E+01
    0.5000000000000000E+01   -0.2500000000000000E+01    0.5000000000000000E+01
    0.5000000000000000E+01   -0.2500000000000000E+01    0.3750000000000000E+01
    0.5000000000000000E+01   -0.2500000000000000E+01    0.2500000000000000E+01
    0.5000000000000000E+01   -0.2500000000000000E+01    0.1250000000000000E+01
    0.5000000000000000E+01    0.1578994732800803E+01    0.9058375365086910E+00
    0.5000000000000000E+01   -0.1583989954232354E+01    0.3982050490726493E+01
    0.5000000000000000E+01    0.1453322699199022E+01    0.4033849428301197E+01
    0.5000000000000000E+01   -0.1479596339503735E+01    0.1040505887381675E+01
    0.5000000000000000E+01   -0.3227322616384110E+00    0.1099454400140349E+01
    0.5000000000000000E+01    0.6593508822075582E+00    0.7354504170366591E+00
    0.5000000000000000E+01    0.8256214013940779E+00    0.1622302608453282E+01
    0.5000000000000000E+01   -0.1650070333782557E+01    0.2145871574390382E+01
    0.5000000000000000E+01   -0.4612828702537229E+00    0.4086422318222992E+01
    0.5000000000000000E+01   -0.8579242121530853E+00    0.2979540174134984E+01
    0.5000000000000000E+01   -0.1836846154397680E+01    0.3045064261640043E+01
    0.5000000000000000E+01    0.3508002863614053E+00    0.3428197553792836E+01
    0.5000000000000000E+01    0.5185680230613409E+00    0.4309693860063405E+01
    0.5000000000000000E+01    0.1738996113203182E+01    0.1827272193562204E+01
    0.5000000000000000E+01    0.1325493893339706E+01    0.2808563282768077E+01
    0.5000000000000000E+01   -0.8731419609589618E+00    0.1895995683864404E+01
    0.5000000000000000E+01    0.4906150219227333E-01    0.2273179336307740E+01
    0.0000000000000000E+00    0.1250000000000000E+01    0.5000000000000000E+01
    0.0000000000000000E+00    0.0000000000000000E+00    0.5000000000000000E+01
    0.0000000000000000E+00   -0.1250000000000000E+01    0.5000000000000000E+01
    0.0000000000000000E+00   -0.2500000000000000E+01    0.5000000000000000E+01
    0.1250000000000000E+01   -0.2500000000000000E+01    0.5000000000000000E+01
    0.2500000000000000E+01   -0.2500000000000000E+01    0.5000000000000000E+01
    0.3750000000000000E+01   -0.2500000000000000E+01    0.5000000000000000E+01
    0.4042003247744892E+01    0.1558308132739014E+01    0.5000000000000000E+01
    0.9304122287900499E+00   -0.1548001304379777E+01    0.5000000000000000E+01
    0.1037243024609388E+01    0.1462892710085612E+01    0.5000000000000000E+01
    0.3946240828834967E+01   -0.1445243809615570E+01    0.5000000000000000E+01
    0.4092527262848217E+01   -0.3455338993778935E+00    0.5000000000000000E+01
    0.4293103109154542E+01    0.6277660831404320E+00    0.5000000000000000E+01
    0.3241512314643519E+01    0.7429886854239611E+00    0.5000000000000000E+01
    0.2844289952419609E+01   -0.1588117879734118E+01    0.5000000000000000E+01
    0.7159905765450471E+00   -0.6002320124191652E+00    0.5000000000000000E+01
    0.1754341919796891E+01   -0.7398147869923652E+00    0.5000000000000000E+01
    0.1870296826774691E+01   -0.1788622905643739E+01    0.5000000000000000E+01
    0.9220614901912976E+00    0.3083720183248586E+00    0.5000000000000000E+01
    0.3101523624086016E+01    0.1777901774806180E+01    0.5000000000000000E+01
    0.2192512063922564E+01    0.1576861561598471E+01    0.5000000000000000E+01
    0.2024793420196460E+01    0.4773861992750707E+00    0.5000000000000000E+01
    0.2990627757741975E+01   -0.4878110785814084E+00    0.5000000000000000E+01
    0.0000000000000000E+00   -0.2500000000000000E+01    0.1250000000000000E+01
    0.0000000000000000E+00   -0.2500000000000000E+01    0.2500000000000000E+01
    0.0000000000000000E+00   -0.2500000000000000E+01    0.3750000000000000E+01
    0.0000000000000000E+00    0.1558308132739014E+01    0.4042003247744892E+01
    0.0000000000000000E+00   -0.1548001304379777E+01    0.9304122287900499E+00
    0.0000000000000000E+00    0.1462892710085612E+01    0.1037243024609388E+01
    0.0000000000000000E+00   -0.1445243809615570E+01    0.3946240828834967E+01
    0.0000000000000000E+00   -0.3455338993778935E+00    0.4092527262848217E+01
    0.0000000000000000E+00    0.6277660831404320E+00    0.4293103109154542E+01
    0.0000000000000000E+00    0.7429886854239611E+00    0.3241512314643519E+01
    0.0000000000000000E+00   -0.1588117879734118E+01    0.2844289952419609E+01
    0.0000000000000000E+00   -0.6002320124191652E+00    0.7159905765450471E+00
    0.0000000000000000E+00   -0.7398147869923652E+00    0.1754341919796891E+01
    0.0000000000000000E+00   -0.1788622905643739E+01    0.1870296826774691E+01
    0.0000000000000000E+00    0.3083720183248586E+00    0.9220614901912976E+00
    0.0000000000000000E+00    0.1777901774806180E+01    0.3101523624086016E+01
    0.0000000000000000E+00    0.1576861561598471E+01    0.2192512063922564E+01
[...]
POINT_DATA 213
SCALARS rho double 1
LOOKUP_TABLE default
   0.1343973529796251E+01
   0.9576996483273669E+00
   0.9477474351508469E+00
   0.9438163986370196E+00
   0.8441053905584707E+00
   0.7733619480344480E+00
   0.7630166962031428E+00
   0.7656218649233545E+00
   0.8316643851548484E+00
   0.9369685563974450E+00
   0.9354416185107838E+00
   0.9614841292268140E+00
   0.1447875895048902E+01
   0.1492326473595610E+01
   0.1642819751275869E+01
   0.1425679997181468E+01
   0.1009389271115343E+01
   0.9522719782692960E+00
   0.9451759820881697E+00
   0.9577576034205748E+00
   0.9405694439406495E+00
   0.1035492816813460E+01
   0.9260530658274000E+00
   0.9335267884615526E+00
   0.9552407745714820E+00
   0.9537171703149184E+00
   0.9360614632563037E+00
   0.9578812271160752E+00
   0.9386232469652004E+00
   0.9312286350030151E+00
   0.9460919107083569E+00
   0.8867087451598586E+00
   0.9437982215885883E+00
   0.9641229756766104E+00
   0.1007296393703142E+01
   0.1006184708701204E+01
   0.1004575088577962E+01
   0.1005751816586057E+01
   0.1004611069350656E+01
   0.1005285348809554E+01
   0.1003004719381137E+01
   0.1008151746845839E+01
   0.1023749375989618E+01
   0.1062885904122909E+01
   0.1019114282605708E+01
   0.1001827926723034E+01
   0.9658932838319214E+00
   0.1005410206443646E+01
   0.1000775448875791E+01
   0.1008827636413941E+01
   0.1007918617667644E+01
   0.1002494477541145E+01
   0.9976013779960380E+00
   0.1000593607577964E+01
   0.1001865490189809E+01
   0.9828375651806373E+00
   0.9840881893194082E+00
   0.9841394969987333E+00
   0.9802141553634450E+00
   0.9905524829051321E+00
   0.9934998443574449E+00
   0.1004778387100943E+01
   0.1004767327654891E+01
   0.1005114418257046E+01
   0.1004850437638726E+01
   0.1009544121112101E+01
   0.1004699705009517E+01
   0.9559626495083127E+00
   0.9257198679764306E+00
   0.1007687817880838E+01
   0.1004499888393615E+01
   0.9151334219138366E+00
   0.9096301710928424E+00
   0.8762740730556955E+00
   0.9757634532546554E+00
   0.9987129695898660E+00
   0.1006335647706399E+01
   0.1010818749783750E+01
   0.1010129145565660E+01
   0.1009074467398979E+01
   0.1005937239756681E+01
   0.9900079901566806E+00
   0.1003829893193033E+01
   0.9846227146595105E+00
   0.1002837143449725E+01
   0.1003882840117548E+01
   0.1003215377827857E+01
   0.1003424204330621E+01
   0.1003738596427758E+01
   0.1005282008213531E+01
   0.1003265595625740E+01
   0.1004580953689342E+01
   0.1005196730751811E+01
   0.1004060910554859E+01
   0.1004546817247732E+01
   0.1003386178197594E+01
   0.1004519742822861E+01
   0.1005791952414794E+01
   0.1004686809926681E+01
   0.1003955827345758E+01
   0.1003136040767287E+01
   0.1004407202339447E+01
   0.1004218173381893E+01
   0.1003536435706423E+01
   0.1005310245175867E+01
   0.1004812608946277E+01
   0.1004742169988718E+01
   0.1004670222777439E+01
   0.1064928266479710E+01
   0.1028651356846403E+01
   0.1009538171824851E+01
   0.1006519645426702E+01
   0.1163382240100656E+01
   0.1086055630357763E+01
   0.1007820378440996E+01
   0.1007302805955980E+01
   0.1006711762802148E+01
   0.1012985473420818E+01
   0.1019259853457682E+01
   0.1234912983672205E+01
   0.1032980398530756E+01
   0.1046584254111768E+01
   0.1200462995118929E+01
   0.1014504771671275E+01
   0.1031892879410450E+01
   0.1028375728391415E+01
   0.1014846288013273E+01
   0.1029074158211164E+01
   0.1002080557311742E+01
   0.9621410921859757E+00
   0.1006807388582036E+01
   0.1001538101315302E+01
   0.1010605729534843E+01
   0.1012249137291935E+01
   0.1001048119948137E+01
   0.9972872746977427E+00
   0.9978250370051126E+00
   0.1001116726343735E+01
   0.9838207086039357E+00
   0.9808409973876696E+00
   0.9653623748078770E+00
   0.9688912903632184E+00
   0.9913869947899936E+00
   0.9913034205381674E+00
   0.9924499740957533E+00
   0.1001939655563273E+01
   0.9994945154052209E+00
   0.9940522308725926E+00
   0.1006988092813281E+01
   0.1022221373520621E+01
   0.1000742934514043E+01
   0.1008918979918628E+01
   0.1004950086335193E+01
   0.1009093850934538E+01
   0.9967234377634013E+00
   0.1004973006585302E+01
   0.1003543612752704E+01
   0.9949819297311985E+00
   0.9827944427768429E+00
   0.9939983468808834E+00
   0.9970550127775019E+00
   0.9919138954983360E+00
   0.1001241136459787E+01
   0.1003192640104654E+01
   0.1002174690358941E+01
   0.9936100670212251E+00
   0.9937194950440338E+00
   0.1005130609686422E+01
   0.1019813575392627E+01
   0.1005421479020539E+01
   0.9816991308154895E+00
   0.1005148347630917E+01
   0.1012367008252857E+01
   0.9872347672048900E+00
   0.9550254337523644E+00
   0.9860588881579495E+00
   0.9866044984844106E+00
   0.9925205416868377E+00
   0.9931311078479252E+00
   0.9948964615085092E+00
   0.1037296315016086E+01
   0.1033016437036205E+01
   0.1001455016919178E+01
   0.1002005393004110E+01
   0.9897996823601078E+00
   0.9907251503467100E+00
   0.9646460387667063E+00
   0.9920848787086433E+00
   0.1005418876071658E+01
   0.1001496652828690E+01
   0.9910387549291616E+00
   0.9741304289846661E+00
   0.9424075812794361E+00
   0.9820109816166026E+00
   0.9791545486516853E+00
   0.9713824960946408E+00
   0.9720537087326367E+00
   0.9554283051663365E+00
   0.9502421210112314E+00
   0.9545750060702137E+00
   0.1002932657226892E+01
   0.1002562458585641E+01
   0.1000541449172623E+01
   0.1001108804461424E+01
   0.9616607627769527E+00
   0.9512280263749530E+00
   0.9602863302423795E+00
   0.1000865877318765E+01
   0.1000324468792378E+01
   0.1000906476403690E+01
   0.9809418846194868E+00
   0.9805267913631524E+00
   0.9640848860388400E+00
SCALARS u double 1
LOOKUP_TABLE default
   0.0000000000000000E+00
   0.0000000000000000E+00
   0.0000000000000000E+00
   0.0000000000000000E+00
   0.0000000000000000E+00
   0.0000000000000000E+00
   0.0000000000000000E+00
   0.0000000000000000E+00
   0.0000000000000000E+00
   0.0000000000000000E+00
   0.0000000000000000E+00
   0.0000000000000000E+00
   0.0000000000000000E+00
   0.0000000000000000E+00
   0.0000000000000000E+00
   0.0000000000000000E+00
   0.0000000000000000E+00
   0.0000000000000000E+00
   0.0000000000000000E+00
   0.0000000000000000E+00
   0.0000000000000000E+00
   0.0000000000000000E+00
   0.0000000000000000E+00
   0.0000000000000000E+00
   0.0000000000000000E+00
   0.0000000000000000E+00
   0.0000000000000000E+00
   0.0000000000000000E+00
   0.0000000000000000E+00
   0.0000000000000000E+00
   0.0000000000000000E+00
   0.0000000000000000E+00
   0.0000000000000000E+00
   0.4956078205409313E+00
   0.5336031173414776E+00
   0.5184454833803926E+00
   0.4933137225216260E+00
   0.4841983556229092E+00
   0.4837168911475816E+00
   0.4863893278774926E+00
   0.4963076552205692E+00
   0.4896563803727910E+00
   0.4720667800980432E+00
   0.4463577139893856E+00
   0.4827653237703282E+00
   0.5089242357213760E+00
   0.4407496263425983E+00
   0.4944055934665150E+00
   0.5229413671996456E+00
   0.4962110657657366E+00
   0.5227251473778245E+00
   0.5032081848471135E+00
   0.5640224997951883E+00
   0.5252399927043777E+00
   0.4980204031964683E+00
   0.5719624814526572E+00
   0.5688062889804331E+00
   0.3730025919724870E+00
   0.4007146331896151E+00
   0.5587988990700744E+00
   0.5564436516857154E+00
   0.4946073270438248E+00
   0.4954023967723653E+00
   0.4937890521049751E+00
   0.4918955619821754E+00
   0.5164138065905612E+00
   0.5359193861680718E+00
   0.4957083344382814E+00
   0.4530906658107711E+00
   0.5123879873098848E+00
   0.5107434961480245E+00
   0.4790281507487333E+00
   0.4944616313260050E+00
   0.4614911075894345E+00
   0.5257653824217914E+00
   0.5298668960547001E+00
   0.5123508744910446E+00
   0.5330015168629880E+00
   0.5309376589474765E+00
   0.5300694045388281E+00
   0.5056171985950189E+00
   0.5285420860862594E+00
   0.5403392150179182E+00
   0.5368091729814493E+00
   0.5377912911010942E+00
   0.4974923639426011E+00
   0.4981161895985471E+00
   0.4967931673258386E+00
   0.4957439263431004E+00
   0.4878910939443984E+00
   0.4876183154043257E+00
   0.4855745877887767E+00
   0.4864383107048838E+00
   0.4916979114361358E+00
   0.4891550194110741E+00
   0.4852573811655479E+00
   0.4886309458394443E+00
   0.4891595307975438E+00
   0.4864821021535288E+00
   0.4864884052418212E+00
   0.4945744804000912E+00
   0.4872879480830667E+00
   0.4875768660788399E+00
   0.4930329955448798E+00
   0.4847490287507999E+00
   0.4867500832559036E+00
   0.4860739162597620E+00
   0.4863473168924617E+00
   0.4453021915740621E+00
   0.4698442267055807E+00
   0.4891582277226380E+00
   0.4880230219169138E+00
   0.4508533881792488E+00
   0.4675631194341449E+00
   0.4875634611428230E+00
   0.4867843069016353E+00
   0.4910067233333522E+00
   0.4794298396362676E+00
   0.4668005985722022E+00
   0.3794170159862226E+00
   0.4896735430087911E+00
   0.4493537588108867E+00
   0.4441320170791942E+00
   0.4845040257866982E+00
   0.4634865135221067E+00
   0.4670675202998665E+00
   0.4748185541256802E+00
   0.4893620245008174E+00
   0.5086597552764567E+00
   0.4339255048008849E+00
   0.4926471787788442E+00
   0.5329860667610580E+00
   0.4918405385996897E+00
   0.5207223154335612E+00
   0.5065003212872404E+00
   0.5670297676959273E+00
   0.5283168663557580E+00
   0.5014208503822128E+00
   0.5802772106626012E+00
   0.5677862650086545E+00
   0.3413711480845370E+00
   0.3799186838088437E+00
   0.5737491628430906E+00
   0.5664341990767445E+00
   0.5693347802652903E+00
   0.5290189936551425E+00
   0.5447940859654274E+00
   0.5714556366701111E+00
   0.5388200290431704E+00
   0.5474920462402271E+00
   0.5819849657115063E+00
   0.4927284823209794E+00
   0.5038078911772208E+00
   0.4963775085033593E+00
   0.5560552443931456E+00
   0.4759496006953842E+00
   0.4944700850064762E+00
   0.5492269712826695E+00
   0.5873510700778993E+00
   0.5827118417131616E+00
   0.5459120800631017E+00
   0.5779714130307949E+00
   0.5101703611947501E+00
   0.5024516901420919E+00
   0.5028208920394550E+00
   0.5662369522405689E+00
   0.5559265387876774E+00
   0.4944842542777410E+00
   0.5501273423365225E+00
   0.5508114430956239E+00
   0.5651746693294589E+00
   0.4913638289864802E+00
   0.4930966559494521E+00
   0.3887836458134619E+00
   0.3712669035146353E+00
   0.5569994873941940E+00
   0.5753868760851569E+00
   0.4190740381022878E+00
   0.5815028870865492E+00
   0.4282094517211473E+00
   0.5390671452838741E+00
   0.5018184884359739E+00
   0.5109976040734847E+00
   0.5042137837635429E+00
   0.5729366213392386E+00
   0.5854507497962733E+00
   0.5377000399515763E+00
   0.5657931168994643E+00
   0.5353594717483640E+00
   0.5338430361333840E+00
   0.5573228685852413E+00
   0.5505136669797638E+00
   0.4278578074351622E+00
   0.5263778340266240E+00
   0.5780466847028006E+00
   0.3349058593309484E+00
   0.4756034108158459E+00
   0.5450189745280093E+00
   0.4812872453521713E+00
   0.3028618394305224E+00
   0.5042222681339772E+00
   0.5010710806994232E+00
   0.5127452677712079E+00
   0.5402573976951082E+00
   0.3462524916792149E+00
   0.3437548791957247E+00
   0.3211887972093417E+00
   0.5065066094611467E+00
   0.5132481504614815E+00
   0.5328476777052398E+00
   0.5867050663116614E+00
   0.4641291624556079E+00
   0.3573055138310302E+00
SCALARS v double 1
LOOKUP_TABLE default
   0.0000000000000000E+00
   0.0000000000000000E+00
   0.0000000000000000E+00
   0.0000000000000000E+00
   0.0000000000000000E+00
   0.0000000000000000E+00
   0.0000000000000000E+00
   0.0000000000000000E+00
   0.0000000000000000E+00
   0.0000000000000000E+00
   0.0000000000000000E+00
   0.0000000000000000E+00
   0.0000000000000000E+00
   0.0000000000000000E+00
   0.0000000000000000E+00
   0.0000000000000000E+00
   0.0000000000000000E+00
   0.0000000000000000E+00
   0.0000000000000000E+00
   0.0000000000000000E+00
   0.0000000000000000E+00
   0.0000000000000000E+00
   0.0000000000000000E+00
   0.0000000000000000E+00
   0.0000000000000000E+00
   0.0000000000000000E+00
   0.0000000000000000E+00
   0.0000000000000000E+00
   0.0000000000000000E+00
   0.0000000000000000E+00
   0.0000000000000000E+00
   0.0000000000000000E+00
   0.0000000000000000E+00
   0.0000000000000000E+00
   0.0000000000000000E+00
   0.0000000000000000E+00
   0.0000000000000000E+00
   0.0000000000000000E+00
   0.0000000000000000E+00
   0.0000000000000000E+00
   0.0000000000000000E+00
   0.0000000000000000E+00
   0.0000000000000000E+00
   0.0000000000000000E+00
   0.0000000000000000E+00
   0.0000000000000000E+00
   0.0000000000000000E+00
   0.0000000000000000E+00
   0.0000000000000000E+00
   0.0000000000000000E+00
   0.0000000000000000E+00
   0.0000000000000000E+00
   0.0000000000000000E+00
   0.0000000000000000E+00
   0.0000000000000000E+00
   0.0000000000000000E+00
   0.0000000000000000E+00
   0.0000000000000000E+00
   0.0000000000000000E+00
   0.0000000000000000E+00
   0.0000000000000000E+00
   0.1111022523385873E-02
   0.8900863100317304E-04
  -0.2256096062795920E-03
   0.0000000000000000E+00
   0.0000000000000000E+00
   0.0000000000000000E+00
   0.0000000000000000E+00
  -0.1826604281395875E-01
   0.5203833611481480E-03
   0.1878525013097882E-02
   0.1416244043428211E-01
  -0.6502187384815211E-02
  -0.6389780326342950E-02
  -0.1279783902550494E-01
   0.4370060915074549E-02
   0.8687922948586597E-03
   0.2912627155053734E-02
   0.1721171112130504E-02
   0.2390042743155866E-02
   0.1806353970689362E-02
  -0.7239216629905522E-02
  -0.7923954520928842E-03
   0.3835070002751614E-02
  -0.1118427762883064E-02
  -0.4336301515610682E-03
  -0.4122413409949014E-03
   0.8238487754408969E-03
   0.0000000000000000E+00
   0.0000000000000000E+00
   0.0000000000000000E+00
   0.0000000000000000E+00
   0.7713674326429639E-03
   0.1446866683379350E-02
  -0.1432478194065306E-02
  -0.1830388688572081E-03
  -0.6367417121361389E-03
   0.2523765388619750E-06
   0.1571296148621932E-03
  -0.1280755694255896E-03
  -0.1980941241126558E-03
  -0.5812610971158625E-03
   0.8187402747312952E-03
  -0.2009845449717782E-02
   0.6577238972661593E-03
   0.2670166526390730E-03
  -0.4121972406794831E-03
  -0.4041210599600128E-03
   0.0000000000000000E+00
   0.0000000000000000E+00
   0.0000000000000000E+00
  -0.8245307374885948E-03
  -0.7841011530798235E-02
   0.1754784464603367E-01
  -0.2303365970707632E-03
  -0.1392093737648578E-02
  -0.2132282764493507E-02
  -0.5225463264662626E-02
  -0.1867575809396294E-02
  -0.6503512213431183E-02
  -0.4080772550787490E-02
   0.1637793331263078E-02
   0.3279811505727375E-01
   0.3405500310638229E-04
  -0.2137208120664289E-02
   0.4117329791416721E-02
   0.3975128858310005E-03
   0.0000000000000000E+00
   0.0000000000000000E+00
   0.0000000000000000E+00
   0.0000000000000000E+00
   0.0000000000000000E+00
   0.0000000000000000E+00
   0.0000000000000000E+00
   0.0000000000000000E+00
   0.0000000000000000E+00
   0.0000000000000000E+00
   0.0000000000000000E+00
   0.0000000000000000E+00
   0.0000000000000000E+00
   0.0000000000000000E+00
   0.0000000000000000E+00
   0.0000000000000000E+00
   0.0000000000000000E+00
   0.4616955792556364E-02
   0.3357849158014114E-02
   0.8115609246036789E-02
   0.5759227190998484E-02
   0.1133102615081521E-01
   0.1381897179784574E-01
  -0.1135233704260657E-02
   0.5476430458788204E-02
   0.3081305073344649E-02
   0.3702059603986348E-02
   0.3533062845645963E-02
  -0.1539769970729608E-01
  -0.6072292620706979E-03
   0.6600782594900520E-02
   0.1225863025200409E-02
   0.2048769964057350E-02
   0.4111614696170961E-02
  -0.2954799008948569E-02
   0.1551260231457785E-02
   0.3142047355815449E-02
   0.1844171741912421E-02
   0.1980307580356752E-02
   0.1905410517276928E-02
   0.2340313129866137E-02
   0.8854537926909652E-02
  -0.3596699621968350E-02
   0.6173456698064459E-02
  -0.2538835612340011E-04
  -0.5217461523223553E-03
  -0.1694712258936589E-01
  -0.5238653277945540E-02
  -0.5402022428909619E-02
   0.3390575983114403E-02
  -0.6456468648418936E-02
  -0.2497732026529655E-03
  -0.3423421798902989E-01
  -0.2794956420786504E-02
   0.4829252436509246E-02
   0.1165814810488703E-02
   0.2409667695709960E-02
   0.3800433204963697E-02
   0.2521481492763124E-02
   0.2786968247248177E-02
   0.4652256536322720E-02
   0.1860294079848094E-02
   0.5598001456979461E-03
   0.1109399989331099E-03
  -0.5015335633661598E-02
  -0.6123345393441716E-02
  -0.7180672179940589E-03
   0.7534407703547703E-03
  -0.1629237137227323E-02
  -0.3315583165573815E-02
  -0.2686832311083246E-02
  -0.4637993802959736E-02
  -0.7870558548253005E-02
  -0.1984626020258697E-02
   0.7342837861467124E-03
  -0.4816829382159949E-04
   0.8017561257225160E-03
  -0.3054516799248271E-02
   0.5725880170297585E-02
  -0.8604807959740663E-02
   0.1214102474767671E-03
  -0.2437926164599376E-03
   0.2381687483937666E-02
   0.1773431933861939E-02
   0.2220274972458945E-02
  -0.5479139641891586E-02
SCALARS w double 1
LOOKUP_TABLE default
   0.0000000000000000E+00
   0.0000000000000000E+00
   0.0000000000000000E+00
   0.0000000000000000E+00
   0.0000000000000000E+00
   0.0000000000000000E+00
   0.0000000000000000E+00
   0.0000000000000000E+00
   0.0000000000000000E+00
   0.0000000000000000E+00
   0.0000000000000000E+00
   0.0000000000000000E+00
   0.0000000000000000E+00
   0.0000000000000000E+00
   0.0000000000000000E+00
   0.0000000000000000E+00
   0.0000000000000000E+00
   0.0000000000000000E+00
   0.0000000000000000E+00
   0.0000000000000000E+00
   0.0000000000000000E+00
   0.0000000000000000E+00
   0.0000000000000000E+00
   0.0000000000000000E+00
   0.0000000000000000E+00
   0.0000000000000000E+00
   0.0000000000000000E+00
   0.0000000000000000E+00
   0.0000000000000000E+00
   0.0000000000000000E+00
   0.0000000000000000E+00
   0.0000000000000000E+00
   0.0000000000000000E+00
  -0.9793290767794474E-01
  -0.4158586627463707E-01
  -0.2638846279086826E-03
   0.4777273487933197E-02
   0.2336749849432663E-02
   0.2066649131567034E-02
   0.3698056825805693E-02
   0.4497772711900144E-02
   0.8752819097112125E-03
   0.3710462274983134E-02
   0.4555820644815804E-01
   0.6454578273220293E-01
   0.1418066102013077E-02
  -0.2246833643274915E-01
   0.4383547851392306E-02
   0.1306979304577734E-01
   0.1014731095369911E-01
   0.4836348119991343E-01
   0.2042177354838887E-02
  -0.5983316197081295E-02
  -0.3670799198615061E-03
   0.6865528543131428E-03
   0.3705552334253721E-02
  -0.3772490081643692E-01
   0.1772891471681180E-01
   0.1080261859657395E-01
   0.3306542073835543E-01
   0.8295250657925305E-02
   0.4265864691938503E-02
   0.4617629262255791E-02
   0.4884998030638131E-02
   0.5664143923661292E-02
   0.1691396836592829E-02
  -0.4052055119674366E-01
  -0.9691481746600572E-01
  -0.1096879932035912E+00
   0.4374015642635252E-02
   0.2875692236944871E-02
  -0.9736312216295261E-01
  -0.9617678422268647E-01
  -0.9617940922754116E-01
  -0.9224789212254644E-01
  -0.6624875617531534E-01
   0.3938224945775145E-02
  -0.1958066880316131E-01
  -0.1613516982031597E-01
  -0.7363224772714443E-02
   0.5394106363333649E-02
  -0.7799318829183287E-01
  -0.2811818307395761E-01
  -0.7850808686524152E-01
  -0.5795304180212221E-01
   0.4480578847286610E-02
   0.3182948508890233E-02
   0.3181895717503450E-02
   0.4453187209726539E-02
   0.3707663063310810E-02
   0.9144134764901209E-03
   0.1024427782330359E-02
   0.3497865224308624E-02
   0.5421373896517077E-02
   0.4199555339039881E-02
   0.3488286017060690E-02
   0.1479803566546658E-02
   0.3869587531972436E-02
   0.1323747990434291E-02
   0.4043850779163400E-03
   0.5468907787167717E-02
   0.2804153819925353E-02
   0.2554703154289680E-02
   0.5857753698258916E-02
   0.1779173638460921E-02
   0.2308582398074121E-02
   0.2015424983336403E-02
   0.8913984280311730E-03
   0.8439793320383343E-01
   0.2689245269818366E-02
  -0.8531879449710830E-03
   0.2965828994017360E-03
   0.1406952450725536E+00
   0.1228226265650386E+00
  -0.1103763529071534E-02
  -0.4226815252671733E-02
   0.1939730300993411E-03
  -0.6072639097487333E-02
  -0.1406567230311941E-02
   0.1562311381558688E+00
   0.7533081551218547E-01
   0.2578719628844337E-01
   0.1655573504803406E+00