# vtk DataFile Version 2.0
FUN3D:global_image_vtk
ASCII
DATASET UNSTRUCTURED_GRID
POINTS 213 double
    0.0000000000000000E+00    0.2500000000000000E+01    0.0000000000000000E+00
    0.1250000000000000E+01    0.2500000000000000E+01    0.0000000000000000E+00
    0.2500000000000000E+01    0.2500000000000000E+01    0.0000000000000000E+00
    0.3750000000000000E+01    0.2500000000000000E+01    0.0000000000000000E+00
    0.5000000000000000E+01    0.2500000000000000E+01    0.0000000000000000E+00
    0.5000000000000000E+01    0.1250000000000000E+01    0.0000000000000000E+00
    0.5000000000000000E+01    0.0000000000000000E+00    0.0000000000000000E+00
    0.5000000000000000E+01   -0.1250000000000000E+01    0.0000000000000000E+00
    0.5000000000000000E+01   -0.2500000000000000E+01    0.0000000000000000E+00
    0.3750000000000000E+01   -0.2500000000000000E+01    0.0000000000000000E+00
    0.2500000000000000E+01   -0.2500000000000000E+01    0.0000000000000000E+00
    0.1250000000000000E+01   -0.2500000000000000E+01    0.0000000000000000E+00
    0.0000000000000000E+00   -0.2500000000000000E+01    0.0000000000000000E+00
    0.0000000000000000E+00   -0.1250000000000000E+01    0.0000000000000000E+00
    0.0000000000000000E+00    0.0000000000000000E+00    0.0000000000000000E+00
    0.0000000000000000E+00    0.1250000000000000E+01    0.0000000000000000E+00
    0.9058375365086910E+00    0.1578994732800803E+01    0.0000000000000000E+00
    0.3982050490726493E+01   -0.1583989954232354E+01    0.0000000000000000E+00
    0.4033849428301197E+01    0.1453322699199022E+01    0.0000000000000000E+00
    0.1040505887381675E+01   -0.1479596339503735E+01    0.0000000000000000E+00
    0.1099454400140349E+01   -0.3227322616384110E+00    0.0000000000000000E+00
    0.7354504170366591E+00    0.6593508822075582E+00    0.0000000000000000E+00
    0.1622302608453282E+01    0.8256214013940779E+00    0.0000000000000000E+00
    0.2145871574390382E+01   -0.1650070333782557E+01    0.0000000000000000E+00
    0.4086422318222992E+01   -0.4612828702537229E+00    0.0000000000000000E+00
    0.2979540174134984E+01   -0.8579242121530853E+00    0.0000000000000000E+00
    0.3045064261640043E+01   -0.1836846154397680E+01    0.0000000000000000E+00
    0.3428197553792836E+01    0.3508002863614053E+00    0.0000000000000000E+00
    0.4309693860063405E+01    0.5185680230613409E+00    0.0000000000000000E+00
    0.1827272193562204E+01    0.1738996113203182E+01    0.0000000000000000E+00
    0.2808563282768077E+01    0.1325493893339706E+01    0.0000000000000000E+00
    0.1895995683864404E+01   -0.8731419609589618E+00    0.0000000000000000E+00
    0.2273179336307740E+01    0.4906150219227333E-01    0.0000000000000000E+00
    0.5000000000000000E+01    0.2500000000000000E+01    0.1250000000000000E+01
    0.5000000000000000E+01    0.2500000000000000E+01    0.2500000000000000E+01
    0.5000000000000000E+01    0.2500000000000000E+01    0.3750000000000000E+01
    0.5000000000000000E+01    0.2500000000000000E+01    0.5000000000000000E+01
    0.3750000000000000E+01    0.2500000000000000E+01    0.5000000000000000E+01
    0.2500000000000000E+01    0.2500000000000000E+01    0.5000000000000000E+01
    0.1250000000000000E+01    0.2500000000000000E+01    0.5000000000000000E+01
    0.0000000000000000E+00    0.2500000000000000E+01    0.5000000000000000E+01
    0.0000000000000000E+00    0.2500000000000000E+01    0.3750000000000000E+01
    0.0000000000000000E+00    0.2500000000000000E+01    0.2500000000000000E+01
    0.0000000000000000E+00    0.2500000000000000E+01    0.1250000000000000E+01
    0.9631080833812172E+00    0.2500000000000000E+01    0.9613285771248219E+00
    0.3981732467264904E+01    0.2500000000000000E+01    0.4069753913607991E+01
    0.4035525118777670E+01    0.2500000000000000E+01    0.1012015867579395E+01
    0.9641717640894248E+00    0.2500000000000000E+01    0.3972455192261839E+01
    0.1547743040396780E+01    0.2500000000000000E+01    0.2928177746738678E+01
    0.6985170616192014E+00    0.2500000000000000E+01    0.3068281976055466E+01
    0.8931277594515110E+00    0.2500000000000000E+01    0.2052465503257726E+01
    0.2183293750162785E+01    0.2500000000000000E+01    0.3959073795658649E+01
    0.3855333506014705E+01    0.2500000000000000E+01    0.2931218481500625E+01
    0.3152495579421047E+01    0.2500000000000000E+01    0.3635850502723324E+01
    0.3103247580566054E+01    0.2500000000000000E+01    0.4331682712472464E+01
    0.3266837581688852E+01    0.2500000000000000E+01    0.1886092433583972E+01
    0.4231539241296245E+01    0.2500000000000000E+01    0.1915865356532799E+01
    0.1909741006522088E+01    0.2500000000000000E+01    0.7170024419130505E+00
    0.2880784107213163E+01    0.2500000000000000E+01    0.9046598906449592E+00
    0.2014316024535771E+01    0.2500000000000000E+01    0.1762464314805728E+01
    0.2670003247036656E+01    0.2500000000000000E+01    0.2850479545835163E+01
    0.5000000000000000E+01    0.1250000000000000E+01    0.5000000000000000E+01
    0.5000000000000000E+01    0.0000000000000000E+00    0.5000000000000000E+01
    0.5000000000000000E+01   -0.1250000000000000E+01    0.5000000000000000E+01
    0.5000000000000000E+01   -0.2500000000000000E+01    0.5000000000000000E+01
    0.5000000000000000E+01   -0.2500000000000000E+01    0.3750000000000000E+01
    0.5000000000000000E+01   -0.2500000000000000E+01    0.2500000000000000E+01
    0.5000000000000000E+01   -0.2500000000000000E+01    0.1250000000000000E+01
    0.5000000000000000E+01    0.1578994732800803E+01    0.9058375365086910E+00
    0.5000000000000000E+01   -0.1583989954232354E+01    0.3982050490726493E+01
    0.5000000000000000E+01    0.1453322699199022E+01    0.4033849428301197E+01
    0.5000000000000000E+01   -0.1479596339503735E+01    0.1040505887381675E+01
    0.5000000000000000E+01   -0.3227322616384110E+00    0.1099454400140349E+01
    0.5000000000000000E+01    0.6593508822075582E+00    0.7354504170366591E+00
    0.5000000000000000E+01    0.8256214013940779E+00    0.1622302608453282E+01
    0.5000000000000000E+01   -0.1650070333782557E+01    0.2145871574390382E+01
    0.5000000000000000E+01   -0.4612828702537229E+00    0.4086422318222992E+01
    0.5000000000000000E+01   -0.8579242121530853E+00    0.2979540174134984E+01
    0.5000000000000000E+01   -0.1836846154397680E+01    0.3045064261640043E+01
    0.5000000000000000E+01    0.3508002863614053E+00    0.3428197553792836E+01
    0.5000000000000000E+01    0.5185680230613409E+00    0.4309693860063405E+01
    0.5000000000000000E+01    0.1738996113203182E+01    0.1827272193562204E+01
    0.5000000000000000E+01    0.1325493893339706E+01    0.2808563282768077E+01
    0.5000000000000000E+01   -0.8731419609589618E+00    0.1895995683864404E+01
    0.5000000000000000E+01    0.4906150219227333E-01    0.2273179336307740E+01
    0.0000000000000000E+00    0.1250000000000000E+01    0.5000000000000000E+01
    0.0000000000000000E+00    0.0000000000000000E+00    0.5000000000000000E+01
    0.0000000000000000E+00   -0.1250000000000000E+01    0.5000000000000000E+01
    0.0000000000000000E+00   -0.2500000000000000E+01    0.5000000000000000E+01
    0.1250000000000000E+01   -0.2500000000000000E+01    0.5000000000000000E+01
    0.2500000000000000E+01   -0.2500000000000000E+01    0.5000000000000000E+01
    0.3750000000000000E+01   -0.2500000000000000E+01    0.5000000000000000E+01
    0.4042003247744892E+01    0.1558308132739014E+01    0.5000000000000000E+01
    0.9304122287900499E+00   -0.1548001304379777E+01    0.5000000000000000E+01
    0.1037243024609388E+01    0.1462892710085612E+01    0.5000000000000000E+01
    0.3946240828834967E+01   -0.1445243809615570E+01    0.5000000000000000E+01
    0.4092527262848217E+01   -0.3455338993778935E+00    0.5000000000000000E+01
    0.4293103109154542E+01    0.6277660831404320E+00    0.5000000000000000E+01
    0.3241512314643519E+01    0.7429886854239611E+00    0.5000000000000000E+01
    0.2844289952419609E+01   -0.1588117879734118E+01    0.5000000000000000E+01
    0.7159905765450471E+00   -0.6002320124191652E+00    0.5000000000000000E+01
    0.1754341919796891E+01   -0.7398147869923652E+00    0.5000000000000000E+01
    0.1870296826774691E+01   -0.1788622905643739E+01    0.5000000000000000E+01
    0.9220614901912976E+00    0.3083720183248586E+00    0.5000000000000000E+01
    0.3101523624086016E+01    0.1777901774806180E+01    0.5000000000000000E+01
    0.2192512063922564E+01    0.1576861561598471E+01    0.5000000000000000E+01
    0.2024793420196460E+01    0.4773861992750707E+00    0.5000000000000000E+01
    0.2990627757741975E+01   -0.4878110785814084E+00    0.5000000000000000E+01
    0.0000000000000000E+00   -0.2500000000000000E+01    0.1250000000000000E+01
    0.0000000000000000E+00   -0.2500000000000000E+01    0.2500000000000000E+01
    0.0000000000000000E+00   -0.2500000000000000E+01    0.3750000000000000E+01
    0.0000000000000000E+00    0.1558308132739014E+01    0.4042003247744892E+01
    0.0000000000000000E+00   -0.1548001304379777E+01    0.9304122287900499E+00
    0.0000000000000000E+00    0.1462892710085612E+01    0.1037243024609388E+01
    0.0000000000000000E+00   -0.1445243809615570E+01    0.3946240828834967E+01
    0.0000000000000000E+00   -0.3455338993778935E+00    0.4092527262848217E+01
    0.0000000000000000E+00    0.6277660831404320E+00    0.4293103109154542E+01
    0.0000000000000000E+00    0.7429886854239611E+00    0.3241512314643519E+01
    0.0000000000000000E+00   -0.1588117879734118E+01    0.2844289952419609E+01
    0.0000000000000000E+00   -0.6002320124191652E+00    0.7159905765450471E+00
    0.0000000000000000E+00   -0.7398147869923652E+00    0.1754341919796891E+01
    0.0000000000000000E+00   -0.1788622905643739E+01    0.1870296826774691E+01
    0.0000000000000000E+00    0.3083720183248586E+00    0.9220614901912976E+00
    0.0000000000000000E+00    0.1777901774806180E+01    0.3101523624086016E+01
    0.0000000000000000E+00    0.1576861561598471E+01    0.2192512063922564E+01
[...]
POINT_DATA 213
SCALARS rho double 1
LOOKUP_TABLE default
   0.1344267385129220E+01
   0.9569621175903634E+00
   0.9462827834439187E+00
   0.9418685456457869E+00
   0.8437290630873634E+00
   0.7737787292235653E+00
   0.7629657366923954E+00
   0.7664233741137605E+00
   0.8307797309271241E+00
   0.9352922155623076E+00
   0.9341976446586275E+00
   0.9617064277720309E+00
   0.1449458492061430E+01
   0.1494082638492869E+01
   0.1644658112284921E+01
   0.1425833640360242E+01
   0.1009002366922235E+01
   0.9508647734625761E+00
   0.9436504270670599E+00
   0.9581489704791616E+00
   0.9415724803004830E+00
   0.1036366434163620E+01
   0.9255999912885773E+00
   0.9322180087812332E+00
   0.9537388489861912E+00
   0.9518642904753958E+00
   0.9348366359491849E+00
   0.9563936223429023E+00
   0.9376032123183121E+00
   0.9300514636022330E+00
   0.9445030253223532E+00
   0.8863353099642687E+00
   0.9423502052266345E+00
   0.9635378610488655E+00
   0.1008308845998722E+01
   0.1006769193985720E+01
   0.1001857400429091E+01
   0.1003124381686536E+01
   0.1004093752832076E+01
   0.1005222960222758E+01
   0.1004259168300328E+01
   0.1008292613481510E+01
   0.1023882357595528E+01
   0.1063537233910445E+01
   0.1019173487573133E+01
   0.1001771503278955E+01
   0.9644010600304239E+00
   0.1005265171583364E+01
   0.1000700051013296E+01
   0.1008724202599573E+01
   0.1008060740063761E+01
   0.1002336118672654E+01
   0.9980001443963908E+00
   0.1000580090041840E+01
   0.1001603163126416E+01
   0.9826720250050343E+00
   0.9842340765854762E+00
   0.9833218833705133E+00
   0.9788542056507130E+00
   0.9902494496993454E+00
   0.9934419769322674E+00
   0.1001926336943228E+01
   0.1002058794494864E+01
   0.1002230116067455E+01
   0.1001729219489782E+01
   0.1009794412524017E+01
   0.1006420956716503E+01
   0.9558518865458565E+00
   0.9249385531630997E+00
   0.1007036441099627E+01
   0.1004507782176228E+01
   0.9143645488944165E+00
   0.9089894523582480E+00
   0.8751869737661657E+00
   0.9766926218258450E+00
   0.1000419785181850E+01
   0.1005832463154884E+01
   0.1012901401934289E+01
   0.1011639611808905E+01
   0.1010468737244081E+01
   0.1005447248496238E+01
   0.9907369614865853E+00
   0.1005161000028975E+01
   0.9860350969761953E+00
   0.1005591824193367E+01
   0.1004242245265383E+01
   0.1002869562657958E+01
   0.1003327510112286E+01
   0.1003986603020498E+01
   0.1005087288978727E+01
   0.1003200180526800E+01
   0.1002632277909934E+01
   0.1002499014565814E+01
   0.1004049296500663E+01
   0.1004298149399139E+01
   0.1001608524203415E+01
   0.1002211428492043E+01
   0.1002464885353707E+01
   0.1003437236577532E+01
   0.1003363229034928E+01
   0.1003220433741011E+01
   0.1004417342285202E+01
   0.1004307306881308E+01
   0.1003649589835650E+01
   0.1003660227985230E+01
   0.1004304068449117E+01
   0.1004446765206272E+01
   0.1003592154007446E+01
   0.1064415891757182E+01
   0.1028463298825069E+01
   0.1009570535255416E+01
   0.1006630229310349E+01
   0.1163915994765714E+01
   0.1086088936831630E+01
   0.1007875701062116E+01
   0.1007229055590749E+01
   0.1006789460899163E+01
   0.1013007952503596E+01
   0.1019369746969619E+01
   0.1235197213656694E+01
   0.1032525194933616E+01
   0.1046663664822874E+01
   0.1200941167673232E+01
   0.1014711038890009E+01
   0.1032275225919122E+01
   0.1028080425535565E+01
   0.1014614950368695E+01
   0.1029208822356478E+01
   0.1001987033472481E+01
   0.9607032592349598E+00
   0.1006839674957413E+01
   0.1001310155361312E+01
   0.1010807267267733E+01
   0.1012236428921133E+01
   0.1000934530617888E+01
   0.9979042876382779E+00
   0.9980562503550215E+00
   0.1001168916399687E+01
   0.9841073191735085E+00
   0.9814616542323450E+00
   0.9648471029524727E+00
   0.9680776511575671E+00
   0.9914091995931702E+00
   0.9910730624342874E+00
   0.9925395343880893E+00
   0.1001710396700435E+01
   0.9993232793464811E+00
   0.9941281123118381E+00
   0.1007024404615420E+01
   0.1022528026225465E+01
   0.1001086532985565E+01
   0.1008782619903280E+01
   0.1004757513490875E+01
   0.1009029250975849E+01
   0.9966337382984101E+00
   0.1004979715834119E+01
   0.1003316788561217E+01
   0.9949326821431085E+00
   0.9832512823166989E+00
   0.9943801750101515E+00
   0.9973370710959137E+00
   0.9931993197213177E+00
   0.1001297984168724E+01
   0.1002993506107109E+01
   0.1002168326461398E+01
   0.9947060740202026E+00
   0.9937906855986730E+00
   0.1004853201166681E+01
   0.1020064240409206E+01
   0.1005353736971219E+01
   0.9816911360856555E+00
   0.1004961364237975E+01
   0.1012366181680655E+01
   0.9871320875180758E+00
   0.9551461851048583E+00
   0.9864982353739254E+00
   0.9864417705604085E+00
   0.9918881319875250E+00
   0.9933389746025020E+00
   0.9954306163077919E+00
   0.1037328891645544E+01
   0.1033524513193040E+01
   0.1001425998821489E+01
   0.1001912774359960E+01
   0.9912324262201747E+00
   0.9910790370416331E+00
   0.9648200394524371E+00
   0.9933159793674040E+00
   0.1006058181406487E+01
   0.1001951434695069E+01
   0.9908606713193544E+00
   0.9740756793805472E+00
   0.9418724665188845E+00
   0.9819200956217327E+00
   0.9794670266870427E+00
   0.9704193978000799E+00
   0.9720239474335485E+00
   0.9557222998702293E+00
   0.9496780058472870E+00
   0.9528788652952885E+00
   0.1002641707243808E+01
   0.1002466647440603E+01
   0.1000501739954565E+01
   0.1001691461602141E+01
   0.9607698064696958E+00
   0.9492034233974337E+00
   0.9584632380494487E+00
   0.1001115848138997E+01
   0.1000492345359104E+01
   0.1001169290615970E+01
   0.9807286070203800E+00
   0.9805902070097797E+00
   0.9628514789576413E+00
SCALARS u double 1
LOOKUP_TABLE default
   0.0000000000000000E+00
   0.0000000000000000E+00
   0.0000000000000000E+00
   0.0000000000000000E+00
   0.0000000000000000E+00
   0.0000000000000000E+00
   0.0000000000000000E+00
   0.0000000000000000E+00
   0.0000000000000000E+00
   0.0000000000000000E+00
   0.0000000000000000E+00
   0.0000000000000000E+00
   0.0000000000000000E+00
   0.0000000000000000E+00
   0.0000000000000000E+00
   0.0000000000000000E+00
   0.0000000000000000E+00
   0.0000000000000000E+00
   0.0000000000000000E+00
   0.0000000000000000E+00
   0.0000000000000000E+00
   0.0000000000000000E+00
   0.0000000000000000E+00
   0.0000000000000000E+00
   0.0000000000000000E+00
   0.0000000000000000E+00
   0.0000000000000000E+00
   0.0000000000000000E+00
   0.0000000000000000E+00
   0.0000000000000000E+00
   0.0000000000000000E+00
   0.0000000000000000E+00
   0.0000000000000000E+00
   0.4949278769955729E+00
   0.5338112501403465E+00
   0.5183807314118939E+00
   0.4930034938405347E+00
   0.4845359286637065E+00
   0.4867358907120367E+00
   0.4891297599715082E+00
   0.4958383017336946E+00
   0.4898330528559742E+00
   0.4717517568620030E+00
   0.4455021443305458E+00
   0.4833968247520522E+00
   0.5099455258194304E+00
   0.4390219944446178E+00
   0.4949635451184952E+00
   0.5225566525592352E+00
   0.4962573874733288E+00
   0.5226346184866307E+00
   0.5039535881628535E+00
   0.5647638814618146E+00
   0.5248438408840639E+00
   0.4992291905956560E+00
   0.5730321570119564E+00
   0.5695645074037008E+00
   0.3737818668385290E+00
   0.3998085907898967E+00
   0.5599353856667169E+00
   0.5565002394092841E+00
   0.4941813997633312E+00
   0.4948052033835869E+00
   0.4925087861711855E+00
   0.4913885564198507E+00
   0.5162950125015483E+00
   0.5361795643311809E+00
   0.4947210113187830E+00
   0.4523785677416194E+00
   0.5129045237632638E+00
   0.5118476686416980E+00
   0.4783158871149085E+00
   0.4931483509773117E+00
   0.4602857074139726E+00
   0.5245013026374316E+00
   0.5297469785670645E+00
   0.5129821613482994E+00
   0.5328335713630635E+00
   0.5309087763121960E+00
   0.5310009946694306E+00
   0.5063871289417752E+00
   0.5282251746896108E+00
   0.5410274078527477E+00
   0.5361270463512547E+00
   0.5374182809342716E+00
   0.4965531335989017E+00
   0.4975464768267164E+00
   0.4963925671898718E+00
   0.4955397993271480E+00
   0.4904527731021388E+00
   0.4902488601941378E+00
   0.4860455659711010E+00
   0.4851910503051353E+00
   0.4932252696523324E+00
   0.4910081985734692E+00
   0.4830821176494213E+00
   0.4871169581630126E+00
   0.4878477152873248E+00
   0.4871553822065596E+00
   0.4881579697557739E+00
   0.4952683422886457E+00
   0.4900944829284685E+00
   0.4903797115022971E+00
   0.4944437276026765E+00
   0.4866873905946470E+00
   0.4892340175989445E+00
   0.4881388183317025E+00
   0.4877631484981951E+00
   0.4446942984370961E+00
   0.4700133603832943E+00
   0.4892142260046095E+00
   0.4885079542992383E+00
   0.4506815134361964E+00
   0.4687225301411459E+00
   0.4877080746029565E+00
   0.4868380008195252E+00
   0.4909073694228158E+00
   0.4793680979374621E+00
   0.4658288895550183E+00
   0.3792813908964215E+00
   0.4901621328057468E+00
   0.4486862075875521E+00
   0.4436310320246147E+00
   0.4845238717095224E+00
   0.4622157102014819E+00
   0.4665990835379162E+00
   0.4748309118857602E+00
   0.4894644606130766E+00
   0.5086550725468199E+00
   0.4314869966543839E+00
   0.4927490207781505E+00
   0.5318444532015605E+00
   0.4913494659683207E+00
   0.5207125820885559E+00
   0.5061667273235277E+00
   0.5689356221335918E+00
   0.5274827801716541E+00
   0.5015536187913011E+00
   0.5821440785331783E+00
   0.5689330036174440E+00
   0.3406475494116437E+00
   0.3789657141004351E+00
   0.5751939494628936E+00
   0.5666643227860155E+00
   0.5704152192965646E+00
   0.5291209449612430E+00
   0.5452011734706329E+00
   0.5718763635589604E+00
   0.5389245465431450E+00
   0.5475596150141943E+00
   0.5821760321520401E+00
   0.4925752868043963E+00
   0.5042528970204936E+00
   0.4961885336782556E+00
   0.5565263973456278E+00
   0.4758941292537571E+00
   0.4950523096189522E+00
   0.5498883296229761E+00
   0.5891054300704751E+00
   0.5842296685498769E+00
   0.5469767633954465E+00
   0.5805360567390351E+00
   0.5106923686633889E+00
   0.5030846975175202E+00
   0.5034173464236525E+00
   0.5676684132808179E+00
   0.5564306762668203E+00
   0.4947552545138950E+00
   0.5505317557189152E+00
   0.5510886110771926E+00
   0.5657340540616886E+00
   0.4920277881096508E+00
   0.4927385318574685E+00
   0.3865374013008418E+00
   0.3688047513673529E+00
   0.5574785287123948E+00
   0.5763755460614012E+00
   0.4194224436534085E+00
   0.5824673543915364E+00
   0.4265483997398022E+00
   0.5392952664150968E+00
   0.5012211191351894E+00
   0.5120001386526820E+00
   0.5049940837271149E+00
   0.5751857773984886E+00
   0.5876531544617425E+00
   0.5379510674102472E+00
   0.5677452162991597E+00
   0.5351892518719341E+00
   0.5338507539691548E+00
   0.5580391801622562E+00
   0.5512159987244541E+00
   0.4261538971058978E+00
   0.5273063975899779E+00
   0.5795607807134137E+00
   0.3319008762102156E+00
   0.4760038914956483E+00
   0.5446177084840353E+00
   0.4798246607048532E+00
   0.3005435691804167E+00
   0.5031224415434409E+00
   0.5017684069762406E+00
   0.5129548066111207E+00
   0.5415535354076086E+00
   0.3437628991152155E+00
   0.3398105265115056E+00
   0.3189703828339958E+00
   0.5066521203521064E+00
   0.5124251335628710E+00
   0.5331278234672437E+00
   0.5879313581881375E+00
   0.4644226126925516E+00
   0.3531739271582878E+00
SCALARS v double 1
LOOKUP_TABLE default
   0.0000000000000000E+00
   0.0000000000000000E+00
   0.0000000000000000E+00
   0.0000000000000000E+00
   0.0000000000000000E+00
   0.0000000000000000E+00
   0.0000000000000000E+00
   0.0000000000000000E+00
   0.0000000000000000E+00
   0.0000000000000000E+00
   0.0000000000000000E+00
   0.0000000000000000E+00
   0.0000000000000000E+00
   0.0000000000000000E+00
   0.0000000000000000E+00
   0.0000000000000000E+00
   0.0000000000000000E+00
   0.0000000000000000E+00
   0.0000000000000000E+00
   0.0000000000000000E+00
   0.0000000000000000E+00
   0.0000000000000000E+00
   0.0000000000000000E+00
   0.0000000000000000E+00
   0.0000000000000000E+00
   0.0000000000000000E+00
   0.0000000000000000E+00
   0.0000000000000000E+00
   0.0000000000000000E+00
   0.0000000000000000E+00
   0.0000000000000000E+00
   0.0000000000000000E+00
   0.0000000000000000E+00
   0.0000000000000000E+00
   0.0000000000000000E+00
   0.0000000000000000E+00
   0.0000000000000000E+00
   0.0000000000000000E+00
   0.0000000000000000E+00
   0.0000000000000000E+00
   0.0000000000000000E+00
   0.0000000000000000E+00
   0.0000000000000000E+00
   0.0000000000000000E+00
   0.0000000000000000E+00
   0.0000000000000000E+00
   0.0000000000000000E+00
   0.0000000000000000E+00
   0.0000000000000000E+00
   0.0000000000000000E+00
   0.0000000000000000E+00
   0.0000000000000000E+00
   0.0000000000000000E+00
   0.0000000000000000E+00
   0.0000000000000000E+00
   0.0000000000000000E+00
   0.0000000000000000E+00
   0.0000000000000000E+00
   0.0000000000000000E+00
   0.0000000000000000E+00
   0.0000000000000000E+00
   0.8482650527797670E-03
  -0.1304816897247651E-02
  -0.1340592159410657E-02
   0.0000000000000000E+00
   0.0000000000000000E+00
   0.0000000000000000E+00
   0.0000000000000000E+00
  -0.1923078992372883E-01
   0.4847993110387033E-03
   0.2195887573245600E-02
   0.1426111736545134E-01
  -0.6492482777705579E-02
  -0.7805630790740192E-02
  -0.1326831396572383E-01
   0.4917529921160125E-02
   0.7041488553560263E-03
   0.3452786425857074E-02
   0.1930194705393511E-02
   0.3168891702767772E-02
   0.1729144432725163E-02
  -0.7321901332881196E-02
  -0.7611356312231570E-04
   0.4468156405733797E-02
  -0.4237750222477432E-03
  -0.6678363418678574E-04
  -0.1962075318778505E-03
   0.8183858360682117E-03
   0.0000000000000000E+00
   0.0000000000000000E+00
   0.0000000000000000E+00
   0.0000000000000000E+00
   0.4671065807412748E-03
   0.1639444720791382E-02
  -0.1311294228195099E-02
  -0.1035804080283725E-02
  -0.2155068770066130E-02
  -0.1051932251873211E-02
  -0.8338697880145915E-03
  -0.7493837172692691E-03
   0.6587834920418738E-04
  -0.5940777180916353E-03
   0.8051510091336074E-03
  -0.1744957986791718E-02
   0.2675541120613317E-03
  -0.1031756717022690E-03
  -0.9479538581952836E-03
  -0.1104279074060701E-02
   0.0000000000000000E+00
   0.0000000000000000E+00
   0.0000000000000000E+00
  -0.1062552354270721E-02
  -0.7643247229204382E-02
   0.1860877509229090E-01
  -0.2860620241842599E-04
  -0.1392510237310971E-02
  -0.2043726502240580E-02
  -0.5677103562907995E-02
  -0.1593400682496494E-02
  -0.5949648177916095E-02
  -0.4165085753495267E-02
   0.1565900390131148E-02
   0.3329589628431030E-01
   0.2716945242053582E-04
  -0.2767420650077327E-02
   0.3563867299447058E-02
   0.3507490746680071E-03
   0.0000000000000000E+00
   0.0000000000000000E+00
   0.0000000000000000E+00
   0.0000000000000000E+00
   0.0000000000000000E+00
   0.0000000000000000E+00
   0.0000000000000000E+00
   0.0000000000000000E+00
   0.0000000000000000E+00
   0.0000000000000000E+00
   0.0000000000000000E+00
   0.0000000000000000E+00
   0.0000000000000000E+00
   0.0000000000000000E+00
   0.0000000000000000E+00
   0.0000000000000000E+00
   0.0000000000000000E+00
   0.5062176668477773E-02
   0.3232573728843740E-02
   0.8161454162777681E-02
   0.6169398243869429E-02
   0.1123167510899812E-01
   0.1429343677330356E-01
  -0.2049486968983486E-03
   0.5112345918564211E-02
   0.2924185433992298E-02
   0.3374559750714126E-02
   0.3731865113364316E-02
  -0.1466847028714702E-01
  -0.6098938641274785E-03
   0.6672319509474498E-02
   0.1543597278954356E-02
   0.1983937412080555E-02
   0.4297988631824463E-02
  -0.2770253575042360E-02
   0.1248647880403322E-02
   0.2837727839101686E-02
   0.1523877750092081E-02
   0.2602716315856862E-02
   0.2047993877400183E-02
   0.2124926017310814E-02
   0.8698334536111513E-02
  -0.3737757375516100E-02
   0.6242123694671313E-02
   0.3334572983620434E-04
  -0.3946633172769182E-03
  -0.1677885507505084E-01
  -0.4892218372188542E-02
  -0.4720311654024807E-02
   0.3447906280132629E-02
  -0.6151599879239592E-02
   0.9568695637657409E-04
  -0.3292956132104777E-01
  -0.3045445132768228E-02
   0.4726501711640858E-02
   0.9418307829131846E-03
   0.2128828919885172E-02
   0.4537408511364760E-02
   0.2724992228691713E-02
   0.3212934122627975E-02
   0.5207177542916499E-02
   0.1947750910879768E-02
   0.7433453258252274E-03
  -0.2611992327326894E-04
  -0.5378987284461614E-02
  -0.6963761606701341E-02
  -0.9632115225445026E-03
   0.1118472414627626E-02
  -0.2075610488492119E-02
  -0.3192056452130542E-02
  -0.2523484685495530E-02
  -0.4120848807113357E-02
  -0.7597852248689484E-02
  -0.1995695356593344E-02
   0.6427089129043240E-03
  -0.2129202562341771E-03
   0.1239503420331516E-02
  -0.3507964119478531E-02
   0.5219747441364743E-02
  -0.8489351165078039E-02
   0.2876636332706792E-04
  -0.3440132401646097E-03
   0.2559422571443619E-02
   0.1663762114510674E-02
   0.2025162454250582E-02
  -0.5634438304894770E-02
SCALARS w double 1
LOOKUP_TABLE default
   0.0000000000000000E+00
   0.0000000000000000E+00
   0.0000000000000000E+00
   0.0000000000000000E+00
   0.0000000000000000E+00
   0.0000000000000000E+00
   0.0000000000000000E+00
   0.0000000000000000E+00
   0.0000000000000000E+00
   0.0000000000000000E+00
   0.0000000000000000E+00
   0.0000000000000000E+00
   0.0000000000000000E+00
   0.0000000000000000E+00
   0.0000000000000000E+00
   0.0000000000000000E+00
   0.0000000000000000E+00
   0.0000000000000000E+00
   0.0000000000000000E+00
   0.0000000000000000E+00
   0.0000000000000000E+00
   0.0000000000000000E+00
   0.0000000000000000E+00
   0.0000000000000000E+00
   0.0000000000000000E+00
   0.0000000000000000E+00
   0.0000000000000000E+00
   0.0000000000000000E+00
   0.0000000000000000E+00
   0.0000000000000000E+00
   0.0000000000000000E+00
   0.0000000000000000E+00
   0.0000000000000000E+00
  -0.1007681634041121E+00
  -0.4250157412473041E-01
   0.8004705893843037E-03
   0.5838690865572339E-02
   0.6845053905939309E-03
   0.1636415867363518E-02
   0.3339535496017202E-02
   0.2343003216431214E-02
   0.4494662235773084E-03
   0.3515599626727350E-02
   0.4522735171254675E-01
   0.6522549640926754E-01
   0.9261826738715416E-03
  -0.2263932289482060E-01
   0.4312167225710906E-02
   0.1361077705451007E-01
   0.1039593975493633E-01
   0.4901015925217073E-01
   0.2440218210064140E-02
  -0.6507020593307505E-02
  -0.6965029844133388E-03
   0.3400152305676849E-03
   0.3907624272682167E-02
  -0.3895805994049872E-01
   0.1798257756406357E-01
   0.1120031722463520E-01
   0.3404881255173827E-01
   0.8456288810316738E-02
   0.4998692618428387E-02
   0.5009551888679679E-02
   0.4891488470647499E-02
   0.6070406912279142E-02
   0.2618989201009525E-02
  -0.4147027771847536E-01
  -0.9954682992323166E-01
  -0.1121626379440428E+00
   0.5102027292810053E-02
   0.4315410070375778E-02
  -0.1004494386303094E+00
  -0.9891167643281268E-01
  -0.9872410373081739E-01
  -0.9459744985747352E-01
  -0.6807732094624587E-01
   0.5209509235457663E-02
  -0.1933488300378339E-01
  -0.1576561640696091E-01
  -0.5957669771642735E-02
   0.6898388580692400E-02
  -0.8011046945848220E-01
  -0.2780045924019798E-01
  -0.8093428292470287E-01
  -0.5870807054469689E-01
   0.3061879204739991E-02
   0.2691024194231521E-02
   0.2653901442892631E-02
   0.3447427714618068E-02
   0.4000639417293149E-02
   0.1202948317174274E-02
  -0.1419232470965723E-03
   0.2129969959351285E-02
   0.4886430605213814E-02
   0.3841636225544667E-02
   0.1118174070477600E-02
   0.1225697755710192E-02
   0.1515783387995418E-02
   0.1623226514733599E-05
   0.7664968891482310E-04
   0.4380840591216580E-02
   0.2696865072452935E-02
   0.2314548116919879E-02
   0.4995418554930682E-02
   0.1138732314559479E-02
   0.2713099812445112E-02
   0.1994175795629571E-02
   0.4320808672608529E-04
   0.8373821593864536E-01
   0.2783377292086311E-02
  -0.8384819229060353E-03
  -0.1612974209687870E-03
   0.1409486528302284E+00
   0.1239156635205648E+00
  -0.1198504419134681E-02
  -0.4382561997624298E-02
  -0.3167953250011381E-03
  -0.6515691679333011E-02
  -0.1956913112617348E-02
   0.1557644262960281E+00
   0.7489217447601980E-01
   0.2549334275245292E-01
   0.1656405151210035E+00