# vtk DataFile Version 2.0
FUN3D:global_image_vtk
ASCII
DATASET UNSTRUCTURED_GRID
POINTS 213 double
    0.0000000000000000E+00    0.2500000000000000E+01    0.0000000000000000E+00
    0.1250000000000000E+01    0.2500000000000000E+01    0.0000000000000000E+00
    0.2500000000000000E+01    0.2500000000000000E+01    0.0000000000000000E+00
    0.3750000000000000E+01    0.2500000000000000E+01    0.0000000000000000E+00
    0.5000000000000000E+01    0.2500000000000000E+01    0.0000000000000000E+00
    0.5000000000000000E+01    0.1250000000000000E+01    0.0000000000000000E+00
    0.5000000000000000E+01    0.0000000000000000E+00    0.0000000000000000E+00
    0.5000000000000000E+01   -0.1250000000000000E+01    0.0000000000000000E+00
    0.5000000000000000E+01   -0.2500000000000000E+01    0.0000000000000000E+00
    0.3750000000000000E+01   -0.2500000000000000E+01    0.0000000000000000E+00
    0.2500000000000000E+01   -0.2500000000000000E+01    0.0000000000000000E+00
    0.1250000000000000E+01   -0.2500000000000000E+01    0.0000000000000000E+00
    0.0000000000000000E+00   -0.2500000000000000E+01    0.0000000000000000E+00
    0.0000000000000000E+00   -0.1250000000000000E+01    0.0000000000000000E+00
    0.0000000000000000E+00    0.0000000000000000E+00    0.0000000000000000E+00
    0.0000000000000000E+00    0.1250000000000000E+01    0.0000000000000000E+00
    0.9058375365086910E+00    0.1578994732800803E+01    0.0000000000000000E+00
    0.3982050490726493E+01   -0.1583989954232354E+01    0.0000000000000000E+00
    0.4033849428301197E+01    0.1453322699199022E+01    0.0000000000000000E+00
    0.1040505887381675E+01   -0.1479596339503735E+01    0.0000000000000000E+00
    0.1099454400140349E+01   -0.3227322616384110E+00    0.0000000000000000E+00
    0.7354504170366591E+00    0.6593508822075582E+00    0.0000000000000000E+00
    0.1622302608453282E+01    0.8256214013940779E+00    0.0000000000000000E+00
    0.2145871574390382E+01   -0.1650070333782557E+01    0.0000000000000000E+00
    0.4086422318222992E+01   -0.4612828702537229E+00    0.0000000000000000E+00
    0.2979540174134984E+01   -0.8579242121530853E+00    0.0000000000000000E+00
    0.3045064261640043E+01   -0.1836846154397680E+01    0.0000000000000000E+00
    0.3428197553792836E+01    0.3508002863614053E+00    0.0000000000000000E+00
    0.4309693860063405E+01    0.5185680230613409E+00    0.0000000000000000E+00
    0.1827272193562204E+01    0.1738996113203182E+01    0.0000000000000000E+00
    0.2808563282768077E+01    0.1325493893339706E+01    0.0000000000000000E+00
    0.1895995683864404E+01   -0.8731419609589618E+00    0.0000000000000000E+00
    0.2273179336307740E+01    0.4906150219227333E-01    0.0000000000000000E+00
    0.5000000000000000E+01    0.2500000000000000E+01    0.1250000000000000E+01
    0.5000000000000000E+01    0.2500000000000000E+01    0.2500000000000000E+01
    0.5000000000000000E+01    0.2500000000000000E+01    0.3750000000000000E+01
    0.5000000000000000E+01    0.2500000000000000E+01    0.5000000000000000E+01
    0.3750000000000000E+01    0.2500000000000000E+01    0.5000000000000000E+01
    0.2500000000000000E+01    0.2500000000000000E+01    0.5000000000000000E+01
    0.1250000000000000E+01    0.2500000000000000E+01    0.5000000000000000E+01
    0.0000000000000000E+00    0.2500000000000000E+01    0.5000000000000000E+01
    0.0000000000000000E+00    0.2500000000000000E+01    0.3750000000000000E+01
    0.0000000000000000E+00    0.2500000000000000E+01    0.2500000000000000E+01
    0.0000000000000000E+00    0.2500000000000000E+01    0.1250000000000000E+01
    0.9631080833812172E+00    0.2500000000000000E+01    0.9613285771248219E+00
    0.3981732467264904E+01    0.2500000000000000E+01    0.4069753913607991E+01
    0.4035525118777670E+01    0.2500000000000000E+01    0.1012015867579395E+01
    0.9641717640894248E+00    0.2500000000000000E+01    0.3972455192261839E+01
    0.1547743040396780E+01    0.2500000000000000E+01    0.2928177746738678E+01
    0.6985170616192014E+00    0.2500000000000000E+01    0.3068281976055466E+01
    0.8931277594515110E+00    0.2500000000000000E+01    0.2052465503257726E+01
    0.2183293750162785E+01    0.2500000000000000E+01    0.3959073795658649E+01
    0.3855333506014705E+01    0.2500000000000000E+01    0.2931218481500625E+01
    0.3152495579421047E+01    0.2500000000000000E+01    0.3635850502723324E+01
    0.3103247580566054E+01    0.2500000000000000E+01    0.4331682712472464E+01
    0.3266837581688852E+01    0.2500000000000000E+01    0.1886092433583972E+01
    0.4231539241296245E+01    0.2500000000000000E+01    0.1915865356532799E+01
    0.1909741006522088E+01    0.2500000000000000E+01    0.7170024419130505E+00
    0.2880784107213163E+01    0.2500000000000000E+01    0.9046598906449592E+00
    0.2014316024535771E+01    0.2500000000000000E+01    0.1762464314805728E+01
    0.2670003247036656E+01    0.2500000000000000E+01    0.2850479545835163E+01
    0.5000000000000000E+01    0.1250000000000000E+01    0.5000000000000000E+01
    0.5000000000000000E+01    0.0000000000000000E+00    0.5000000000000000E+01
    0.5000000000000000E+01   -0.1250000000000000E+01    0.5000000000000000E+01
    0.5000000000000000E+01   -0.2500000000000000E+01    0.5000000000000000E+01
    0.5000000000000000E+01   -0.2500000000000000E+01    0.3750000000000000E+01
    0.5000000000000000E+01   -0.2500000000000000E+01    0.2500000000000000E+01
    0.5000000000000000E+01   -0.2500000000000000E+01    0.1250000000000000E+01
    0.5000000000000000E+01    0.1578994732800803E+01    0.9058375365086910E+00
    0.5000000000000000E+01   -0.1583989954232354E+01    0.3982050490726493E+01
    0.5000000000000000E+01    0.1453322699199022E+01    0.4033849428301197E+01
    0.5000000000000000E+01   -0.1479596339503735E+01    0.1040505887381675E+01
    0.5000000000000000E+01   -0.3227322616384110E+00    0.1099454400140349E+01
    0.5000000000000000E+01    0.6593508822075582E+00    0.7354504170366591E+00
    0.5000000000000000E+01    0.8256214013940779E+00    0.1622302608453282E+01
    0.5000000000000000E+01   -0.1650070333782557E+01    0.2145871574390382E+01
    0.5000000000000000E+01   -0.4612828702537229E+00    0.4086422318222992E+01
    0.5000000000000000E+01   -0.8579242121530853E+00    0.2979540174134984E+01
    0.5000000000000000E+01   -0.1836846154397680E+01    0.3045064261640043E+01
    0.5000000000000000E+01    0.3508002863614053E+00    0.3428197553792836E+01
    0.5000000000000000E+01    0.5185680230613409E+00    0.4309693860063405E+01
    0.5000000000000000E+01    0.1738996113203182E+01    0.1827272193562204E+01
    0.5000000000000000E+01    0.1325493893339706E+01    0.2808563282768077E+01
    0.5000000000000000E+01   -0.8731419609589618E+00    0.1895995683864404E+01
    0.5000000000000000E+01    0.4906150219227333E-01    0.2273179336307740E+01
    0.0000000000000000E+00    0.1250000000000000E+01    0.5000000000000000E+01
    0.0000000000000000E+00    0.0000000000000000E+00    0.5000000000000000E+01
    0.0000000000000000E+00   -0.1250000000000000E+01    0.5000000000000000E+01
    0.0000000000000000E+00   -0.2500000000000000E+01    0.5000000000000000E+01
    0.1250000000000000E+01   -0.2500000000000000E+01    0.5000000000000000E+01
    0.2500000000000000E+01   -0.2500000000000000E+01    0.5000000000000000E+01
    0.3750000000000000E+01   -0.2500000000000000E+01    0.5000000000000000E+01
    0.4042003247744892E+01    0.1558308132739014E+01    0.5000000000000000E+01
    0.9304122287900499E+00   -0.1548001304379777E+01    0.5000000000000000E+01
    0.1037243024609388E+01    0.1462892710085612E+01    0.5000000000000000E+01
    0.3946240828834967E+01   -0.1445243809615570E+01    0.5000000000000000E+01
    0.4092527262848217E+01   -0.3455338993778935E+00    0.5000000000000000E+01
    0.4293103109154542E+01    0.6277660831404320E+00    0.5000000000000000E+01
    0.3241512314643519E+01    0.7429886854239611E+00    0.5000000000000000E+01
    0.2844289952419609E+01   -0.1588117879734118E+01    0.5000000000000000E+01
    0.7159905765450471E+00   -0.6002320124191652E+00    0.5000000000000000E+01
    0.1754341919796891E+01   -0.7398147869923652E+00    0.5000000000000000E+01
    0.1870296826774691E+01   -0.1788622905643739E+01    0.5000000000000000E+01
    0.9220614901912976E+00    0.3083720183248586E+00    0.5000000000000000E+01
    0.3101523624086016E+01    0.1777901774806180E+01    0.5000000000000000E+01
    0.2192512063922564E+01    0.1576861561598471E+01    0.5000000000000000E+01
    0.2024793420196460E+01    0.4773861992750707E+00    0.5000000000000000E+01
    0.2990627757741975E+01   -0.4878110785814084E+00    0.5000000000000000E+01
    0.0000000000000000E+00   -0.2500000000000000E+01    0.1250000000000000E+01
    0.0000000000000000E+00   -0.2500000000000000E+01    0.2500000000000000E+01
    0.0000000000000000E+00   -0.2500000000000000E+01    0.3750000000000000E+01
    0.0000000000000000E+00    0.1558308132739014E+01    0.4042003247744892E+01
    0.0000000000000000E+00   -0.1548001304379777E+01    0.9304122287900499E+00
    0.0000000000000000E+00    0.1462892710085612E+01    0.1037243024609388E+01
    0.0000000000000000E+00   -0.1445243809615570E+01    0.3946240828834967E+01
    0.0000000000000000E+00   -0.3455338993778935E+00    0.4092527262848217E+01
    0.0000000000000000E+00    0.6277660831404320E+00    0.4293103109154542E+01
    0.0000000000000000E+00    0.7429886854239611E+00    0.3241512314643519E+01
    0.0000000000000000E+00   -0.1588117879734118E+01    0.2844289952419609E+01
    0.0000000000000000E+00   -0.6002320124191652E+00    0.7159905765450471E+00
    0.0000000000000000E+00   -0.7398147869923652E+00    0.1754341919796891E+01
    0.0000000000000000E+00   -0.1788622905643739E+01    0.1870296826774691E+01
    0.0000000000000000E+00    0.3083720183248586E+00    0.9220614901912976E+00
    0.0000000000000000E+00    0.1777901774806180E+01    0.3101523624086016E+01
    0.0000000000000000E+00    0.1576861561598471E+01    0.2192512063922564E+01
[...]
POINT_DATA 213
SCALARS rho double 1
LOOKUP_TABLE default
   0.1344271203991831E+01
   0.9569753708812344E+00
   0.9462958531713590E+00
   0.9418607968199515E+00
   0.8437304623231915E+00
   0.7737999589096409E+00
   0.7629812995247729E+00
   0.7664566210636259E+00
   0.8307870582730662E+00
   0.9352971427818446E+00
   0.9342214719665319E+00
   0.9617188903713965E+00
   0.1449457020114820E+01
   0.1494090130445165E+01
   0.1644666849664217E+01
   0.1425831819489498E+01
   0.1009013945060262E+01
   0.9508806805305031E+00
   0.9436506538107700E+00
   0.9581556323020188E+00
   0.9415847349979175E+00
   0.1036376808953303E+01
   0.9256155238121790E+00
   0.9322343789762088E+00
   0.9537476536985977E+00
   0.9518766729673296E+00
   0.9348579473631975E+00
   0.9564026840102100E+00
   0.9376096201379039E+00
   0.9300655940887501E+00
   0.9445152962167740E+00
   0.8863500507782178E+00
   0.9423576244940436E+00
   0.9635049276595912E+00
   0.1008297542690044E+01
   0.1006736528269570E+01
   0.1001962609637149E+01
   0.1003217549996502E+01
   0.1004131523326450E+01
   0.1005228011601093E+01
   0.1004260075953687E+01
   0.1008307813802719E+01
   0.1023892678181975E+01
   0.1063553380926581E+01
   0.1019182196998240E+01
   0.1001781833854123E+01
   0.9643370646953513E+00
   0.1005283222423942E+01
   0.1000720598240747E+01
   0.1008741627113298E+01
   0.1008077616327752E+01
   0.1002349082586069E+01
   0.9979976486301052E+00
   0.1000582810869078E+01
   0.1001619704089075E+01
   0.9826888138088935E+00
   0.9842444254326688E+00
   0.9833309155791202E+00
   0.9788228430378788E+00
   0.9902631147095874E+00
   0.9934556369638756E+00
   0.1002008577686932E+01
   0.1002131946860367E+01
   0.1002273878011557E+01
   0.1001792597244585E+01
   0.1009780384360491E+01
   0.1006428767445648E+01
   0.9558785253953980E+00
   0.9249414500318855E+00
   0.1007037226154411E+01
   0.1004506711137982E+01
   0.9143641941408301E+00
   0.9089674162138033E+00
   0.8751689846239287E+00
   0.9767263082544270E+00
   0.1000451716405845E+01
   0.1005832113649018E+01
   0.1012882856521129E+01
   0.1011619455549731E+01
   0.1010439649543181E+01
   0.1005469856142426E+01
   0.9907607280349219E+00
   0.1005139239543264E+01
   0.9860560993130338E+00
   0.1005608722264561E+01
   0.1004247665871020E+01
   0.1002888229679993E+01
   0.1003345233250202E+01
   0.1003992933287462E+01
   0.1005101248492388E+01
   0.1003211243867945E+01
   0.1002661002466808E+01
   0.1002582363401690E+01
   0.1004060476698248E+01
   0.1004319747555812E+01
   0.1001639806959141E+01
   0.1002269932732291E+01
   0.1002539708674622E+01
   0.1003467884065825E+01
   0.1003371754658703E+01
   0.1003231839509872E+01
   0.1004423352682029E+01
   0.1004312866407381E+01
   0.1003659574877702E+01
   0.1003722450957024E+01
   0.1004328700597363E+01
   0.1004464189248979E+01
   0.1003622267906539E+01
   0.1064422806188832E+01
   0.1028473135628543E+01
   0.1009586333938833E+01
   0.1006638473961451E+01
   0.1163935045231360E+01
   0.1086087617127070E+01
   0.1007893015461588E+01
   0.1007245099461272E+01
   0.1006797767801635E+01
   0.1013017829359905E+01
   0.1019384065309476E+01
   0.1235203385210598E+01
   0.1032529211676895E+01
   0.1046680602312626E+01
   0.1200953381764333E+01
   0.1014718470333287E+01
   0.1032290605678991E+01
   0.1028094689306296E+01
   0.1014628088771275E+01
   0.1029216448742297E+01
   0.1001995318373787E+01
   0.9606935863983970E+00
   0.1006852000691664E+01
   0.1001326721525783E+01
   0.1010821283943070E+01
   0.1012245680788030E+01
   0.1000945522546454E+01
   0.9979118585597603E+00
   0.9980626148010119E+00
   0.1001183412257699E+01
   0.9841357009594208E+00
   0.9814876402697219E+00
   0.9648480934520057E+00
   0.9680872678620115E+00
   0.9914121503399151E+00
   0.9910855292371089E+00
   0.9925540306182071E+00
   0.1001726953321558E+01
   0.9993404016322902E+00
   0.9941406533348096E+00
   0.1007038267150966E+01
   0.1022539073209060E+01
   0.1001087795217094E+01
   0.1008797958329604E+01
   0.1004773314287245E+01
   0.1009049753091922E+01
   0.9966466425162658E+00
   0.1004988209021112E+01
   0.1003325054160599E+01
   0.9949426573904164E+00
   0.9832678168973666E+00
   0.9943951197483322E+00
   0.9973415624618979E+00
   0.9932182985866065E+00
   0.1001305689929182E+01
   0.1003001015193556E+01
   0.1002183024510234E+01
   0.9947076942051524E+00
   0.9937961232025148E+00
   0.1004867358495638E+01
   0.1020077192334110E+01
   0.1005364188371767E+01
   0.9816994944580952E+00
   0.1004972506668250E+01
   0.1012381721917405E+01
   0.9871421248926727E+00
   0.9551509564649300E+00
   0.9865071443603228E+00
   0.9864529257801009E+00
   0.9918942167708584E+00
   0.9933504686853343E+00
   0.9954401745015006E+00
   0.1037336478130902E+01
   0.1033536383677867E+01
   0.1001443726182996E+01
   0.1001929838276317E+01
   0.9912472929037386E+00
   0.9910915027669119E+00
   0.9648483252960582E+00
   0.9933277798080106E+00
   0.1006058691155540E+01
   0.1001953968554653E+01
   0.9908730297995842E+00
   0.9740944766603814E+00
   0.9418804129514101E+00
   0.9819374991526318E+00
   0.9794798801769360E+00
   0.9704169877484056E+00
   0.9720473098293797E+00
   0.9557349811603209E+00
   0.9496732287501157E+00
   0.9528674711110142E+00
   0.1002658946454228E+01
   0.1002470941950110E+01
   0.1000509070574890E+01
   0.1001677411602336E+01
   0.9607925451474446E+00
   0.9491634543162646E+00
   0.9584505289600186E+00
   0.1001120985762256E+01
   0.1000495897524083E+01
   0.1001156201077253E+01
   0.9807373259173832E+00
   0.9805995690195261E+00
   0.9628478392147409E+00
SCALARS u double 1
LOOKUP_TABLE default
   0.0000000000000000E+00
   0.0000000000000000E+00
   0.0000000000000000E+00
   0.0000000000000000E+00
   0.0000000000000000E+00
   0.0000000000000000E+00
   0.0000000000000000E+00
   0.0000000000000000E+00
   0.0000000000000000E+00
   0.0000000000000000E+00
   0.0000000000000000E+00
   0.0000000000000000E+00
   0.0000000000000000E+00
   0.0000000000000000E+00
   0.0000000000000000E+00
   0.0000000000000000E+00
   0.0000000000000000E+00
   0.0000000000000000E+00
   0.0000000000000000E+00
   0.0000000000000000E+00
   0.0000000000000000E+00
   0.0000000000000000E+00
   0.0000000000000000E+00
   0.0000000000000000E+00
   0.0000000000000000E+00
   0.0000000000000000E+00
   0.0000000000000000E+00
   0.0000000000000000E+00
   0.0000000000000000E+00
   0.0000000000000000E+00
   0.0000000000000000E+00
   0.0000000000000000E+00
   0.0000000000000000E+00
   0.4950110328709179E+00
   0.5338225500502006E+00
   0.5183272105674133E+00
   0.4930668603951079E+00
   0.4847615375964565E+00
   0.4867708556257698E+00
   0.4890781356947088E+00
   0.4957852410160686E+00
   0.4898308307698502E+00
   0.4717392716994161E+00
   0.4454820089032446E+00
   0.4833909712720399E+00
   0.5098448220382611E+00
   0.4390689487701416E+00
   0.4949406633128691E+00
   0.5225336422691244E+00
   0.4962460574281092E+00
   0.5226160322545318E+00
   0.5038889758346607E+00
   0.5646883703143362E+00
   0.5247516796107988E+00
   0.4991503120492327E+00
   0.5730562805555086E+00
   0.5696032720463614E+00
   0.3737941534970540E+00
   0.3998649695078157E+00
   0.5599333514826611E+00
   0.5564591850922531E+00
   0.4942645885985163E+00
   0.4948669505128496E+00
   0.4925722670005934E+00
   0.4914259301686938E+00
   0.5162367745308180E+00
   0.5361799248676170E+00
   0.4947404038975256E+00
   0.4524087819253547E+00
   0.5128784478308556E+00
   0.5117944242145938E+00
   0.4783506710193786E+00
   0.4931686425680297E+00
   0.4603167431531942E+00
   0.5244892978689153E+00
   0.5297435847145376E+00
   0.5129577207215649E+00
   0.5328357041020434E+00
   0.5308945463238883E+00
   0.5309850977882845E+00
   0.5063656746166713E+00
   0.5282454262993677E+00
   0.5410314716066842E+00
   0.5361259315431263E+00
   0.5374106457592344E+00
   0.4965368175501778E+00
   0.4975343348102161E+00
   0.4963843285990287E+00
   0.4955221125693136E+00
   0.4904587997475497E+00
   0.4903057859485809E+00
   0.4862158585195508E+00
   0.4854072089245697E+00
   0.4932172233993568E+00
   0.4909844496151899E+00
   0.4832164852078616E+00
   0.4872625790668553E+00
   0.4880147905668766E+00
   0.4872477141636959E+00
   0.4882690231123479E+00
   0.4952602392984859E+00
   0.4900976032788790E+00
   0.4904008911172895E+00
   0.4944239623264671E+00
   0.4868046551822372E+00
   0.4892409087279357E+00
   0.4881405409381582E+00
   0.4878463983292036E+00
   0.4446864140554357E+00
   0.4700033910614591E+00
   0.4892002214590157E+00
   0.4885244101382209E+00
   0.4506542245124485E+00
   0.4687377466085667E+00
   0.4877011067835110E+00
   0.4868355612452444E+00
   0.4908993851736064E+00
   0.4793557163030507E+00
   0.4658078856332392E+00
   0.3792728868838620E+00
   0.4901597528991345E+00
   0.4486692359455739E+00
   0.4436142164223724E+00
   0.4845151911080166E+00
   0.4621829373656899E+00
   0.4665756882576295E+00
   0.4748147313040622E+00
   0.4894497534698124E+00
   0.5085609538752158E+00
   0.4315071925067203E+00
   0.4927356289463125E+00
   0.5318295931491382E+00
   0.4913405851435579E+00
   0.5207023255672754E+00
   0.5060988170517440E+00
   0.5688805948209752E+00
   0.5274018715052603E+00
   0.5015077255611079E+00
   0.5821787345747301E+00
   0.5689608851387045E+00
   0.3406396594200946E+00
   0.3789867505569064E+00
   0.5751961296428498E+00
   0.5666490219569869E+00
   0.5704107628885586E+00
   0.5291061744169202E+00
   0.5451907074969096E+00
   0.5718807973797803E+00
   0.5389084358660137E+00
   0.5475510982922310E+00
   0.5821718724115061E+00
   0.4925606398809271E+00
   0.5042161143751073E+00
   0.4961740394049415E+00
   0.5565212882644729E+00
   0.4758848626667609E+00
   0.4950282805633933E+00
   0.5498526836526897E+00
   0.5891201069234174E+00
   0.5841957120663794E+00
   0.5469100759063988E+00
   0.5805414053787256E+00
   0.5106265218007842E+00
   0.5030213630354418E+00
   0.5033662605811952E+00
   0.5676438104913322E+00
   0.5563948648470087E+00
   0.4947260756958514E+00
   0.5505248475462524E+00
   0.5510860388054600E+00
   0.5657353198410863E+00
   0.4920076875534757E+00
   0.4927303928453768E+00
   0.3865146843438430E+00
   0.3687760087388697E+00
   0.5574923616696011E+00
   0.5763759204221161E+00
   0.4194306443673814E+00
   0.5824846996561334E+00
   0.4265214271789324E+00
   0.5392804320972278E+00
   0.5012038360346388E+00
   0.5119550784572594E+00
   0.5049134235245568E+00
   0.5751969857466043E+00
   0.5876371191195608E+00
   0.5379899844592693E+00
   0.5677471402701043E+00
   0.5351265387184955E+00
   0.5338067731041618E+00
   0.5580313849581957E+00
   0.5512700923609511E+00
   0.4261841930568442E+00
   0.5273361231328617E+00
   0.5795709025310912E+00
   0.3318693566571475E+00
   0.4760282382495895E+00
   0.5446195854774640E+00
   0.4798326900343096E+00
   0.3005295017284939E+00
   0.5031061079530943E+00
   0.5017129459558060E+00
   0.5129058380245044E+00
   0.5414848338117024E+00
   0.3437605898881717E+00
   0.3397717831136326E+00
   0.3189926686975922E+00
   0.5065964573585382E+00
   0.5123517522713441E+00
   0.5330314237701197E+00
   0.5879311164580093E+00
   0.4644184214791517E+00
   0.3531279311850678E+00
SCALARS v double 1
LOOKUP_TABLE default
   0.0000000000000000E+00
   0.0000000000000000E+00
   0.0000000000000000E+00
   0.0000000000000000E+00
   0.0000000000000000E+00
   0.0000000000000000E+00
   0.0000000000000000E+00
   0.0000000000000000E+00
   0.0000000000000000E+00
   0.0000000000000000E+00
   0.0000000000000000E+00
   0.0000000000000000E+00
   0.0000000000000000E+00
   0.0000000000000000E+00
   0.0000000000000000E+00
   0.0000000000000000E+00
   0.0000000000000000E+00
   0.0000000000000000E+00
   0.0000000000000000E+00
   0.0000000000000000E+00
   0.0000000000000000E+00
   0.0000000000000000E+00
   0.0000000000000000E+00
   0.0000000000000000E+00
   0.0000000000000000E+00
   0.0000000000000000E+00
   0.0000000000000000E+00
   0.0000000000000000E+00
   0.0000000000000000E+00
   0.0000000000000000E+00
   0.0000000000000000E+00
   0.0000000000000000E+00
   0.0000000000000000E+00
   0.0000000000000000E+00
   0.0000000000000000E+00
   0.0000000000000000E+00
   0.0000000000000000E+00
   0.0000000000000000E+00
   0.0000000000000000E+00
   0.0000000000000000E+00
   0.0000000000000000E+00
   0.0000000000000000E+00
   0.0000000000000000E+00
   0.0000000000000000E+00
   0.0000000000000000E+00
   0.0000000000000000E+00
   0.0000000000000000E+00
   0.0000000000000000E+00
   0.0000000000000000E+00
   0.0000000000000000E+00
   0.0000000000000000E+00
   0.0000000000000000E+00
   0.0000000000000000E+00
   0.0000000000000000E+00
   0.0000000000000000E+00
   0.0000000000000000E+00
   0.0000000000000000E+00
   0.0000000000000000E+00
   0.0000000000000000E+00
   0.0000000000000000E+00
   0.0000000000000000E+00
   0.7979012584336517E-03
  -0.1328405515807637E-02
  -0.1331226446952439E-02
   0.0000000000000000E+00
   0.0000000000000000E+00
   0.0000000000000000E+00
   0.0000000000000000E+00
  -0.1922689077538862E-01
   0.4778633726368385E-03
   0.2183522057615725E-02
   0.1427267938838223E-01
  -0.6488826895191840E-02
  -0.7822182571729485E-02
  -0.1327763882877783E-01
   0.4914311658090196E-02
   0.6910806647194399E-03
   0.3434283857554361E-02
   0.1921127717215424E-02
   0.3148223007354671E-02
   0.1705221592662844E-02
  -0.7316874808424174E-02
  -0.7674179103854599E-04
   0.4468313013712941E-02
  -0.4386957855373237E-03
  -0.6346275828445995E-04
  -0.1963129161594421E-03
   0.8072424949053400E-03
   0.0000000000000000E+00
   0.0000000000000000E+00
   0.0000000000000000E+00
   0.0000000000000000E+00
   0.4251031623116207E-03
   0.1616515922939325E-02
  -0.1297236102690535E-02
  -0.1020901321573736E-02
  -0.2132689840545249E-02
  -0.1063559524478009E-02
  -0.8199913830837846E-03
  -0.7604500353894110E-03
   0.5199032869222136E-04
  -0.6237312231659026E-03
   0.7917296075738626E-03
  -0.1745018294439808E-02
   0.2737075712598664E-03
  -0.8978326473362215E-04
  -0.9420645586240341E-03
  -0.1098175653841837E-02
   0.0000000000000000E+00
   0.0000000000000000E+00
   0.0000000000000000E+00
  -0.1061657210959123E-02
  -0.7641219536669455E-02
   0.1860860820621576E-01
  -0.2837189795432155E-04
  -0.1383170525472160E-02
  -0.2034926704941505E-02
  -0.5666332494701475E-02
  -0.1585204202003358E-02
  -0.5947126419852229E-02
  -0.4160707386136820E-02
   0.1565584617184834E-02
   0.3329511050673251E-01
   0.3056761718728235E-04
  -0.2766909678899932E-02
   0.3566405378150199E-02
   0.3596825705901723E-03
   0.0000000000000000E+00
   0.0000000000000000E+00
   0.0000000000000000E+00
   0.0000000000000000E+00
   0.0000000000000000E+00
   0.0000000000000000E+00
   0.0000000000000000E+00
   0.0000000000000000E+00
   0.0000000000000000E+00
   0.0000000000000000E+00
   0.0000000000000000E+00
   0.0000000000000000E+00
   0.0000000000000000E+00
   0.0000000000000000E+00
   0.0000000000000000E+00
   0.0000000000000000E+00
   0.0000000000000000E+00
   0.5046967587045455E-02
   0.3230603406328588E-02
   0.8149095551663056E-02
   0.6168378605562155E-02
   0.1122927209609769E-01
   0.1429274835542982E-01
  -0.2038621503845001E-03
   0.5118189215133229E-02
   0.2914941189442514E-02
   0.3373533373092855E-02
   0.3728345470722173E-02
  -0.1465733586474756E-01
  -0.6160580987493327E-03
   0.6651716779615473E-02
   0.1542211048542765E-02
   0.1969584303530479E-02
   0.4266195419740576E-02
  -0.2790895982417734E-02
   0.1226796207154636E-02
   0.2819069547325255E-02
   0.1496954039649174E-02
   0.2575300666946531E-02
   0.2030367584389139E-02
   0.2118015723566725E-02
   0.8700445035089065E-02
  -0.3733306962680154E-02
   0.6241359876185932E-02
   0.2504063319662847E-04
  -0.3854566897125335E-03
  -0.1674687644060534E-01
  -0.4881897825207117E-02
  -0.4719788454901707E-02
   0.3445188411448649E-02
  -0.6135918888806874E-02
   0.9942887406220102E-04
  -0.3291387936872225E-01
  -0.3046156544538488E-02
   0.4722764152697647E-02
   0.9228880951317612E-03
   0.2112113624288509E-02
   0.4518571130932969E-02
   0.2720125038539079E-02
   0.3212465299430892E-02
   0.5200622714922012E-02
   0.1942088961827855E-02
   0.7315997643555389E-03
  -0.2603255262868398E-04
  -0.5375057135951817E-02
  -0.6959996868567877E-02
  -0.9444296703317763E-03
   0.1105335048287918E-02
  -0.2079991648706876E-02
  -0.3199647959267549E-02
  -0.2527749479173895E-02
  -0.4115442926064911E-02
  -0.7593834864934414E-02
  -0.1985954261381782E-02
   0.6237778458413903E-03
  -0.2233857115564630E-03
   0.1217004548461059E-02
  -0.3484299897845665E-02
   0.5228775297916311E-02
  -0.8487672533981493E-02
   0.2296185982645706E-04
  -0.3398907117757796E-03
   0.2542584193626322E-02
   0.1663465573585441E-02
   0.2021620146271424E-02
  -0.5620705388472586E-02
SCALARS w double 1
LOOKUP_TABLE default
   0.0000000000000000E+00
   0.0000000000000000E+00
   0.0000000000000000E+00
   0.0000000000000000E+00
   0.0000000000000000E+00
   0.0000000000000000E+00
   0.0000000000000000E+00
   0.0000000000000000E+00
   0.0000000000000000E+00
   0.0000000000000000E+00
   0.0000000000000000E+00
   0.0000000000000000E+00
   0.0000000000000000E+00
   0.0000000000000000E+00
   0.0000000000000000E+00
   0.0000000000000000E+00
   0.0000000000000000E+00
   0.0000000000000000E+00
   0.0000000000000000E+00
   0.0000000000000000E+00
   0.0000000000000000E+00
   0.0000000000000000E+00
   0.0000000000000000E+00
   0.0000000000000000E+00
   0.0000000000000000E+00
   0.0000000000000000E+00
   0.0000000000000000E+00
   0.0000000000000000E+00
   0.0000000000000000E+00
   0.0000000000000000E+00
   0.0000000000000000E+00
   0.0000000000000000E+00
   0.0000000000000000E+00
  -0.1007598504676076E+00
  -0.4249199284162147E-01
   0.7385779409803401E-03
   0.5730827389190393E-02
   0.5701735002911412E-03
   0.1607527429232108E-02
   0.3374091635043878E-02
   0.2371614833114856E-02
   0.4586938745741658E-03
   0.3518198788953659E-02
   0.4521846298944385E-01
   0.6522941295690055E-01
   0.8695898422970497E-03
  -0.2261164099800500E-01
   0.4316382981788373E-02
   0.1358718758660705E-01
   0.1039428885021982E-01
   0.4900543932525610E-01
   0.2437739619975003E-02
  -0.6508439296724328E-02
  -0.6996990401118296E-03
   0.3412747029891581E-03
   0.3904621240505882E-02
  -0.3893107152259562E-01
   0.1798170506590882E-01
   0.1119639902088786E-01
   0.3403779948472967E-01
   0.8439367859265327E-02
   0.4943163080819127E-02
   0.4974583634970961E-02
   0.4874410476363103E-02
   0.6029558973432114E-02
   0.2600916214441997E-02
  -0.4144410612450096E-01
  -0.9954192903457892E-01
  -0.1121675301641107E+00
   0.5073042671241056E-02
   0.4233755436452371E-02
  -0.1004726096168660E+00
  -0.9895147712257012E-01
  -0.9875398055019467E-01
  -0.9462372040366408E-01
  -0.6807078009569206E-01
   0.5156999142803351E-02
  -0.1935287224933831E-01
  -0.1575752556528954E-01
  -0.6002326311880932E-02
   0.6822529701700497E-02
  -0.8009898568463644E-01
  -0.2781046494815284E-01
  -0.8096363896326057E-01
  -0.5873209532011350E-01
   0.3083506528816663E-02
   0.2684894461773184E-02
   0.2640180090947561E-02
   0.3449255911415295E-02
   0.4006064945057517E-02
   0.1200321211634117E-02
  -0.1431855941096979E-03
   0.2043413191132269E-02
   0.4894934060989093E-02
   0.3856759051869758E-02
   0.1115551053155380E-02
   0.1185405123899994E-02
   0.1469043646014244E-02
  -0.1695258230110133E-04
   0.8936397861764598E-04
   0.4386218268677937E-02
   0.2715021883644168E-02
   0.2321640103209679E-02
   0.5009857028980751E-02
   0.1069770403619171E-02
   0.2711469153144347E-02
   0.2013463255403813E-02
   0.2863333228752525E-04
   0.8374603211957893E-01
   0.2793921630468887E-02
  -0.8348725359137126E-03
  -0.1493884612121987E-03
   0.1409540017799860E+00
   0.1239329786095238E+00
  -0.1219077104316852E-02
  -0.4381870910334763E-02
  -0.3040693742678088E-03
  -0.6512273258843466E-02
  -0.1949541704341877E-02
   0.1557630143577369E+00
   0.7489970802384449E-01
   0.2550185744596328E-01
   0.1656444461340111E+00