title="tecplot geometry and solution file"
variables = x y z mach temperature lambda1 lambda2 lambda3 lambda4 lambda5
zone t="boundary 1 bc-1", solutiontime= 0.3000000E+02, strandid=1001, i=32, j=46, f=feblock
  0.000000000000E+00  0.000000000000E+00  0.000000000000E+00  0.000000000000E+00  0.000000000000E+00  0.000000000000E+00  0.000000000000E+00
  0.000000000000E+00  0.000000000000E+00  0.000000000000E+00  0.000000000000E+00  0.000000000000E+00  0.000000000000E+00  0.000000000000E+00
  0.000000000000E+00  0.000000000000E+00  0.000000000000E+00  0.000000000000E+00  0.000000000000E+00  0.000000000000E+00  0.000000000000E+00
  0.000000000000E+00  0.000000000000E+00  0.000000000000E+00  0.000000000000E+00  0.000000000000E+00  0.000000000000E+00  0.000000000000E+00
  0.000000000000E+00  0.000000000000E+00  0.000000000000E+00  0.000000000000E+00
  0.250000000000E+01  0.250000000000E+01  0.125000000000E+01  0.146289271009E+01  0.157686156160E+01  0.308372018325E+00  0.000000000000E+00
 -0.125000000000E+01 -0.600232012419E+00  0.250000000000E+01  0.477386199275E+00  0.742988685424E+00 -0.739814786992E+00  0.177790177481E+01
  0.155830813274E+01  0.250000000000E+01 -0.250000000000E+01 -0.154800130438E+01 -0.487811078581E+00  0.250000000000E+01  0.627766083140E+00
 -0.345533899378E+00 -0.178862290564E+01 -0.158811787973E+01  0.125000000000E+01 -0.250000000000E+01 -0.144524380962E+01  0.000000000000E+00
 -0.125000000000E+01 -0.250000000000E+01 -0.250000000000E+01 -0.250000000000E+01
  0.000000000000E+00  0.125000000000E+01  0.000000000000E+00  0.103724302461E+01  0.219251206392E+01  0.922061490191E+00  0.000000000000E+00
  0.000000000000E+00  0.715990576545E+00  0.250000000000E+01  0.202479342020E+01  0.324151231464E+01  0.175434191980E+01  0.310152362409E+01
  0.404200324774E+01  0.375000000000E+01  0.000000000000E+00  0.930412228790E+00  0.299062775774E+01  0.500000000000E+01  0.429310310915E+01
  0.409252726285E+01  0.187029682677E+01  0.284428995242E+01  0.500000000000E+01  0.125000000000E+01  0.394624082883E+01  0.500000000000E+01
  0.500000000000E+01  0.250000000000E+01  0.375000000000E+01  0.500000000000E+01
  0.000000000000E+00  0.441238348384E+00  0.000000000000E+00  0.475214987021E+00  0.460123708856E+00  0.468827815405E+00  0.000000000000E+00
  0.000000000000E+00  0.402302516798E+00  0.469814974359E+00  0.464411128942E+00  0.478714034184E+00  0.489298241651E+00  0.483068557888E+00
  0.487930073118E+00  0.488961654628E+00  0.000000000000E+00  0.464775721414E+00  0.473795651891E+00  0.495346592024E+00  0.490266103446E+00
  0.486286083902E+00  0.445717618051E+00  0.464382274634E+00  0.496127394917E+00  0.443624103833E+00  0.486964461957E+00  0.497246279768E+00
  0.496059270892E+00  0.467732355362E+00  0.488212087362E+00  0.495098264817E+00
  0.999990295028E+00  0.102982719499E+01  0.999990757903E+00  0.104247294232E+01  0.101190080524E+01  0.102520618293E+01  0.999991416700E+00
  0.999992168096E+00  0.103891223624E+01  0.100826277309E+01  0.101252833877E+01  0.100300548289E+01  0.102702865700E+01  0.100605563290E+01
  0.100244400478E+01  0.100355660048E+01  0.999992721792E+00  0.103239739214E+01  0.100459524090E+01  0.100179336279E+01  0.100260305842E+01
  0.100234966417E+01  0.101657153079E+01  0.100617544692E+01  0.100168844809E+01  0.104043292670E+01  0.100303376377E+01  0.100118726928E+01
  0.100134171022E+01  0.100976788415E+01  0.100405369352E+01  0.100176112495E+01
  0.335353472832E-03  0.185525092122E-02  0.196946318573E-03  0.201205923233E-02  0.382758317779E-03  0.195202491136E-04 -0.450915826692E-04
 -0.980164064767E-04 -0.125090313238E-02  0.888850252396E-04  0.661312410405E-04 -0.733632363430E-04 -0.636748733495E-03 -0.107061311032E-03
 -0.168508360701E-03 -0.261596827414E-03 -0.476058121857E-04 -0.101907564703E-02  0.440609023327E-04 -0.200044488139E-03 -0.998466442713E-04
  0.225064554421E-05 -0.161152535321E-03  0.690512614468E-04 -0.205009038514E-03 -0.570614745119E-03  0.436405086156E-04 -0.170588182307E-03
 -0.109878345285E-03 -0.129816773168E-04  0.631898543823E-04 -0.888996180694E-04
  0.235353887621E-04  0.297070340001E-03  0.539745972083E-05  0.289489718880E-03  0.588502280194E-04 -0.527219310493E-05 -0.213947820255E-04
 -0.155248528374E-04 -0.217654150823E-03  0.817157902937E-05  0.979501027356E-05 -0.175806053415E-04 -0.103733719296E-03 -0.303569563495E-04
 -0.301766524997E-04 -0.544867679594E-04 -0.290253955867E-05 -0.142154224648E-03  0.326319476301E-05 -0.373582539685E-04 -0.168861340085E-04
  0.124374338178E-05 -0.230349178332E-04  0.136923063979E-04 -0.410676839086E-04 -0.800105616249E-04  0.956128560398E-05 -0.348239208889E-04
 -0.221624645086E-04  0.268586030258E-05  0.132254622065E-04 -0.181613854898E-04
  0.364331269879E-04  0.696004107056E-05  0.612699468933E-04  0.570086542568E-04 -0.100434065411E-04 -0.499624831402E-07  0.158895058935E-04
 -0.312795144992E-05 -0.397801681910E-04 -0.234106383319E-06 -0.130192757852E-04 -0.242848697907E-04 -0.158684946964E-04 -0.155087613007E-04
 -0.128529108269E-04  0.566400123121E-06 -0.277909578541E-05  0.566954089751E-05 -0.246911861544E-04  0.571834379445E-06 -0.167207081497E-04
 -0.188106140269E-04 -0.123180970681E-04 -0.138994467258E-04 -0.569208024773E-05 -0.230551954688E-05 -0.107266491666E-04 -0.909097607666E-05
 -0.627618657602E-05  0.397825852957E-07  0.241352615093E-06  0.502808227092E-06
 -0.640405706051E-04 -0.768706011182E-04 -0.361156819272E-04 -0.216442764753E-04  0.370782133557E-04  0.177061813238E-04  0.172827789251E-05
  0.249801688981E-04  0.100713166007E-04  0.489676295271E-04  0.219404870884E-04  0.177143033464E-04 -0.186546048312E-04  0.359919369241E-04
  0.180891276233E-04  0.294128484987E-04  0.856712546153E-05  0.576023636026E-05  0.306025245742E-05  0.240132639287E-05  0.891071574323E-05
  0.316692329796E-05 -0.114337789122E-04 -0.518917273357E-05  0.238361578504E-05 -0.498846942592E-05 -0.254280845711E-05  0.243859016223E-05
  0.185772773289E-05 -0.107999463952E-04 -0.538278212840E-05  0.226951931854E-05
 -0.247588712169E-03 -0.759052922617E-03 -0.184034113544E-03 -0.806064332060E-03 -0.154590332809E-03 -0.231925822390E-04  0.432510753027E-04
  0.777545113453E-04  0.510775564772E-03 -0.336411436105E-04 -0.265266744318E-04  0.287566436430E-04  0.256007532133E-03  0.447946218679E-04
  0.689010413187E-04  0.108588736827E-03  0.216654423222E-04  0.405369383514E-03 -0.173698536200E-04  0.825089053883E-04  0.402213972964E-04
 -0.216889820351E-05  0.652334551574E-04 -0.277162747509E-04  0.848724686380E-04  0.228181995206E-03 -0.191743398738E-04  0.708480754115E-04
  0.455475890841E-04  0.448493660074E-05 -0.274819662879E-04  0.366210150928E-04
        12        19        11        11
        11         5        12        12
        10        14         5         5
        19        13        11        11
        19        24        13        13
        30        23        24        24
        19        12        22        22
        28        22        21        21
        11        13         6         6
         7         6         9         9
        15        12        14        14
        18        13        23        23
        15        25        21        21
        27        19        22        22
        18         8         9         9
        27        31        24        24
         4        11         6         6
         5        14        12        12
         4         2         5         5
        21        12        15        15
        14        16        15        15
        24        19        27        27
        22        29        27        27
        23        26        18        18
        17         8        18        18
         5        11         4         4
         6         3         4         4
        26        23        30        30
         5         2        10        10
        16        14        10        10
         3         6         7         7
        21        25        28        28
        29        22        28        28
         6        13         9         9
         2         4         1         1
        31        27        32        32
        25        15        20        20
        24        23        13        13
         8         7         9         9
        13        18         9         9
        31        30        24        24
        12        21        22        22
        29        32        27        27
         3         1         4         4
        26        17        18        18
        16        20        15        15
zone t="boundary 2 bc-2", solutiontime= 0.3000000E+02, strandid=1002, i=33, j=48, f=feblock
  0.500000000000E+01  0.375000000000E+01  0.250000000000E+01  0.288078410721E+01  0.125000000000E+01  0.190974100652E+01  0.326683758169E+01
  0.201431602454E+01  0.000000000000E+00  0.963108083381E+00  0.500000000000E+01  0.403552511878E+01  0.423153924130E+01  0.500000000000E+01
  0.385533350601E+01  0.500000000000E+01  0.398173246726E+01  0.315249557942E+01  0.267000324704E+01  0.154774304040E+01  0.218329375016E+01
  0.893127759452E+00  0.000000000000E+00  0.698517061619E+00  0.964171764089E+00  0.310324758057E+01  0.000000000000E+00  0.000000000000E+00
  0.125000000000E+01  0.500000000000E+01  0.375000000000E+01  0.250000000000E+01  0.000000000000E+00
 -0.250000000000E+01 -0.250000000000E+01 -0.250000000000E+01 -0.250000000000E+01 -0.250000000000E+01 -0.250000000000E+01 -0.250000000000E+01
 -0.250000000000E+01 -0.250000000000E+01 -0.250000000000E+01 -0.250000000000E+01 -0.250000000000E+01 -0.250000000000E+01 -0.250000000000E+01
 -0.250000000000E+01 -0.250000000000E+01 -0.250000000000E+01 -0.250000000000E+01 -0.250000000000E+01 -0.250000000000E+01 -0.250000000000E+01
 -0.250000000000E+01 -0.250000000000E+01 -0.250000000000E+01 -0.250000000000E+01 -0.250000000000E+01 -0.250000000000E+01 -0.250000000000E+01
 -0.250000000000E+01 -0.250000000000E+01 -0.250000000000E+01 -0.250000000000E+01 -0.250000000000E+01
  0.000000000000E+00  0.000000000000E+00  0.000000000000E+00  0.904659890645E+00  0.000000000000E+00  0.717002441913E+00  0.188609243358E+01
  0.176246431481E+01  0.000000000000E+00  0.961328577125E+00  0.125000000000E+01  0.101201586758E+01  0.191586535653E+01  0.250000000000E+01
  0.293121848150E+01  0.375000000000E+01  0.406975391361E+01  0.363585050272E+01  0.285047954584E+01  0.292817774674E+01  0.395907379566E+01
  0.205246550326E+01  0.125000000000E+01  0.306828197606E+01  0.397245519226E+01  0.433168271247E+01  0.250000000000E+01  0.375000000000E+01
  0.500000000000E+01  0.500000000000E+01  0.500000000000E+01  0.500000000000E+01  0.500000000000E+01
  0.000000000000E+00  0.000000000000E+00  0.000000000000E+00  0.380991906500E+00  0.000000000000E+00  0.343629824950E+00  0.585286157424E+00
  0.579373264282E+00  0.000000000000E+00  0.501056069140E+00  0.508460362676E+00  0.435373026572E+00  0.572640041190E+00  0.537002098944E+00
  0.568922553871E+00  0.514994090651E+00  0.508247257160E+00  0.527252853130E+00  0.567446661127E+00  0.531657143909E+00  0.505981016593E+00
  0.520795579399E+00  0.443624103833E+00  0.490663730453E+00  0.492155873749E+00  0.501390784676E+00  0.467732355362E+00  0.488212087362E+00
  0.490002767114E+00  0.491352304715E+00  0.486075475228E+00  0.490036479234E+00  0.495098264817E+00
  0.999993487379E+00  0.999993690057E+00  0.999993543115E+00  0.989539055875E+00  0.999993137282E+00  0.985524707174E+00  0.989838908967E+00
  0.991798516580E+00  0.999992721792E+00  0.984411112416E+00  0.985091906406E+00  0.984689080896E+00  0.990058464829E+00  0.100289621837E+01
  0.999855369243E+00  0.100485306649E+01  0.100121554699E+01  0.100055642931E+01  0.997896793475E+00  0.100350029570E+01  0.100058068723E+01
  0.101093276247E+01  0.104043292670E+01  0.100326475367E+01  0.100254498742E+01  0.100045587387E+01  0.100976788415E+01  0.100405369352E+01
  0.100192656835E+01  0.100045434508E+01  0.100058774183E+01  0.100109993754E+01  0.100176112495E+01
  0.912401624809E-04  0.176457418297E-05 -0.123812165365E-03 -0.221252380863E-02 -0.408627060819E-04 -0.671478158989E-03  0.497757785674E-04
 -0.456104332283E-03 -0.476058121857E-04 -0.755463159676E-03  0.794077626716E-04  0.260337434189E-03  0.307165578069E-04  0.395052118540E-04
  0.144683199330E-04  0.510472366948E-05  0.199807353433E-05  0.131662445991E-04  0.957225286417E-04  0.113213198467E-03  0.442496121537E-05
 -0.234700671107E-03 -0.570614745119E-03  0.460860339631E-04  0.205979330177E-04  0.454044505383E-06 -0.129816773168E-04  0.631898543823E-04
 -0.662061240687E-04  0.293273946129E-05 -0.137421328503E-04 -0.492694550968E-04 -0.888996180694E-04
 -0.248606703980E-04  0.254899460745E-04  0.281171390105E-05 -0.240395166831E-03 -0.758750550248E-05 -0.576167054852E-06  0.504721035263E-04
 -0.212531645867E-04 -0.290253955867E-05 -0.109209862112E-03 -0.247138935641E-04  0.632123660377E-04  0.675835655932E-05 -0.900186198789E-05
  0.622197170438E-05 -0.109047278834E-05  0.249390664594E-05  0.811137689977E-05  0.342735872322E-04  0.405774242357E-04  0.637124695729E-05
 -0.849698694560E-05 -0.800105616249E-04  0.180847156888E-04  0.834556313151E-05  0.494822251426E-05  0.268586030258E-05  0.132254622065E-04
 -0.819270372396E-05  0.664304553045E-06  0.821342479821E-07 -0.395280711669E-05 -0.181613854898E-04
  0.917524080012E-05  0.165443964470E-06 -0.845030941267E-05 -0.215203331653E-04 -0.403639719171E-05  0.624772275263E-05  0.552628042786E-05
  0.739818347981E-06 -0.277909578541E-05 -0.340211066467E-05  0.447313641375E-05  0.195951500307E-04 -0.162391628380E-05  0.803166931452E-08
 -0.111374871025E-05  0.292350175302E-06 -0.176252144631E-06  0.250415532183E-06 -0.256434778650E-05 -0.115658283137E-05  0.605178487126E-07
 -0.248134040879E-05 -0.230551954688E-05  0.226483918187E-06  0.165421868454E-07  0.130113434976E-06  0.397825852957E-07  0.241352615093E-06
  0.227778744285E-06  0.137350779214E-06  0.133092294327E-06 -0.917309327515E-07  0.502808227092E-06
  0.993470229216E-06  0.174092031939E-04  0.140583456150E-04 -0.412855033330E-05  0.287999980102E-05  0.753952498346E-04 -0.776074279583E-04
 -0.414108017147E-04  0.856712546153E-05 -0.540288311693E-06 -0.291294073117E-04 -0.975090500603E-04 -0.275600942832E-04 -0.755517032406E-05
 -0.124611102889E-04 -0.185378573594E-05 -0.292867967043E-05 -0.509080735426E-05 -0.200070929779E-04 -0.139190907624E-04 -0.381098800562E-05
 -0.199548650613E-04 -0.498846942592E-05 -0.826482583760E-05 -0.150596525523E-05 -0.195029078701E-05 -0.107999463952E-04 -0.538278212840E-05
  0.206525358899E-05 -0.890012286210E-07  0.952293922896E-06  0.211242459233E-05  0.226951931854E-05
 -0.415668781242E-04 -0.160638055724E-03 -0.745879660265E-04  0.915482699630E-03  0.256569749522E-04  0.229257996593E-03 -0.337006928703E-04
  0.172411875750E-03  0.216654423222E-04  0.313269905115E-03 -0.145370731810E-04 -0.112839286656E-03 -0.114326568094E-04 -0.812115124271E-05
 -0.650691788778E-05 -0.115425899525E-05 -0.139672934786E-05 -0.755135960171E-05 -0.438802136670E-04 -0.523039938271E-04 -0.385656372814E-05
  0.887571762617E-04  0.228181995206E-03 -0.212383413403E-04 -0.103155470078E-04 -0.174303083914E-05  0.448493660074E-05 -0.274819662879E-04
  0.258501877264E-04 -0.118593419519E-05  0.475212103232E-05  0.185373192132E-04  0.366210150928E-04
        15         7        19        19
         8        20        19        19
        18        19        21        21
         7         4         8         8
         3         6         4         4
        19         7         8         8
        19        18        15        15
        14        13        15        15
         8        22        20        20
        27        24        22        22
        19        20        21        21
        32        26        21        21
        17        18        26        26
        17        16        15        15
        25        29        21        21
        12         7        13        13
        10         8         6         6
        25        20        24        24
         4         6         8         8
        12         2         4         4
        10        23        22        22
        26        31        17        17
        30        16        17        17
         4         7        12        12
        13        11        12        12
        21        20        25        25
        24        28        25        25
        22         8        10        10
         6         5        10        10
        31        26        32        32
         4         2         3         3
         5         6         3         3
        11        13        14        14
        22        23        27        27
        28        24        27        27
        15        13         7         7
         2        12         1         1
        29        25        33        33
        23        10         9         9
        21        26        18        18
        16        14        15        15
        18        17        15        15
        29        32        21        21
        22        24        20        20
        28        33        25        25
        11         1        12        12
        31        30        17        17
         5         9        10        10
zone t="boundary 3 bc-3", solutiontime= 0.3000000E+02, strandid=1003, i=33, j=48, f=feblock
  0.375000000000E+01  0.250000000000E+01  0.500000000000E+01  0.403552511878E+01  0.288078410721E+01  0.125000000000E+01  0.190974100652E+01
  0.500000000000E+01  0.326683758169E+01  0.423153924130E+01  0.201431602454E+01  0.000000000000E+00  0.963108083381E+00  0.500000000000E+01
  0.267000324704E+01  0.385533350601E+01  0.893127759452E+00  0.154774304040E+01  0.000000000000E+00  0.500000000000E+01  0.315249557942E+01
  0.218329375016E+01  0.398173246726E+01  0.000000000000E+00  0.698517061619E+00  0.964171764089E+00  0.125000000000E+01  0.000000000000E+00
  0.500000000000E+01  0.310324758057E+01  0.250000000000E+01  0.375000000000E+01  0.000000000000E+00
  0.250000000000E+01  0.250000000000E+01  0.250000000000E+01  0.250000000000E+01  0.250000000000E+01  0.250000000000E+01  0.250000000000E+01
  0.250000000000E+01  0.250000000000E+01  0.250000000000E+01  0.250000000000E+01  0.250000000000E+01  0.250000000000E+01  0.250000000000E+01
  0.250000000000E+01  0.250000000000E+01  0.250000000000E+01  0.250000000000E+01  0.250000000000E+01  0.250000000000E+01  0.250000000000E+01
  0.250000000000E+01  0.250000000000E+01  0.250000000000E+01  0.250000000000E+01  0.250000000000E+01  0.250000000000E+01  0.250000000000E+01
  0.250000000000E+01  0.250000000000E+01  0.250000000000E+01  0.250000000000E+01  0.250000000000E+01
  0.000000000000E+00  0.000000000000E+00  0.000000000000E+00  0.101201586758E+01  0.904659890645E+00  0.000000000000E+00  0.717002441913E+00
  0.125000000000E+01  0.188609243358E+01  0.191586535653E+01  0.176246431481E+01  0.000000000000E+00  0.961328577125E+00  0.250000000000E+01
  0.285047954584E+01  0.293121848150E+01  0.205246550326E+01  0.292817774674E+01  0.125000000000E+01  0.375000000000E+01  0.363585050272E+01
  0.395907379566E+01  0.406975391361E+01  0.250000000000E+01  0.306828197606E+01  0.397245519226E+01  0.500000000000E+01  0.375000000000E+01
  0.500000000000E+01  0.433168271247E+01  0.500000000000E+01  0.500000000000E+01  0.500000000000E+01
  0.000000000000E+00  0.000000000000E+00  0.000000000000E+00  0.443767745459E+00  0.402286944574E+00  0.000000000000E+00  0.377550369545E+00
  0.509232128688E+00  0.575832179754E+00  0.573707405285E+00  0.562554064412E+00  0.000000000000E+00  0.490563299840E+00  0.534527096543E+00
  0.556586982170E+00  0.564391577749E+00  0.522730517385E+00  0.522052000170E+00  0.441238348384E+00  0.517182331791E+00  0.524228630763E+00
  0.503687457534E+00  0.509488571178E+00  0.469814974359E+00  0.495614442414E+00  0.494483780212E+00  0.488562428343E+00  0.488961654628E+00
  0.492980744788E+00  0.499005552222E+00  0.486460936507E+00  0.484596927548E+00  0.495346592024E+00
  0.999989339439E+00  0.999989408764E+00  0.999989626853E+00  0.981541895460E+00  0.988773990194E+00  0.999989827144E+00  0.982469462434E+00
  0.984104309047E+00  0.990427545862E+00  0.990355285694E+00  0.994362997073E+00  0.999990295028E+00  0.988652071037E+00  0.100368369414E+01
  0.999769197113E+00  0.100118501219E+01  0.100834885320E+01  0.100252111043E+01  0.102982719499E+01  0.100443319461E+01  0.100199536635E+01
  0.100082056599E+01  0.100138192342E+01  0.100826277309E+01  0.100298787130E+01  0.100192389555E+01  0.100215267510E+01  0.100355660048E+01
  0.100047670023E+01  0.100056591053E+01  0.100126820231E+01  0.100066573360E+01  0.100179336279E+01
 -0.407842986803E-04  0.721655497410E-04 -0.615272763768E-04  0.793361021282E-03  0.309212899865E-02  0.243508366717E-03  0.433340417634E-02
 -0.219330245529E-03 -0.105991044664E-03 -0.978792087921E-04  0.681504880405E-03  0.335353472832E-03  0.287340526593E-02 -0.649875182572E-04
 -0.143611724574E-03 -0.369355790313E-04  0.397066246753E-03 -0.177092363169E-03  0.185525092122E-02 -0.328667872166E-04 -0.101048952833E-04
 -0.414749340662E-04 -0.220297118120E-04  0.888850252396E-04 -0.131144111813E-03 -0.118973841492E-03 -0.175492822974E-03 -0.261596827414E-03
 -0.245501505708E-04 -0.270860567562E-04 -0.172594015968E-03 -0.976196836582E-04 -0.200044488139E-03
 -0.134490389981E-04  0.345530921925E-06  0.186625766898E-04  0.210674670649E-03  0.501013295722E-03 -0.475488225499E-04  0.696238513226E-03
  0.306888442914E-04 -0.288701738972E-04  0.940828163792E-05  0.521020691756E-04  0.235353887621E-04  0.321273468713E-03  0.163763058932E-04
 -0.248413473846E-04  0.329233267263E-05  0.199269993632E-04 -0.321774741777E-04  0.297070340001E-03  0.746883152765E-05  0.279028851358E-05
  0.182610034929E-05  0.400835406256E-05  0.817157902937E-05 -0.361492824860E-04 -0.104627563474E-04 -0.309889868722E-04 -0.544867679594E-04
  0.175295700455E-05  0.881764162670E-06 -0.310097916487E-04 -0.109307041633E-04 -0.373582539685E-04
 -0.590854142005E-05  0.322443556427E-05 -0.843685711561E-08 -0.295426308786E-04 -0.703387949195E-04  0.241230640103E-04 -0.283664794311E-04
 -0.118751775960E-05 -0.341053793929E-05 -0.911462127540E-07 -0.434351275601E-05  0.364331269879E-04  0.186667735004E-04  0.894426633028E-06
 -0.993809233246E-06 -0.517413235428E-06 -0.120764370748E-04 -0.295362065344E-05  0.696004107056E-05  0.535880812555E-06  0.115024027295E-05
  0.112972896172E-05 -0.169765491412E-06 -0.234106383319E-06 -0.134639951264E-05  0.772233210919E-06  0.105212847520E-05  0.566400123121E-06
  0.202666860376E-06 -0.127928317320E-06  0.969844486912E-07 -0.415138802815E-07  0.571834379445E-06
 -0.259642352720E-04 -0.565472368882E-04 -0.285446941965E-05  0.253539163075E-04  0.434086416325E-04 -0.500153701951E-04  0.181570500894E-04
  0.170964267807E-04  0.767274644688E-04  0.304163419169E-04  0.129706460741E-03 -0.640405706051E-04  0.566296002913E-04  0.965688843167E-05
  0.160023853875E-04  0.188861496537E-04  0.103797663651E-03  0.163210582384E-04 -0.768706011182E-04  0.545699698383E-05  0.152575804546E-04
  0.101101437300E-04  0.921046743008E-05  0.489676295271E-04  0.417988950198E-04  0.134950888787E-04  0.529174450007E-05  0.294128484987E-04
  0.292425797464E-05  0.108622472994E-04  0.678677699316E-05  0.634377092663E-05  0.240132639287E-05
  0.334897559800E-03  0.274664919192E-03  0.504694808921E-04 -0.383177839107E-03 -0.133953398930E-02  0.429600450396E-04 -0.186465800413E-02
  0.602351169750E-04  0.484353209207E-04  0.281815900200E-04 -0.256998683399E-03 -0.247588712169E-03 -0.114854048878E-02  0.123579086109E-04
  0.570491342062E-04  0.876345287787E-05 -0.150961930601E-03  0.710547661665E-04 -0.759052922617E-03  0.671984216575E-05  0.957026075209E-06
  0.132383495176E-04  0.462227659811E-05 -0.336411436105E-04  0.511647955069E-04  0.454474264326E-04  0.711426855394E-04  0.108588736827E-03
  0.714752484139E-05  0.754567217271E-05  0.694645454578E-04  0.369333900379E-04  0.825089053883E-04
        15         9        16        16
        15        18        11        11
        22        15        21        21
        11         5         9         9
         5         7         2         2
        11         9        15        15
        16        21        15        15
        16        10        14        14
        18        17        11        11
        17        25        24        24
        22        18        15        15
        22        30        31        31
        30        21        23        23
        16        20        23        23
        22        27        26        26
        10         9         4         4
         7        11        13        13
        25        18        26        26
        11         7         5         5
         5         1         4         4
        17        19        13        13
        23        32        30        30
        23        20        29        29
         4         9         5         5
         4         8        10        10
        26        18        22        22
        26        28        25        25
        13        11        17        17
        13         6         7         7
        31        30        32        32
         2         1         5         5
         2         7         6         6
        14        10         8         8
        24        19        17        17
        24        25        28        28
         9        10        16        16
         3         4         1         1
        33        26        27        27
        12        13        19        19
        21        30        22        22
        16        14        20        20
        16        23        21        21
        22        31        27        27
        18        25        17        17
        26        33        28        28
         4         3         8         8
        23        29        32        32
        13        12         6         6
zone t="boundary 4 bc-4", solutiontime= 0.3000000E+02, strandid=1004, i=32, j=46, f=feblock
  0.125000000000E+01  0.219251206392E+01  0.103724302461E+01  0.500000000000E+01  0.250000000000E+01  0.375000000000E+01  0.404200324774E+01
  0.500000000000E+01  0.000000000000E+00  0.310152362409E+01  0.202479342020E+01  0.324151231464E+01  0.922061490191E+00  0.000000000000E+00
  0.299062775774E+01  0.394624082883E+01  0.500000000000E+01  0.409252726285E+01  0.500000000000E+01  0.429310310915E+01  0.175434191980E+01
  0.284428995242E+01  0.000000000000E+00  0.000000000000E+00  0.715990576545E+00  0.930412228790E+00  0.125000000000E+01  0.187029682677E+01
  0.500000000000E+01  0.375000000000E+01  0.250000000000E+01  0.000000000000E+00
  0.250000000000E+01  0.157686156160E+01  0.146289271009E+01  0.250000000000E+01  0.250000000000E+01  0.250000000000E+01  0.155830813274E+01
  0.125000000000E+01  0.250000000000E+01  0.177790177481E+01  0.477386199275E+00  0.742988685424E+00  0.308372018325E+00  0.125000000000E+01
 -0.487811078581E+00 -0.144524380962E+01 -0.125000000000E+01 -0.345533899378E+00  0.000000000000E+00  0.627766083140E+00 -0.739814786992E+00
 -0.158811787973E+01  0.000000000000E+00 -0.125000000000E+01 -0.600232012419E+00 -0.154800130438E+01 -0.250000000000E+01 -0.178862290564E+01
 -0.250000000000E+01 -0.250000000000E+01 -0.250000000000E+01 -0.250000000000E+01
  0.500000000000E+01  0.500000000000E+01  0.500000000000E+01  0.500000000000E+01  0.500000000000E+01  0.500000000000E+01  0.500000000000E+01
  0.500000000000E+01  0.500000000000E+01  0.500000000000E+01  0.500000000000E+01  0.500000000000E+01  0.500000000000E+01  0.500000000000E+01
  0.500000000000E+01  0.500000000000E+01  0.500000000000E+01  0.500000000000E+01  0.500000000000E+01  0.500000000000E+01  0.500000000000E+01
  0.500000000000E+01  0.500000000000E+01  0.500000000000E+01  0.500000000000E+01  0.500000000000E+01  0.500000000000E+01  0.500000000000E+01
  0.500000000000E+01  0.500000000000E+01  0.500000000000E+01  0.500000000000E+01
  0.488562428343E+00  0.488873127044E+00  0.490562939264E+00  0.492980744788E+00  0.486460936507E+00  0.484596927548E+00  0.485347896276E+00
  0.494163542317E+00  0.495346592024E+00  0.486528232758E+00  0.487819998460E+00  0.487068916091E+00  0.494045904395E+00  0.496127394917E+00
  0.487612357629E+00  0.483219722850E+00  0.492395510969E+00  0.487214141159E+00  0.494738985333E+00  0.487958525499E+00  0.489677249447E+00
  0.488029107105E+00  0.497246279768E+00  0.496059270892E+00  0.494951052257E+00  0.492800373677E+00  0.490002767114E+00  0.490005124553E+00
  0.491352304715E+00  0.486075475228E+00  0.490036479234E+00  0.495098264817E+00
  0.100215267510E+01  0.100152652958E+01  0.100178347660E+01  0.100047670023E+01  0.100126820231E+01  0.100066573360E+01  0.100025357725E+01
  0.100050391679E+01  0.100179336279E+01  0.100112367258E+01  0.100133045248E+01  0.100072432973E+01  0.100164366725E+01  0.100168844809E+01
  0.100096274503E+01  0.100000874853E+01  0.100082864314E+01  0.100022269190E+01  0.100062146074E+01  0.100023497311E+01  0.100174635719E+01
  0.100098855496E+01  0.100118726928E+01  0.100134171022E+01  0.100132635956E+01  0.100179873777E+01  0.100192656835E+01  0.100163748619E+01
  0.100045434508E+01  0.100058774183E+01  0.100109993754E+01  0.100176112495E+01
 -0.175492822974E-03 -0.154549480251E-03 -0.142450698822E-03 -0.245501505708E-04 -0.172594015968E-03 -0.976196836582E-04 -0.643247251424E-04
 -0.233118273793E-04 -0.200044488139E-03 -0.143481531731E-03 -0.126186322523E-03 -0.963242342536E-04 -0.137948727175E-03 -0.205009038514E-03
 -0.694717358423E-04 -0.143016980903E-04 -0.330686875111E-05 -0.367202808714E-04 -0.118218869248E-04 -0.596546786875E-04 -0.107659311599E-03
 -0.390323760436E-04 -0.170588182307E-03 -0.109878345285E-03 -0.141097336703E-03 -0.869316324579E-04 -0.662061240687E-04 -0.698991511698E-04
  0.293273946129E-05 -0.137421328503E-04 -0.492694550968E-04 -0.888996180694E-04