title="tecplot geometry and solution file"
variables = x y z mach temperature lambda1 lambda2 lambda3 lambda4 lambda5
zone t="boundary 1 bc-1", solutiontime= 0.9000000E+02, strandid=1001, i=32, j=46, f=feblock
  0.000000000000E+00  0.000000000000E+00  0.000000000000E+00  0.000000000000E+00  0.000000000000E+00  0.000000000000E+00  0.000000000000E+00
  0.000000000000E+00  0.000000000000E+00  0.000000000000E+00  0.000000000000E+00  0.000000000000E+00  0.000000000000E+00  0.000000000000E+00
  0.000000000000E+00  0.000000000000E+00  0.000000000000E+00  0.000000000000E+00  0.000000000000E+00  0.000000000000E+00  0.000000000000E+00
  0.000000000000E+00  0.000000000000E+00  0.000000000000E+00  0.000000000000E+00  0.000000000000E+00  0.000000000000E+00  0.000000000000E+00
  0.000000000000E+00  0.000000000000E+00  0.000000000000E+00  0.000000000000E+00
  0.250000000000E+01  0.250000000000E+01  0.125000000000E+01  0.146289271009E+01  0.157686156160E+01  0.308372018325E+00  0.000000000000E+00
 -0.125000000000E+01 -0.600232012419E+00  0.250000000000E+01  0.477386199275E+00  0.742988685424E+00 -0.739814786992E+00  0.177790177481E+01
  0.155830813274E+01  0.250000000000E+01 -0.250000000000E+01 -0.154800130438E+01 -0.487811078581E+00  0.250000000000E+01  0.627766083140E+00
 -0.345533899378E+00 -0.178862290564E+01 -0.158811787973E+01  0.125000000000E+01 -0.250000000000E+01 -0.144524380962E+01  0.000000000000E+00
 -0.125000000000E+01 -0.250000000000E+01 -0.250000000000E+01 -0.250000000000E+01
  0.000000000000E+00  0.125000000000E+01  0.000000000000E+00  0.103724302461E+01  0.219251206392E+01  0.922061490191E+00  0.000000000000E+00
  0.000000000000E+00  0.715990576545E+00  0.250000000000E+01  0.202479342020E+01  0.324151231464E+01  0.175434191980E+01  0.310152362409E+01
  0.404200324774E+01  0.375000000000E+01  0.000000000000E+00  0.930412228790E+00  0.299062775774E+01  0.500000000000E+01  0.429310310915E+01
  0.409252726285E+01  0.187029682677E+01  0.284428995242E+01  0.500000000000E+01  0.125000000000E+01  0.394624082883E+01  0.500000000000E+01
  0.500000000000E+01  0.250000000000E+01  0.375000000000E+01  0.500000000000E+01
  0.000000000000E+00  0.441238348384E+00  0.000000000000E+00  0.475214987021E+00  0.460123708856E+00  0.468827815405E+00  0.000000000000E+00
  0.000000000000E+00  0.402302516798E+00  0.469814974359E+00  0.464411128942E+00  0.478714034184E+00  0.489298241651E+00  0.483068557888E+00
  0.487930073118E+00  0.488961654628E+00  0.000000000000E+00  0.464775721414E+00  0.473795651891E+00  0.495346592024E+00  0.490266103446E+00
  0.486286083902E+00  0.445717618051E+00  0.464382274634E+00  0.496127394917E+00  0.443624103833E+00  0.486964461957E+00  0.497246279768E+00
  0.496059270892E+00  0.467732355362E+00  0.488212087362E+00  0.495098264817E+00
  0.999990295028E+00  0.102982719499E+01  0.999990757903E+00  0.104247294232E+01  0.101190080524E+01  0.102520618293E+01  0.999991416700E+00
  0.999992168096E+00  0.103891223624E+01  0.100826277309E+01  0.101252833877E+01  0.100300548289E+01  0.102702865700E+01  0.100605563290E+01
  0.100244400478E+01  0.100355660048E+01  0.999992721792E+00  0.103239739214E+01  0.100459524090E+01  0.100179336279E+01  0.100260305842E+01
  0.100234966417E+01  0.101657153079E+01  0.100617544692E+01  0.100168844809E+01  0.104043292670E+01  0.100303376377E+01  0.100118726928E+01
  0.100134171022E+01  0.100976788415E+01  0.100405369352E+01  0.100176112495E+01
  0.335357530428E-03  0.185532458764E-02  0.196937853908E-03  0.201209671430E-02  0.382722102952E-03  0.194386546329E-04 -0.451012196467E-04
 -0.980147580587E-04 -0.125090927318E-02  0.888547633055E-04  0.661385198722E-04 -0.733744180602E-04 -0.636692309732E-03 -0.107077067033E-03
 -0.168495716492E-03 -0.261596573624E-03 -0.476066041348E-04 -0.101906710227E-02  0.440489764828E-04 -0.200042769111E-03 -0.998300240239E-04
  0.223994026544E-05 -0.161145774102E-03  0.690525155037E-04 -0.205018739112E-03 -0.570685660596E-03  0.436296236551E-04 -0.170616110497E-03
 -0.109845052724E-03 -0.129627351255E-04  0.631871158381E-04 -0.889051655698E-04
  0.235352387240E-04  0.297085364215E-03  0.539760328046E-05  0.289499624677E-03  0.588420031673E-04 -0.528530141712E-05 -0.213950912881E-04
 -0.155243983129E-04 -0.217651891042E-03  0.816545913731E-05  0.979478910388E-05 -0.175831850636E-04 -0.103721506999E-03 -0.303601453734E-04
 -0.301705527333E-04 -0.544847903945E-04 -0.290257161440E-05 -0.142154457993E-03  0.326013977889E-05 -0.373627485125E-04 -0.168799152095E-04
  0.124234941276E-05 -0.230334364081E-04  0.136933037416E-04 -0.410720003859E-04 -0.800262597050E-04  0.955870694315E-05 -0.348322852503E-04
 -0.221561760384E-04  0.269075153098E-05  0.132252813340E-04 -0.181633790280E-04
  0.364341943150E-04  0.696028493485E-05  0.612715747615E-04  0.570159364670E-04 -0.100438851141E-04 -0.472832430522E-07  0.158883901452E-04
 -0.312858164565E-05 -0.397795866033E-04 -0.234059240679E-06 -0.130176899747E-04 -0.242875211993E-04 -0.158679735823E-04 -0.155101137487E-04
 -0.128530143156E-04  0.566460648881E-06 -0.277893686018E-05  0.566727629908E-05 -0.246918604646E-04  0.571995727880E-06 -0.167227408387E-04
 -0.188131236818E-04 -0.123172256474E-04 -0.138987816839E-04 -0.568954991932E-05 -0.230551577241E-05 -0.107275537334E-04 -0.908635745875E-05
 -0.627289292403E-05  0.398774039185E-07  0.241419644531E-06  0.502852374643E-06
 -0.640413662067E-04 -0.768681756385E-04 -0.361139134363E-04 -0.216401734235E-04  0.370814126942E-04  0.177052226806E-04  0.172965539201E-05
  0.249796438062E-04  0.100709951060E-04  0.489700384954E-04  0.219365777768E-04  0.177138325083E-04 -0.186574040813E-04  0.359918097960E-04
  0.180882833941E-04  0.294102049371E-04  0.856736637629E-05  0.575876505112E-05  0.305919589567E-05  0.240152161713E-05  0.891005557704E-05
  0.316601097641E-05 -0.114326902077E-04 -0.518816206644E-05  0.238438445989E-05 -0.498645126390E-05 -0.254247709663E-05  0.243929067284E-05
  0.185795989262E-05 -0.107977679746E-04 -0.538239229538E-05  0.226949769784E-05
 -0.247593089056E-03 -0.759083895580E-03 -0.184025219969E-03 -0.806080532239E-03 -0.154575194031E-03 -0.231596187256E-04  0.432555842002E-04
  0.777524691668E-04  0.510777375516E-03 -0.336284230077E-04 -0.265295296492E-04  0.287612395001E-04  0.255983702660E-03  0.448010642627E-04
  0.688950000818E-04  0.108588451360E-03  0.216656116703E-04  0.405366223377E-03 -0.173646689936E-04  0.825089104800E-04  0.402138536370E-04
 -0.216459037919E-05  0.652305447164E-04 -0.277168111989E-04  0.848767137014E-04  0.228211478127E-03 -0.191695285601E-04  0.708601284603E-04
  0.455336433486E-04  0.447681631078E-05 -0.274808979560E-04  0.366233647921E-04
        12        19        11        11
        11         5        12        12
        10        14         5         5
        19        13        11        11
        19        24        13        13
        30        23        24        24
        19        12        22        22
        28        22        21        21
        11        13         6         6
         7         6         9         9
        15        12        14        14
        18        13        23        23
        15        25        21        21
        27        19        22        22
        18         8         9         9
        27        31        24        24
         4        11         6         6
         5        14        12        12
         4         2         5         5
        21        12        15        15
        14        16        15        15
        24        19        27        27
        22        29        27        27
        23        26        18        18
        17         8        18        18
         5        11         4         4
         6         3         4         4
        26        23        30        30
         5         2        10        10
        16        14        10        10
         3         6         7         7
        21        25        28        28
        29        22        28        28
         6        13         9         9
         2         4         1         1
        31        27        32        32
        25        15        20        20
        24        23        13        13
         8         7         9         9
        13        18         9         9
        31        30        24        24
        12        21        22        22
        29        32        27        27
         3         1         4         4
        26        17        18        18
        16        20        15        15
zone t="boundary 2 bc-2", solutiontime= 0.9000000E+02, strandid=1002, i=33, j=48, f=feblock
  0.500000000000E+01  0.375000000000E+01  0.250000000000E+01  0.288078410721E+01  0.125000000000E+01  0.190974100652E+01  0.326683758169E+01
  0.201431602454E+01  0.000000000000E+00  0.963108083381E+00  0.500000000000E+01  0.403552511878E+01  0.423153924130E+01  0.500000000000E+01
  0.385533350601E+01  0.500000000000E+01  0.398173246726E+01  0.315249557942E+01  0.267000324704E+01  0.154774304040E+01  0.218329375016E+01
  0.893127759452E+00  0.000000000000E+00  0.698517061619E+00  0.964171764089E+00  0.310324758057E+01  0.000000000000E+00  0.000000000000E+00
  0.125000000000E+01  0.500000000000E+01  0.375000000000E+01  0.250000000000E+01  0.000000000000E+00
 -0.250000000000E+01 -0.250000000000E+01 -0.250000000000E+01 -0.250000000000E+01 -0.250000000000E+01 -0.250000000000E+01 -0.250000000000E+01
 -0.250000000000E+01 -0.250000000000E+01 -0.250000000000E+01 -0.250000000000E+01 -0.250000000000E+01 -0.250000000000E+01 -0.250000000000E+01
 -0.250000000000E+01 -0.250000000000E+01 -0.250000000000E+01 -0.250000000000E+01 -0.250000000000E+01 -0.250000000000E+01 -0.250000000000E+01
 -0.250000000000E+01 -0.250000000000E+01 -0.250000000000E+01 -0.250000000000E+01 -0.250000000000E+01 -0.250000000000E+01 -0.250000000000E+01
 -0.250000000000E+01 -0.250000000000E+01 -0.250000000000E+01 -0.250000000000E+01 -0.250000000000E+01
  0.000000000000E+00  0.000000000000E+00  0.000000000000E+00  0.904659890645E+00  0.000000000000E+00  0.717002441913E+00  0.188609243358E+01
  0.176246431481E+01  0.000000000000E+00  0.961328577125E+00  0.125000000000E+01  0.101201586758E+01  0.191586535653E+01  0.250000000000E+01
  0.293121848150E+01  0.375000000000E+01  0.406975391361E+01  0.363585050272E+01  0.285047954584E+01  0.292817774674E+01  0.395907379566E+01
  0.205246550326E+01  0.125000000000E+01  0.306828197606E+01  0.397245519226E+01  0.433168271247E+01  0.250000000000E+01  0.375000000000E+01
  0.500000000000E+01  0.500000000000E+01  0.500000000000E+01  0.500000000000E+01  0.500000000000E+01
  0.000000000000E+00  0.000000000000E+00  0.000000000000E+00  0.380991906500E+00  0.000000000000E+00  0.343629824950E+00  0.585286157424E+00
  0.579373264282E+00  0.000000000000E+00  0.501056069140E+00  0.508460362676E+00  0.435373026572E+00  0.572640041190E+00  0.537002098944E+00
  0.568922553871E+00  0.514994090651E+00  0.508247257160E+00  0.527252853130E+00  0.567446661127E+00  0.531657143909E+00  0.505981016593E+00
  0.520795579399E+00  0.443624103833E+00  0.490663730453E+00  0.492155873749E+00  0.501390784676E+00  0.467732355362E+00  0.488212087362E+00
  0.490002767114E+00  0.491352304715E+00  0.486075475228E+00  0.490036479234E+00  0.495098264817E+00
  0.999993487379E+00  0.999993690057E+00  0.999993543115E+00  0.989539055875E+00  0.999993137282E+00  0.985524707174E+00  0.989838908967E+00
  0.991798516580E+00  0.999992721792E+00  0.984411112416E+00  0.985091906406E+00  0.984689080896E+00  0.990058464829E+00  0.100289621837E+01
  0.999855369243E+00  0.100485306649E+01  0.100121554699E+01  0.100055642931E+01  0.997896793475E+00  0.100350029570E+01  0.100058068723E+01
  0.101093276247E+01  0.104043292670E+01  0.100326475367E+01  0.100254498742E+01  0.100045587387E+01  0.100976788415E+01  0.100405369352E+01
  0.100192656835E+01  0.100045434508E+01  0.100058774183E+01  0.100109993754E+01  0.100176112495E+01
  0.912424051774E-04  0.176497857465E-05 -0.123811195200E-03 -0.221248878466E-02 -0.408625572397E-04 -0.671499282253E-03  0.497938410435E-04
 -0.456094128044E-03 -0.476066041348E-04 -0.755467801179E-03  0.793992382796E-04  0.260421870380E-03  0.306969559124E-04  0.395087564433E-04
  0.144632341594E-04  0.510534036294E-05  0.199841114722E-05  0.131661389819E-04  0.957308408267E-04  0.113227977368E-03  0.442490985072E-05
 -0.234690061095E-03 -0.570685660596E-03  0.460906588437E-04  0.206079739067E-04  0.458500234605E-06 -0.129627351255E-04  0.631871158381E-04
 -0.662166485832E-04  0.293306814323E-05 -0.137427154368E-04 -0.492549493643E-04 -0.889051655698E-04
 -0.248611866217E-04  0.254905708619E-04  0.281155302653E-05 -0.240391865991E-03 -0.758708597432E-05 -0.586419442184E-06  0.504768965854E-04
 -0.212514760157E-04 -0.290257161440E-05 -0.109214043390E-03 -0.247165823401E-04  0.632304061731E-04  0.675230194649E-05 -0.900115036888E-05
  0.622073038046E-05 -0.109030217462E-05  0.249428447257E-05  0.811164584140E-05  0.342761227921E-04  0.405822095935E-04  0.637163150381E-05
 -0.849532946755E-05 -0.800262597050E-04  0.180874055543E-04  0.834855125247E-05  0.494990568671E-05  0.269075153098E-05  0.132252813340E-04
 -0.819972564211E-05  0.664305250248E-06  0.818824966839E-07 -0.395131227525E-05 -0.181633790280E-04
  0.917513849074E-05  0.165239873651E-06 -0.845062975971E-05 -0.215199394910E-04 -0.403652202869E-05  0.624726407053E-05  0.552665781425E-05
  0.740096526351E-06 -0.277893686018E-05 -0.340192019265E-05  0.447309938001E-05  0.195959565155E-04 -0.162414321064E-05  0.803595790797E-08
 -0.111384094541E-05  0.292371466853E-06 -0.176225946771E-06  0.250383663130E-06 -0.256434827574E-05 -0.115640904047E-05  0.605292967528E-07
 -0.248116339155E-05 -0.230551577241E-05  0.226794756837E-06  0.166868185037E-07  0.130164528171E-06  0.398774039185E-07  0.241419644531E-06
  0.227581991711E-06  0.137354184760E-06  0.133130171296E-06 -0.916784212309E-07  0.502852374643E-06
  0.993449689600E-06  0.174091074921E-04  0.140583343924E-04 -0.412955970591E-05  0.288034052261E-05  0.753959188859E-04 -0.776094800944E-04
 -0.414110488001E-04  0.856736637629E-05 -0.539717048768E-06 -0.291294459569E-04 -0.975153261629E-04 -0.275602204522E-04 -0.755529102685E-05
 -0.124614872463E-04 -0.185363778137E-05 -0.292865335547E-05 -0.509092511882E-05 -0.200074077615E-04 -0.139187369652E-04 -0.381057418187E-05
 -0.199549850328E-04 -0.498645126390E-05 -0.826468354702E-05 -0.150542215343E-05 -0.194989733879E-05 -0.107977679746E-04 -0.538239229538E-05
  0.206498504897E-05 -0.890178416989E-07  0.952353772399E-06  0.211216601282E-05  0.226949769784E-05
 -0.415682815519E-04 -0.160638606281E-03 -0.745885053091E-04  0.915468373177E-03  0.256569277964E-04  0.229268348718E-03 -0.337086805392E-04
  0.172407414019E-03  0.216656116703E-04  0.313272367278E-03 -0.145330396776E-04 -0.112876166813E-03 -0.114236037417E-04 -0.812261694113E-05
 -0.650470937233E-05 -0.115453910425E-05 -0.139695461104E-05 -0.755135675621E-05 -0.438839254332E-04 -0.523105613527E-04 -0.385662521737E-05
  0.887528383863E-04  0.228211478127E-03 -0.212406194379E-04 -0.103200071065E-04 -0.174512831130E-05  0.447681631078E-05 -0.274808979560E-04
  0.258558165832E-04 -0.118604137974E-05  0.475239275868E-05  0.185315530972E-04  0.366233647921E-04
        15         7        19        19
         8        20        19        19
        18        19        21        21
         7         4         8         8
         3         6         4         4
        19         7         8         8
        19        18        15        15
        14        13        15        15
         8        22        20        20
        27        24        22        22
        19        20        21        21
        32        26        21        21
        17        18        26        26
        17        16        15        15
        25        29        21        21
        12         7        13        13
        10         8         6         6
        25        20        24        24
         4         6         8         8
        12         2         4         4
        10        23        22        22
        26        31        17        17
        30        16        17        17
         4         7        12        12
        13        11        12        12
        21        20        25        25
        24        28        25        25
        22         8        10        10
         6         5        10        10
        31        26        32        32
         4         2         3         3
         5         6         3         3
        11        13        14        14
        22        23        27        27
        28        24        27        27
        15        13         7         7
         2        12         1         1
        29        25        33        33
        23        10         9         9
        21        26        18        18
        16        14        15        15
        18        17        15        15
        29        32        21        21
        22        24        20        20
        28        33        25        25
        11         1        12        12
        31        30        17        17
         5         9        10        10
zone t="boundary 3 bc-3", solutiontime= 0.9000000E+02, strandid=1003, i=33, j=48, f=feblock
  0.375000000000E+01  0.250000000000E+01  0.500000000000E+01  0.403552511878E+01  0.288078410721E+01  0.125000000000E+01  0.190974100652E+01
  0.500000000000E+01  0.326683758169E+01  0.423153924130E+01  0.201431602454E+01  0.000000000000E+00  0.963108083381E+00  0.500000000000E+01
  0.267000324704E+01  0.385533350601E+01  0.893127759452E+00  0.154774304040E+01  0.000000000000E+00  0.500000000000E+01  0.315249557942E+01
  0.218329375016E+01  0.398173246726E+01  0.000000000000E+00  0.698517061619E+00  0.964171764089E+00  0.125000000000E+01  0.000000000000E+00
  0.500000000000E+01  0.310324758057E+01  0.250000000000E+01  0.375000000000E+01  0.000000000000E+00
  0.250000000000E+01  0.250000000000E+01  0.250000000000E+01  0.250000000000E+01  0.250000000000E+01  0.250000000000E+01  0.250000000000E+01
  0.250000000000E+01  0.250000000000E+01  0.250000000000E+01  0.250000000000E+01  0.250000000000E+01  0.250000000000E+01  0.250000000000E+01
  0.250000000000E+01  0.250000000000E+01  0.250000000000E+01  0.250000000000E+01  0.250000000000E+01  0.250000000000E+01  0.250000000000E+01
  0.250000000000E+01  0.250000000000E+01  0.250000000000E+01  0.250000000000E+01  0.250000000000E+01  0.250000000000E+01  0.250000000000E+01
  0.250000000000E+01  0.250000000000E+01  0.250000000000E+01  0.250000000000E+01  0.250000000000E+01
  0.000000000000E+00  0.000000000000E+00  0.000000000000E+00  0.101201586758E+01  0.904659890645E+00  0.000000000000E+00  0.717002441913E+00
  0.125000000000E+01  0.188609243358E+01  0.191586535653E+01  0.176246431481E+01  0.000000000000E+00  0.961328577125E+00  0.250000000000E+01
  0.285047954584E+01  0.293121848150E+01  0.205246550326E+01  0.292817774674E+01  0.125000000000E+01  0.375000000000E+01  0.363585050272E+01
  0.395907379566E+01  0.406975391361E+01  0.250000000000E+01  0.306828197606E+01  0.397245519226E+01  0.500000000000E+01  0.375000000000E+01
  0.500000000000E+01  0.433168271247E+01  0.500000000000E+01  0.500000000000E+01  0.500000000000E+01
  0.000000000000E+00  0.000000000000E+00  0.000000000000E+00  0.443767745459E+00  0.402286944574E+00  0.000000000000E+00  0.377550369545E+00
  0.509232128688E+00  0.575832179754E+00  0.573707405285E+00  0.562554064412E+00  0.000000000000E+00  0.490563299840E+00  0.534527096543E+00
  0.556586982170E+00  0.564391577749E+00  0.522730517385E+00  0.522052000170E+00  0.441238348384E+00  0.517182331791E+00  0.524228630763E+00
  0.503687457534E+00  0.509488571178E+00  0.469814974359E+00  0.495614442414E+00  0.494483780212E+00  0.488562428343E+00  0.488961654628E+00
  0.492980744788E+00  0.499005552222E+00  0.486460936507E+00  0.484596927548E+00  0.495346592024E+00
  0.999989339439E+00  0.999989408764E+00  0.999989626853E+00  0.981541895460E+00  0.988773990194E+00  0.999989827144E+00  0.982469462434E+00
  0.984104309047E+00  0.990427545862E+00  0.990355285694E+00  0.994362997073E+00  0.999990295028E+00  0.988652071037E+00  0.100368369414E+01
  0.999769197113E+00  0.100118501219E+01  0.100834885320E+01  0.100252111043E+01  0.102982719499E+01  0.100443319461E+01  0.100199536635E+01
  0.100082056599E+01  0.100138192342E+01  0.100826277309E+01  0.100298787130E+01  0.100192389555E+01  0.100215267510E+01  0.100355660048E+01
  0.100047670023E+01  0.100056591053E+01  0.100126820231E+01  0.100066573360E+01  0.100179336279E+01
 -0.407912965361E-04  0.721690872068E-04 -0.615272687957E-04  0.793275435439E-03  0.309230077109E-02  0.243512264456E-03  0.433356004190E-02
 -0.219315118500E-03 -0.106022488489E-03 -0.978628964958E-04  0.681507589852E-03  0.335357530428E-03  0.287351075926E-02 -0.649905133849E-04
 -0.143611215307E-03 -0.369334181630E-04  0.397069988687E-03 -0.177092617610E-03  0.185532458764E-02 -0.328667241392E-04 -0.101073543132E-04
 -0.414679113224E-04 -0.220276538765E-04  0.888547633055E-04 -0.131119965856E-03 -0.118984740132E-03 -0.175484490560E-03 -0.261596573624E-03
 -0.245499927190E-04 -0.270866166410E-04 -0.172602199458E-03 -0.976200893660E-04 -0.200042769111E-03
 -0.134499610342E-04  0.343498674654E-06  0.186638279874E-04  0.210667324460E-03  0.501051041353E-03 -0.475499224545E-04  0.696274734087E-03
  0.306934521983E-04 -0.288767894341E-04  0.941323493460E-05  0.521048955812E-04  0.235352387240E-04  0.321301168452E-03  0.163758398479E-04
 -0.248413169174E-04  0.329269313118E-05  0.199316035983E-04 -0.321771313682E-04  0.297085364215E-03  0.746912159812E-05  0.278915624093E-05
  0.182658622425E-05  0.400882042812E-05  0.816545913731E-05 -0.361414346620E-04 -0.104663675299E-04 -0.309843494948E-04 -0.544847903945E-04
  0.175300052501E-05  0.881837293666E-06 -0.310125079445E-04 -0.109308852491E-04 -0.373627485125E-04
 -0.590867350148E-05  0.322457632269E-05 -0.802721634670E-08 -0.295428454269E-04 -0.703409846322E-04  0.241232339956E-04 -0.283669737942E-04
 -0.118756690176E-05 -0.341024756501E-05 -0.913664114175E-07 -0.434355728364E-05  0.364341943150E-04  0.186654609414E-04  0.894418196255E-06
 -0.993625055556E-06 -0.517371665763E-06 -0.120775830019E-04 -0.295386316048E-05  0.696028493485E-05  0.535891436874E-06  0.115031713168E-05
  0.112974402937E-05 -0.169782153475E-06 -0.234059240679E-06 -0.134639469753E-05  0.772471493248E-06  0.105203509504E-05  0.566460648881E-06
  0.202670210913E-06 -0.127933564639E-06  0.970131394875E-07 -0.415139878187E-07  0.571995727880E-06
 -0.259632559075E-04 -0.565493126617E-04 -0.285502398128E-05  0.253588466081E-04  0.434076612652E-04 -0.500164989258E-04  0.181527109986E-04
  0.170949176922E-04  0.767279809714E-04  0.304163695806E-04  0.129708142624E-03 -0.640413662067E-04  0.566279576668E-04  0.965714650190E-05
  0.160024658094E-04  0.188867818965E-04  0.103797561410E-03  0.163199013244E-04 -0.768681756385E-04  0.545689292101E-05  0.152581065699E-04
  0.101106271817E-04  0.921051208188E-05  0.489700384954E-04  0.417964758640E-04  0.134946225690E-04  0.529149018402E-05  0.294102049371E-04
  0.292430970821E-05  0.108622876751E-04  0.678671891108E-05  0.634378996298E-05  0.240152161713E-05
  0.334901234358E-03  0.274662216780E-03  0.504674101465E-04 -0.383143149577E-03 -0.133960850770E-02  0.429581483215E-04 -0.186472613705E-02
  0.602277638257E-04  0.484491122582E-04  0.281739938082E-04 -0.256999799421E-03 -0.247593089056E-03 -0.114858669746E-02  0.123591013539E-04
  0.570488998811E-04  0.876250659269E-05 -0.150964108661E-03  0.710547796604E-04 -0.759083895580E-03  0.671969341849E-05  0.958229619986E-06
  0.132355943991E-04  0.462137212877E-05 -0.336284230077E-04  0.511537083526E-04  0.454524624191E-04  0.711384938941E-04  0.108588451360E-03
  0.714745265464E-05  0.754585892121E-05  0.694682358135E-04  0.369335970917E-04  0.825089104800E-04
        15         9        16        16
        15        18        11        11
        22        15        21        21
        11         5         9         9
         5         7         2         2
        11         9        15        15
        16        21        15        15
        16        10        14        14
        18        17        11        11
        17        25        24        24
        22        18        15        15
        22        30        31        31
        30        21        23        23
        16        20        23        23
        22        27        26        26
        10         9         4         4
         7        11        13        13
        25        18        26        26
        11         7         5         5
         5         1         4         4
        17        19        13        13
        23        32        30        30
        23        20        29        29
         4         9         5         5
         4         8        10        10
        26        18        22        22
        26        28        25        25
        13        11        17        17
        13         6         7         7
        31        30        32        32
         2         1         5         5
         2         7         6         6
        14        10         8         8
        24        19        17        17
        24        25        28        28
         9        10        16        16
         3         4         1         1
        33        26        27        27
        12        13        19        19
        21        30        22        22
        16        14        20        20
        16        23        21        21
        22        31        27        27
        18        25        17        17
        26        33        28        28
         4         3         8         8
        23        29        32        32
        13        12         6         6
zone t="boundary 4 bc-4", solutiontime= 0.9000000E+02, strandid=1004, i=32, j=46, f=feblock
  0.125000000000E+01  0.219251206392E+01  0.103724302461E+01  0.500000000000E+01  0.250000000000E+01  0.375000000000E+01  0.404200324774E+01
  0.500000000000E+01  0.000000000000E+00  0.310152362409E+01  0.202479342020E+01  0.324151231464E+01  0.922061490191E+00  0.000000000000E+00
  0.299062775774E+01  0.394624082883E+01  0.500000000000E+01  0.409252726285E+01  0.500000000000E+01  0.429310310915E+01  0.175434191980E+01
  0.284428995242E+01  0.000000000000E+00  0.000000000000E+00  0.715990576545E+00  0.930412228790E+00  0.125000000000E+01  0.187029682677E+01
  0.500000000000E+01  0.375000000000E+01  0.250000000000E+01  0.000000000000E+00
  0.250000000000E+01  0.157686156160E+01  0.146289271009E+01  0.250000000000E+01  0.250000000000E+01  0.250000000000E+01  0.155830813274E+01
  0.125000000000E+01  0.250000000000E+01  0.177790177481E+01  0.477386199275E+00  0.742988685424E+00  0.308372018325E+00  0.125000000000E+01
 -0.487811078581E+00 -0.144524380962E+01 -0.125000000000E+01 -0.345533899378E+00  0.000000000000E+00  0.627766083140E+00 -0.739814786992E+00
 -0.158811787973E+01  0.000000000000E+00 -0.125000000000E+01 -0.600232012419E+00 -0.154800130438E+01 -0.250000000000E+01 -0.178862290564E+01
 -0.250000000000E+01 -0.250000000000E+01 -0.250000000000E+01 -0.250000000000E+01
  0.500000000000E+01  0.500000000000E+01  0.500000000000E+01  0.500000000000E+01  0.500000000000E+01  0.500000000000E+01  0.500000000000E+01
  0.500000000000E+01  0.500000000000E+01  0.500000000000E+01  0.500000000000E+01  0.500000000000E+01  0.500000000000E+01  0.500000000000E+01
  0.500000000000E+01  0.500000000000E+01  0.500000000000E+01  0.500000000000E+01  0.500000000000E+01  0.500000000000E+01  0.500000000000E+01
  0.500000000000E+01  0.500000000000E+01  0.500000000000E+01  0.500000000000E+01  0.500000000000E+01  0.500000000000E+01  0.500000000000E+01
  0.500000000000E+01  0.500000000000E+01  0.500000000000E+01  0.500000000000E+01
  0.488562428343E+00  0.488873127044E+00  0.490562939264E+00  0.492980744788E+00  0.486460936507E+00  0.484596927548E+00  0.485347896276E+00
  0.494163542317E+00  0.495346592024E+00  0.486528232758E+00  0.487819998460E+00  0.487068916091E+00  0.494045904395E+00  0.496127394917E+00
  0.487612357629E+00  0.483219722850E+00  0.492395510969E+00  0.487214141159E+00  0.494738985333E+00  0.487958525499E+00  0.489677249447E+00
  0.488029107105E+00  0.497246279768E+00  0.496059270892E+00  0.494951052257E+00  0.492800373677E+00  0.490002767114E+00  0.490005124553E+00
  0.491352304715E+00  0.486075475228E+00  0.490036479234E+00  0.495098264817E+00
  0.100215267510E+01  0.100152652958E+01  0.100178347660E+01  0.100047670023E+01  0.100126820231E+01  0.100066573360E+01  0.100025357725E+01
  0.100050391679E+01  0.100179336279E+01  0.100112367258E+01  0.100133045248E+01  0.100072432973E+01  0.100164366725E+01  0.100168844809E+01
  0.100096274503E+01  0.100000874853E+01  0.100082864314E+01  0.100022269190E+01  0.100062146074E+01  0.100023497311E+01  0.100174635719E+01
  0.100098855496E+01  0.100118726928E+01  0.100134171022E+01  0.100132635956E+01  0.100179873777E+01  0.100192656835E+01  0.100163748619E+01
  0.100045434508E+01  0.100058774183E+01  0.100109993754E+01  0.100176112495E+01
 -0.175484490560E-03 -0.154564753451E-03 -0.142451361123E-03 -0.245499927190E-04 -0.172602199458E-03 -0.976200893660E-04 -0.643266295706E-04
 -0.233116013763E-04 -0.200042769111E-03 -0.143476010403E-03 -0.126182482802E-03 -0.963211788940E-04 -0.137958301998E-03 -0.205018739112E-03
 -0.694685675379E-04 -0.143012260125E-04 -0.330639140710E-05 -0.367204500746E-04 -0.118218875709E-04 -0.596557058808E-04 -0.107654197434E-03
 -0.390446869335E-04 -0.170616110497E-03 -0.109845052724E-03 -0.141071938507E-03 -0.869301096298E-04 -0.662166485832E-04 -0.698999836132E-04
  0.293306814323E-05 -0.137427154368E-04 -0.492549493643E-04 -0.889051655698E-04