title="tecplot geometry and solution file"
variables = x y z mach temperature lambda1 lambda2 lambda3 lambda4 lambda5
zone t="boundary 1 bc-1", solutiontime= 0.5000000E+02, strandid=1001, i=32, j=46, f=feblock
  0.000000000000E+00  0.000000000000E+00  0.000000000000E+00  0.000000000000E+00  0.000000000000E+00  0.000000000000E+00  0.000000000000E+00
  0.000000000000E+00  0.000000000000E+00  0.000000000000E+00  0.000000000000E+00  0.000000000000E+00  0.000000000000E+00  0.000000000000E+00
  0.000000000000E+00  0.000000000000E+00  0.000000000000E+00  0.000000000000E+00  0.000000000000E+00  0.000000000000E+00  0.000000000000E+00
  0.000000000000E+00  0.000000000000E+00  0.000000000000E+00  0.000000000000E+00  0.000000000000E+00  0.000000000000E+00  0.000000000000E+00
  0.000000000000E+00  0.000000000000E+00  0.000000000000E+00  0.000000000000E+00
  0.250000000000E+01  0.250000000000E+01  0.125000000000E+01  0.146289271009E+01  0.157686156160E+01  0.308372018325E+00  0.000000000000E+00
 -0.125000000000E+01 -0.600232012419E+00  0.250000000000E+01  0.477386199275E+00  0.742988685424E+00 -0.739814786992E+00  0.177790177481E+01
  0.155830813274E+01  0.250000000000E+01 -0.250000000000E+01 -0.154800130438E+01 -0.487811078581E+00  0.250000000000E+01  0.627766083140E+00
 -0.345533899378E+00 -0.178862290564E+01 -0.158811787973E+01  0.125000000000E+01 -0.250000000000E+01 -0.144524380962E+01  0.000000000000E+00
 -0.125000000000E+01 -0.250000000000E+01 -0.250000000000E+01 -0.250000000000E+01
  0.000000000000E+00  0.125000000000E+01  0.000000000000E+00  0.103724302461E+01  0.219251206392E+01  0.922061490191E+00  0.000000000000E+00
  0.000000000000E+00  0.715990576545E+00  0.250000000000E+01  0.202479342020E+01  0.324151231464E+01  0.175434191980E+01  0.310152362409E+01
  0.404200324774E+01  0.375000000000E+01  0.000000000000E+00  0.930412228790E+00  0.299062775774E+01  0.500000000000E+01  0.429310310915E+01
  0.409252726285E+01  0.187029682677E+01  0.284428995242E+01  0.500000000000E+01  0.125000000000E+01  0.394624082883E+01  0.500000000000E+01
  0.500000000000E+01  0.250000000000E+01  0.375000000000E+01  0.500000000000E+01
  0.000000000000E+00  0.441238348384E+00  0.000000000000E+00  0.475214987021E+00  0.460123708856E+00  0.468827815405E+00  0.000000000000E+00
  0.000000000000E+00  0.402302516798E+00  0.469814974359E+00  0.464411128942E+00  0.478714034184E+00  0.489298241651E+00  0.483068557888E+00
  0.487930073118E+00  0.488961654628E+00  0.000000000000E+00  0.464775721414E+00  0.473795651891E+00  0.495346592024E+00  0.490266103446E+00
  0.486286083902E+00  0.445717618051E+00  0.464382274634E+00  0.496127394917E+00  0.443624103833E+00  0.486964461957E+00  0.497246279768E+00
  0.496059270892E+00  0.467732355362E+00  0.488212087362E+00  0.495098264817E+00
  0.999990295028E+00  0.102982719499E+01  0.999990757903E+00  0.104247294232E+01  0.101190080524E+01  0.102520618293E+01  0.999991416700E+00
  0.999992168096E+00  0.103891223624E+01  0.100826277309E+01  0.101252833877E+01  0.100300548289E+01  0.102702865700E+01  0.100605563290E+01
  0.100244400478E+01  0.100355660048E+01  0.999992721792E+00  0.103239739214E+01  0.100459524090E+01  0.100179336279E+01  0.100260305842E+01
  0.100234966417E+01  0.101657153079E+01  0.100617544692E+01  0.100168844809E+01  0.104043292670E+01  0.100303376377E+01  0.100118726928E+01
  0.100134171022E+01  0.100976788415E+01  0.100405369352E+01  0.100176112495E+01
  0.335357521797E-03  0.185532451396E-02  0.196937862031E-03  0.201209670233E-02  0.382722153060E-03  0.194387533372E-04 -0.451012081810E-04
 -0.980147624152E-04 -0.125090926528E-02  0.888547923877E-04  0.661384984036E-04 -0.733744151093E-04 -0.636692368734E-03 -0.107077063847E-03
 -0.168495728103E-03 -0.261596605198E-03 -0.476066059717E-04 -0.101906720729E-02  0.440489947881E-04 -0.200042742601E-03 -0.998300086723E-04
  0.224000327486E-05 -0.161145746826E-03  0.690525220270E-04 -0.205018773467E-03 -0.570685513304E-03  0.436296376624E-04 -0.170616192826E-03
 -0.109845095137E-03 -0.129627694356E-04  0.631871130279E-04 -0.889051794249E-04
  0.235352385442E-04  0.297085346562E-03  0.539760228737E-05  0.289499617589E-03  0.588420136608E-04 -0.528528054717E-05 -0.213950912133E-04
 -0.155243989064E-04 -0.217651894768E-03  0.816546445323E-05  0.979478613202E-05 -0.175831831771E-04 -0.103721520440E-03 -0.303601438790E-04
 -0.301705549061E-04 -0.544847964055E-04 -0.290257118138E-05 -0.142154475798E-03  0.326014404893E-05 -0.373627439435E-04 -0.168799124649E-04
  0.124236371323E-05 -0.230334299957E-04  0.136933041827E-04 -0.410720071800E-04 -0.800262290743E-04  0.955870798533E-05 -0.348323016882E-04
 -0.221561831451E-04  0.269074427923E-05  0.132252792816E-04 -0.181633750321E-04
  0.364341934188E-04  0.696028480691E-05  0.612715725458E-04  0.570159222305E-04 -0.100438862208E-04 -0.472958949258E-07  0.158883910254E-04
 -0.312858065851E-05 -0.397795951087E-04 -0.234059238152E-06 -0.130176894188E-04 -0.242875177650E-04 -0.158679726809E-04 -0.155101128309E-04
 -0.128530146674E-04  0.566460652037E-06 -0.277893686656E-05  0.566728350457E-05 -0.246918571152E-04  0.571995679349E-06 -0.167227379042E-04
 -0.188131218646E-04 -0.123172309461E-04 -0.138987841814E-04 -0.568955350551E-05 -0.230551545281E-05 -0.107275534244E-04 -0.908636164385E-05
 -0.627289498330E-05  0.398771269199E-07  0.241419545282E-06  0.502852362430E-06
 -0.640413647152E-04 -0.768681699353E-04 -0.361139153181E-04 -0.216401753633E-04  0.370814105624E-04  0.177052203253E-04  0.172965351118E-05
  0.249796450027E-04  0.100710004171E-04  0.489700403447E-04  0.219365785574E-04  0.177138319619E-04 -0.186573953382E-04  0.359918118424E-04
  0.180882835129E-04  0.294102066352E-04  0.856736644906E-05  0.575876739957E-05  0.305919581228E-05  0.240152153458E-05  0.891005764430E-05
  0.316601305384E-05 -0.114326916955E-04 -0.518816209712E-05  0.238438475325E-05 -0.498645852796E-05 -0.254247657034E-05  0.243929219325E-05
  0.185796057317E-05 -0.107977702084E-04 -0.538238999691E-05  0.226949719131E-05
 -0.247593080927E-03 -0.759083863856E-03 -0.184025229017E-03 -0.806080526559E-03 -0.154575215223E-03 -0.231596589512E-04  0.432555777607E-04
  0.777524735777E-04  0.510777372484E-03 -0.336284353148E-04 -0.265295209194E-04  0.287612382848E-04  0.255983727500E-03  0.448010629900E-04
  0.688950048897E-04  0.108588464708E-03  0.216656131105E-04  0.405366266224E-03 -0.173646769819E-04  0.825088992979E-04  0.402138467334E-04
 -0.216461770510E-05  0.652305332268E-04 -0.277168140894E-04  0.848767279899E-04  0.228211416722E-03 -0.191695344217E-04  0.708601632254E-04
  0.455336613362E-04  0.447683056396E-05 -0.274808969955E-04  0.366233699091E-04
        12        19        11        11
        11         5        12        12
        10        14         5         5
        19        13        11        11
        19        24        13        13
        30        23        24        24
        19        12        22        22
        28        22        21        21
        11        13         6         6
         7         6         9         9
        15        12        14        14
        18        13        23        23
        15        25        21        21
        27        19        22        22
        18         8         9         9
        27        31        24        24
         4        11         6         6
         5        14        12        12
         4         2         5         5
        21        12        15        15
        14        16        15        15
        24        19        27        27
        22        29        27        27
        23        26        18        18
        17         8        18        18
         5        11         4         4
         6         3         4         4
        26        23        30        30
         5         2        10        10
        16        14        10        10
         3         6         7         7
        21        25        28        28
        29        22        28        28
         6        13         9         9
         2         4         1         1
        31        27        32        32
        25        15        20        20
        24        23        13        13
         8         7         9         9
        13        18         9         9
        31        30        24        24
        12        21        22        22
        29        32        27        27
         3         1         4         4
        26        17        18        18
        16        20        15        15
zone t="boundary 2 bc-2", solutiontime= 0.5000000E+02, strandid=1002, i=33, j=48, f=feblock
  0.500000000000E+01  0.375000000000E+01  0.250000000000E+01  0.288078410721E+01  0.125000000000E+01  0.190974100652E+01  0.326683758169E+01
  0.201431602454E+01  0.000000000000E+00  0.963108083381E+00  0.500000000000E+01  0.403552511878E+01  0.423153924130E+01  0.500000000000E+01
  0.385533350601E+01  0.500000000000E+01  0.398173246726E+01  0.315249557942E+01  0.267000324704E+01  0.154774304040E+01  0.218329375016E+01
  0.893127759452E+00  0.000000000000E+00  0.698517061619E+00  0.964171764089E+00  0.310324758057E+01  0.000000000000E+00  0.000000000000E+00
  0.125000000000E+01  0.500000000000E+01  0.375000000000E+01  0.250000000000E+01  0.000000000000E+00
 -0.250000000000E+01 -0.250000000000E+01 -0.250000000000E+01 -0.250000000000E+01 -0.250000000000E+01 -0.250000000000E+01 -0.250000000000E+01
 -0.250000000000E+01 -0.250000000000E+01 -0.250000000000E+01 -0.250000000000E+01 -0.250000000000E+01 -0.250000000000E+01 -0.250000000000E+01
 -0.250000000000E+01 -0.250000000000E+01 -0.250000000000E+01 -0.250000000000E+01 -0.250000000000E+01 -0.250000000000E+01 -0.250000000000E+01
 -0.250000000000E+01 -0.250000000000E+01 -0.250000000000E+01 -0.250000000000E+01 -0.250000000000E+01 -0.250000000000E+01 -0.250000000000E+01
 -0.250000000000E+01 -0.250000000000E+01 -0.250000000000E+01 -0.250000000000E+01 -0.250000000000E+01
  0.000000000000E+00  0.000000000000E+00  0.000000000000E+00  0.904659890645E+00  0.000000000000E+00  0.717002441913E+00  0.188609243358E+01
  0.176246431481E+01  0.000000000000E+00  0.961328577125E+00  0.125000000000E+01  0.101201586758E+01  0.191586535653E+01  0.250000000000E+01
  0.293121848150E+01  0.375000000000E+01  0.406975391361E+01  0.363585050272E+01  0.285047954584E+01  0.292817774674E+01  0.395907379566E+01
  0.205246550326E+01  0.125000000000E+01  0.306828197606E+01  0.397245519226E+01  0.433168271247E+01  0.250000000000E+01  0.375000000000E+01
  0.500000000000E+01  0.500000000000E+01  0.500000000000E+01  0.500000000000E+01  0.500000000000E+01
  0.000000000000E+00  0.000000000000E+00  0.000000000000E+00  0.380991906500E+00  0.000000000000E+00  0.343629824950E+00  0.585286157424E+00
  0.579373264282E+00  0.000000000000E+00  0.501056069140E+00  0.508460362676E+00  0.435373026572E+00  0.572640041190E+00  0.537002098944E+00
  0.568922553871E+00  0.514994090651E+00  0.508247257160E+00  0.527252853130E+00  0.567446661127E+00  0.531657143909E+00  0.505981016593E+00
  0.520795579399E+00  0.443624103833E+00  0.490663730453E+00  0.492155873749E+00  0.501390784676E+00  0.467732355362E+00  0.488212087362E+00
  0.490002767114E+00  0.491352304715E+00  0.486075475228E+00  0.490036479234E+00  0.495098264817E+00
  0.999993487379E+00  0.999993690057E+00  0.999993543115E+00  0.989539055875E+00  0.999993137282E+00  0.985524707174E+00  0.989838908967E+00
  0.991798516580E+00  0.999992721792E+00  0.984411112416E+00  0.985091906406E+00  0.984689080896E+00  0.990058464829E+00  0.100289621837E+01
  0.999855369243E+00  0.100485306649E+01  0.100121554699E+01  0.100055642931E+01  0.997896793475E+00  0.100350029570E+01  0.100058068723E+01
  0.101093276247E+01  0.104043292670E+01  0.100326475367E+01  0.100254498742E+01  0.100045587387E+01  0.100976788415E+01  0.100405369352E+01
  0.100192656835E+01  0.100045434508E+01  0.100058774183E+01  0.100109993754E+01  0.100176112495E+01
  0.912424029246E-04  0.176497803791E-05 -0.123811193970E-03 -0.221248881258E-02 -0.408625607057E-04 -0.671499359118E-03  0.497938167749E-04
 -0.456094123671E-03 -0.476066059717E-04 -0.755467805277E-03  0.793992477264E-04  0.260421778943E-03  0.306969802914E-04  0.395087518577E-04
  0.144632414945E-04  0.510533967066E-05  0.199840938226E-05  0.131661423921E-04  0.957308283708E-04  0.113227963445E-03  0.442491381874E-05
 -0.234690122901E-03 -0.570685513304E-03  0.460906495231E-04  0.206079636716E-04  0.458498903086E-06 -0.129627694356E-04  0.631871130279E-04
 -0.662166560970E-04  0.293306720949E-05 -0.137427145517E-04 -0.492549593863E-04 -0.889051794249E-04
 -0.248611860761E-04  0.254905700030E-04  0.281155351392E-05 -0.240391868439E-03 -0.758708569042E-05 -0.586423935292E-06  0.504768896603E-04
 -0.212514727066E-04 -0.290257118138E-05 -0.109214039394E-03 -0.247165793608E-04  0.632303867312E-04  0.675230952283E-05 -0.900115147668E-05
  0.622073230168E-05 -0.109030250987E-05  0.249428385388E-05  0.811164651356E-05  0.342761193479E-04  0.405822059378E-04  0.637163115244E-05
 -0.849534156278E-05 -0.800262290743E-04  0.180874033268E-04  0.834854644253E-05  0.494990387533E-05  0.269074427923E-05  0.132252792816E-04
 -0.819972232191E-05  0.664305133275E-06  0.818832227154E-07 -0.395131216787E-05 -0.181633750321E-04
  0.917513862578E-05  0.165240101279E-06 -0.845062943646E-05 -0.215199399915E-04 -0.403652167961E-05  0.624726428651E-05  0.552665741125E-05
  0.740096327845E-06 -0.277893686656E-05 -0.340192071833E-05  0.447309941189E-05  0.195959556288E-04 -0.162414294942E-05  0.803595055103E-08
 -0.111384080944E-05  0.292371448612E-06 -0.176225971571E-06  0.250383759035E-06 -0.256434819407E-05 -0.115640909202E-05  0.605292805974E-07
 -0.248116356797E-05 -0.230551545281E-05  0.226794664415E-06  0.166865332476E-07  0.130164485131E-06  0.398771269199E-07  0.241419545282E-06
  0.227582054108E-06  0.137354178732E-06  0.133130113522E-06 -0.916785086640E-07  0.502852362430E-06
  0.993449690911E-06  0.174091076825E-04  0.140583341493E-04 -0.412956045853E-05  0.288034079561E-05  0.753959145498E-04 -0.776094774092E-04
 -0.414110487683E-04  0.856736644906E-05 -0.539719764217E-06 -0.291294460933E-04 -0.975153184469E-04 -0.275602203482E-04 -0.755529088928E-05
 -0.124614867936E-04 -0.185363800950E-05 -0.292865345109E-05 -0.509092507774E-05 -0.200074076934E-04 -0.139187367952E-04 -0.381057505690E-05
 -0.199549843924E-04 -0.498645852796E-05 -0.826468360808E-05 -0.150542200226E-05 -0.194989799921E-05 -0.107977702084E-04 -0.538238999691E-05
  0.206498515525E-05 -0.890178197535E-07  0.952353780040E-06  0.211216630067E-05  0.226949719131E-05
 -0.415682801652E-04 -0.160638605486E-03 -0.745885060705E-04  0.915468384553E-03  0.256569282037E-04  0.229268379472E-03 -0.337086696177E-04
  0.172407411758E-03  0.216656131105E-04  0.313272367928E-03 -0.145330441452E-04 -0.112876126899E-03 -0.114236150144E-04 -0.812261495986E-05
 -0.650471260318E-05 -0.115453873557E-05 -0.139695379292E-05 -0.755135825682E-05 -0.438839199242E-04 -0.523105555317E-04 -0.385662669406E-05
  0.887528644224E-04  0.228211416722E-03 -0.212406156767E-04 -0.103200023590E-04 -0.174512735291E-05  0.447683056396E-05 -0.274808969955E-04
  0.258558187549E-04 -0.118604102752E-05  0.475239223053E-05  0.185315568083E-04  0.366233699091E-04
        15         7        19        19
         8        20        19        19
        18        19        21        21
         7         4         8         8
         3         6         4         4
        19         7         8         8
        19        18        15        15
        14        13        15        15
         8        22        20        20
        27        24        22        22
        19        20        21        21
        32        26        21        21
        17        18        26        26
        17        16        15        15
        25        29        21        21
        12         7        13        13
        10         8         6         6
        25        20        24        24
         4         6         8         8
        12         2         4         4
        10        23        22        22
        26        31        17        17
        30        16        17        17
         4         7        12        12
        13        11        12        12
        21        20        25        25
        24        28        25        25
        22         8        10        10
         6         5        10        10
        31        26        32        32
         4         2         3         3
         5         6         3         3
        11        13        14        14
        22        23        27        27
        28        24        27        27
        15        13         7         7
         2        12         1         1
        29        25        33        33
        23        10         9         9
        21        26        18        18
        16        14        15        15
        18        17        15        15
        29        32        21        21
        22        24        20        20
        28        33        25        25
        11         1        12        12
        31        30        17        17
         5         9        10        10
zone t="boundary 3 bc-3", solutiontime= 0.5000000E+02, strandid=1003, i=33, j=48, f=feblock
  0.375000000000E+01  0.250000000000E+01  0.500000000000E+01  0.403552511878E+01  0.288078410721E+01  0.125000000000E+01  0.190974100652E+01
  0.500000000000E+01  0.326683758169E+01  0.423153924130E+01  0.201431602454E+01  0.000000000000E+00  0.963108083381E+00  0.500000000000E+01
  0.267000324704E+01  0.385533350601E+01  0.893127759452E+00  0.154774304040E+01  0.000000000000E+00  0.500000000000E+01  0.315249557942E+01
  0.218329375016E+01  0.398173246726E+01  0.000000000000E+00  0.698517061619E+00  0.964171764089E+00  0.125000000000E+01  0.000000000000E+00
  0.500000000000E+01  0.310324758057E+01  0.250000000000E+01  0.375000000000E+01  0.000000000000E+00
  0.250000000000E+01  0.250000000000E+01  0.250000000000E+01  0.250000000000E+01  0.250000000000E+01  0.250000000000E+01  0.250000000000E+01
  0.250000000000E+01  0.250000000000E+01  0.250000000000E+01  0.250000000000E+01  0.250000000000E+01  0.250000000000E+01  0.250000000000E+01
  0.250000000000E+01  0.250000000000E+01  0.250000000000E+01  0.250000000000E+01  0.250000000000E+01  0.250000000000E+01  0.250000000000E+01
  0.250000000000E+01  0.250000000000E+01  0.250000000000E+01  0.250000000000E+01  0.250000000000E+01  0.250000000000E+01  0.250000000000E+01
  0.250000000000E+01  0.250000000000E+01  0.250000000000E+01  0.250000000000E+01  0.250000000000E+01
  0.000000000000E+00  0.000000000000E+00  0.000000000000E+00  0.101201586758E+01  0.904659890645E+00  0.000000000000E+00  0.717002441913E+00
  0.125000000000E+01  0.188609243358E+01  0.191586535653E+01  0.176246431481E+01  0.000000000000E+00  0.961328577125E+00  0.250000000000E+01
  0.285047954584E+01  0.293121848150E+01  0.205246550326E+01  0.292817774674E+01  0.125000000000E+01  0.375000000000E+01  0.363585050272E+01
  0.395907379566E+01  0.406975391361E+01  0.250000000000E+01  0.306828197606E+01  0.397245519226E+01  0.500000000000E+01  0.375000000000E+01
  0.500000000000E+01  0.433168271247E+01  0.500000000000E+01  0.500000000000E+01  0.500000000000E+01
  0.000000000000E+00  0.000000000000E+00  0.000000000000E+00  0.443767745459E+00  0.402286944574E+00  0.000000000000E+00  0.377550369545E+00
  0.509232128688E+00  0.575832179754E+00  0.573707405285E+00  0.562554064412E+00  0.000000000000E+00  0.490563299840E+00  0.534527096543E+00
  0.556586982170E+00  0.564391577749E+00  0.522730517385E+00  0.522052000170E+00  0.441238348384E+00  0.517182331791E+00  0.524228630763E+00
  0.503687457534E+00  0.509488571178E+00  0.469814974359E+00  0.495614442414E+00  0.494483780212E+00  0.488562428343E+00  0.488961654628E+00
  0.492980744788E+00  0.499005552222E+00  0.486460936507E+00  0.484596927548E+00  0.495346592024E+00
  0.999989339439E+00  0.999989408764E+00  0.999989626853E+00  0.981541895460E+00  0.988773990194E+00  0.999989827144E+00  0.982469462434E+00
  0.984104309047E+00  0.990427545862E+00  0.990355285694E+00  0.994362997073E+00  0.999990295028E+00  0.988652071037E+00  0.100368369414E+01
  0.999769197113E+00  0.100118501219E+01  0.100834885320E+01  0.100252111043E+01  0.102982719499E+01  0.100443319461E+01  0.100199536635E+01
  0.100082056599E+01  0.100138192342E+01  0.100826277309E+01  0.100298787130E+01  0.100192389555E+01  0.100215267510E+01  0.100355660048E+01
  0.100047670023E+01  0.100056591053E+01  0.100126820231E+01  0.100066573360E+01  0.100179336279E+01
 -0.407912865554E-04  0.721690875754E-04 -0.615272689297E-04  0.793275572915E-03  0.309230065926E-02  0.243512261310E-03  0.433355992781E-02
 -0.219315139780E-03 -0.106022451966E-03 -0.978629202111E-04  0.681507615706E-03  0.335357521797E-03  0.287351062694E-02 -0.649905098411E-04
 -0.143611225466E-03 -0.369334201653E-04  0.397069980440E-03 -0.177092610591E-03  0.185532451396E-02 -0.328667243109E-04 -0.101073540841E-04
 -0.414679155988E-04 -0.220276576872E-04  0.888547923877E-04 -0.131119985141E-03 -0.118984738587E-03 -0.175484509543E-03 -0.261596605198E-03
 -0.245499933558E-04 -0.270866181910E-04 -0.172602197855E-03 -0.976200858546E-04 -0.200042742601E-03
 -0.134499604670E-04  0.343499994813E-06  0.186638264908E-04  0.210667332471E-03  0.501050998918E-03 -0.475499196752E-04  0.696274693541E-03
  0.306934454730E-04 -0.288767799824E-04  0.941322749919E-05  0.521048947890E-04  0.235352385442E-04  0.321301124184E-03  0.163758408203E-04
 -0.248413178011E-04  0.329269283279E-05  0.199315945960E-04 -0.321771273686E-04  0.297085346562E-03  0.746912134625E-05  0.278915634388E-05
  0.182658725997E-05  0.400881946509E-05  0.816546445323E-05 -0.361414407070E-04 -0.104663640136E-04 -0.309843553509E-04 -0.544847964055E-04
  0.175300053561E-05  0.881837313281E-06 -0.310125072614E-04 -0.109308842331E-04 -0.373627439435E-04
 -0.590867330814E-05  0.322457636099E-05 -0.802772501736E-08 -0.295428449938E-04 -0.703409822828E-04  0.241232339493E-04 -0.283669733352E-04
 -0.118756687166E-05 -0.341024821376E-05 -0.913661104856E-07 -0.434355767448E-05  0.364341934188E-04  0.186654635297E-04  0.894418222338E-06
 -0.993625246505E-06 -0.517371689198E-06 -0.120775803314E-04 -0.295386298807E-05  0.696028480691E-05  0.535891400854E-06  0.115031714294E-05
  0.112974395010E-05 -0.169782123486E-06 -0.234059238152E-06 -0.134639456079E-05  0.772471221482E-06  0.105203518173E-05  0.566460652037E-06
  0.202670203166E-06 -0.127933552399E-06  0.970131009050E-07 -0.415139930457E-07  0.571995679349E-06
 -0.259632573871E-04 -0.565493109844E-04 -0.285502315812E-05  0.253588412198E-04  0.434076666182E-04 -0.500164980650E-04  0.181527178847E-04
  0.170949201168E-04  0.767279809071E-04  0.304163694148E-04  0.129708144547E-03 -0.640413647152E-04  0.566279633486E-04  0.965714622371E-05
  0.160024656390E-04  0.188867811760E-04  0.103797563549E-03  0.163199040319E-04 -0.768681699353E-04  0.545689313939E-05  0.152581058412E-04
  0.101106272303E-04  0.921051204342E-05  0.489700403447E-04  0.417964806272E-04  0.134946234904E-04  0.529149057058E-05  0.294102066352E-04
  0.292430968511E-05  0.108622878670E-04  0.678671903145E-05  0.634379000728E-05  0.240152153458E-05
  0.334901230978E-03  0.274662218354E-03  0.504674134666E-04 -0.383143204488E-03 -0.133960845623E-02  0.429581486538E-04 -0.186472608453E-02
  0.602277742718E-04  0.484490955753E-04  0.281740048328E-04 -0.256999810123E-03 -0.247593080927E-03 -0.114858663767E-02  0.123590997812E-04
  0.570489039366E-04  0.876250741206E-05 -0.150964104089E-03  0.710547760449E-04 -0.759083863856E-03  0.671969359863E-05  0.958229479760E-06
  0.132355956830E-04  0.462137379712E-05 -0.336284353148E-04  0.511537171538E-04  0.454524609615E-04  0.711385023500E-04  0.108588464708E-03
  0.714745286222E-05  0.754585942280E-05  0.694682351063E-04  0.369335955194E-04  0.825088992979E-04
        15         9        16        16
        15        18        11        11
        22        15        21        21
        11         5         9         9
         5         7         2         2
        11         9        15        15
        16        21        15        15
        16        10        14        14
        18        17        11        11
        17        25        24        24
        22        18        15        15
        22        30        31        31
        30        21        23        23
        16        20        23        23
        22        27        26        26
        10         9         4         4
         7        11        13        13
        25        18        26        26
        11         7         5         5
         5         1         4         4
        17        19        13        13
        23        32        30        30
        23        20        29        29
         4         9         5         5
         4         8        10        10
        26        18        22        22
        26        28        25        25
        13        11        17        17
        13         6         7         7
        31        30        32        32
         2         1         5         5
         2         7         6         6
        14        10         8         8
        24        19        17        17
        24        25        28        28
         9        10        16        16
         3         4         1         1
        33        26        27        27
        12        13        19        19
        21        30        22        22
        16        14        20        20
        16        23        21        21
        22        31        27        27
        18        25        17        17
        26        33        28        28
         4         3         8         8
        23        29        32        32
        13        12         6         6
zone t="boundary 4 bc-4", solutiontime= 0.5000000E+02, strandid=1004, i=32, j=46, f=feblock
  0.125000000000E+01  0.219251206392E+01  0.103724302461E+01  0.500000000000E+01  0.250000000000E+01  0.375000000000E+01  0.404200324774E+01
  0.500000000000E+01  0.000000000000E+00  0.310152362409E+01  0.202479342020E+01  0.324151231464E+01  0.922061490191E+00  0.000000000000E+00
  0.299062775774E+01  0.394624082883E+01  0.500000000000E+01  0.409252726285E+01  0.500000000000E+01  0.429310310915E+01  0.175434191980E+01
  0.284428995242E+01  0.000000000000E+00  0.000000000000E+00  0.715990576545E+00  0.930412228790E+00  0.125000000000E+01  0.187029682677E+01
  0.500000000000E+01  0.375000000000E+01  0.250000000000E+01  0.000000000000E+00
  0.250000000000E+01  0.157686156160E+01  0.146289271009E+01  0.250000000000E+01  0.250000000000E+01  0.250000000000E+01  0.155830813274E+01
  0.125000000000E+01  0.250000000000E+01  0.177790177481E+01  0.477386199275E+00  0.742988685424E+00  0.308372018325E+00  0.125000000000E+01
 -0.487811078581E+00 -0.144524380962E+01 -0.125000000000E+01 -0.345533899378E+00  0.000000000000E+00  0.627766083140E+00 -0.739814786992E+00
 -0.158811787973E+01  0.000000000000E+00 -0.125000000000E+01 -0.600232012419E+00 -0.154800130438E+01 -0.250000000000E+01 -0.178862290564E+01
 -0.250000000000E+01 -0.250000000000E+01 -0.250000000000E+01 -0.250000000000E+01
  0.500000000000E+01  0.500000000000E+01  0.500000000000E+01  0.500000000000E+01  0.500000000000E+01  0.500000000000E+01  0.500000000000E+01
  0.500000000000E+01  0.500000000000E+01  0.500000000000E+01  0.500000000000E+01  0.500000000000E+01  0.500000000000E+01  0.500000000000E+01
  0.500000000000E+01  0.500000000000E+01  0.500000000000E+01  0.500000000000E+01  0.500000000000E+01  0.500000000000E+01  0.500000000000E+01
  0.500000000000E+01  0.500000000000E+01  0.500000000000E+01  0.500000000000E+01  0.500000000000E+01  0.500000000000E+01  0.500000000000E+01
  0.500000000000E+01  0.500000000000E+01  0.500000000000E+01  0.500000000000E+01
  0.488562428343E+00  0.488873127044E+00  0.490562939264E+00  0.492980744788E+00  0.486460936507E+00  0.484596927548E+00  0.485347896276E+00
  0.494163542317E+00  0.495346592024E+00  0.486528232758E+00  0.487819998460E+00  0.487068916091E+00  0.494045904395E+00  0.496127394917E+00
  0.487612357629E+00  0.483219722850E+00  0.492395510969E+00  0.487214141159E+00  0.494738985333E+00  0.487958525499E+00  0.489677249447E+00
  0.488029107105E+00  0.497246279768E+00  0.496059270892E+00  0.494951052257E+00  0.492800373677E+00  0.490002767114E+00  0.490005124553E+00
  0.491352304715E+00  0.486075475228E+00  0.490036479234E+00  0.495098264817E+00
  0.100215267510E+01  0.100152652958E+01  0.100178347660E+01  0.100047670023E+01  0.100126820231E+01  0.100066573360E+01  0.100025357725E+01
  0.100050391679E+01  0.100179336279E+01  0.100112367258E+01  0.100133045248E+01  0.100072432973E+01  0.100164366725E+01  0.100168844809E+01
  0.100096274503E+01  0.100000874853E+01  0.100082864314E+01  0.100022269190E+01  0.100062146074E+01  0.100023497311E+01  0.100174635719E+01
  0.100098855496E+01  0.100118726928E+01  0.100134171022E+01  0.100132635956E+01  0.100179873777E+01  0.100192656835E+01  0.100163748619E+01
  0.100045434508E+01  0.100058774183E+01  0.100109993754E+01  0.100176112495E+01
 -0.175484509543E-03 -0.154564747046E-03 -0.142451370315E-03 -0.245499933558E-04 -0.172602197855E-03 -0.976200858546E-04 -0.643266274633E-04
 -0.233116017042E-04 -0.200042742601E-03 -0.143476014215E-03 -0.126182481725E-03 -0.963211820539E-04 -0.137958335964E-03 -0.205018773467E-03
 -0.694685733393E-04 -0.143012245351E-04 -0.330639184202E-05 -0.367204507634E-04 -0.118218870495E-04 -0.596557079650E-04 -0.107654194473E-03
 -0.390446845663E-04 -0.170616192826E-03 -0.109845095137E-03 -0.141071954020E-03 -0.869301125506E-04 -0.662166560970E-04 -0.698999846261E-04
  0.293306720949E-05 -0.137427145517E-04 -0.492549593863E-04 -0.889051794249E-04