title="tecplot geometry and solution file"
variables = x y z mach temperature lambda1 lambda2 lambda3 lambda4 lambda5
zone t="boundary 1 bc-1", solutiontime= 0.5000000E+02, strandid=1001, i=32, j=46, f=feblock
  0.000000000000E+00  0.000000000000E+00  0.000000000000E+00  0.000000000000E+00  0.000000000000E+00  0.000000000000E+00  0.000000000000E+00
  0.000000000000E+00  0.000000000000E+00  0.000000000000E+00  0.000000000000E+00  0.000000000000E+00  0.000000000000E+00  0.000000000000E+00
  0.000000000000E+00  0.000000000000E+00  0.000000000000E+00  0.000000000000E+00  0.000000000000E+00  0.000000000000E+00  0.000000000000E+00
  0.000000000000E+00  0.000000000000E+00  0.000000000000E+00  0.000000000000E+00  0.000000000000E+00  0.000000000000E+00  0.000000000000E+00
  0.000000000000E+00  0.000000000000E+00  0.000000000000E+00  0.000000000000E+00
  0.250000000000E+01  0.250000000000E+01  0.125000000000E+01  0.146289271009E+01  0.157686156160E+01  0.308372018325E+00  0.000000000000E+00
 -0.125000000000E+01 -0.600232012419E+00  0.250000000000E+01  0.477386199275E+00  0.742988685424E+00 -0.739814786992E+00  0.177790177481E+01
  0.155830813274E+01  0.250000000000E+01 -0.250000000000E+01 -0.154800130438E+01 -0.487811078581E+00  0.250000000000E+01  0.627766083140E+00
 -0.345533899378E+00 -0.178862290564E+01 -0.158811787973E+01  0.125000000000E+01 -0.250000000000E+01 -0.144524380962E+01  0.000000000000E+00
 -0.125000000000E+01 -0.250000000000E+01 -0.250000000000E+01 -0.250000000000E+01
  0.000000000000E+00  0.125000000000E+01  0.000000000000E+00  0.103724302461E+01  0.219251206392E+01  0.922061490191E+00  0.000000000000E+00
  0.000000000000E+00  0.715990576545E+00  0.250000000000E+01  0.202479342020E+01  0.324151231464E+01  0.175434191980E+01  0.310152362409E+01
  0.404200324774E+01  0.375000000000E+01  0.000000000000E+00  0.930412228790E+00  0.299062775774E+01  0.500000000000E+01  0.429310310915E+01
  0.409252726285E+01  0.187029682677E+01  0.284428995242E+01  0.500000000000E+01  0.125000000000E+01  0.394624082883E+01  0.500000000000E+01
  0.500000000000E+01  0.250000000000E+01  0.375000000000E+01  0.500000000000E+01
  0.000000000000E+00  0.441238348384E+00  0.000000000000E+00  0.475214987021E+00  0.460123708856E+00  0.468827815405E+00  0.000000000000E+00
  0.000000000000E+00  0.402302516798E+00  0.469814974359E+00  0.464411128942E+00  0.478714034184E+00  0.489298241651E+00  0.483068557888E+00
  0.487930073118E+00  0.488961654628E+00  0.000000000000E+00  0.464775721414E+00  0.473795651891E+00  0.495346592024E+00  0.490266103446E+00
  0.486286083902E+00  0.445717618051E+00  0.464382274634E+00  0.496127394917E+00  0.443624103833E+00  0.486964461957E+00  0.497246279768E+00
  0.496059270892E+00  0.467732355362E+00  0.488212087362E+00  0.495098264817E+00
  0.999990295028E+00  0.102982719499E+01  0.999990757903E+00  0.104247294232E+01  0.101190080524E+01  0.102520618293E+01  0.999991416700E+00
  0.999992168096E+00  0.103891223624E+01  0.100826277309E+01  0.101252833877E+01  0.100300548289E+01  0.102702865700E+01  0.100605563290E+01
  0.100244400478E+01  0.100355660048E+01  0.999992721792E+00  0.103239739214E+01  0.100459524090E+01  0.100179336279E+01  0.100260305842E+01
  0.100234966417E+01  0.101657153079E+01  0.100617544692E+01  0.100168844809E+01  0.104043292670E+01  0.100303376377E+01  0.100118726928E+01
  0.100134171022E+01  0.100976788415E+01  0.100405369352E+01  0.100176112495E+01
  0.157805323987E-03  0.261773464153E-03  0.159957402080E-03  0.120573079003E-02 -0.668277030344E-04  0.596229602494E-03  0.623440100346E-04
 -0.164263027283E-05  0.147540450732E-02 -0.213769772529E-03  0.494305427768E-03 -0.146075133992E-03  0.161049488869E-03 -0.867886392897E-04
 -0.929006228097E-04 -0.734166284220E-04 -0.120133512961E-03 -0.376778969604E-03 -0.105381462102E-03 -0.399933279857E-03 -0.165719007400E-03
 -0.142975046247E-03 -0.491250402080E-03 -0.404850808270E-04 -0.403507496261E-03 -0.148184721019E-02 -0.631526102877E-04 -0.424333836316E-03
 -0.351468568416E-03 -0.125310865249E-03 -0.910187847497E-05 -0.330637160939E-03
 -0.780017603148E-07  0.356802818070E-04  0.116902831756E-04  0.139216338497E-03 -0.203739314760E-04  0.589528520755E-04  0.224072410558E-04
 -0.116833129842E-06  0.303443045692E-03 -0.469800478810E-04  0.706909538109E-04 -0.281553420399E-04  0.281306310384E-04 -0.238123145822E-04
 -0.197287867764E-04 -0.210228058722E-04 -0.186533698841E-04 -0.562543668032E-04 -0.184580387899E-04 -0.821009852714E-04 -0.324768857035E-04
 -0.261404008336E-04 -0.744573246235E-04 -0.651420668765E-05 -0.848074861443E-04 -0.226495972880E-03 -0.127047301675E-04 -0.896797332552E-04
 -0.743697770353E-04 -0.210282255066E-04 -0.318049375609E-05 -0.700038178870E-04
  0.122989745834E-04  0.285795036352E-05 -0.390969435522E-05 -0.142150450955E-04 -0.564702713935E-05  0.202285609724E-04  0.202302387749E-04
  0.186367781005E-04  0.687366471648E-04 -0.529361237154E-06 -0.224652057219E-04 -0.454839673012E-05  0.579955719045E-05 -0.274723803014E-05
 -0.174909006319E-05  0.142112565688E-06  0.773708848486E-05  0.702744850707E-05 -0.120447909904E-04  0.107097480705E-06 -0.339315548841E-05
 -0.562778051401E-05 -0.128920387408E-05 -0.538979270996E-05  0.683369280753E-08  0.175255746111E-06 -0.738089241744E-05 -0.102803663969E-05
 -0.151176866552E-05  0.706076300082E-06 -0.458764657033E-07  0.478520206434E-06
 -0.291356972421E-04 -0.403837066313E-04 -0.307683722013E-04 -0.442461884466E-05  0.183775388517E-04 -0.666534345182E-04 -0.673330351110E-05
 -0.901177295255E-05  0.687245298522E-04  0.106818142984E-04  0.317081400754E-04  0.200358381005E-04  0.311826759387E-04  0.150581033861E-04
  0.142229614429E-04  0.162936246218E-04  0.157165249521E-04  0.693678656199E-04  0.248855145955E-04  0.605382373358E-05  0.116105266951E-04
  0.144319361106E-04  0.198655140490E-04  0.985213678853E-05  0.492348146769E-05  0.435130936876E-04  0.101054574696E-04  0.403188349929E-05
  0.469979322747E-05  0.818776100368E-05  0.557980065650E-05  0.574835483174E-05
 -0.103626036857E-03 -0.102843607598E-03 -0.123461480350E-03 -0.474061897349E-03  0.317824285001E-04 -0.208257134549E-03 -0.767428472576E-04
  0.815827595019E-04 -0.655316225234E-03  0.914696501537E-04 -0.200181742858E-03  0.594366214999E-04 -0.678584851043E-04  0.361672372032E-04
  0.371098819925E-04  0.296753621176E-04  0.888557416609E-04  0.141680419684E-03  0.406133639185E-04  0.165868725253E-03  0.674998622580E-04
  0.578358214033E-04  0.197384599325E-03  0.169274071844E-04  0.167861998031E-03  0.596937387550E-03  0.245930732422E-04  0.177071129089E-03
  0.146449790071E-03  0.504421906060E-04  0.235261073805E-05  0.137178332955E-03
        12        19        11        11
        11         5        12        12
        10        14         5         5
        19        13        11        11
        19        24        13        13
        30        23        24        24
        19        12        22        22
        28        22        21        21
        11        13         6         6
         7         6         9         9
        15        12        14        14
        18        13        23        23
        15        25        21        21
        27        19        22        22
        18         8         9         9
        27        31        24        24
         4        11         6         6
         5        14        12        12
         4         2         5         5
        21        12        15        15
        14        16        15        15
        24        19        27        27
        22        29        27        27
        23        26        18        18
        17         8        18        18
         5        11         4         4
         6         3         4         4
        26        23        30        30
         5         2        10        10
        16        14        10        10
         3         6         7         7
        21        25        28        28
        29        22        28        28
         6        13         9         9
         2         4         1         1
        31        27        32        32
        25        15        20        20
        24        23        13        13
         8         7         9         9
        13        18         9         9
        31        30        24        24
        12        21        22        22
        29        32        27        27
         3         1         4         4
        26        17        18        18
        16        20        15        15
zone t="boundary 2 bc-2", solutiontime= 0.5000000E+02, strandid=1002, i=33, j=48, f=feblock
  0.500000000000E+01  0.375000000000E+01  0.250000000000E+01  0.288078410721E+01  0.125000000000E+01  0.190974100652E+01  0.326683758169E+01
  0.201431602454E+01  0.000000000000E+00  0.963108083381E+00  0.500000000000E+01  0.403552511878E+01  0.423153924130E+01  0.500000000000E+01
  0.385533350601E+01  0.500000000000E+01  0.398173246726E+01  0.315249557942E+01  0.267000324704E+01  0.154774304040E+01  0.218329375016E+01
  0.893127759452E+00  0.000000000000E+00  0.698517061619E+00  0.964171764089E+00  0.310324758057E+01  0.000000000000E+00  0.000000000000E+00
  0.125000000000E+01  0.500000000000E+01  0.375000000000E+01  0.250000000000E+01  0.000000000000E+00
 -0.250000000000E+01 -0.250000000000E+01 -0.250000000000E+01 -0.250000000000E+01 -0.250000000000E+01 -0.250000000000E+01 -0.250000000000E+01
 -0.250000000000E+01 -0.250000000000E+01 -0.250000000000E+01 -0.250000000000E+01 -0.250000000000E+01 -0.250000000000E+01 -0.250000000000E+01
 -0.250000000000E+01 -0.250000000000E+01 -0.250000000000E+01 -0.250000000000E+01 -0.250000000000E+01 -0.250000000000E+01 -0.250000000000E+01
 -0.250000000000E+01 -0.250000000000E+01 -0.250000000000E+01 -0.250000000000E+01 -0.250000000000E+01 -0.250000000000E+01 -0.250000000000E+01
 -0.250000000000E+01 -0.250000000000E+01 -0.250000000000E+01 -0.250000000000E+01 -0.250000000000E+01
  0.000000000000E+00  0.000000000000E+00  0.000000000000E+00  0.904659890645E+00  0.000000000000E+00  0.717002441913E+00  0.188609243358E+01
  0.176246431481E+01  0.000000000000E+00  0.961328577125E+00  0.125000000000E+01  0.101201586758E+01  0.191586535653E+01  0.250000000000E+01
  0.293121848150E+01  0.375000000000E+01  0.406975391361E+01  0.363585050272E+01  0.285047954584E+01  0.292817774674E+01  0.395907379566E+01
  0.205246550326E+01  0.125000000000E+01  0.306828197606E+01  0.397245519226E+01  0.433168271247E+01  0.250000000000E+01  0.375000000000E+01
  0.500000000000E+01  0.500000000000E+01  0.500000000000E+01  0.500000000000E+01  0.500000000000E+01
  0.000000000000E+00  0.000000000000E+00  0.000000000000E+00  0.380991906500E+00  0.000000000000E+00  0.343629824950E+00  0.585286157424E+00
  0.579373264282E+00  0.000000000000E+00  0.501056069140E+00  0.508460362676E+00  0.435373026572E+00  0.572640041190E+00  0.537002098944E+00
  0.568922553871E+00  0.514994090651E+00  0.508247257160E+00  0.527252853130E+00  0.567446661127E+00  0.531657143909E+00  0.505981016593E+00
  0.520795579399E+00  0.443624103833E+00  0.490663730453E+00  0.492155873749E+00  0.501390784676E+00  0.467732355362E+00  0.488212087362E+00
  0.490002767114E+00  0.491352304715E+00  0.486075475228E+00  0.490036479234E+00  0.495098264817E+00
  0.999993487379E+00  0.999993690057E+00  0.999993543115E+00  0.989539055875E+00  0.999993137282E+00  0.985524707174E+00  0.989838908967E+00
  0.991798516580E+00  0.999992721792E+00  0.984411112416E+00  0.985091906406E+00  0.984689080896E+00  0.990058464829E+00  0.100289621837E+01
  0.999855369243E+00  0.100485306649E+01  0.100121554699E+01  0.100055642931E+01  0.997896793475E+00  0.100350029570E+01  0.100058068723E+01
  0.101093276247E+01  0.104043292670E+01  0.100326475367E+01  0.100254498742E+01  0.100045587387E+01  0.100976788415E+01  0.100405369352E+01
  0.100192656835E+01  0.100045434508E+01  0.100058774183E+01  0.100109993754E+01  0.100176112495E+01
  0.527704338706E-04 -0.936306005173E-05 -0.163083934662E-04 -0.267081494898E-02 -0.154468965410E-03 -0.463012621968E-02 -0.432028464928E-05
 -0.715261165742E-03 -0.120133512961E-03 -0.174426798380E-02  0.413048907860E-04  0.358115011698E-04 -0.345909759187E-05  0.556525257125E-05
 -0.157796404815E-04 -0.209461825402E-04 -0.196742977524E-04  0.247633334917E-05  0.743617623356E-04  0.756168602923E-04 -0.135887220933E-04
 -0.379893524478E-03 -0.148184721019E-02 -0.428493135575E-05 -0.213411538119E-04 -0.298717751538E-04 -0.125310865249E-03 -0.910187847497E-05
 -0.306274774900E-03 -0.272888537898E-04 -0.132867868383E-03 -0.268478322268E-03 -0.330637160939E-03
 -0.376718673365E-05  0.789126570690E-06 -0.104142359657E-06 -0.461696375373E-03  0.110255231567E-04 -0.539777645512E-03  0.527799743907E-04
 -0.633706405429E-04 -0.186533698841E-04 -0.176951401817E-03 -0.122673537930E-04  0.775757529361E-04  0.367075606867E-04 -0.172749416243E-06
  0.204535523233E-04  0.485857886791E-05  0.105080639191E-04  0.196506977959E-04  0.431597118268E-04  0.374513232833E-04  0.949467844586E-05
 -0.285854417927E-04 -0.226495972880E-03  0.720166314172E-05  0.306304718629E-05  0.904780232569E-05 -0.210282255066E-04 -0.318049375609E-05
 -0.558026116343E-04  0.206791047247E-05 -0.133286253791E-04 -0.411048170551E-04 -0.700038178870E-04
  0.137545453424E-04 -0.941316827050E-05 -0.103570398428E-04 -0.680668307242E-04 -0.908988576840E-06 -0.313911913573E-04  0.188256056053E-05
 -0.202977161469E-06  0.773708848486E-05  0.185981978563E-04  0.122809659993E-04  0.126158692768E-04 -0.339105920113E-06 -0.152794553908E-06
 -0.538515752236E-07  0.108264544238E-06  0.484269140762E-07 -0.222092025763E-06 -0.197956135983E-05 -0.246850348839E-05 -0.244106018677E-07
 -0.470301955237E-06  0.175255746111E-06 -0.146822988831E-05  0.980980972336E-07  0.163654233920E-07  0.706076300082E-06 -0.458764657033E-07
  0.396746138566E-06  0.579731395399E-07  0.119438239273E-06  0.565257019058E-07  0.478520206434E-06
  0.999355304891E-05  0.117529855221E-04  0.224183522639E-04 -0.342563181101E-04  0.311299296222E-04  0.131848895675E-04 -0.555964312356E-04
 -0.610297858104E-04  0.157165249521E-04 -0.152339058722E-04 -0.385744427595E-04 -0.739410000694E-04 -0.243177918114E-04 -0.101620619953E-04
 -0.474063159965E-05 -0.100451524822E-05  0.407464889727E-05  0.678019415126E-05 -0.285133778533E-05  0.100587561501E-05  0.104861112461E-04
 -0.162810556238E-04  0.435130936876E-04  0.598084689143E-05  0.100155013228E-04  0.873343989264E-05  0.818776100368E-05  0.557980065650E-05
  0.785924516099E-05  0.323643727819E-05  0.830148016370E-05  0.970033820945E-05  0.574835483174E-05
 -0.704442905949E-04 -0.913723489764E-04 -0.243713614684E-03  0.115726841244E-02 -0.107033629540E-04  0.192724333685E-02 -0.189767310346E-04
  0.272695387214E-03  0.888557416609E-04  0.680856644943E-03 -0.594388440953E-05 -0.428798410455E-04 -0.124926918001E-04 -0.156282905556E-05
 -0.284706266251E-05  0.413582586901E-05  0.169072397955E-05 -0.919915706517E-05 -0.411883251265E-04 -0.386631970496E-04 -0.268316270977E-06
  0.145224390596E-03  0.596937387550E-03 -0.772883784159E-06  0.494908849148E-05  0.580596227672E-05  0.504421906060E-04  0.235261073805E-05
  0.124434497813E-03  0.793734557145E-05  0.497911547694E-04  0.106463706760E-03  0.137178332955E-03
        15         7        19        19
         8        20        19        19
        18        19        21        21
         7         4         8         8
         3         6         4         4
        19         7         8         8
        19        18        15        15
        14        13        15        15
         8        22        20        20
        27        24        22        22
        19        20        21        21
        32        26        21        21
        17        18        26        26
        17        16        15        15
        25        29        21        21
        12         7        13        13
        10         8         6         6
        25        20        24        24
         4         6         8         8
        12         2         4         4
        10        23        22        22
        26        31        17        17
        30        16        17        17
         4         7        12        12
        13        11        12        12
        21        20        25        25
        24        28        25        25
        22         8        10        10
         6         5        10        10
        31        26        32        32
         4         2         3         3
         5         6         3         3
        11        13        14        14
        22        23        27        27
        28        24        27        27
        15        13         7         7
         2        12         1         1
        29        25        33        33
        23        10         9         9
        21        26        18        18
        16        14        15        15
        18        17        15        15
        29        32        21        21
        22        24        20        20
        28        33        25        25
        11         1        12        12
        31        30        17        17
         5         9        10        10
zone t="boundary 3 bc-3", solutiontime= 0.5000000E+02, strandid=1003, i=33, j=48, f=feblock
  0.375000000000E+01  0.250000000000E+01  0.500000000000E+01  0.403552511878E+01  0.288078410721E+01  0.125000000000E+01  0.190974100652E+01
  0.500000000000E+01  0.326683758169E+01  0.423153924130E+01  0.201431602454E+01  0.000000000000E+00  0.963108083381E+00  0.500000000000E+01
  0.267000324704E+01  0.385533350601E+01  0.893127759452E+00  0.154774304040E+01  0.000000000000E+00  0.500000000000E+01  0.315249557942E+01
  0.218329375016E+01  0.398173246726E+01  0.000000000000E+00  0.698517061619E+00  0.964171764089E+00  0.125000000000E+01  0.000000000000E+00
  0.500000000000E+01  0.310324758057E+01  0.250000000000E+01  0.375000000000E+01  0.000000000000E+00
  0.250000000000E+01  0.250000000000E+01  0.250000000000E+01  0.250000000000E+01  0.250000000000E+01  0.250000000000E+01  0.250000000000E+01
  0.250000000000E+01  0.250000000000E+01  0.250000000000E+01  0.250000000000E+01  0.250000000000E+01  0.250000000000E+01  0.250000000000E+01
  0.250000000000E+01  0.250000000000E+01  0.250000000000E+01  0.250000000000E+01  0.250000000000E+01  0.250000000000E+01  0.250000000000E+01
  0.250000000000E+01  0.250000000000E+01  0.250000000000E+01  0.250000000000E+01  0.250000000000E+01  0.250000000000E+01  0.250000000000E+01
  0.250000000000E+01  0.250000000000E+01  0.250000000000E+01  0.250000000000E+01  0.250000000000E+01
  0.000000000000E+00  0.000000000000E+00  0.000000000000E+00  0.101201586758E+01  0.904659890645E+00  0.000000000000E+00  0.717002441913E+00
  0.125000000000E+01  0.188609243358E+01  0.191586535653E+01  0.176246431481E+01  0.000000000000E+00  0.961328577125E+00  0.250000000000E+01
  0.285047954584E+01  0.293121848150E+01  0.205246550326E+01  0.292817774674E+01  0.125000000000E+01  0.375000000000E+01  0.363585050272E+01
  0.395907379566E+01  0.406975391361E+01  0.250000000000E+01  0.306828197606E+01  0.397245519226E+01  0.500000000000E+01  0.375000000000E+01
  0.500000000000E+01  0.433168271247E+01  0.500000000000E+01  0.500000000000E+01  0.500000000000E+01
  0.000000000000E+00  0.000000000000E+00  0.000000000000E+00  0.443767745459E+00  0.402286944574E+00  0.000000000000E+00  0.377550369545E+00
  0.509232128688E+00  0.575832179754E+00  0.573707405285E+00  0.562554064412E+00  0.000000000000E+00  0.490563299840E+00  0.534527096543E+00
  0.556586982170E+00  0.564391577749E+00  0.522730517385E+00  0.522052000170E+00  0.441238348384E+00  0.517182331791E+00  0.524228630763E+00
  0.503687457534E+00  0.509488571178E+00  0.469814974359E+00  0.495614442414E+00  0.494483780212E+00  0.488562428343E+00  0.488961654628E+00
  0.492980744788E+00  0.499005552222E+00  0.486460936507E+00  0.484596927548E+00  0.495346592024E+00
  0.999989339439E+00  0.999989408764E+00  0.999989626853E+00  0.981541895460E+00  0.988773990194E+00  0.999989827144E+00  0.982469462434E+00
  0.984104309047E+00  0.990427545862E+00  0.990355285694E+00  0.994362997073E+00  0.999990295028E+00  0.988652071037E+00  0.100368369414E+01
  0.999769197113E+00  0.100118501219E+01  0.100834885320E+01  0.100252111043E+01  0.102982719499E+01  0.100443319461E+01  0.100199536635E+01
  0.100082056599E+01  0.100138192342E+01  0.100826277309E+01  0.100298787130E+01  0.100192389555E+01  0.100215267510E+01  0.100355660048E+01
  0.100047670023E+01  0.100056591053E+01  0.100126820231E+01  0.100066573360E+01  0.100179336279E+01
 -0.957627685320E-07 -0.103338164204E-03 -0.248126090404E-04 -0.618680362610E-03 -0.171248261757E-02  0.480507350091E-04 -0.187503477693E-03
 -0.545339077118E-04 -0.517943862358E-04 -0.611740109677E-04 -0.519545090345E-03  0.157805323987E-03 -0.116610218125E-04 -0.507826714338E-04
  0.987529624217E-05 -0.459063710412E-04 -0.375556936503E-03 -0.336746449305E-04  0.261773464153E-03 -0.358660207914E-04 -0.347586396715E-04
 -0.277429344599E-04 -0.273497859830E-04 -0.213769772529E-03 -0.133816625475E-03 -0.712904480275E-04 -0.309337502032E-03 -0.734166284220E-04
 -0.342551018344E-04 -0.443898936616E-04 -0.283581332657E-03 -0.151623759817E-03 -0.399933279857E-03
  0.784485889184E-05  0.721913533427E-05 -0.302127510028E-05 -0.132377583288E-03 -0.242066917954E-03 -0.365422742704E-04 -0.137403479877E-04
  0.193305127892E-04  0.244563128522E-05  0.514545613503E-05 -0.792620957465E-04 -0.780017603148E-07 -0.104038203169E-03  0.136616758936E-04
  0.141276520814E-04  0.464412834212E-05 -0.968265671769E-04 -0.107154889556E-05  0.356802818070E-04  0.900449621367E-05  0.816215948972E-05
  0.652874714211E-05  0.971089048050E-05 -0.469800478810E-04 -0.353665573090E-04 -0.776977781184E-05 -0.546972791235E-04 -0.210228058722E-04
  0.317601698746E-05  0.637790385830E-05 -0.426921268203E-04 -0.145905347464E-04 -0.821009852714E-04
  0.758892743518E-06 -0.876251253538E-06  0.584783748795E-05  0.253512228817E-04  0.443733146764E-04  0.109268471158E-04  0.636735756008E-05
  0.314599120601E-05  0.399515214737E-05  0.288625260115E-05  0.652934682680E-05  0.122989745834E-04  0.227669386716E-04  0.319097023898E-06
  0.163177965255E-06  0.348569776341E-06  0.288317315360E-05  0.374271876253E-06  0.285795036352E-05  0.295959715911E-06  0.299795981768E-06
  0.762428621201E-06 -0.981065739816E-08 -0.529361237154E-06  0.449418315909E-06  0.111146317820E-06  0.362050763522E-06  0.142112565688E-06
  0.616923669926E-07 -0.802784986158E-08  0.602333772727E-07 -0.120743351395E-07  0.107097480705E-06
  0.163588460604E-04  0.173377291186E-04 -0.575046489649E-05 -0.289884870947E-05  0.160255796846E-05 -0.115395302489E-04  0.464424925104E-04
 -0.951215145809E-06 -0.940812449580E-05  0.756436220856E-05  0.397956676662E-05 -0.291356972421E-04  0.289631630034E-04  0.405273696020E-05
  0.117090219067E-04  0.829149541476E-05  0.330803592524E-04  0.116171247358E-04 -0.403837066313E-04  0.340939701882E-05  0.999719016669E-05
  0.135363483800E-04  0.764720131381E-05  0.106818142984E-04  0.193746179637E-04  0.139068788286E-04  0.900611034344E-05  0.162936246218E-04
  0.405481454101E-05  0.102833985687E-04  0.105447095800E-04  0.944361776872E-05  0.605382373358E-05
 -0.179902766740E-03 -0.831665935184E-05 -0.191799673888E-04  0.270696948305E-03  0.723616738702E-03  0.745789950780E-05  0.543833148284E-04
  0.655270905949E-05  0.104693391577E-04  0.161601617158E-04  0.210209514448E-03 -0.103626036857E-03  0.364539452286E-04  0.940774977956E-05
 -0.119614054073E-04  0.119641933535E-04  0.162490102232E-03  0.920431780925E-05 -0.102843607598E-03  0.690098888513E-05  0.703572775626E-05
  0.532090138126E-05  0.416669573013E-05  0.914696501537E-04  0.544798492465E-04  0.258131769508E-04  0.125011104706E-03  0.296753621176E-04
  0.968427934981E-05  0.114678683329E-04  0.112200166257E-03  0.566288109622E-04  0.165868725253E-03
        15         9        16        16
        15        18        11        11
        22        15        21        21
        11         5         9         9
         5         7         2         2
        11         9        15        15
        16        21        15        15
        16        10        14        14
        18        17        11        11
        17        25        24        24
        22        18        15        15
        22        30        31        31
        30        21        23        23
        16        20        23        23
        22        27        26        26
        10         9         4         4
         7        11        13        13
        25        18        26        26
        11         7         5         5
         5         1         4         4
        17        19        13        13
        23        32        30        30
        23        20        29        29
         4         9         5         5
         4         8        10        10
        26        18        22        22
        26        28        25        25
        13        11        17        17
        13         6         7         7
        31        30        32        32
         2         1         5         5
         2         7         6         6
        14        10         8         8
        24        19        17        17
        24        25        28        28
         9        10        16        16
         3         4         1         1
        33        26        27        27
        12        13        19        19
        21        30        22        22
        16        14        20        20
        16        23        21        21
        22        31        27        27
        18        25        17        17
        26        33        28        28
         4         3         8         8
        23        29        32        32
        13        12         6         6
zone t="boundary 4 bc-4", solutiontime= 0.5000000E+02, strandid=1004, i=32, j=46, f=feblock
  0.125000000000E+01  0.219251206392E+01  0.103724302461E+01  0.500000000000E+01  0.250000000000E+01  0.375000000000E+01  0.404200324774E+01
  0.500000000000E+01  0.000000000000E+00  0.310152362409E+01  0.202479342020E+01  0.324151231464E+01  0.922061490191E+00  0.000000000000E+00
  0.299062775774E+01  0.394624082883E+01  0.500000000000E+01  0.409252726285E+01  0.500000000000E+01  0.429310310915E+01  0.175434191980E+01
  0.284428995242E+01  0.000000000000E+00  0.000000000000E+00  0.715990576545E+00  0.930412228790E+00  0.125000000000E+01  0.187029682677E+01
  0.500000000000E+01  0.375000000000E+01  0.250000000000E+01  0.000000000000E+00
  0.250000000000E+01  0.157686156160E+01  0.146289271009E+01  0.250000000000E+01  0.250000000000E+01  0.250000000000E+01  0.155830813274E+01
  0.125000000000E+01  0.250000000000E+01  0.177790177481E+01  0.477386199275E+00  0.742988685424E+00  0.308372018325E+00  0.125000000000E+01
 -0.487811078581E+00 -0.144524380962E+01 -0.125000000000E+01 -0.345533899378E+00  0.000000000000E+00  0.627766083140E+00 -0.739814786992E+00
 -0.158811787973E+01  0.000000000000E+00 -0.125000000000E+01 -0.600232012419E+00 -0.154800130438E+01 -0.250000000000E+01 -0.178862290564E+01
 -0.250000000000E+01 -0.250000000000E+01 -0.250000000000E+01 -0.250000000000E+01
  0.500000000000E+01  0.500000000000E+01  0.500000000000E+01  0.500000000000E+01  0.500000000000E+01  0.500000000000E+01  0.500000000000E+01
  0.500000000000E+01  0.500000000000E+01  0.500000000000E+01  0.500000000000E+01  0.500000000000E+01  0.500000000000E+01  0.500000000000E+01
  0.500000000000E+01  0.500000000000E+01  0.500000000000E+01  0.500000000000E+01  0.500000000000E+01  0.500000000000E+01  0.500000000000E+01
  0.500000000000E+01  0.500000000000E+01  0.500000000000E+01  0.500000000000E+01  0.500000000000E+01  0.500000000000E+01  0.500000000000E+01
  0.500000000000E+01  0.500000000000E+01  0.500000000000E+01  0.500000000000E+01
  0.488562428343E+00  0.488873127044E+00  0.490562939264E+00  0.492980744788E+00  0.486460936507E+00  0.484596927548E+00  0.485347896276E+00
  0.494163542317E+00  0.495346592024E+00  0.486528232758E+00  0.487819998460E+00  0.487068916091E+00  0.494045904395E+00  0.496127394917E+00
  0.487612357629E+00  0.483219722850E+00  0.492395510969E+00  0.487214141159E+00  0.494738985333E+00  0.487958525499E+00  0.489677249447E+00
  0.488029107105E+00  0.497246279768E+00  0.496059270892E+00  0.494951052257E+00  0.492800373677E+00  0.490002767114E+00  0.490005124553E+00
  0.491352304715E+00  0.486075475228E+00  0.490036479234E+00  0.495098264817E+00
  0.100215267510E+01  0.100152652958E+01  0.100178347660E+01  0.100047670023E+01  0.100126820231E+01  0.100066573360E+01  0.100025357725E+01
  0.100050391679E+01  0.100179336279E+01  0.100112367258E+01  0.100133045248E+01  0.100072432973E+01  0.100164366725E+01  0.100168844809E+01
  0.100096274503E+01  0.100000874853E+01  0.100082864314E+01  0.100022269190E+01  0.100062146074E+01  0.100023497311E+01  0.100174635719E+01
  0.100098855496E+01  0.100118726928E+01  0.100134171022E+01  0.100132635956E+01  0.100179873777E+01  0.100192656835E+01  0.100163748619E+01
  0.100045434508E+01  0.100058774183E+01  0.100109993754E+01  0.100176112495E+01
 -0.309337502032E-03 -0.297893629326E-03 -0.299925385243E-03 -0.342551018344E-04 -0.283581332657E-03 -0.151623759817E-03 -0.104812731643E-03
 -0.335995640233E-04 -0.399933279857E-03 -0.231239590821E-03 -0.306936312602E-03 -0.213269933228E-03 -0.340748198627E-03 -0.403507496261E-03
 -0.228302135490E-03 -0.879090681099E-04 -0.287046694817E-04 -0.123667947305E-03 -0.301641430217E-04 -0.125523494042E-03 -0.360299198095E-03
 -0.208645866327E-03 -0.424333836316E-03 -0.351468568416E-03 -0.382577993202E-03 -0.312456856675E-03 -0.306274774900E-03 -0.325760169984E-03
 -0.272888537898E-04 -0.132867868383E-03 -0.268478322268E-03 -0.330637160939E-03