title="tecplot geometry and solution file"
variables = x y z mach temperature lambda1 lambda2 lambda3 lambda4 lambda5
zone t="boundary 1 bc-1", solutiontime= 0.1000000E+02, strandid=1001, i=32, j=46, f=feblock
  0.000000000000E+00  0.000000000000E+00  0.000000000000E+00  0.000000000000E+00  0.000000000000E+00  0.000000000000E+00  0.000000000000E+00
  0.000000000000E+00  0.000000000000E+00  0.000000000000E+00  0.000000000000E+00  0.000000000000E+00  0.000000000000E+00  0.000000000000E+00
  0.000000000000E+00  0.000000000000E+00  0.000000000000E+00  0.000000000000E+00  0.000000000000E+00  0.000000000000E+00  0.000000000000E+00
  0.000000000000E+00  0.000000000000E+00  0.000000000000E+00  0.000000000000E+00  0.000000000000E+00  0.000000000000E+00  0.000000000000E+00
  0.000000000000E+00  0.000000000000E+00  0.000000000000E+00  0.000000000000E+00
  0.250000000000E+01  0.250000000000E+01  0.125000000000E+01  0.146289271009E+01  0.157686156160E+01  0.308372018325E+00  0.000000000000E+00
 -0.125000000000E+01 -0.600232012419E+00  0.250000000000E+01  0.477386199275E+00  0.742988685424E+00 -0.739814786992E+00  0.177790177481E+01
  0.155830813274E+01  0.250000000000E+01 -0.250000000000E+01 -0.154800130438E+01 -0.487811078581E+00  0.250000000000E+01  0.627766083140E+00
 -0.345533899378E+00 -0.178862290564E+01 -0.158811787973E+01  0.125000000000E+01 -0.250000000000E+01 -0.144524380962E+01  0.000000000000E+00
 -0.125000000000E+01 -0.250000000000E+01 -0.250000000000E+01 -0.250000000000E+01
  0.000000000000E+00  0.125000000000E+01  0.000000000000E+00  0.103724302461E+01  0.219251206392E+01  0.922061490191E+00  0.000000000000E+00
  0.000000000000E+00  0.715990576545E+00  0.250000000000E+01  0.202479342020E+01  0.324151231464E+01  0.175434191980E+01  0.310152362409E+01
  0.404200324774E+01  0.375000000000E+01  0.000000000000E+00  0.930412228790E+00  0.299062775774E+01  0.500000000000E+01  0.429310310915E+01
  0.409252726285E+01  0.187029682677E+01  0.284428995242E+01  0.500000000000E+01  0.125000000000E+01  0.394624082883E+01  0.500000000000E+01
  0.500000000000E+01  0.250000000000E+01  0.375000000000E+01  0.500000000000E+01
  0.000000000000E+00  0.441238348384E+00  0.000000000000E+00  0.475214987021E+00  0.460123708856E+00  0.468827815405E+00  0.000000000000E+00
  0.000000000000E+00  0.402302516798E+00  0.469814974359E+00  0.464411128942E+00  0.478714034184E+00  0.489298241651E+00  0.483068557888E+00
  0.487930073118E+00  0.488961654628E+00  0.000000000000E+00  0.464775721414E+00  0.473795651891E+00  0.495346592024E+00  0.490266103446E+00
  0.486286083902E+00  0.445717618051E+00  0.464382274634E+00  0.496127394917E+00  0.443624103833E+00  0.486964461957E+00  0.497246279768E+00
  0.496059270892E+00  0.467732355362E+00  0.488212087362E+00  0.495098264817E+00
  0.999990295028E+00  0.102982719499E+01  0.999990757903E+00  0.104247294232E+01  0.101190080524E+01  0.102520618293E+01  0.999991416700E+00
  0.999992168096E+00  0.103891223624E+01  0.100826277309E+01  0.101252833877E+01  0.100300548289E+01  0.102702865700E+01  0.100605563290E+01
  0.100244400478E+01  0.100355660048E+01  0.999992721792E+00  0.103239739214E+01  0.100459524090E+01  0.100179336279E+01  0.100260305842E+01
  0.100234966417E+01  0.101657153079E+01  0.100617544692E+01  0.100168844809E+01  0.104043292670E+01  0.100303376377E+01  0.100118726928E+01
  0.100134171022E+01  0.100976788415E+01  0.100405369352E+01  0.100176112495E+01
  0.333325356382E-03  0.182314496543E-02  0.198414176369E-03  0.193300604596E-02  0.442991660763E-03  0.105310589706E-04 -0.452767145703E-04
 -0.967411467523E-04 -0.125150151552E-02  0.155840986586E-03  0.706822898786E-04 -0.562578253887E-04 -0.663705108191E-03 -0.964867974326E-04
 -0.170123780909E-03 -0.291521379010E-03 -0.430309306664E-04 -0.962801360377E-03  0.498411504822E-04 -0.217547720352E-03 -0.100127156926E-03
  0.360047186365E-05 -0.187492053029E-03  0.577061830954E-04 -0.211482451757E-03 -0.524614705380E-03  0.443639816316E-04 -0.163933443274E-03
 -0.996682662885E-04 -0.296412437012E-04  0.620174636099E-04 -0.851330530620E-04
  0.241788022739E-04  0.288900296237E-03  0.605300294434E-05  0.273182417218E-03  0.683930301658E-04 -0.502115466989E-05 -0.211881297175E-04
 -0.156923207039E-04 -0.214832647521E-03  0.207946915260E-04  0.932175727990E-05 -0.147010334984E-04 -0.107806479602E-03 -0.280860071342E-04
 -0.301807494097E-04 -0.594289962059E-04 -0.321369022440E-05 -0.131760795762E-03  0.345885474084E-05 -0.389936110839E-04 -0.166456949951E-04
  0.864730473588E-06 -0.279857804664E-04  0.112028326475E-04 -0.408029397267E-04 -0.721265515624E-04  0.905162478817E-05 -0.325855616661E-04
 -0.196640186400E-04 -0.517901557201E-06  0.128151575368E-04 -0.169626157009E-04
  0.359178715139E-04  0.658491144763E-05  0.610124232982E-04  0.519931345701E-04 -0.109088541939E-04  0.189408904118E-06  0.161774049267E-04
 -0.374307732886E-05 -0.385932658768E-04 -0.256572298433E-06 -0.152110434841E-04 -0.241759784767E-04 -0.165335659712E-04 -0.146849386153E-04
 -0.126244446708E-04  0.660701187137E-06 -0.299915008173E-05  0.434822664876E-05 -0.257096662907E-04  0.763229499627E-06 -0.170772099005E-04
 -0.191077702443E-04 -0.110946786574E-04 -0.135675378034E-04 -0.610323321347E-05 -0.233033689447E-05 -0.108646137597E-04 -0.103176147174E-04
 -0.685693290965E-05  0.963983826635E-07  0.282280850089E-06  0.583394033960E-06
 -0.628748499570E-04 -0.778340998590E-04 -0.361441338496E-04 -0.218201036681E-04  0.361661802469E-04  0.161106253243E-04  0.170865319482E-05
  0.246211154758E-04  0.872715932570E-05  0.471529967599E-04  0.217603224175E-04  0.190658647015E-04 -0.209042756635E-04  0.372957364339E-04
  0.199906140772E-04  0.315154788297E-04  0.789566947533E-05  0.670604619405E-05  0.227714359459E-05  0.228852494311E-05  0.102275663391E-04
  0.290184523381E-05 -0.111124826131E-04 -0.676840146024E-05  0.260303852559E-05 -0.400445149452E-05 -0.366738461252E-05  0.252004181784E-05
  0.155218061286E-05 -0.110323260408E-04 -0.656085934645E-05  0.199255785288E-05
 -0.245162180986E-03 -0.745037694787E-03 -0.185230565932E-03 -0.772952401775E-03 -0.179349289302E-03 -0.196370409194E-04  0.435215069226E-04
  0.769662088302E-04  0.510704502376E-03 -0.614714705297E-04 -0.283105234418E-04  0.217609324591E-04  0.267130645663E-03  0.404969823187E-04
  0.692818172702E-04  0.120745112829E-03  0.191335410751E-04  0.382144872464E-03 -0.195926007587E-04  0.899523305461E-04  0.401196750327E-04
 -0.257481475308E-05  0.762208021102E-04 -0.228838173902E-04  0.875073503854E-04  0.209421345589E-03 -0.192474761927E-04  0.679392199275E-04
  0.411418610704E-04  0.115922493344E-04 -0.268797475492E-04  0.348340481607E-04
        12        19        11        11
        11         5        12        12
        10        14         5         5
        19        13        11        11
        19        24        13        13
        30        23        24        24
        19        12        22        22
        28        22        21        21
        11        13         6         6
         7         6         9         9
        15        12        14        14
        18        13        23        23
        15        25        21        21
        27        19        22        22
        18         8         9         9
        27        31        24        24
         4        11         6         6
         5        14        12        12
         4         2         5         5
        21        12        15        15
        14        16        15        15
        24        19        27        27
        22        29        27        27
        23        26        18        18
        17         8        18        18
         5        11         4         4
         6         3         4         4
        26        23        30        30
         5         2        10        10
        16        14        10        10
         3         6         7         7
        21        25        28        28
        29        22        28        28
         6        13         9         9
         2         4         1         1
        31        27        32        32
        25        15        20        20
        24        23        13        13
         8         7         9         9
        13        18         9         9
        31        30        24        24
        12        21        22        22
        29        32        27        27
         3         1         4         4
        26        17        18        18
        16        20        15        15
zone t="boundary 2 bc-2", solutiontime= 0.1000000E+02, strandid=1002, i=33, j=48, f=feblock
  0.500000000000E+01  0.375000000000E+01  0.250000000000E+01  0.288078410721E+01  0.125000000000E+01  0.190974100652E+01  0.326683758169E+01
  0.201431602454E+01  0.000000000000E+00  0.963108083381E+00  0.500000000000E+01  0.403552511878E+01  0.423153924130E+01  0.500000000000E+01
  0.385533350601E+01  0.500000000000E+01  0.398173246726E+01  0.315249557942E+01  0.267000324704E+01  0.154774304040E+01  0.218329375016E+01
  0.893127759452E+00  0.000000000000E+00  0.698517061619E+00  0.964171764089E+00  0.310324758057E+01  0.000000000000E+00  0.000000000000E+00
  0.125000000000E+01  0.500000000000E+01  0.375000000000E+01  0.250000000000E+01  0.000000000000E+00
 -0.250000000000E+01 -0.250000000000E+01 -0.250000000000E+01 -0.250000000000E+01 -0.250000000000E+01 -0.250000000000E+01 -0.250000000000E+01
 -0.250000000000E+01 -0.250000000000E+01 -0.250000000000E+01 -0.250000000000E+01 -0.250000000000E+01 -0.250000000000E+01 -0.250000000000E+01
 -0.250000000000E+01 -0.250000000000E+01 -0.250000000000E+01 -0.250000000000E+01 -0.250000000000E+01 -0.250000000000E+01 -0.250000000000E+01
 -0.250000000000E+01 -0.250000000000E+01 -0.250000000000E+01 -0.250000000000E+01 -0.250000000000E+01 -0.250000000000E+01 -0.250000000000E+01
 -0.250000000000E+01 -0.250000000000E+01 -0.250000000000E+01 -0.250000000000E+01 -0.250000000000E+01
  0.000000000000E+00  0.000000000000E+00  0.000000000000E+00  0.904659890645E+00  0.000000000000E+00  0.717002441913E+00  0.188609243358E+01
  0.176246431481E+01  0.000000000000E+00  0.961328577125E+00  0.125000000000E+01  0.101201586758E+01  0.191586535653E+01  0.250000000000E+01
  0.293121848150E+01  0.375000000000E+01  0.406975391361E+01  0.363585050272E+01  0.285047954584E+01  0.292817774674E+01  0.395907379566E+01
  0.205246550326E+01  0.125000000000E+01  0.306828197606E+01  0.397245519226E+01  0.433168271247E+01  0.250000000000E+01  0.375000000000E+01
  0.500000000000E+01  0.500000000000E+01  0.500000000000E+01  0.500000000000E+01  0.500000000000E+01
  0.000000000000E+00  0.000000000000E+00  0.000000000000E+00  0.380991906500E+00  0.000000000000E+00  0.343629824950E+00  0.585286157424E+00
  0.579373264282E+00  0.000000000000E+00  0.501056069140E+00  0.508460362676E+00  0.435373026572E+00  0.572640041190E+00  0.537002098944E+00
  0.568922553871E+00  0.514994090651E+00  0.508247257160E+00  0.527252853130E+00  0.567446661127E+00  0.531657143909E+00  0.505981016593E+00
  0.520795579399E+00  0.443624103833E+00  0.490663730453E+00  0.492155873749E+00  0.501390784676E+00  0.467732355362E+00  0.488212087362E+00
  0.490002767114E+00  0.491352304715E+00  0.486075475228E+00  0.490036479234E+00  0.495098264817E+00
  0.999993487379E+00  0.999993690057E+00  0.999993543115E+00  0.989539055875E+00  0.999993137282E+00  0.985524707174E+00  0.989838908967E+00
  0.991798516580E+00  0.999992721792E+00  0.984411112416E+00  0.985091906406E+00  0.984689080896E+00  0.990058464829E+00  0.100289621837E+01
  0.999855369243E+00  0.100485306649E+01  0.100121554699E+01  0.100055642931E+01  0.997896793475E+00  0.100350029570E+01  0.100058068723E+01
  0.101093276247E+01  0.104043292670E+01  0.100326475367E+01  0.100254498742E+01  0.100045587387E+01  0.100976788415E+01  0.100405369352E+01
  0.100192656835E+01  0.100045434508E+01  0.100058774183E+01  0.100109993754E+01  0.100176112495E+01
  0.892312777363E-04  0.774106759478E-06 -0.125486623293E-03 -0.218903896515E-02 -0.390847278239E-04 -0.544104301178E-03  0.295420143529E-04
 -0.475365109780E-03 -0.430309306664E-04 -0.708284126803E-03  0.871715842087E-04  0.188499504709E-03  0.469855298368E-04  0.351162562984E-04
  0.188872862248E-04  0.424539007723E-05  0.127119929504E-05  0.159770387698E-04  0.961690268419E-04  0.926463982122E-04  0.865380928959E-05
 -0.228381188401E-03 -0.524614705380E-03  0.434731800386E-04  0.147121271732E-04 -0.298740304309E-06 -0.296412437012E-04  0.620174636099E-04
 -0.879209509480E-04  0.381832860609E-05 -0.136206179686E-04 -0.561835311200E-04 -0.851330530620E-04
 -0.244813425680E-04  0.247394871158E-04  0.259584987154E-05 -0.233583284170E-03 -0.866994106214E-05  0.165446076657E-04  0.458606115775E-04
 -0.245655582048E-04 -0.321369022440E-05 -0.101754561394E-03 -0.223033528100E-04  0.499246170335E-04  0.112897637514E-04 -0.976434403811E-05
  0.715136296878E-05 -0.128581035532E-05  0.230561534042E-05  0.851791782788E-05  0.338335974157E-04  0.357173570627E-04  0.677963350619E-05
 -0.606471550053E-05 -0.721265515624E-04  0.176151524706E-04  0.661536780400E-05  0.459775477278E-05 -0.517901557201E-06  0.128151575368E-04
 -0.121348920015E-04  0.863642229729E-06  0.241495263880E-06 -0.498250885263E-05 -0.169626157009E-04
  0.916186594185E-05  0.406640107424E-06 -0.804516696541E-05 -0.210306791285E-04 -0.417610858795E-05  0.662280332484E-05  0.522358237841E-05
  0.609108523766E-06 -0.299915008173E-05 -0.338483557556E-05  0.447504230203E-05  0.190374434213E-04 -0.149406132906E-05  0.519385688395E-08
 -0.107294067259E-05  0.276831161905E-06 -0.171076454334E-06  0.264495037970E-06 -0.254878947799E-05 -0.126905803792E-05  0.918906986001E-07
 -0.240070389277E-05 -0.233033689447E-05  0.141646242859E-06 -0.930656218258E-07  0.143835135062E-06  0.963983826635E-07  0.282280850089E-06
  0.189844546543E-06  0.139509220589E-06  0.142397973665E-06 -0.938963110502E-07  0.583394033960E-06
  0.975561612038E-06  0.176442175047E-04  0.141266989693E-04 -0.260561158263E-05  0.237691607368E-05  0.757230212683E-04 -0.759879952503E-04
 -0.406991602099E-04  0.789566947533E-05  0.113975070476E-05 -0.291410117620E-04 -0.929171611693E-04 -0.273979975174E-04 -0.737212458744E-05
 -0.120875175710E-04 -0.204597562338E-05 -0.294524405570E-05 -0.477726837304E-05 -0.196067141158E-04 -0.144197299759E-04 -0.379491129045E-05
 -0.194586383289E-04 -0.400445149452E-05 -0.863865837265E-05 -0.191749166284E-05 -0.192296556530E-05 -0.110323260408E-04 -0.656085934645E-05
  0.223023850747E-05 -0.118620898875E-06  0.909224168210E-06  0.225884263909E-05  0.199255785288E-05
 -0.401854270243E-04 -0.159218653067E-03 -0.731528752818E-04  0.904940370560E-03  0.253948646511E-04  0.176207641046E-03 -0.248955672000E-04
  0.180742422991E-03  0.191335410751E-04  0.293738139418E-03 -0.182552316283E-04 -0.819448936277E-04 -0.188321792600E-04 -0.631465435575E-05
 -0.838769994627E-05 -0.779544482227E-06 -0.107996914741E-05 -0.868859926633E-05 -0.439353657264E-04 -0.433908452506E-04 -0.553193621512E-05
  0.858335120786E-04  0.209421345589E-03 -0.201677357924E-04 -0.764138918754E-05 -0.137943138893E-05  0.115922493344E-04 -0.268797475492E-04
  0.348576483789E-04 -0.156474305314E-05  0.468081682532E-05  0.213477362680E-04  0.348340481607E-04
        15         7        19        19
         8        20        19        19
        18        19        21        21
         7         4         8         8
         3         6         4         4
        19         7         8         8
        19        18        15        15
        14        13        15        15
         8        22        20        20
        27        24        22        22
        19        20        21        21
        32        26        21        21
        17        18        26        26
        17        16        15        15
        25        29        21        21
        12         7        13        13
        10         8         6         6
        25        20        24        24
         4         6         8         8
        12         2         4         4
        10        23        22        22
        26        31        17        17
        30        16        17        17
         4         7        12        12
        13        11        12        12
        21        20        25        25
        24        28        25        25
        22         8        10        10
         6         5        10        10
        31        26        32        32
         4         2         3         3
         5         6         3         3
        11        13        14        14
        22        23        27        27
        28        24        27        27
        15        13         7         7
         2        12         1         1
        29        25        33        33
        23        10         9         9
        21        26        18        18
        16        14        15        15
        18        17        15        15
        29        32        21        21
        22        24        20        20
        28        33        25        25
        11         1        12        12
        31        30        17        17
         5         9        10        10
zone t="boundary 3 bc-3", solutiontime= 0.1000000E+02, strandid=1003, i=33, j=48, f=feblock
  0.375000000000E+01  0.250000000000E+01  0.500000000000E+01  0.403552511878E+01  0.288078410721E+01  0.125000000000E+01  0.190974100652E+01
  0.500000000000E+01  0.326683758169E+01  0.423153924130E+01  0.201431602454E+01  0.000000000000E+00  0.963108083381E+00  0.500000000000E+01
  0.267000324704E+01  0.385533350601E+01  0.893127759452E+00  0.154774304040E+01  0.000000000000E+00  0.500000000000E+01  0.315249557942E+01
  0.218329375016E+01  0.398173246726E+01  0.000000000000E+00  0.698517061619E+00  0.964171764089E+00  0.125000000000E+01  0.000000000000E+00
  0.500000000000E+01  0.310324758057E+01  0.250000000000E+01  0.375000000000E+01  0.000000000000E+00
  0.250000000000E+01  0.250000000000E+01  0.250000000000E+01  0.250000000000E+01  0.250000000000E+01  0.250000000000E+01  0.250000000000E+01
  0.250000000000E+01  0.250000000000E+01  0.250000000000E+01  0.250000000000E+01  0.250000000000E+01  0.250000000000E+01  0.250000000000E+01
  0.250000000000E+01  0.250000000000E+01  0.250000000000E+01  0.250000000000E+01  0.250000000000E+01  0.250000000000E+01  0.250000000000E+01
  0.250000000000E+01  0.250000000000E+01  0.250000000000E+01  0.250000000000E+01  0.250000000000E+01  0.250000000000E+01  0.250000000000E+01
  0.250000000000E+01  0.250000000000E+01  0.250000000000E+01  0.250000000000E+01  0.250000000000E+01
  0.000000000000E+00  0.000000000000E+00  0.000000000000E+00  0.101201586758E+01  0.904659890645E+00  0.000000000000E+00  0.717002441913E+00
  0.125000000000E+01  0.188609243358E+01  0.191586535653E+01  0.176246431481E+01  0.000000000000E+00  0.961328577125E+00  0.250000000000E+01
  0.285047954584E+01  0.293121848150E+01  0.205246550326E+01  0.292817774674E+01  0.125000000000E+01  0.375000000000E+01  0.363585050272E+01
  0.395907379566E+01  0.406975391361E+01  0.250000000000E+01  0.306828197606E+01  0.397245519226E+01  0.500000000000E+01  0.375000000000E+01
  0.500000000000E+01  0.433168271247E+01  0.500000000000E+01  0.500000000000E+01  0.500000000000E+01
  0.000000000000E+00  0.000000000000E+00  0.000000000000E+00  0.443767745459E+00  0.402286944574E+00  0.000000000000E+00  0.377550369545E+00
  0.509232128688E+00  0.575832179754E+00  0.573707405285E+00  0.562554064412E+00  0.000000000000E+00  0.490563299840E+00  0.534527096543E+00
  0.556586982170E+00  0.564391577749E+00  0.522730517385E+00  0.522052000170E+00  0.441238348384E+00  0.517182331791E+00  0.524228630763E+00
  0.503687457534E+00  0.509488571178E+00  0.469814974359E+00  0.495614442414E+00  0.494483780212E+00  0.488562428343E+00  0.488961654628E+00
  0.492980744788E+00  0.499005552222E+00  0.486460936507E+00  0.484596927548E+00  0.495346592024E+00
  0.999989339439E+00  0.999989408764E+00  0.999989626853E+00  0.981541895460E+00  0.988773990194E+00  0.999989827144E+00  0.982469462434E+00
  0.984104309047E+00  0.990427545862E+00  0.990355285694E+00  0.994362997073E+00  0.999990295028E+00  0.988652071037E+00  0.100368369414E+01
  0.999769197113E+00  0.100118501219E+01  0.100834885320E+01  0.100252111043E+01  0.102982719499E+01  0.100443319461E+01  0.100199536635E+01
  0.100082056599E+01  0.100138192342E+01  0.100826277309E+01  0.100298787130E+01  0.100192389555E+01  0.100215267510E+01  0.100355660048E+01
  0.100047670023E+01  0.100056591053E+01  0.100126820231E+01  0.100066573360E+01  0.100179336279E+01
 -0.387182560212E-04  0.687092024289E-04 -0.612232467586E-04  0.800664738915E-03  0.298403348390E-02  0.240187624122E-03  0.423775767281E-02
 -0.220019764848E-03 -0.957130722695E-04 -0.993467492134E-04  0.673925467673E-03  0.333325356382E-03  0.284297197589E-02 -0.638689077669E-04
 -0.145850475400E-03 -0.353010972131E-04  0.430262007082E-03 -0.180855097415E-03  0.182314496543E-02 -0.329859892995E-04 -0.697056523462E-05
 -0.469349220027E-04 -0.215683542697E-04  0.155840986586E-03 -0.158666624451E-03 -0.121403101478E-03 -0.141771299499E-03 -0.291521379010E-03
 -0.244440886084E-04 -0.286137363598E-04 -0.170397682988E-03 -0.105437140389E-03 -0.217547720352E-03
 -0.125884894565E-04  0.190412113136E-05  0.181953753116E-04  0.210333400824E-03  0.482887929708E-03 -0.466261318772E-04  0.677240782185E-03
  0.296780070739E-04 -0.264537266219E-04  0.814654222444E-05  0.526805794105E-04  0.241788022739E-04  0.310686565347E-03  0.162855084877E-04
 -0.252241480670E-04  0.346498857600E-05  0.268842014679E-04 -0.322051982701E-04  0.288900296237E-03  0.726919831968E-05  0.335611641542E-05
  0.131702040371E-05  0.406297965427E-05  0.207946915260E-04 -0.415679818530E-04 -0.979598253788E-05 -0.231709834638E-04 -0.594289962059E-04
  0.176778199046E-05  0.536736711993E-06 -0.299991179367E-04 -0.124709562055E-04 -0.389936110839E-04
 -0.592068959256E-05  0.301714165729E-05 -0.202494700026E-06 -0.293716377431E-04 -0.696449099919E-04  0.241847668273E-04 -0.282743002347E-04
 -0.114460982798E-05 -0.345614141469E-05 -0.247963722024E-07 -0.420046026716E-05  0.359178715139E-04  0.190767020830E-04  0.883425233286E-06
 -0.108984570713E-05 -0.520350292060E-06 -0.113734420464E-04 -0.288138284040E-05  0.658491144763E-05  0.528864058307E-06  0.114018486529E-05
  0.107666455780E-05 -0.164123992320E-06 -0.256572298433E-06 -0.115372696382E-05  0.510369228398E-06  0.930194640927E-06  0.660701187137E-06
  0.190981074033E-06 -0.870054082313E-07  0.895513583095E-07 -0.108551478494E-07  0.763229499627E-06
 -0.261294374591E-04 -0.557267381032E-04 -0.270401040495E-05  0.231050936578E-04  0.414414763402E-04 -0.494801327911E-04  0.191971395811E-04
  0.179858002193E-04  0.754758647301E-04  0.305117405921E-04  0.127451081338E-03 -0.628748499570E-04  0.563982646573E-04  0.959289684475E-05
  0.153433351525E-04  0.186414635066E-04  0.102870415668E-03  0.170645498465E-04 -0.778340998590E-04  0.557870042629E-05  0.146265108839E-04
  0.889502521242E-05  0.921476552699E-05  0.471529967599E-04  0.435474410165E-04  0.134560354748E-04  0.484646168924E-05  0.315154788297E-04
  0.294582995691E-05  0.104773663323E-04  0.690008482885E-05  0.647484200439E-05  0.228852494311E-05
  0.333046162793E-03  0.275779607883E-03  0.508164563563E-04 -0.385870376963E-03 -0.129375088531E-02  0.436238783026E-04 -0.182382722354E-02
  0.609666388405E-04  0.439028144837E-04  0.291362896149E-04 -0.254631463159E-03 -0.245162180986E-03 -0.113502337139E-02  0.120574777876E-04
  0.580106753191E-04  0.813383080015E-05 -0.165232365017E-03  0.724360055621E-04 -0.745037694787E-03  0.686481505211E-05 -0.375264793827E-06
  0.153919731963E-04  0.443917504028E-05 -0.614714705297E-04  0.630152081645E-04  0.461029335194E-04  0.566990359647E-04  0.120745112829E-03
  0.710713442152E-05  0.824209918376E-05  0.682467156426E-04  0.402155919989E-04  0.899523305461E-04
        15         9        16        16
        15        18        11        11
        22        15        21        21
        11         5         9         9
         5         7         2         2
        11         9        15        15
        16        21        15        15
        16        10        14        14
        18        17        11        11
        17        25        24        24
        22        18        15        15
        22        30        31        31
        30        21        23        23
        16        20        23        23
        22        27        26        26
        10         9         4         4
         7        11        13        13
        25        18        26        26
        11         7         5         5
         5         1         4         4
        17        19        13        13
        23        32        30        30
        23        20        29        29
         4         9         5         5
         4         8        10        10
        26        18        22        22
        26        28        25        25
        13        11        17        17
        13         6         7         7
        31        30        32        32
         2         1         5         5
         2         7         6         6
        14        10         8         8
        24        19        17        17
        24        25        28        28
         9        10        16        16
         3         4         1         1
        33        26        27        27
        12        13        19        19
        21        30        22        22
        16        14        20        20
        16        23        21        21
        22        31        27        27
        18        25        17        17
        26        33        28        28
         4         3         8         8
        23        29        32        32
        13        12         6         6
zone t="boundary 4 bc-4", solutiontime= 0.1000000E+02, strandid=1004, i=32, j=46, f=feblock
  0.125000000000E+01  0.219251206392E+01  0.103724302461E+01  0.500000000000E+01  0.250000000000E+01  0.375000000000E+01  0.404200324774E+01
  0.500000000000E+01  0.000000000000E+00  0.310152362409E+01  0.202479342020E+01  0.324151231464E+01  0.922061490191E+00  0.000000000000E+00
  0.299062775774E+01  0.394624082883E+01  0.500000000000E+01  0.409252726285E+01  0.500000000000E+01  0.429310310915E+01  0.175434191980E+01
  0.284428995242E+01  0.000000000000E+00  0.000000000000E+00  0.715990576545E+00  0.930412228790E+00  0.125000000000E+01  0.187029682677E+01
  0.500000000000E+01  0.375000000000E+01  0.250000000000E+01  0.000000000000E+00
  0.250000000000E+01  0.157686156160E+01  0.146289271009E+01  0.250000000000E+01  0.250000000000E+01  0.250000000000E+01  0.155830813274E+01
  0.125000000000E+01  0.250000000000E+01  0.177790177481E+01  0.477386199275E+00  0.742988685424E+00  0.308372018325E+00  0.125000000000E+01
 -0.487811078581E+00 -0.144524380962E+01 -0.125000000000E+01 -0.345533899378E+00  0.000000000000E+00  0.627766083140E+00 -0.739814786992E+00
 -0.158811787973E+01  0.000000000000E+00 -0.125000000000E+01 -0.600232012419E+00 -0.154800130438E+01 -0.250000000000E+01 -0.178862290564E+01
 -0.250000000000E+01 -0.250000000000E+01 -0.250000000000E+01 -0.250000000000E+01
  0.500000000000E+01  0.500000000000E+01  0.500000000000E+01  0.500000000000E+01  0.500000000000E+01  0.500000000000E+01  0.500000000000E+01
  0.500000000000E+01  0.500000000000E+01  0.500000000000E+01  0.500000000000E+01  0.500000000000E+01  0.500000000000E+01  0.500000000000E+01
  0.500000000000E+01  0.500000000000E+01  0.500000000000E+01  0.500000000000E+01  0.500000000000E+01  0.500000000000E+01  0.500000000000E+01
  0.500000000000E+01  0.500000000000E+01  0.500000000000E+01  0.500000000000E+01  0.500000000000E+01  0.500000000000E+01  0.500000000000E+01
  0.500000000000E+01  0.500000000000E+01  0.500000000000E+01  0.500000000000E+01
  0.488562428343E+00  0.488873127044E+00  0.490562939264E+00  0.492980744788E+00  0.486460936507E+00  0.484596927548E+00  0.485347896276E+00
  0.494163542317E+00  0.495346592024E+00  0.486528232758E+00  0.487819998460E+00  0.487068916091E+00  0.494045904395E+00  0.496127394917E+00
  0.487612357629E+00  0.483219722850E+00  0.492395510969E+00  0.487214141159E+00  0.494738985333E+00  0.487958525499E+00  0.489677249447E+00
  0.488029107105E+00  0.497246279768E+00  0.496059270892E+00  0.494951052257E+00  0.492800373677E+00  0.490002767114E+00  0.490005124553E+00
  0.491352304715E+00  0.486075475228E+00  0.490036479234E+00  0.495098264817E+00
  0.100215267510E+01  0.100152652958E+01  0.100178347660E+01  0.100047670023E+01  0.100126820231E+01  0.100066573360E+01  0.100025357725E+01
  0.100050391679E+01  0.100179336279E+01  0.100112367258E+01  0.100133045248E+01  0.100072432973E+01  0.100164366725E+01  0.100168844809E+01
  0.100096274503E+01  0.100000874853E+01  0.100082864314E+01  0.100022269190E+01  0.100062146074E+01  0.100023497311E+01  0.100174635719E+01
  0.100098855496E+01  0.100118726928E+01  0.100134171022E+01  0.100132635956E+01  0.100179873777E+01  0.100192656835E+01  0.100163748619E+01
  0.100045434508E+01  0.100058774183E+01  0.100109993754E+01  0.100176112495E+01
 -0.141771299499E-03 -0.144611094935E-03 -0.122000604706E-03 -0.244440886084E-04 -0.170397682988E-03 -0.105437140389E-03 -0.672317049733E-04
 -0.229177922989E-04 -0.217547720352E-03 -0.144533888834E-03 -0.125642026882E-03 -0.968868173394E-04 -0.131176828749E-03 -0.211482451757E-03
 -0.698046494546E-04 -0.143922558231E-04 -0.321058425395E-05 -0.370184542526E-04 -0.119120145052E-04 -0.606071063515E-04 -0.108951036253E-03
 -0.434471481330E-04 -0.163933443274E-03 -0.996682662885E-04 -0.139661732204E-03 -0.102333752467E-03 -0.879209509480E-04 -0.812489892233E-04
  0.381832860609E-05 -0.136206179686E-04 -0.561835311200E-04 -0.851330530620E-04