# vtk DataFile Version 2.0
FUN3D:global_image_vtk
ASCII
DATASET UNSTRUCTURED_GRID
POINTS 213 double
    0.0000000000000000E+00    0.2500000000000000E+01    0.0000000000000000E+00
    0.1250000000000000E+01    0.2500000000000000E+01    0.0000000000000000E+00
    0.2500000000000000E+01    0.2500000000000000E+01    0.0000000000000000E+00
    0.3750000000000000E+01    0.2500000000000000E+01    0.0000000000000000E+00
    0.5000000000000000E+01    0.2500000000000000E+01    0.0000000000000000E+00
    0.5000000000000000E+01    0.1250000000000000E+01    0.0000000000000000E+00
    0.5000000000000000E+01    0.0000000000000000E+00    0.0000000000000000E+00
    0.5000000000000000E+01   -0.1250000000000000E+01    0.0000000000000000E+00
    0.5000000000000000E+01   -0.2500000000000000E+01    0.0000000000000000E+00
    0.3750000000000000E+01   -0.2500000000000000E+01    0.0000000000000000E+00
    0.2500000000000000E+01   -0.2500000000000000E+01    0.0000000000000000E+00
    0.1250000000000000E+01   -0.2500000000000000E+01    0.0000000000000000E+00
    0.0000000000000000E+00   -0.2500000000000000E+01    0.0000000000000000E+00
    0.0000000000000000E+00   -0.1250000000000000E+01    0.0000000000000000E+00
    0.0000000000000000E+00    0.0000000000000000E+00    0.0000000000000000E+00
    0.0000000000000000E+00    0.1250000000000000E+01    0.0000000000000000E+00
    0.9058375365086910E+00    0.1578994732800803E+01    0.0000000000000000E+00
    0.3982050490726493E+01   -0.1583989954232354E+01    0.0000000000000000E+00
    0.4033849428301197E+01    0.1453322699199022E+01    0.0000000000000000E+00
    0.1040505887381675E+01   -0.1479596339503735E+01    0.0000000000000000E+00
    0.1099454400140349E+01   -0.3227322616384110E+00    0.0000000000000000E+00
    0.7354504170366591E+00    0.6593508822075582E+00    0.0000000000000000E+00
    0.1622302608453282E+01    0.8256214013940779E+00    0.0000000000000000E+00
    0.2145871574390382E+01   -0.1650070333782557E+01    0.0000000000000000E+00
    0.4086422318222992E+01   -0.4612828702537229E+00    0.0000000000000000E+00
    0.2979540174134984E+01   -0.8579242121530853E+00    0.0000000000000000E+00
    0.3045064261640043E+01   -0.1836846154397680E+01    0.0000000000000000E+00
    0.3428197553792836E+01    0.3508002863614053E+00    0.0000000000000000E+00
    0.4309693860063405E+01    0.5185680230613409E+00    0.0000000000000000E+00
    0.1827272193562204E+01    0.1738996113203182E+01    0.0000000000000000E+00
    0.2808563282768077E+01    0.1325493893339706E+01    0.0000000000000000E+00
    0.1895995683864404E+01   -0.8731419609589618E+00    0.0000000000000000E+00
    0.2273179336307740E+01    0.4906150219227333E-01    0.0000000000000000E+00
    0.5000000000000000E+01    0.2500000000000000E+01    0.1250000000000000E+01
    0.5000000000000000E+01    0.2500000000000000E+01    0.2500000000000000E+01
    0.5000000000000000E+01    0.2500000000000000E+01    0.3750000000000000E+01
    0.5000000000000000E+01    0.2500000000000000E+01    0.5000000000000000E+01
    0.3750000000000000E+01    0.2500000000000000E+01    0.5000000000000000E+01
    0.2500000000000000E+01    0.2500000000000000E+01    0.5000000000000000E+01
    0.1250000000000000E+01    0.2500000000000000E+01    0.5000000000000000E+01
    0.0000000000000000E+00    0.2500000000000000E+01    0.5000000000000000E+01
    0.0000000000000000E+00    0.2500000000000000E+01    0.3750000000000000E+01
    0.0000000000000000E+00    0.2500000000000000E+01    0.2500000000000000E+01
    0.0000000000000000E+00    0.2500000000000000E+01    0.1250000000000000E+01
    0.9631080833812172E+00    0.2500000000000000E+01    0.9613285771248219E+00
    0.3981732467264904E+01    0.2500000000000000E+01    0.4069753913607991E+01
    0.4035525118777670E+01    0.2500000000000000E+01    0.1012015867579395E+01
    0.9641717640894248E+00    0.2500000000000000E+01    0.3972455192261839E+01
    0.1547743040396780E+01    0.2500000000000000E+01    0.2928177746738678E+01
    0.6985170616192014E+00    0.2500000000000000E+01    0.3068281976055466E+01
    0.8931277594515110E+00    0.2500000000000000E+01    0.2052465503257726E+01
    0.2183293750162785E+01    0.2500000000000000E+01    0.3959073795658649E+01
    0.3855333506014705E+01    0.2500000000000000E+01    0.2931218481500625E+01
    0.3152495579421047E+01    0.2500000000000000E+01    0.3635850502723324E+01
    0.3103247580566054E+01    0.2500000000000000E+01    0.4331682712472464E+01
    0.3266837581688852E+01    0.2500000000000000E+01    0.1886092433583972E+01
    0.4231539241296245E+01    0.2500000000000000E+01    0.1915865356532799E+01
    0.1909741006522088E+01    0.2500000000000000E+01    0.7170024419130505E+00
    0.2880784107213163E+01    0.2500000000000000E+01    0.9046598906449592E+00
    0.2014316024535771E+01    0.2500000000000000E+01    0.1762464314805728E+01
    0.2670003247036656E+01    0.2500000000000000E+01    0.2850479545835163E+01
    0.5000000000000000E+01    0.1250000000000000E+01    0.5000000000000000E+01
    0.5000000000000000E+01    0.0000000000000000E+00    0.5000000000000000E+01
    0.5000000000000000E+01   -0.1250000000000000E+01    0.5000000000000000E+01
    0.5000000000000000E+01   -0.2500000000000000E+01    0.5000000000000000E+01
    0.5000000000000000E+01   -0.2500000000000000E+01    0.3750000000000000E+01
    0.5000000000000000E+01   -0.2500000000000000E+01    0.2500000000000000E+01
    0.5000000000000000E+01   -0.2500000000000000E+01    0.1250000000000000E+01
    0.5000000000000000E+01    0.1578994732800803E+01    0.9058375365086910E+00
    0.5000000000000000E+01   -0.1583989954232354E+01    0.3982050490726493E+01
    0.5000000000000000E+01    0.1453322699199022E+01    0.4033849428301197E+01
    0.5000000000000000E+01   -0.1479596339503735E+01    0.1040505887381675E+01
    0.5000000000000000E+01   -0.3227322616384110E+00    0.1099454400140349E+01
    0.5000000000000000E+01    0.6593508822075582E+00    0.7354504170366591E+00
    0.5000000000000000E+01    0.8256214013940779E+00    0.1622302608453282E+01
    0.5000000000000000E+01   -0.1650070333782557E+01    0.2145871574390382E+01
    0.5000000000000000E+01   -0.4612828702537229E+00    0.4086422318222992E+01
    0.5000000000000000E+01   -0.8579242121530853E+00    0.2979540174134984E+01
    0.5000000000000000E+01   -0.1836846154397680E+01    0.3045064261640043E+01
    0.5000000000000000E+01    0.3508002863614053E+00    0.3428197553792836E+01
    0.5000000000000000E+01    0.5185680230613409E+00    0.4309693860063405E+01
    0.5000000000000000E+01    0.1738996113203182E+01    0.1827272193562204E+01
    0.5000000000000000E+01    0.1325493893339706E+01    0.2808563282768077E+01
    0.5000000000000000E+01   -0.8731419609589618E+00    0.1895995683864404E+01
    0.5000000000000000E+01    0.4906150219227333E-01    0.2273179336307740E+01
    0.0000000000000000E+00    0.1250000000000000E+01    0.5000000000000000E+01
    0.0000000000000000E+00    0.0000000000000000E+00    0.5000000000000000E+01
    0.0000000000000000E+00   -0.1250000000000000E+01    0.5000000000000000E+01
    0.0000000000000000E+00   -0.2500000000000000E+01    0.5000000000000000E+01
    0.1250000000000000E+01   -0.2500000000000000E+01    0.5000000000000000E+01
    0.2500000000000000E+01   -0.2500000000000000E+01    0.5000000000000000E+01
    0.3750000000000000E+01   -0.2500000000000000E+01    0.5000000000000000E+01
    0.4042003247744892E+01    0.1558308132739014E+01    0.5000000000000000E+01
    0.9304122287900499E+00   -0.1548001304379777E+01    0.5000000000000000E+01
    0.1037243024609388E+01    0.1462892710085612E+01    0.5000000000000000E+01
    0.3946240828834967E+01   -0.1445243809615570E+01    0.5000000000000000E+01
    0.4092527262848217E+01   -0.3455338993778935E+00    0.5000000000000000E+01
    0.4293103109154542E+01    0.6277660831404320E+00    0.5000000000000000E+01
    0.3241512314643519E+01    0.7429886854239611E+00    0.5000000000000000E+01
    0.2844289952419609E+01   -0.1588117879734118E+01    0.5000000000000000E+01
    0.7159905765450471E+00   -0.6002320124191652E+00    0.5000000000000000E+01
    0.1754341919796891E+01   -0.7398147869923652E+00    0.5000000000000000E+01
    0.1870296826774691E+01   -0.1788622905643739E+01    0.5000000000000000E+01
    0.9220614901912976E+00    0.3083720183248586E+00    0.5000000000000000E+01
    0.3101523624086016E+01    0.1777901774806180E+01    0.5000000000000000E+01
    0.2192512063922564E+01    0.1576861561598471E+01    0.5000000000000000E+01
    0.2024793420196460E+01    0.4773861992750707E+00    0.5000000000000000E+01
    0.2990627757741975E+01   -0.4878110785814084E+00    0.5000000000000000E+01
    0.0000000000000000E+00   -0.2500000000000000E+01    0.1250000000000000E+01
    0.0000000000000000E+00   -0.2500000000000000E+01    0.2500000000000000E+01
    0.0000000000000000E+00   -0.2500000000000000E+01    0.3750000000000000E+01
    0.0000000000000000E+00    0.1558308132739014E+01    0.4042003247744892E+01
    0.0000000000000000E+00   -0.1548001304379777E+01    0.9304122287900499E+00
    0.0000000000000000E+00    0.1462892710085612E+01    0.1037243024609388E+01
    0.0000000000000000E+00   -0.1445243809615570E+01    0.3946240828834967E+01
    0.0000000000000000E+00   -0.3455338993778935E+00    0.4092527262848217E+01
    0.0000000000000000E+00    0.6277660831404320E+00    0.4293103109154542E+01
    0.0000000000000000E+00    0.7429886854239611E+00    0.3241512314643519E+01
    0.0000000000000000E+00   -0.1588117879734118E+01    0.2844289952419609E+01
    0.0000000000000000E+00   -0.6002320124191652E+00    0.7159905765450471E+00
    0.0000000000000000E+00   -0.7398147869923652E+00    0.1754341919796891E+01
    0.0000000000000000E+00   -0.1788622905643739E+01    0.1870296826774691E+01
    0.0000000000000000E+00    0.3083720183248586E+00    0.9220614901912976E+00
    0.0000000000000000E+00    0.1777901774806180E+01    0.3101523624086016E+01
    0.0000000000000000E+00    0.1576861561598471E+01    0.2192512063922564E+01
[...]
POINT_DATA 213
SCALARS p double 1
LOOKUP_TABLE default
   0.9601845740242968E+00
   0.6835472545549689E+00
   0.6759188554620923E+00
   0.6727508793739657E+00
   0.6026583842149583E+00
   0.5527092224082976E+00
   0.5449824281754859E+00
   0.5474659210496561E+00
   0.5934157100107993E+00
   0.6680652534599693E+00
   0.6672971071696970E+00
   0.6869378061643897E+00
   0.1035319215967289E+01
   0.1067199245062662E+01
   0.1174752257522799E+01
   0.1018442051355048E+01
   0.7207176559282005E+00
   0.6791962902771663E+00
   0.6740293101422620E+00
   0.6843920963180609E+00
   0.6725552701194127E+00
   0.7402627338528566E+00
   0.6611481362466350E+00
   0.6658775743608781E+00
   0.6812431870867804E+00
   0.6799071409947731E+00
   0.6677515832890923E+00
   0.6831383896473666E+00
   0.6697150748044692E+00
   0.6643261876019395E+00
   0.6746471020967956E+00
   0.6331027444236647E+00
   0.6731069512870075E+00
   0.6772748606162809E+00
   0.7228666462644201E+00
   0.7222845323625420E+00
   0.7160301817059149E+00
   0.7170624703820881E+00
   0.7181467832706864E+00
   0.7195660953908901E+00
   0.7186152939441579E+00
   0.7227816709939465E+00
   0.7373952390463557E+00
   0.7823405623731305E+00
   0.7197263589587880E+00
   0.7165465362442605E+00
   0.6760937654451556E+00
   0.7194412641922078E+00
   0.7166029227603528E+00
   0.7226829109729213E+00
   0.7260674140055221E+00
   0.7165516437826503E+00
   0.7137009467301535E+00
   0.7161286369456769E+00
   0.7158478221790529E+00
   0.6952018279016887E+00
   0.6962508660105821E+00
   0.6900664825702376E+00
   0.6913089214758144E+00
   0.7033440686571270E+00
   0.7094477591260856E+00
   0.7160833444428983E+00
   0.7162551806526155E+00
   0.7165048971080752E+00
   0.7158927992232395E+00
   0.7247708298256355E+00
   0.7209599624940032E+00
   0.6725916907411352E+00
   0.6451086117578644E+00
   0.7221025485950582E+00
   0.7196942788984767E+00
   0.6358201233144765E+00
   0.6307823994932487E+00
   0.5995171497159724E+00
   0.6915342868693759E+00
   0.7155282297281097E+00
   0.7212040273143437E+00
   0.7290141687002690E+00
   0.7268955521749924E+00
   0.7265266119781936E+00
   0.7204471071515827E+00
   0.7037444564122911E+00
   0.7205074720199914E+00
   0.7023658444745816E+00
   0.7220890692797334E+00
   0.7185311616916562E+00
   0.7171993831116806E+00
   0.7176368709133968E+00
   0.7184006346828108E+00
   0.7193129381151595E+00
   0.7173679395336304E+00
   0.7166089050647669E+00
   0.7163146175236447E+00
   0.7184763665597865E+00
   0.7186510913637337E+00
   0.7154647738099590E+00
   0.7160687958189674E+00
   0.7162707474315869E+00
   0.7172831169120208E+00
   0.7174032352306009E+00
   0.7175449119531961E+00
   0.7186985330957402E+00
   0.7185411569143713E+00
   0.7180782373251592E+00
   0.7177506857918411E+00
   0.7184734753633867E+00
   0.7184295820755339E+00
   0.7175640062876482E+00
   0.7910432358139529E+00
   0.7417997376126978E+00
   0.7240565801837063E+00
   0.7207850483195356E+00
   0.8583171414263466E+00
   0.8087266582475033E+00
   0.7221079498931972E+00
   0.7211515872043764E+00
   0.7210134488484207E+00
   0.7257592115280550E+00
   0.7326284036607806E+00
   0.9166201479000701E+00
   0.7574552511230231E+00
   0.7600187866206131E+00
   0.8794464998696095E+00
   0.7291883438038489E+00
   0.7461258923399064E+00
   0.7435539730040814E+00
   0.7280650735038240E+00
   0.7236946763045446E+00
   0.7165805629880765E+00
   0.6757027343806864E+00
   0.7210107214274361E+00
   0.7177372390181115E+00
   0.7243728499640720E+00
   0.7309376750510245E+00
   0.7153766025235123E+00
   0.7126912818714480E+00
   0.7132989920996003E+00
   0.7154575407853414E+00
   0.6958116454764058E+00
   0.6940931889033154E+00
   0.6792013357825887E+00
   0.6842575724936174E+00
   0.7023438531949954E+00
   0.7064295576215475E+00
   0.7092517272500942E+00
   0.7176150519701986E+00
   0.7173907507179929E+00
   0.7117195298811411E+00
   0.7288325394551393E+00
   0.7352320755135129E+00
   0.7097528667165667E+00
   0.7230454856250470E+00
   0.7189791260722042E+00
   0.7231643012768884E+00
   0.7128301571205701E+00
   0.6918504427565438E+00
   0.7175392719219497E+00
   0.7113154407356357E+00
   0.6973279122825289E+00
   0.7095405084388510E+00
   0.7134566864279500E+00
   0.7078903640366534E+00
   0.7159200129383709E+00
   0.7175571221473848E+00
   0.7166975364325718E+00
   0.7110658755090403E+00
   0.7103507995000856E+00
   0.7187207608836056E+00
   0.7362200277985246E+00
   0.7210421340822684E+00
   0.6966939456336910E+00
   0.7191727736895618E+00
   0.7279738955353879E+00
   0.6957914052748897E+00
   0.6741416330502567E+00
   0.7020822668504348E+00
   0.7006029871232088E+00
   0.6996546969650103E+00
   0.7043407158199239E+00
   0.6875489169299679E+00
   0.7541446164822900E+00
   0.7257239737785647E+00
   0.7163731270744630E+00
   0.7164942518077558E+00
   0.7072984461485899E+00
   0.7062390211666564E+00
   0.6798335014375984E+00
   0.7081025609906579E+00
   0.7211943107175091E+00
   0.7177390645439442E+00
   0.7069476660856913E+00
   0.6847284195752594E+00
   0.6585994500473794E+00
   0.6907374311116147E+00
   0.6956029693809364E+00
   0.6931211809600619E+00
   0.6873769268034452E+00
   0.6731746130705089E+00
   0.6669554868609858E+00
   0.6793677409763844E+00
   0.7172154570556127E+00
   0.7168066289261391E+00
   0.7154500209758142E+00
   0.7175318002721685E+00
   0.6789124216252620E+00
   0.6691426204019633E+00
   0.6790155449042431E+00
   0.7156263625239628E+00
   0.7152942599644254E+00
   0.7168559605118542E+00
   0.6951126136580890E+00
   0.6910823188904053E+00
   0.6838695901293894E+00
SCALARS mach double 1
LOOKUP_TABLE default
   0.0000000000000000E+00
   0.0000000000000000E+00
   0.0000000000000000E+00
   0.0000000000000000E+00
   0.0000000000000000E+00
   0.0000000000000000E+00
   0.0000000000000000E+00
   0.0000000000000000E+00
   0.0000000000000000E+00
   0.0000000000000000E+00
   0.0000000000000000E+00
   0.0000000000000000E+00
   0.0000000000000000E+00
   0.0000000000000000E+00
   0.0000000000000000E+00
   0.0000000000000000E+00
   0.0000000000000000E+00
   0.0000000000000000E+00
   0.0000000000000000E+00
   0.0000000000000000E+00
   0.0000000000000000E+00
   0.0000000000000000E+00
   0.0000000000000000E+00
   0.0000000000000000E+00
   0.0000000000000000E+00
   0.0000000000000000E+00
   0.0000000000000000E+00
   0.0000000000000000E+00
   0.0000000000000000E+00
   0.0000000000000000E+00
   0.0000000000000000E+00
   0.0000000000000000E+00
   0.0000000000000000E+00
   0.5092321286882379E+00
   0.5345270965428686E+00
   0.5171823317910108E+00
   0.4929807447877023E+00
   0.4845969275475657E+00
   0.4864609365068381E+00
   0.4885624283426459E+00
   0.4953465920244716E+00
   0.4889616546284190E+00
   0.4698149743589450E+00
   0.4412383483839608E+00
   0.4905632998403552E+00
   0.5094885711783389E+00
   0.4437677454590779E+00
   0.4944837802123350E+00
   0.5220520001695298E+00
   0.4956144424140241E+00
   0.5227305173848372E+00
   0.5036874575340846E+00
   0.5643915777492744E+00
   0.5242286307631813E+00
   0.4990055522222012E+00
   0.5758321797542909E+00
   0.5737074052850146E+00
   0.3775503695450438E+00
   0.4022869445744081E+00
   0.5625540644123835E+00
   0.5565869821701174E+00
   0.4941635423173961E+00
   0.4947389853327491E+00
   0.4923955109685266E+00
   0.4913523047146093E+00
   0.5149940906510060E+00
   0.5370020989444526E+00
   0.5084603626756783E+00
   0.4720987497508566E+00
   0.5119110004439292E+00
   0.5110367654699173E+00
   0.4956047896359246E+00
   0.5103561974845775E+00
   0.4808056292974685E+00
   0.5354790213868434E+00
   0.5337784729895219E+00
   0.5120041820967484E+00
   0.5311733880874840E+00
   0.5295542088127095E+00
   0.5292773790035645E+00
   0.5056211277685304E+00
   0.5358292845436755E+00
   0.5407860454911977E+00
   0.5429798208267050E+00
   0.5391875778798583E+00
   0.4961273949168941E+00
   0.4972462797680679E+00
   0.4960592708923238E+00
   0.4950982648172472E+00
   0.4900027671137507E+00
   0.4900364792339901E+00
   0.4860754752275608E+00
   0.4853478962756870E+00
   0.4928003736773012E+00
   0.4905629392636374E+00
   0.4832197228497446E+00
   0.4872141411591315E+00
   0.4879585254990591E+00
   0.4870689160914500E+00
   0.4880291071053274E+00
   0.4949510522567076E+00
   0.4896772494467647E+00
   0.4900051245530805E+00
   0.4940459043954833E+00
   0.4865282327582455E+00
   0.4888731270442540E+00
   0.4878199984598602E+00
   0.4876123576287891E+00
   0.4436241038325106E+00
   0.4677323553618959E+00
   0.4882120873616306E+00
   0.4879300731180235E+00
   0.4647757214141848E+00
   0.4752149870209030E+00
   0.4869644619573436E+00
   0.4862860839017940E+00
   0.4902661034461337E+00
   0.4787140341842359E+00
   0.4643822746341331E+00
   0.4023025167976114E+00
   0.4892982416505284E+00
   0.4457176180510609E+00
   0.4688278154046668E+00
   0.4830685578878482E+00
   0.4601237088558931E+00
   0.4644111289415808E+00
   0.4737956518906962E+00
   0.5010560691401189E+00
   0.5082472571596082E+00
   0.4353730265724011E+00
   0.4921558737488883E+00
   0.5316571439089072E+00
   0.4906637304530634E+00
   0.5207955793988523E+00
   0.5059810165926770E+00
   0.5689225538705011E+00
   0.5272528531301347E+00
   0.5013907846756157E+00
   0.5852861574241074E+00
   0.5726400411898843E+00
   0.3436298249495283E+00
   0.3809919065000203E+00
   0.5793732642824618E+00
   0.5674466611269101E+00
   0.5707661301875802E+00
   0.5288674105865154E+00
   0.5447474708199086E+00
   0.5732738932134732E+00
   0.5383806742352751E+00
   0.5542561224411965E+00
   0.5870628107921071E+00
   0.4918959448320269E+00
   0.5038453890705668E+00
   0.4955067982845021E+00
   0.5581662346260586E+00
   0.4899056023112428E+00
   0.4947399858114707E+00
   0.5497811572678015E+00
   0.5912734681445150E+00
   0.5845151569140385E+00
   0.5465424483995982E+00
   0.5815226327963641E+00
   0.5103943166660156E+00
   0.5026513620293335E+00
   0.5030709427743111E+00
   0.5675226582922591E+00
   0.5563190488095495E+00
   0.4944364432531738E+00
   0.5523477306645915E+00
   0.5528919112373016E+00
   0.5690573841044615E+00
   0.4915644805559380E+00
   0.4913820764975771E+00
   0.3894733665634273E+00
   0.3711849878507572E+00
   0.5592900888969404E+00
   0.5784861273160489E+00
   0.4227809176929664E+00
   0.5854895193072512E+00
   0.4393478858449913E+00
   0.5443824414565381E+00
   0.5169049097856316E+00
   0.5115815953673866E+00
   0.5046277146447655E+00
   0.5758026301608528E+00
   0.5884501301008049E+00
   0.5427333905795315E+00
   0.5687409195432057E+00
   0.5341714863617290E+00
   0.5330406137193945E+00
   0.5585868075466147E+00
   0.5562747472404301E+00
   0.4330679888818518E+00
   0.5315658203819721E+00
   0.5812986078241777E+00
   0.3318904260716066E+00
   0.4786019948049021E+00
   0.5494651718965213E+00
   0.4851065755308527E+00
   0.3009035383570773E+00
   0.5029782577802354E+00
   0.5014720025596258E+00
   0.5126186510692335E+00
   0.5407121394677463E+00
   0.3456737236944785E+00
   0.3422982186265138E+00
   0.3204829445609313E+00
   0.5064074943953224E+00
   0.5121142797206770E+00
   0.5323885968804020E+00
   0.5909251026950711E+00
   0.4690182245389186E+00
   0.3541839068089697E+00
SCALARS temperature double 1
LOOKUP_TABLE default
   0.9999902950284469E+00
   0.9999898271435359E+00
   0.9999894087637140E+00
   0.9999893394392482E+00
   0.9999896268534557E+00
   0.9999902801417727E+00
   0.9999914900878947E+00
   0.9999928209134541E+00
   0.9999934873786556E+00
   0.9999936900573989E+00
   0.9999935431152185E+00
   0.9999931372824731E+00
   0.9999927217915946E+00
   0.9999921680956654E+00
   0.9999914167002263E+00
   0.9999907579027268E+00
   0.9999903697584197E+00
   0.9999933954805893E+00
   0.9999895978573278E+00
   0.9999925183348181E+00
   0.9999916437866545E+00
   0.9999909171541055E+00
   0.9999905799388659E+00
   0.9999931528570587E+00
   0.9999921404299008E+00
   0.9999926888376077E+00
   0.9999934788854810E+00
   0.9999904888573080E+00
   0.9999906830730235E+00
   0.9999897964856524E+00
   0.9999896175366977E+00
   0.9999923171068692E+00
   0.9999912292550897E+00
   0.9841043090466386E+00
   0.1003683694135099E+01
   0.1004433194609071E+01
   0.1000476700230775E+01
   0.1000665733599425E+01
   0.1001268202306399E+01
   0.1002152675098923E+01
   0.1001793362787295E+01
   0.1003556600475968E+01
   0.1008262773085658E+01
   0.1029827194985591E+01
   0.9886520710365666E+00
   0.1001381923415682E+01
   0.9815418954596911E+00
   0.1001923895553429E+01
   0.1002521110429498E+01
   0.1002987871300773E+01
   0.1008348853202327E+01
   0.1000820565986973E+01
   0.1001185012186225E+01
   0.1001995366351201E+01
   0.1000565910527731E+01
   0.9904275458623134E+00
   0.9903552856939506E+00
   0.9824694624337033E+00
   0.9887739901941760E+00
   0.9943629970726670E+00
   0.9997691971132715E+00
   0.1000503916786845E+01
   0.1000621460740089E+01
   0.1000828643138278E+01
   0.1000454345081549E+01
   0.1004853066485825E+01
   0.1002896218370460E+01
   0.9850919064061130E+00
   0.9764441061582847E+00
   0.1003879513322257E+01
   0.1003053310348336E+01
   0.9735159853363122E+00
   0.9715375443687193E+00
   0.9590423275275899E+00
   0.9912163938357546E+00
   0.1001286318255599E+01
   0.1003832204858103E+01
   0.1007638626038982E+01
   0.1005965508811955E+01
   0.1006629406147144E+01
   0.1003140495984685E+01
   0.9944295066628808E+00
   0.1003551877339682E+01
   0.9972166486000685E+00
   0.1005285310165649E+01
   0.1001688448090961E+01
   0.1001187269278706E+01
   0.1001341710215460E+01
   0.1001761124952671E+01
   0.1001926568350519E+01
   0.1001099937538362E+01
   0.1000587741826660E+01
   0.1000253577251465E+01
   0.1001798737766683E+01
   0.1001783476603654E+01
   0.1000008748527448E+01
   0.1000222691903913E+01
   0.1000234973114633E+01
   0.1000724329727744E+01
   0.1000988554964500E+01
   0.1001326359561221E+01
   0.1001746357187586E+01
   0.1001637486194961E+01
   0.1001643667248820E+01
   0.1001123672576327E+01
   0.1001526529576609E+01
   0.1001330452479779E+01
   0.1000962745028953E+01
   0.1040432926696377E+01
   0.1009767884154639E+01
   0.1004053693521647E+01
   0.1002444004783248E+01
   0.1032397392140630E+01
   0.1042472942317084E+01
   0.1003033763767896E+01
   0.1002349664165525E+01
   0.1002603058420036E+01
   0.1003005482890655E+01
   0.1006175446919795E+01
   0.1038912236237525E+01
   0.1027028657000775E+01
   0.1016571530786248E+01
   0.1025206182931814E+01
   0.1006055632896288E+01
   0.1011900805243332E+01
   0.1012528338771673E+01
   0.1004595240900131E+01
   0.9844111124161194E+00
   0.1001215546986524E+01
   0.9846890808957455E+00
   0.1002544987420023E+01
   0.1003500295699928E+01
   0.1003264753673530E+01
   0.1010932762470368E+01
   0.1000580687232040E+01
   0.9998553692434088E+00
   0.1000556429306819E+01
   0.1000455873865007E+01
   0.9898389089668866E+00
   0.9900584648288316E+00
   0.9855247071744300E+00
   0.9895390558751920E+00
   0.9917985165800480E+00
   0.9978967934749998E+00
   0.1000400893404981E+01
   0.1002928479815745E+01
   0.1005009412288959E+01
   0.1002279614390575E+01
   0.1013233653209169E+01
   0.1006635843036586E+01
   0.9925739951029474E+00
   0.1003434961081350E+01
   0.1001788392862335E+01
   0.1003349470793246E+01
   0.1001319611341990E+01
   0.9637827337987016E+00
   0.1001225370462117E+01
   0.1000903075232849E+01
   0.9928717293275414E+00
   0.9989551104882162E+00
   0.1001501285688906E+01
   0.9978126688143313E+00
   0.1000980250259613E+01
   0.1001573610614519E+01
   0.1001190372069891E+01
   0.1000788544303932E+01
   0.1000698902760626E+01
   0.1001334702522324E+01
   0.1010421198734688E+01
   0.1004072587674199E+01
   0.9935537408851963E+00
   0.1001859604021580E+01
   0.1006698191131880E+01
   0.9867957633574532E+00
   0.9881138552934735E+00
   0.9963584704738631E+00
   0.9943138584832535E+00
   0.9875207330506142E+00
   0.9926774936466204E+00
   0.9669773016413498E+00
   0.1017801039671600E+01
   0.9830453693234009E+00
   0.1001476925412509E+01
   0.1001159214869485E+01
   0.9989608784643352E+00
   0.9976213901569281E+00
   0.9864413010912686E+00
   0.9980019947307329E+00
   0.1003591635942911E+01
   0.1002875045334429E+01
   0.9988425890253457E+00
   0.9841137244270011E+00
   0.9789347054642694E+00
   0.9848202573738003E+00
   0.9942457253983534E+00
   0.9999509975217457E+00
   0.9900002898680380E+00
   0.9860937293055861E+00
   0.9832200792069856E+00
   0.9981607934628522E+00
   0.1001438280658002E+01
   0.1001055040852918E+01
   0.1001120129553339E+01
   0.1002862397488563E+01
   0.9892632943019016E+00
   0.9869749579386370E+00
   0.9918320814370079E+00
   0.1000754853401015E+01
   0.1000915369204777E+01
   0.1002438879622795E+01
   0.9922711649827405E+00
   0.9866562988285884E+00
   0.9943602864306873E+00
SCALARS lambda1 double 1
LOOKUP_TABLE default
   0.1618772960472912E-03
   0.4927782516882063E-04
  -0.1012772236183897E-03
  -0.2866253997024893E-05
  -0.2492427806711245E-04
  -0.4226393972274278E-04
  -0.7966801279204230E-04
   0.1548768045835855E-04
   0.5216366366634358E-04
  -0.9698433668417860E-05
  -0.2166599029038485E-04
  -0.1521424779419945E-03
  -0.1158907458638335E-03
  -0.2080838449092245E-05
   0.5501090357499262E-04
   0.1560654056172939E-03
   0.1040771227333396E-03
  -0.4563480168921855E-04
   0.1269590964007104E-04
  -0.8047828796934693E-04
   0.1307144409175677E-03
   0.1360821183308727E-03
   0.9670661691476330E-04
  -0.7268883063363512E-04
  -0.8097262257603381E-04
  -0.7644879509553523E-04
  -0.6937418844989557E-04
  -0.3649051315555684E-04
  -0.1808528093020295E-04
  -0.2023273134226880E-04
  -0.5080127025530182E-04
   0.5357208265021386E-04
   0.3421142013632378E-04
  -0.5272892673050946E-04
  -0.5130124736473119E-04
  -0.3630620014981788E-04
  -0.3389319052223432E-04
  -0.1532231663156881E-03
  -0.2916883263806848E-03
  -0.3171358763254672E-03
  -0.3307651948860022E-03
  -0.1070998112319874E-03
  -0.2236385288917636E-03
   0.3110603827898496E-03
   0.7239571011825481E-04
  -0.2741798803327583E-04
  -0.6206355951958090E-03
  -0.6128306019258753E-04
  -0.3830500396424535E-04
  -0.1471126380879916E-03
  -0.3757660954958801E-03
  -0.2801594282726940E-04
  -0.4564226871615238E-04
  -0.3143685000093780E-04
  -0.4646264236223988E-04
  -0.6242692635021721E-04
  -0.5826739486824704E-04
  -0.1161433559981746E-03
  -0.1617362155590200E-02
  -0.5122089630817838E-03
   0.1120649431831984E-04
  -0.3336944681359801E-04
  -0.3025453431258663E-04
  -0.2817667166657552E-04
  -0.2663122680796739E-04
  -0.2227215376316526E-04
   0.2013276145659398E-05
   0.4494855228880144E-04
  -0.8901170098044766E-04
  -0.2080796189759526E-04
  -0.2812742564602087E-04
  -0.5107791079187772E-03
  -0.2954488311121665E-03
   0.2815480437110561E-03
  -0.1055043026976053E-03
  -0.8571968946108603E-05
  -0.2365671885651564E-04
  -0.2632876404408660E-04
  -0.1854957467810792E-04
  -0.3541935279542497E-04
  -0.2143137801799870E-04
  -0.7835446749849890E-04
  -0.4736180345638285E-04
  -0.9679189254949742E-04
  -0.5898709918212287E-04
  -0.3646630272851379E-03
  -0.4050132260702071E-03
  -0.3372665741197065E-03
  -0.3098169559313348E-03
  -0.3224957698651383E-03
  -0.2756163642201652E-03
  -0.1323683163819188E-03
  -0.1053600133556720E-03
  -0.3182607249030886E-03
  -0.2828097248353495E-03
  -0.8644744188109322E-04
  -0.1237990032850857E-03
  -0.1269027429310448E-03
  -0.2155079078079755E-03
  -0.2081228087250318E-03
  -0.3775306468177771E-03
  -0.3649700606597144E-03
  -0.3346629734592642E-03
  -0.3284771141562542E-03
  -0.2322718580190845E-03
  -0.3036045636223350E-03
  -0.3096495337562703E-03
  -0.2279854474769587E-03
  -0.1309975903909683E-02
  -0.1893386409876031E-03
  -0.1870325240576395E-04
  -0.1202625807419466E-03
  -0.3117110467155178E-03
   0.1206813161183709E-02
  -0.7731543954724673E-04
  -0.1571857045863527E-03
  -0.1866559962501000E-03
  -0.1544932998065381E-03
  -0.6613733528284548E-04
   0.1387165070856018E-02
   0.1726214543003583E-03
  -0.5316483880951191E-03