title="tecplot geometry and solution file"
variables = x y z mach temperature lambda1 lambda2 lambda3 lambda4 lambda5
zone t="boundary 1 bc-1", solutiontime= 0.8000000E+02, strandid=1001, i=32, j=46, f=feblock
  0.000000000000E+00  0.000000000000E+00  0.000000000000E+00  0.000000000000E+00  0.000000000000E+00  0.000000000000E+00  0.000000000000E+00
  0.000000000000E+00  0.000000000000E+00  0.000000000000E+00  0.000000000000E+00  0.000000000000E+00  0.000000000000E+00  0.000000000000E+00
  0.000000000000E+00  0.000000000000E+00  0.000000000000E+00  0.000000000000E+00  0.000000000000E+00  0.000000000000E+00  0.000000000000E+00
  0.000000000000E+00  0.000000000000E+00  0.000000000000E+00  0.000000000000E+00  0.000000000000E+00  0.000000000000E+00  0.000000000000E+00
  0.000000000000E+00  0.000000000000E+00  0.000000000000E+00  0.000000000000E+00
  0.250000000000E+01  0.250000000000E+01  0.125000000000E+01  0.146289271009E+01  0.157686156160E+01  0.308372018325E+00  0.000000000000E+00
 -0.125000000000E+01 -0.600232012419E+00  0.250000000000E+01  0.477386199275E+00  0.742988685424E+00 -0.739814786992E+00  0.177790177481E+01
  0.155830813274E+01  0.250000000000E+01 -0.250000000000E+01 -0.154800130438E+01 -0.487811078581E+00  0.250000000000E+01  0.627766083140E+00
 -0.345533899378E+00 -0.178862290564E+01 -0.158811787973E+01  0.125000000000E+01 -0.250000000000E+01 -0.144524380962E+01  0.000000000000E+00
 -0.125000000000E+01 -0.250000000000E+01 -0.250000000000E+01 -0.250000000000E+01
  0.000000000000E+00  0.125000000000E+01  0.000000000000E+00  0.103724302461E+01  0.219251206392E+01  0.922061490191E+00  0.000000000000E+00
  0.000000000000E+00  0.715990576545E+00  0.250000000000E+01  0.202479342020E+01  0.324151231464E+01  0.175434191980E+01  0.310152362409E+01
  0.404200324774E+01  0.375000000000E+01  0.000000000000E+00  0.930412228790E+00  0.299062775774E+01  0.500000000000E+01  0.429310310915E+01
  0.409252726285E+01  0.187029682677E+01  0.284428995242E+01  0.500000000000E+01  0.125000000000E+01  0.394624082883E+01  0.500000000000E+01
  0.500000000000E+01  0.250000000000E+01  0.375000000000E+01  0.500000000000E+01
  0.000000000000E+00  0.441238348384E+00  0.000000000000E+00  0.475214987021E+00  0.460123708856E+00  0.468827815405E+00  0.000000000000E+00
  0.000000000000E+00  0.402302516798E+00  0.469814974359E+00  0.464411128942E+00  0.478714034184E+00  0.489298241651E+00  0.483068557888E+00
  0.487930073118E+00  0.488961654628E+00  0.000000000000E+00  0.464775721414E+00  0.473795651891E+00  0.495346592024E+00  0.490266103446E+00
  0.486286083902E+00  0.445717618051E+00  0.464382274634E+00  0.496127394917E+00  0.443624103833E+00  0.486964461957E+00  0.497246279768E+00
  0.496059270892E+00  0.467732355362E+00  0.488212087362E+00  0.495098264817E+00
  0.999990295028E+00  0.102982719499E+01  0.999990757903E+00  0.104247294232E+01  0.101190080524E+01  0.102520618293E+01  0.999991416700E+00
  0.999992168096E+00  0.103891223624E+01  0.100826277309E+01  0.101252833877E+01  0.100300548289E+01  0.102702865700E+01  0.100605563290E+01
  0.100244400478E+01  0.100355660048E+01  0.999992721792E+00  0.103239739214E+01  0.100459524090E+01  0.100179336279E+01  0.100260305842E+01
  0.100234966417E+01  0.101657153079E+01  0.100617544692E+01  0.100168844809E+01  0.104043292670E+01  0.100303376377E+01  0.100118726928E+01
  0.100134171022E+01  0.100976788415E+01  0.100405369352E+01  0.100176112495E+01
  0.157805314976E-03  0.261773377568E-03  0.159957411958E-03  0.120573075506E-02 -0.668276538825E-04  0.596229713264E-03  0.623440173004E-04
 -0.164263656612E-05  0.147540448498E-02 -0.213769729225E-03  0.494305417777E-03 -0.146075126184E-03  0.161049431581E-03 -0.867886334629E-04
 -0.929006698220E-04 -0.734166447222E-04 -0.120133513302E-03 -0.376779072988E-03 -0.105381422779E-03 -0.399933220621E-03 -0.165719043207E-03
 -0.142975040601E-03 -0.491250365045E-03 -0.404850668992E-04 -0.403507455278E-03 -0.148184709180E-02 -0.631526309337E-04 -0.424333811263E-03
 -0.351468570714E-03 -0.125310861783E-03 -0.910189930823E-05 -0.330637116054E-03
 -0.780017611675E-07  0.356802608697E-04  0.116902821510E-04  0.139216327094E-03 -0.203739223829E-04  0.589528796415E-04  0.224072411818E-04
 -0.116833228770E-06  0.303443040143E-03 -0.469800402654E-04  0.706909531029E-04 -0.281553393785E-04  0.281306181462E-04 -0.238123121917E-04
 -0.197287949618E-04 -0.210228074349E-04 -0.186533690872E-04 -0.562543854987E-04 -0.184580308595E-04 -0.821009793626E-04 -0.324768937922E-04
 -0.261404000011E-04 -0.744573176583E-04 -0.651420405489E-05 -0.848074809930E-04 -0.226495953007E-03 -0.127047332536E-04 -0.896797292079E-04
 -0.743697795531E-04 -0.210282250468E-04 -0.318049745928E-05 -0.700038093446E-04
  0.122989733567E-04  0.285795009479E-05 -0.390969629471E-05 -0.142150616050E-04 -0.564702905905E-05  0.202285470010E-04  0.202302399114E-04
  0.186367783863E-04  0.687366344554E-04 -0.529361280042E-06 -0.224652046225E-04 -0.454839279618E-05  0.579956121997E-05 -0.274723757489E-05
 -0.174909155202E-05  0.142112223895E-06  0.773708831086E-05  0.702745165915E-05 -0.120447875966E-04  0.107097328892E-06 -0.339315504087E-05
 -0.562778004334E-05 -0.128920554577E-05 -0.538979418988E-05  0.683141502129E-08  0.175255963409E-06 -0.738089264702E-05 -0.102803794470E-05
 -0.151176736989E-05  0.706076154490E-06 -0.458764262663E-07  0.478520375307E-06
 -0.291356955033E-04 -0.403837011444E-04 -0.307683744657E-04 -0.442462174034E-05  0.183775351163E-04 -0.666534413868E-04 -0.673330526022E-05
 -0.901177137734E-05  0.687245313408E-04  0.106818161071E-04  0.317081400622E-04  0.200358396394E-04  0.311826833208E-04  0.150581068223E-04
  0.142229608919E-04  0.162936259340E-04  0.157165247373E-04  0.693678702510E-04  0.248855164861E-04  0.605382404215E-05  0.116105240938E-04
  0.144319352580E-04  0.198655162392E-04  0.985213889918E-05  0.492348029203E-05  0.435130873222E-04  0.101054577964E-04  0.403188267826E-05
  0.469979283379E-05  0.818776204020E-05  0.557980070860E-05  0.574835476536E-05
 -0.103626027988E-03 -0.102843570302E-03 -0.123461491742E-03 -0.474061882064E-03  0.317824079826E-04 -0.208257180411E-03 -0.767428526127E-04
  0.815827654202E-04 -0.655316216491E-03  0.914696320979E-04 -0.200181738841E-03  0.594366181614E-04 -0.678584609069E-04  0.361672349286E-04
  0.371099020574E-04  0.296753690440E-04  0.888557421798E-04  0.141680461659E-03  0.406133470851E-04  0.165868700800E-03  0.674998778267E-04
  0.578358193120E-04  0.197384584010E-03  0.169274012640E-04  0.167861981030E-03  0.596937338642E-03  0.245930818611E-04  0.177071118603E-03
  0.146449791345E-03  0.504421892767E-04  0.235261937774E-05  0.137178313838E-03
        12        19        11        11
        11         5        12        12
        10        14         5         5
        19        13        11        11
        19        24        13        13
        30        23        24        24
        19        12        22        22
        28        22        21        21
        11        13         6         6
         7         6         9         9
        15        12        14        14
        18        13        23        23
        15        25        21        21
        27        19        22        22
        18         8         9         9
        27        31        24        24
         4        11         6         6
         5        14        12        12
         4         2         5         5
        21        12        15        15
        14        16        15        15
        24        19        27        27
        22        29        27        27
        23        26        18        18
        17         8        18        18
         5        11         4         4
         6         3         4         4
        26        23        30        30
         5         2        10        10
        16        14        10        10
         3         6         7         7
        21        25        28        28
        29        22        28        28
         6        13         9         9
         2         4         1         1
        31        27        32        32
        25        15        20        20
        24        23        13        13
         8         7         9         9
        13        18         9         9
        31        30        24        24
        12        21        22        22
        29        32        27        27
         3         1         4         4
        26        17        18        18
        16        20        15        15
zone t="boundary 2 bc-2", solutiontime= 0.8000000E+02, strandid=1002, i=33, j=48, f=feblock
  0.500000000000E+01  0.375000000000E+01  0.250000000000E+01  0.288078410721E+01  0.125000000000E+01  0.190974100652E+01  0.326683758169E+01
  0.201431602454E+01  0.000000000000E+00  0.963108083381E+00  0.500000000000E+01  0.403552511878E+01  0.423153924130E+01  0.500000000000E+01
  0.385533350601E+01  0.500000000000E+01  0.398173246726E+01  0.315249557942E+01  0.267000324704E+01  0.154774304040E+01  0.218329375016E+01
  0.893127759452E+00  0.000000000000E+00  0.698517061619E+00  0.964171764089E+00  0.310324758057E+01  0.000000000000E+00  0.000000000000E+00
  0.125000000000E+01  0.500000000000E+01  0.375000000000E+01  0.250000000000E+01  0.000000000000E+00
 -0.250000000000E+01 -0.250000000000E+01 -0.250000000000E+01 -0.250000000000E+01 -0.250000000000E+01 -0.250000000000E+01 -0.250000000000E+01
 -0.250000000000E+01 -0.250000000000E+01 -0.250000000000E+01 -0.250000000000E+01 -0.250000000000E+01 -0.250000000000E+01 -0.250000000000E+01
 -0.250000000000E+01 -0.250000000000E+01 -0.250000000000E+01 -0.250000000000E+01 -0.250000000000E+01 -0.250000000000E+01 -0.250000000000E+01
 -0.250000000000E+01 -0.250000000000E+01 -0.250000000000E+01 -0.250000000000E+01 -0.250000000000E+01 -0.250000000000E+01 -0.250000000000E+01
 -0.250000000000E+01 -0.250000000000E+01 -0.250000000000E+01 -0.250000000000E+01 -0.250000000000E+01
  0.000000000000E+00  0.000000000000E+00  0.000000000000E+00  0.904659890645E+00  0.000000000000E+00  0.717002441913E+00  0.188609243358E+01
  0.176246431481E+01  0.000000000000E+00  0.961328577125E+00  0.125000000000E+01  0.101201586758E+01  0.191586535653E+01  0.250000000000E+01
  0.293121848150E+01  0.375000000000E+01  0.406975391361E+01  0.363585050272E+01  0.285047954584E+01  0.292817774674E+01  0.395907379566E+01
  0.205246550326E+01  0.125000000000E+01  0.306828197606E+01  0.397245519226E+01  0.433168271247E+01  0.250000000000E+01  0.375000000000E+01
  0.500000000000E+01  0.500000000000E+01  0.500000000000E+01  0.500000000000E+01  0.500000000000E+01
  0.000000000000E+00  0.000000000000E+00  0.000000000000E+00  0.380991906500E+00  0.000000000000E+00  0.343629824950E+00  0.585286157424E+00
  0.579373264282E+00  0.000000000000E+00  0.501056069140E+00  0.508460362676E+00  0.435373026572E+00  0.572640041190E+00  0.537002098944E+00
  0.568922553871E+00  0.514994090651E+00  0.508247257160E+00  0.527252853130E+00  0.567446661127E+00  0.531657143909E+00  0.505981016593E+00
  0.520795579399E+00  0.443624103833E+00  0.490663730453E+00  0.492155873749E+00  0.501390784676E+00  0.467732355362E+00  0.488212087362E+00
  0.490002767114E+00  0.491352304715E+00  0.486075475228E+00  0.490036479234E+00  0.495098264817E+00
  0.999993487379E+00  0.999993690057E+00  0.999993543115E+00  0.989539055875E+00  0.999993137282E+00  0.985524707174E+00  0.989838908967E+00
  0.991798516580E+00  0.999992721792E+00  0.984411112416E+00  0.985091906406E+00  0.984689080896E+00  0.990058464829E+00  0.100289621837E+01
  0.999855369243E+00  0.100485306649E+01  0.100121554699E+01  0.100055642931E+01  0.997896793475E+00  0.100350029570E+01  0.100058068723E+01
  0.101093276247E+01  0.104043292670E+01  0.100326475367E+01  0.100254498742E+01  0.100045587387E+01  0.100976788415E+01  0.100405369352E+01
  0.100192656835E+01  0.100045434508E+01  0.100058774183E+01  0.100109993754E+01  0.100176112495E+01
  0.527704369565E-04 -0.936305961036E-05 -0.163083974675E-04 -0.267081496338E-02 -0.154468966589E-03 -0.463012621482E-02 -0.432026891433E-05
 -0.715261147136E-03 -0.120133513302E-03 -0.174426797794E-02  0.413048813074E-04  0.358115935557E-04 -0.345911470438E-05  0.556525579851E-05
 -0.157796408038E-04 -0.209461827000E-04 -0.196742962721E-04  0.247633234389E-05  0.743617623839E-04  0.756168766080E-04 -0.135887296732E-04
 -0.379893547090E-03 -0.148184709180E-02 -0.428492621137E-05 -0.213411759538E-04 -0.298717782527E-04 -0.125310861783E-03 -0.910189930823E-05
 -0.306274768616E-03 -0.272888536067E-04 -0.132867868574E-03 -0.268478322810E-03 -0.330637116054E-03
 -0.376718729797E-05  0.789127692176E-06 -0.104142475204E-06 -0.461696374309E-03  0.110255227060E-04 -0.539777641392E-03  0.527799780691E-04
 -0.633706345257E-04 -0.186533690872E-04 -0.176951399057E-03 -0.122673566503E-04  0.775757729339E-04  0.367075557281E-04 -0.172749095519E-06
  0.204535524531E-04  0.485857875546E-05  0.105080642697E-04  0.196506980846E-04  0.431597121334E-04  0.374513283534E-04  0.949467779513E-05
 -0.285854467187E-04 -0.226495953007E-03  0.720166501135E-05  0.306304350578E-05  0.904780208981E-05 -0.210282250468E-04 -0.318049745928E-05
 -0.558026093636E-04  0.206791041975E-05 -0.133286257549E-04 -0.411048178637E-04 -0.700038093446E-04
  0.137545449892E-04 -0.941316873275E-05 -0.103570400807E-04 -0.680668304539E-04 -0.908988268190E-06 -0.313911907060E-04  0.188256090560E-05
 -0.202976923528E-06  0.773708831086E-05  0.185981985041E-04  0.122809659561E-04  0.126158700861E-04 -0.339106094715E-06 -0.152794563327E-06
 -0.538516154930E-07  0.108264554145E-06  0.484269242744E-07 -0.222091981142E-06 -0.197956146578E-05 -0.246850343040E-05 -0.244106273976E-07
 -0.470302368975E-06  0.175255963409E-06 -0.146822990168E-05  0.980980601102E-07  0.163654341849E-07  0.706076154490E-06 -0.458764262663E-07
  0.396746173196E-06  0.579731345395E-07  0.119438212291E-06  0.565256299275E-07  0.478520375307E-06
  0.999355292722E-05  0.117529855395E-04  0.224183526542E-04 -0.342563184386E-04  0.311299294434E-04  0.131848900173E-04 -0.555964327545E-04
 -0.610297862702E-04  0.157165247373E-04 -0.152339090420E-04 -0.385744429882E-04 -0.739410068056E-04 -0.243177919339E-04 -0.101620621632E-04
 -0.474063201244E-05 -0.100451518444E-05  0.407464898034E-05  0.678019396103E-05 -0.285133829887E-05  0.100587635978E-05  0.104861111438E-04
 -0.162810559586E-04  0.435130873222E-04  0.598084779565E-05  0.100155018283E-04  0.873343991249E-05  0.818776204020E-05  0.557980070860E-05
  0.785924507943E-05  0.323643724130E-05  0.830148013310E-05  0.970033824842E-05  0.574835476536E-05
 -0.704442928853E-04 -0.913723502462E-04 -0.243713614341E-03  0.115726841773E-02 -0.107033628101E-04  0.192724333378E-02 -0.189767378749E-04
  0.272695378591E-03  0.888557421798E-04  0.680856641799E-03 -0.594387997279E-05 -0.428798815367E-04 -0.124926839573E-04 -0.156283025904E-05
 -0.284706257346E-05  0.413582597236E-05  0.169072334044E-05 -0.919915679592E-05 -0.411883252772E-04 -0.386632044789E-04 -0.268313281679E-06
  0.145224400411E-03  0.596937338642E-03 -0.772886288040E-06  0.494909765421E-05  0.580596351249E-05  0.504421892767E-04  0.235261937774E-05
  0.124434494841E-03  0.793734553074E-05  0.497911549539E-04  0.106463707126E-03  0.137178313838E-03
        15         7        19        19
         8        20        19        19
        18        19        21        21
         7         4         8         8
         3         6         4         4
        19         7         8         8
        19        18        15        15
        14        13        15        15
         8        22        20        20
        27        24        22        22
        19        20        21        21
        32        26        21        21
        17        18        26        26
        17        16        15        15
        25        29        21        21
        12         7        13        13
        10         8         6         6
        25        20        24        24
         4         6         8         8
        12         2         4         4
        10        23        22        22
        26        31        17        17
        30        16        17        17
         4         7        12        12
        13        11        12        12
        21        20        25        25
        24        28        25        25
        22         8        10        10
         6         5        10        10
        31        26        32        32
         4         2         3         3
         5         6         3         3
        11        13        14        14
        22        23        27        27
        28        24        27        27
        15        13         7         7
         2        12         1         1
        29        25        33        33
        23        10         9         9
        21        26        18        18
        16        14        15        15
        18        17        15        15
        29        32        21        21
        22        24        20        20
        28        33        25        25
        11         1        12        12
        31        30        17        17
         5         9        10        10
zone t="boundary 3 bc-3", solutiontime= 0.8000000E+02, strandid=1003, i=33, j=48, f=feblock
  0.375000000000E+01  0.250000000000E+01  0.500000000000E+01  0.403552511878E+01  0.288078410721E+01  0.125000000000E+01  0.190974100652E+01
  0.500000000000E+01  0.326683758169E+01  0.423153924130E+01  0.201431602454E+01  0.000000000000E+00  0.963108083381E+00  0.500000000000E+01
  0.267000324704E+01  0.385533350601E+01  0.893127759452E+00  0.154774304040E+01  0.000000000000E+00  0.500000000000E+01  0.315249557942E+01
  0.218329375016E+01  0.398173246726E+01  0.000000000000E+00  0.698517061619E+00  0.964171764089E+00  0.125000000000E+01  0.000000000000E+00
  0.500000000000E+01  0.310324758057E+01  0.250000000000E+01  0.375000000000E+01  0.000000000000E+00
  0.250000000000E+01  0.250000000000E+01  0.250000000000E+01  0.250000000000E+01  0.250000000000E+01  0.250000000000E+01  0.250000000000E+01
  0.250000000000E+01  0.250000000000E+01  0.250000000000E+01  0.250000000000E+01  0.250000000000E+01  0.250000000000E+01  0.250000000000E+01
  0.250000000000E+01  0.250000000000E+01  0.250000000000E+01  0.250000000000E+01  0.250000000000E+01  0.250000000000E+01  0.250000000000E+01
  0.250000000000E+01  0.250000000000E+01  0.250000000000E+01  0.250000000000E+01  0.250000000000E+01  0.250000000000E+01  0.250000000000E+01
  0.250000000000E+01  0.250000000000E+01  0.250000000000E+01  0.250000000000E+01  0.250000000000E+01
  0.000000000000E+00  0.000000000000E+00  0.000000000000E+00  0.101201586758E+01  0.904659890645E+00  0.000000000000E+00  0.717002441913E+00
  0.125000000000E+01  0.188609243358E+01  0.191586535653E+01  0.176246431481E+01  0.000000000000E+00  0.961328577125E+00  0.250000000000E+01
  0.285047954584E+01  0.293121848150E+01  0.205246550326E+01  0.292817774674E+01  0.125000000000E+01  0.375000000000E+01  0.363585050272E+01
  0.395907379566E+01  0.406975391361E+01  0.250000000000E+01  0.306828197606E+01  0.397245519226E+01  0.500000000000E+01  0.375000000000E+01
  0.500000000000E+01  0.433168271247E+01  0.500000000000E+01  0.500000000000E+01  0.500000000000E+01
  0.000000000000E+00  0.000000000000E+00  0.000000000000E+00  0.443767745459E+00  0.402286944574E+00  0.000000000000E+00  0.377550369545E+00
  0.509232128688E+00  0.575832179754E+00  0.573707405285E+00  0.562554064412E+00  0.000000000000E+00  0.490563299840E+00  0.534527096543E+00
  0.556586982170E+00  0.564391577749E+00  0.522730517385E+00  0.522052000170E+00  0.441238348384E+00  0.517182331791E+00  0.524228630763E+00
  0.503687457534E+00  0.509488571178E+00  0.469814974359E+00  0.495614442414E+00  0.494483780212E+00  0.488562428343E+00  0.488961654628E+00
  0.492980744788E+00  0.499005552222E+00  0.486460936507E+00  0.484596927548E+00  0.495346592024E+00
  0.999989339439E+00  0.999989408764E+00  0.999989626853E+00  0.981541895460E+00  0.988773990194E+00  0.999989827144E+00  0.982469462434E+00
  0.984104309047E+00  0.990427545862E+00  0.990355285694E+00  0.994362997073E+00  0.999990295028E+00  0.988652071037E+00  0.100368369414E+01
  0.999769197113E+00  0.100118501219E+01  0.100834885320E+01  0.100252111043E+01  0.102982719499E+01  0.100443319461E+01  0.100199536635E+01
  0.100082056599E+01  0.100138192342E+01  0.100826277309E+01  0.100298787130E+01  0.100192389555E+01  0.100215267510E+01  0.100355660048E+01
  0.100047670023E+01  0.100056591053E+01  0.100126820231E+01  0.100066573360E+01  0.100179336279E+01
 -0.957512771238E-07 -0.103338163919E-03 -0.248126089013E-04 -0.618680229462E-03 -0.171248276117E-02  0.480507316517E-04 -0.187503617841E-03
 -0.545339285131E-04 -0.517943476857E-04 -0.611740352976E-04 -0.519545067176E-03  0.157805314976E-03 -0.116611603468E-04 -0.507826676614E-04
  0.987528646875E-05 -0.459063731968E-04 -0.375556938304E-03 -0.336746415610E-04  0.261773377568E-03 -0.358660209610E-04 -0.347586390331E-04
 -0.277429424989E-04 -0.273497887514E-04 -0.213769729225E-03 -0.133816638786E-03 -0.712904414193E-04 -0.309337519805E-03 -0.734166447222E-04
 -0.342551015357E-04 -0.443898966937E-04 -0.283581323901E-03 -0.151623758416E-03 -0.399933220621E-03
  0.784485968233E-05  0.721913690421E-05 -0.302127667962E-05 -0.132377578113E-03 -0.242066967902E-03 -0.365422711832E-04 -0.137403958420E-04
  0.193305060002E-04  0.244564136314E-05  0.514544836674E-05 -0.792620987200E-04 -0.780017611675E-07 -0.104038251596E-03  0.136616768902E-04
  0.141276513531E-04  0.464412770916E-05 -0.968265770821E-04 -0.107154518833E-05  0.356802608697E-04  0.900449595441E-05  0.816215949964E-05
  0.652874829229E-05  0.971088979508E-05 -0.469800402654E-04 -0.353665629443E-04 -0.776977261754E-05 -0.546972842292E-04 -0.210228074349E-04
  0.317601709752E-05  0.637790386383E-05 -0.426921261675E-04 -0.145905342382E-04 -0.821009793626E-04
  0.758892938668E-06 -0.876251288594E-06  0.584783693859E-05  0.253512235536E-04  0.443733174353E-04  0.109268470789E-04  0.636735816472E-05
  0.314599126799E-05  0.399515145749E-05  0.288625292717E-05  0.652934646753E-05  0.122989733567E-04  0.227669413757E-04  0.319097046690E-06
  0.163177761446E-06  0.348569762840E-06  0.288317603864E-05  0.374272124391E-06  0.285795009479E-05  0.295959678920E-06  0.299796000396E-06
  0.762428559960E-06 -0.981062429099E-08 -0.529361280042E-06  0.449418627828E-06  0.111146103157E-06  0.362050956188E-06  0.142112223895E-06
  0.616923661416E-07 -0.802785906537E-08  0.602333692441E-07 -0.120743556850E-07  0.107097328892E-06
  0.163588445093E-04  0.173377311167E-04 -0.575046419757E-05 -0.289885430563E-05  0.160256361226E-05 -0.115395291758E-04  0.464425005220E-04
 -0.951212662796E-06 -0.940812467261E-05  0.756436205759E-05  0.397956897491E-05 -0.291356955033E-04  0.289631692911E-04  0.405273665866E-05
  0.117090216042E-04  0.829149464687E-05  0.330803618139E-04  0.116171275000E-04 -0.403837011444E-04  0.340939725847E-05  0.999718942468E-05
  0.135363484804E-04  0.764720121979E-05  0.106818161071E-04  0.193746232977E-04  0.139068797577E-04  0.900611033777E-05  0.162936259340E-04
  0.405481448273E-05  0.102833990188E-04  0.105447097705E-04  0.944361772054E-05  0.605382404215E-05
 -0.179902770601E-03 -0.831665736095E-05 -0.191799641895E-04  0.270696895783E-03  0.723616804027E-03  0.745789996180E-05  0.543833790173E-04
  0.655271939544E-05  0.104693215257E-04  0.161601730990E-04  0.210209505176E-03 -0.103626027988E-03  0.364540081860E-04  0.940774813098E-05
 -0.119614014972E-04  0.119641943432E-04  0.162490104503E-03  0.920431570145E-05 -0.102843570302E-03  0.690098907891E-05  0.703572749805E-05
  0.532090408778E-05  0.416669695639E-05  0.914696320979E-04  0.544798556991E-04  0.258131733333E-04  0.125011112657E-03  0.296753690440E-04
  0.968427920237E-05  0.114678694239E-04  0.112200162776E-03  0.566288103719E-04  0.165868700800E-03
        15         9        16        16
        15        18        11        11
        22        15        21        21
        11         5         9         9
         5         7         2         2
        11         9        15        15
        16        21        15        15
        16        10        14        14
        18        17        11        11
        17        25        24        24
        22        18        15        15
        22        30        31        31
        30        21        23        23
        16        20        23        23
        22        27        26        26
        10         9         4         4
         7        11        13        13
        25        18        26        26
        11         7         5         5
         5         1         4         4
        17        19        13        13
        23        32        30        30
        23        20        29        29
         4         9         5         5
         4         8        10        10
        26        18        22        22
        26        28        25        25
        13        11        17        17
        13         6         7         7
        31        30        32        32
         2         1         5         5
         2         7         6         6
        14        10         8         8
        24        19        17        17
        24        25        28        28
         9        10        16        16
         3         4         1         1
        33        26        27        27
        12        13        19        19
        21        30        22        22
        16        14        20        20
        16        23        21        21
        22        31        27        27
        18        25        17        17
        26        33        28        28
         4         3         8         8
        23        29        32        32
        13        12         6         6
zone t="boundary 4 bc-4", solutiontime= 0.8000000E+02, strandid=1004, i=32, j=46, f=feblock
  0.125000000000E+01  0.219251206392E+01  0.103724302461E+01  0.500000000000E+01  0.250000000000E+01  0.375000000000E+01  0.404200324774E+01
  0.500000000000E+01  0.000000000000E+00  0.310152362409E+01  0.202479342020E+01  0.324151231464E+01  0.922061490191E+00  0.000000000000E+00
  0.299062775774E+01  0.394624082883E+01  0.500000000000E+01  0.409252726285E+01  0.500000000000E+01  0.429310310915E+01  0.175434191980E+01
  0.284428995242E+01  0.000000000000E+00  0.000000000000E+00  0.715990576545E+00  0.930412228790E+00  0.125000000000E+01  0.187029682677E+01
  0.500000000000E+01  0.375000000000E+01  0.250000000000E+01  0.000000000000E+00
  0.250000000000E+01  0.157686156160E+01  0.146289271009E+01  0.250000000000E+01  0.250000000000E+01  0.250000000000E+01  0.155830813274E+01
  0.125000000000E+01  0.250000000000E+01  0.177790177481E+01  0.477386199275E+00  0.742988685424E+00  0.308372018325E+00  0.125000000000E+01
 -0.487811078581E+00 -0.144524380962E+01 -0.125000000000E+01 -0.345533899378E+00  0.000000000000E+00  0.627766083140E+00 -0.739814786992E+00
 -0.158811787973E+01  0.000000000000E+00 -0.125000000000E+01 -0.600232012419E+00 -0.154800130438E+01 -0.250000000000E+01 -0.178862290564E+01
 -0.250000000000E+01 -0.250000000000E+01 -0.250000000000E+01 -0.250000000000E+01
  0.500000000000E+01  0.500000000000E+01  0.500000000000E+01  0.500000000000E+01  0.500000000000E+01  0.500000000000E+01  0.500000000000E+01
  0.500000000000E+01  0.500000000000E+01  0.500000000000E+01  0.500000000000E+01  0.500000000000E+01  0.500000000000E+01  0.500000000000E+01
  0.500000000000E+01  0.500000000000E+01  0.500000000000E+01  0.500000000000E+01  0.500000000000E+01  0.500000000000E+01  0.500000000000E+01
  0.500000000000E+01  0.500000000000E+01  0.500000000000E+01  0.500000000000E+01  0.500000000000E+01  0.500000000000E+01  0.500000000000E+01
  0.500000000000E+01  0.500000000000E+01  0.500000000000E+01  0.500000000000E+01
  0.488562428343E+00  0.488873127044E+00  0.490562939264E+00  0.492980744788E+00  0.486460936507E+00  0.484596927548E+00  0.485347896276E+00
  0.494163542317E+00  0.495346592024E+00  0.486528232758E+00  0.487819998460E+00  0.487068916091E+00  0.494045904395E+00  0.496127394917E+00
  0.487612357629E+00  0.483219722850E+00  0.492395510969E+00  0.487214141159E+00  0.494738985333E+00  0.487958525499E+00  0.489677249447E+00
  0.488029107105E+00  0.497246279768E+00  0.496059270892E+00  0.494951052257E+00  0.492800373677E+00  0.490002767114E+00  0.490005124553E+00
  0.491352304715E+00  0.486075475228E+00  0.490036479234E+00  0.495098264817E+00
  0.100215267510E+01  0.100152652958E+01  0.100178347660E+01  0.100047670023E+01  0.100126820231E+01  0.100066573360E+01  0.100025357725E+01
  0.100050391679E+01  0.100179336279E+01  0.100112367258E+01  0.100133045248E+01  0.100072432973E+01  0.100164366725E+01  0.100168844809E+01
  0.100096274503E+01  0.100000874853E+01  0.100082864314E+01  0.100022269190E+01  0.100062146074E+01  0.100023497311E+01  0.100174635719E+01
  0.100098855496E+01  0.100118726928E+01  0.100134171022E+01  0.100132635956E+01  0.100179873777E+01  0.100192656835E+01  0.100163748619E+01
  0.100045434508E+01  0.100058774183E+01  0.100109993754E+01  0.100176112495E+01
 -0.309337519805E-03 -0.297893613538E-03 -0.299925382915E-03 -0.342551015357E-04 -0.283581323901E-03 -0.151623758416E-03 -0.104812730244E-03
 -0.335995639583E-04 -0.399933220621E-03 -0.231239590270E-03 -0.306936317085E-03 -0.213269932474E-03 -0.340748196796E-03 -0.403507455278E-03
 -0.228302133866E-03 -0.879090673365E-04 -0.287046687888E-04 -0.123667946255E-03 -0.301641432586E-04 -0.125523495081E-03 -0.360299189848E-03
 -0.208645851596E-03 -0.424333811263E-03 -0.351468570714E-03 -0.382578010185E-03 -0.312456845143E-03 -0.306274768616E-03 -0.325760149955E-03
 -0.272888536067E-04 -0.132867868574E-03 -0.268478322810E-03 -0.330637116054E-03