# vtk DataFile Version 2.0
FUN3D:global_image_vtk
ASCII
DATASET UNSTRUCTURED_GRID
POINTS 213 double
   -0.5474685441685613E-02    0.2504941971167290E+01    0.8038138598215160E-04
    0.1245419105183474E+01    0.2504941971167290E+01    0.1039425057966487E-03
    0.2497696093128781E+01    0.2504941971167290E+01    0.1101298164617991E-03
    0.3750590968915823E+01    0.2504941971167290E+01    0.1356499004895841E-03
    0.5003221331742151E+01    0.2504941971167290E+01    0.9668873038426221E-04
    0.5004676687979095E+01    0.1281291202167033E+01    0.1638053019352149E-03
    0.5004772673778113E+01    0.2775079906482346E-01    0.1903478008421482E-03
    0.5003581183341211E+01   -0.1225853508883533E+01    0.1607765204479356E-03
    0.5001952533742191E+01   -0.2496589036641632E+01    0.1082258890306430E-03
    0.3750348111606544E+01   -0.2496589036641632E+01    0.1458753696819689E-03
    0.2498611462994928E+01   -0.2496589036641632E+01    0.1008933264249334E-03
    0.1247175269333277E+01   -0.2496589036641632E+01    0.1108587619172974E-03
   -0.3383959865718367E-02   -0.2496589036641632E+01    0.8107259626505447E-04
   -0.4257768979763825E-02   -0.1225734811642594E+01    0.3415458742206408E-04
   -0.5251592448508366E-02    0.2619486024420065E-01    0.1038724387166245E-03
   -0.5676060312424183E-02    0.1278221569065702E+01    0.8224601701806011E-04
    0.9003209617952610E+00    0.1608979112280153E+01    0.8704140727250130E-04
    0.3983172210692288E+01   -0.1561211904840281E+01    0.1757116720362274E-03
    0.4035602039224468E+01    0.1486760030415513E+01    0.1713312862068321E-03
    0.1036613723302902E+01   -0.1455626429916852E+01    0.1047189301526793E-03
    0.1094353480630805E+01   -0.2964622010671900E+00    0.1260590236897287E-03
    0.7298400267480010E+00    0.6874684746719067E+00    0.1044598640516091E-03
    0.1617018659308947E+01    0.8553208024939307E+00    0.1529810904946077E-03
    0.2143199662875790E+01   -0.1627128509216734E+01    0.1606170425219598E-03
    0.4088840445400889E+01   -0.4351047825936315E+00    0.2719933294093025E-03
    0.2977916511248925E+01   -0.8334991483094547E+00    0.2245596931848550E-03
    0.3044093241383418E+01   -0.1814361225108585E+01    0.1617000112413270E-03
    0.3427866614805212E+01    0.3813904839972428E+00    0.2936955483405759E-03
    0.4313225355351750E+01    0.5489133376342430E+00    0.2313009573562939E-03
    0.1823032737597360E+01    0.1771265193544247E+01    0.1836202887112155E-03
    0.2806311152168376E+01    0.1358629373600674E+01    0.1943492163949931E-03
    0.1891860875936713E+01   -0.8481310365607586E+00    0.1670645501796176E-03
    0.2268769200166910E+01    0.7723691819195995E-01    0.2072307783061443E-03
    0.5000000000000000E+01    0.2504941971167290E+01    0.1250000000000000E+01
    0.5000000000000000E+01    0.2504941971167290E+01    0.2500000000000000E+01
    0.5000000000000000E+01    0.2504941971167290E+01    0.3750000000000000E+01
    0.5000000000000000E+01    0.2504941971167290E+01    0.5000000000000000E+01
    0.3750000000000000E+01    0.2504941971167290E+01    0.5000000000000000E+01
    0.2500000000000000E+01    0.2504941971167290E+01    0.5000000000000000E+01
    0.1250000000000000E+01    0.2504941971167290E+01    0.5000000000000000E+01
    0.0000000000000000E+00    0.2504941971167290E+01    0.5000000000000000E+01
    0.0000000000000000E+00    0.2504941971167290E+01    0.3750000000000000E+01
    0.0000000000000000E+00    0.2504941971167290E+01    0.2500000000000000E+01
    0.0000000000000000E+00    0.2504941971167290E+01    0.1250000000000000E+01
    0.9588956434871108E+00    0.2504941971167290E+01    0.9696525519543818E+00
    0.3981953078951401E+01    0.2504941971167290E+01    0.4070563854751270E+01
    0.4036122187252336E+01    0.2504941971167290E+01    0.1017567520094666E+01
    0.9637572773153891E+00    0.2504941971167290E+01    0.3973598203142228E+01
    0.1546540136992396E+01    0.2504941971167290E+01    0.2931570169315598E+01
    0.6973799521244317E+00    0.2504941971167290E+01    0.3070319952453755E+01
    0.8903742148356895E+00    0.2504941971167290E+01    0.2056562238187735E+01
    0.2183041995146012E+01    0.2504941971167290E+01    0.3960694449828018E+01
    0.3855844872709870E+01    0.2504941971167290E+01    0.2933250588118629E+01
    0.3152611367438029E+01    0.2504941971167290E+01    0.3637668388416194E+01
    0.3103307385241870E+01    0.2504941971167290E+01    0.4332607813099730E+01
    0.3266711045517939E+01    0.2504941971167290E+01    0.1889656617463735E+01
    0.4232537554484795E+01    0.2504941971167290E+01    0.1918626969802349E+01
    0.1905522374036521E+01    0.2504941971167290E+01    0.7226290832134552E+00
    0.2879767723645806E+01    0.2504941971167290E+01    0.9080945892181931E+00
    0.2012711365064516E+01    0.2504941971167290E+01    0.1767082390977750E+01
    0.2669681472994637E+01    0.2504941971167290E+01    0.2853394335010789E+01
    0.5000000000000000E+01    0.1250000000000000E+01    0.5000000000000000E+01
    0.5000000000000000E+01    0.0000000000000000E+00    0.5000000000000000E+01
    0.5000000000000000E+01   -0.1250000000000000E+01    0.5000000000000000E+01
    0.5000000000000000E+01   -0.2496589036641632E+01    0.5000000000000000E+01
    0.5000000000000000E+01   -0.2496589036641632E+01    0.3750000000000000E+01
    0.5000000000000000E+01   -0.2496589036641632E+01    0.2500000000000000E+01
    0.5000000000000000E+01   -0.2496589036641632E+01    0.1250000000000000E+01
    0.5000000000000000E+01    0.1578994732800803E+01    0.9058375365086910E+00
    0.5000000000000000E+01   -0.1583989954232354E+01    0.3982050490726493E+01
    0.5000000000000000E+01    0.1453322699199022E+01    0.4033849428301197E+01
    0.5000000000000000E+01   -0.1479596339503735E+01    0.1040505887381675E+01
    0.5000000000000000E+01   -0.3227322616384110E+00    0.1099454400140349E+01
    0.5000000000000000E+01    0.6593508822075582E+00    0.7354504170366591E+00
    0.5000000000000000E+01    0.8256214013940779E+00    0.1622302608453282E+01
    0.5000000000000000E+01   -0.1650070333782557E+01    0.2145871574390382E+01
    0.5000000000000000E+01   -0.4612828702537229E+00    0.4086422318222992E+01
    0.5000000000000000E+01   -0.8579242121530853E+00    0.2979540174134984E+01
    0.5000000000000000E+01   -0.1836846154397680E+01    0.3045064261640043E+01
    0.5000000000000000E+01    0.3508002863614053E+00    0.3428197553792836E+01
    0.5000000000000000E+01    0.5185680230613409E+00    0.4309693860063405E+01
    0.5000000000000000E+01    0.1738996113203182E+01    0.1827272193562204E+01
    0.5000000000000000E+01    0.1325493893339706E+01    0.2808563282768077E+01
    0.5000000000000000E+01   -0.8731419609589618E+00    0.1895995683864404E+01
    0.5000000000000000E+01    0.4906150219227333E-01    0.2273179336307740E+01
    0.0000000000000000E+00    0.1250000000000000E+01    0.5000000000000000E+01
    0.0000000000000000E+00    0.0000000000000000E+00    0.5000000000000000E+01
    0.0000000000000000E+00   -0.1250000000000000E+01    0.5000000000000000E+01
    0.0000000000000000E+00   -0.2496589036641632E+01    0.5000000000000000E+01
    0.1250000000000000E+01   -0.2496589036641632E+01    0.5000000000000000E+01
    0.2500000000000000E+01   -0.2496589036641632E+01    0.5000000000000000E+01
    0.3750000000000000E+01   -0.2496589036641632E+01    0.5000000000000000E+01
    0.4042003247744892E+01    0.1558308132739014E+01    0.5000000000000000E+01
    0.9304122287900499E+00   -0.1548001304379777E+01    0.5000000000000000E+01
    0.1037243024609388E+01    0.1462892710085612E+01    0.5000000000000000E+01
    0.3946240828834967E+01   -0.1445243809615570E+01    0.5000000000000000E+01
    0.4092527262848217E+01   -0.3455338993778935E+00    0.5000000000000000E+01
    0.4293103109154542E+01    0.6277660831404320E+00    0.5000000000000000E+01
    0.3241512314643519E+01    0.7429886854239611E+00    0.5000000000000000E+01
    0.2844289952419609E+01   -0.1588117879734118E+01    0.5000000000000000E+01
    0.7159905765450471E+00   -0.6002320124191652E+00    0.5000000000000000E+01
    0.1754341919796891E+01   -0.7398147869923652E+00    0.5000000000000000E+01
    0.1870296826774691E+01   -0.1788622905643739E+01    0.5000000000000000E+01
    0.9220614901912976E+00    0.3083720183248586E+00    0.5000000000000000E+01
    0.3101523624086016E+01    0.1777901774806180E+01    0.5000000000000000E+01
    0.2192512063922564E+01    0.1576861561598471E+01    0.5000000000000000E+01
    0.2024793420196460E+01    0.4773861992750707E+00    0.5000000000000000E+01
    0.2990627757741975E+01   -0.4878110785814084E+00    0.5000000000000000E+01
    0.0000000000000000E+00   -0.2496589036641632E+01    0.1250000000000000E+01
    0.0000000000000000E+00   -0.2496589036641632E+01    0.2500000000000000E+01
    0.0000000000000000E+00   -0.2496589036641632E+01    0.3750000000000000E+01
    0.0000000000000000E+00    0.1558308132739014E+01    0.4042003247744892E+01
    0.0000000000000000E+00   -0.1548001304379777E+01    0.9304122287900499E+00
    0.0000000000000000E+00    0.1462892710085612E+01    0.1037243024609388E+01
    0.0000000000000000E+00   -0.1445243809615570E+01    0.3946240828834967E+01
    0.0000000000000000E+00   -0.3455338993778935E+00    0.4092527262848217E+01
    0.0000000000000000E+00    0.6277660831404320E+00    0.4293103109154542E+01
    0.0000000000000000E+00    0.7429886854239611E+00    0.3241512314643519E+01
    0.0000000000000000E+00   -0.1588117879734118E+01    0.2844289952419609E+01
    0.0000000000000000E+00   -0.6002320124191652E+00    0.7159905765450471E+00
    0.0000000000000000E+00   -0.7398147869923652E+00    0.1754341919796891E+01
    0.0000000000000000E+00   -0.1788622905643739E+01    0.1870296826774691E+01
    0.0000000000000000E+00    0.3083720183248586E+00    0.9220614901912976E+00
    0.0000000000000000E+00    0.1777901774806180E+01    0.3101523624086016E+01
    0.0000000000000000E+00    0.1576861561598471E+01    0.2192512063922564E+01
[...]
POINT_DATA 213
SCALARS rho double 1
LOOKUP_TABLE default
   0.1346125695035918E+01
   0.9572084529090219E+00
   0.9461020640321679E+00
   0.9421833083753652E+00
   0.8436100805381719E+00
   0.7742024924724585E+00
   0.7627632916087300E+00
   0.7661496234061018E+00
   0.8310481705635139E+00
   0.9353608199403063E+00
   0.9344036384411412E+00
   0.9615898878171555E+00
   0.1448480209172382E+01
   0.1495421840821243E+01
   0.1646754928544067E+01
   0.1426608059022156E+01
   0.1009808068866887E+01
   0.9511456930619879E+00
   0.9438291106279609E+00
   0.9574489510690830E+00
   0.9414832417716419E+00
   0.1037118221544029E+01
   0.9258147539140364E+00
   0.9322497229122200E+00
   0.9538141800659850E+00
   0.9520438485473166E+00
   0.9350971720704040E+00
   0.9565537239768007E+00
   0.9378700246276253E+00
   0.9303318786832884E+00
   0.9446515870015912E+00
   0.8862352514596926E+00
   0.9424046837879314E+00
   0.9637217347336327E+00
   0.1008362577443391E+01
   0.1006713364224087E+01
   0.1001959242786810E+01
   0.1003218316848867E+01
   0.1004120537739723E+01
   0.1005207992731935E+01
   0.1004249813772406E+01
   0.1008267843968391E+01
   0.1023867443182335E+01
   0.1063751875359036E+01
   0.1019386187350539E+01
   0.1001778933820238E+01
   0.9645975359563840E+00
   0.1005263110574790E+01
   0.1000745578468451E+01
   0.1008695104914266E+01
   0.1008032475291149E+01
   0.1002354651054621E+01
   0.9980224682922935E+00
   0.1000594441059126E+01
   0.1001621537584865E+01
   0.9828107804635418E+00
   0.9844011055433787E+00
   0.9834292501540125E+00
   0.9790423947956434E+00
   0.9904798795046958E+00
   0.9935224894701983E+00
   0.1002009106200423E+01
   0.1002132313696358E+01
   0.1002273033565274E+01
   0.1001793219421646E+01
   0.1009814973789589E+01
   0.1006499311890233E+01
   0.9560849998237924E+00
   0.9252996591989080E+00
   0.1007053713234625E+01
   0.1004491538538494E+01
   0.9144889716216388E+00
   0.9091476765070631E+00
   0.8752502579744128E+00
   0.9768039027739180E+00
   0.1000530366549356E+01
   0.1005826553801952E+01
   0.1012895293549057E+01
   0.1011677102509934E+01
   0.1010415988244191E+01
   0.1005456560687330E+01
   0.9909260245286234E+00
   0.1005152543412440E+01
   0.9860803849229435E+00
   0.1005592650745753E+01
   0.1004239968554371E+01
   0.1002886283566541E+01
   0.1003350788741607E+01
   0.1003998912077618E+01
   0.1005116700243594E+01
   0.1003224183289966E+01
   0.1002669182793081E+01
   0.1002590257689545E+01
   0.1004070004797688E+01
   0.1004304937696001E+01
   0.1001643035310545E+01
   0.1002279358044147E+01
   0.1002547250087228E+01
   0.1003472641535626E+01
   0.1003380930778111E+01
   0.1003233776673631E+01
   0.1004430853979553E+01
   0.1004325283089208E+01
   0.1003653379382753E+01
   0.1003719191746921E+01
   0.1004319534091127E+01
   0.1004463155540922E+01
   0.1003629980310337E+01
   0.1064490581908389E+01
   0.1028445780953418E+01
   0.1009607603187808E+01
   0.1006626774140778E+01
   0.1163979474123225E+01
   0.1086026004368352E+01
   0.1007908398905984E+01
   0.1007252664599189E+01
   0.1006796746928301E+01
   0.1013053608790988E+01
   0.1019342644437031E+01
   0.1235143811287954E+01
   0.1032536233119649E+01
   0.1046567728918718E+01
   0.1201703013078954E+01
   0.1014671125423322E+01
   0.1032295324330713E+01
   0.1028222151221091E+01
   0.1014641483660582E+01
   0.1029002257867479E+01
   0.1002002818941001E+01
   0.9607830587995330E+00
   0.1006859706960862E+01
   0.1001326954081782E+01
   0.1010800868387647E+01
   0.1012237273324823E+01
   0.1000940436385036E+01
   0.9979317236208103E+00
   0.9980683697336085E+00
   0.1001191956523719E+01
   0.9841985799412191E+00
   0.9815070583129165E+00
   0.9648654918888516E+00
   0.9680713430984033E+00
   0.9914149191876220E+00
   0.9910916480000243E+00
   0.9925598185004648E+00
   0.1001728510436767E+01
   0.9993250772930808E+00
   0.9941444030114311E+00
   0.1006981383602905E+01
   0.1022611654139120E+01
   0.1001121692014153E+01
   0.1008784265640019E+01
   0.1004775044094432E+01
   0.1009029447405496E+01
   0.9967197951327166E+00
   0.1005567613334424E+01
   0.1003325685898469E+01
   0.9949865130496742E+00
   0.9833521897361092E+00
   0.9944521642504968E+00
   0.9973482233472744E+00
   0.9932519263296710E+00
   0.1001312608428526E+01
   0.1003001448831451E+01
   0.1002189173548589E+01
   0.9947119516657947E+00
   0.9937839726277706E+00
   0.1004862069492991E+01
   0.1020102936792316E+01
   0.1005341234469873E+01
   0.9817063602251856E+00
   0.1004975501316125E+01
   0.1012376568800061E+01
   0.9873747463035867E+00
   0.9551282273420388E+00
   0.9865280377107893E+00
   0.9865952834682657E+00
   0.9920084247584851E+00
   0.9934470867358980E+00
   0.9960657347933111E+00
   0.1037405690945934E+01
   0.1033165796360046E+01
   0.1001443358522214E+01
   0.1001929574694358E+01
   0.9912286695089260E+00
   0.9911121699048904E+00
   0.9649300818470089E+00
   0.9933729919862180E+00
   0.1006089075222446E+01
   0.1001962081102830E+01
   0.9908628495391524E+00
   0.9742274498354330E+00
   0.9420781789449695E+00
   0.9821604772332921E+00
   0.9794777370735778E+00
   0.9704352201077330E+00
   0.9720842372843050E+00
   0.9557868492440494E+00
   0.9497981759252349E+00
   0.9529847958936581E+00
   0.1002637256727320E+01
   0.1002476301942045E+01
   0.1000513242356363E+01
   0.1001675738166213E+01
   0.9610108166358926E+00
   0.9492469481875724E+00
   0.9586432518148063E+00
   0.1001121462656909E+01
   0.1000500591059718E+01
   0.1001161102780664E+01
   0.9807429277626812E+00
   0.9805608284435314E+00
   0.9629214374677593E+00
SCALARS u double 1
LOOKUP_TABLE default
   0.0000000000000000E+00
   0.0000000000000000E+00
   0.0000000000000000E+00
   0.0000000000000000E+00
   0.0000000000000000E+00
   0.0000000000000000E+00
   0.0000000000000000E+00
   0.0000000000000000E+00
   0.0000000000000000E+00
   0.0000000000000000E+00
   0.0000000000000000E+00
   0.0000000000000000E+00
   0.0000000000000000E+00
   0.0000000000000000E+00
   0.0000000000000000E+00
   0.0000000000000000E+00
   0.0000000000000000E+00
   0.0000000000000000E+00
   0.0000000000000000E+00
   0.0000000000000000E+00
   0.0000000000000000E+00
   0.0000000000000000E+00
   0.0000000000000000E+00
   0.0000000000000000E+00
   0.0000000000000000E+00
   0.0000000000000000E+00
   0.0000000000000000E+00
   0.0000000000000000E+00
   0.0000000000000000E+00
   0.0000000000000000E+00
   0.0000000000000000E+00
   0.0000000000000000E+00
   0.0000000000000000E+00
   0.4946084288069875E+00
   0.5336296240044500E+00
   0.5182737276175193E+00
   0.4930696991467494E+00
   0.4847718153833412E+00
   0.4868108141520294E+00
   0.4891429103556855E+00
   0.4958014371831370E+00
   0.4899016129300119E+00
   0.4718097597074566E+00
   0.4448926899505947E+00
   0.4844425909444037E+00
   0.5097672062982921E+00
   0.4402157098136589E+00
   0.4949584585353152E+00
   0.5222981755743239E+00
   0.4962761334480366E+00
   0.5223877812469415E+00
   0.5038134101136278E+00
   0.5644352144689834E+00
   0.5245862230393484E+00
   0.4990946937085365E+00
   0.5729384845425493E+00
   0.5693720707821245E+00
   0.3752129679955173E+00
   0.4003935339783639E+00
   0.5599622499876518E+00
   0.5562276756283634E+00
   0.4942631205853523E+00
   0.4948654065912187E+00
   0.4925634788360329E+00
   0.4913991782649618E+00
   0.5162611628351489E+00
   0.5363588932803264E+00
   0.4951213600742672E+00
   0.4520531571147431E+00
   0.5129024770779262E+00
   0.5117690501121299E+00
   0.4786251288790577E+00
   0.4931155291547120E+00
   0.4600306964865115E+00
   0.5242629206355256E+00
   0.5299866667929464E+00
   0.5129711986499832E+00
   0.5328938855303208E+00
   0.5309772095342604E+00
   0.5309771249528641E+00
   0.5063651397078145E+00
   0.5279605778976743E+00
   0.5409254476436434E+00
   0.5363677254856123E+00
   0.5374194373094831E+00
   0.4965359092443452E+00
   0.4975361619354604E+00
   0.4963807508688319E+00
   0.4955144774004848E+00
   0.4904151885727098E+00
   0.4902491480062056E+00
   0.4861626495245611E+00
   0.4854037801488491E+00
   0.4931941381998560E+00
   0.4910329240355256E+00
   0.4831698325821905E+00
   0.4872469651376519E+00
   0.4880011036171241E+00
   0.4872294067065194E+00
   0.4882160209554750E+00
   0.4952567367684735E+00
   0.4900705810674699E+00
   0.4903581268149691E+00
   0.4944346865137091E+00
   0.4868163409730408E+00
   0.4892720570607147E+00
   0.4881455391271605E+00
   0.4878245201303958E+00
   0.4449022017416296E+00
   0.4700099664576413E+00
   0.4891756201210526E+00
   0.4885980864864312E+00
   0.4510286416885811E+00
   0.4681799612348734E+00
   0.4876648972578894E+00
   0.4868253756473594E+00
   0.4909267529966442E+00
   0.4793946318470381E+00
   0.4657884654882564E+00
   0.3794302311558089E+00
   0.4903697418704528E+00
   0.4487929174628190E+00
   0.4432385352858262E+00
   0.4845729178251509E+00
   0.4621884479282753E+00
   0.4663602298189461E+00
   0.4747774268302851E+00
   0.4893613110766712E+00
   0.5085681490918407E+00
   0.4304904288257286E+00
   0.4927280753218143E+00
   0.5320316186758253E+00
   0.4913826502372053E+00
   0.5209404403072283E+00
   0.5061319832954742E+00
   0.5690636322041113E+00
   0.5275039926258671E+00
   0.5015047803206384E+00
   0.5821373616811573E+00
   0.5691503699098192E+00
   0.3402452489884942E+00
   0.3785432683426486E+00
   0.5753091280441986E+00
   0.5668547248456824E+00
   0.5703055450637183E+00
   0.5291879659650954E+00
   0.5449833827745161E+00
   0.5719093998686250E+00
   0.5385694586284979E+00
   0.5475896935342455E+00
   0.5821565651455816E+00
   0.4925313044791534E+00
   0.5041557173880568E+00
   0.4961299802843409E+00
   0.5562803684030694E+00
   0.4757814623176934E+00
   0.4950174787824816E+00
   0.5496174669322305E+00
   0.5889519109029344E+00
   0.5839568632457214E+00
   0.5468163490178926E+00
   0.5803877177590108E+00
   0.5106055686405578E+00
   0.5029532232496212E+00
   0.5033085366575482E+00
   0.5676232051079340E+00
   0.5564629524610946E+00
   0.4947135439099612E+00
   0.5506799460669578E+00
   0.5513545695816933E+00
   0.5658254156488651E+00
   0.4919953535858914E+00
   0.4927852057164109E+00
   0.3865438333870305E+00
   0.3687907201091076E+00
   0.5574381186513220E+00
   0.5761778934058686E+00
   0.4194381850270519E+00
   0.5822999345352079E+00
   0.4268238594238193E+00
   0.5397390504922102E+00
   0.5016174621594549E+00
   0.5119228228361092E+00
   0.5048434162714982E+00
   0.5752768153777292E+00
   0.5878367583383685E+00
   0.5382358737526944E+00
   0.5679645539866357E+00
   0.5352016966117928E+00
   0.5338463691634765E+00
   0.5582293098615561E+00
   0.5511563289159669E+00
   0.4256775829099013E+00
   0.5272986081822489E+00
   0.5796794665945089E+00
   0.3318312940944588E+00
   0.4761441131221028E+00
   0.5446494935934881E+00
   0.4800669225459118E+00
   0.3006201116157455E+00
   0.5031625244224586E+00
   0.5017180910461980E+00
   0.5129133725275691E+00
   0.5414117103863811E+00
   0.3435217004223350E+00
   0.3398080158928143E+00
   0.3190194433549568E+00
   0.5066187048617292E+00
   0.5123864698962056E+00
   0.5329068379874210E+00
   0.5881307274754268E+00
   0.4644883168688372E+00
   0.3529622375375733E+00
SCALARS v double 1
LOOKUP_TABLE default
   0.0000000000000000E+00
   0.0000000000000000E+00
   0.0000000000000000E+00
   0.0000000000000000E+00
   0.0000000000000000E+00
   0.0000000000000000E+00
   0.0000000000000000E+00
   0.0000000000000000E+00
   0.0000000000000000E+00
   0.0000000000000000E+00
   0.0000000000000000E+00
   0.0000000000000000E+00
   0.0000000000000000E+00
   0.0000000000000000E+00
   0.0000000000000000E+00
   0.0000000000000000E+00
   0.0000000000000000E+00
   0.0000000000000000E+00
   0.0000000000000000E+00
   0.0000000000000000E+00
   0.0000000000000000E+00
   0.0000000000000000E+00
   0.0000000000000000E+00
   0.0000000000000000E+00
   0.0000000000000000E+00
   0.0000000000000000E+00
   0.0000000000000000E+00
   0.0000000000000000E+00
   0.0000000000000000E+00
   0.0000000000000000E+00
   0.0000000000000000E+00
   0.0000000000000000E+00
   0.0000000000000000E+00
   0.0000000000000000E+00
   0.0000000000000000E+00
   0.0000000000000000E+00
   0.0000000000000000E+00
   0.0000000000000000E+00
   0.0000000000000000E+00
   0.0000000000000000E+00
   0.0000000000000000E+00
   0.0000000000000000E+00
   0.0000000000000000E+00
   0.0000000000000000E+00
   0.0000000000000000E+00
   0.0000000000000000E+00
   0.0000000000000000E+00
   0.0000000000000000E+00
   0.0000000000000000E+00
   0.0000000000000000E+00
   0.0000000000000000E+00
   0.0000000000000000E+00
   0.0000000000000000E+00
   0.0000000000000000E+00
   0.0000000000000000E+00
   0.0000000000000000E+00
   0.0000000000000000E+00
   0.0000000000000000E+00
   0.0000000000000000E+00
   0.0000000000000000E+00
   0.0000000000000000E+00
   0.8513956484828987E-03
  -0.1262642999487513E-02
  -0.1293744907040317E-02
   0.0000000000000000E+00
   0.0000000000000000E+00
   0.0000000000000000E+00
   0.0000000000000000E+00
  -0.1933774835235723E-01
   0.5035654664953188E-03
   0.2213150341024335E-02
   0.1419313553699386E-01
  -0.6753674470403460E-02
  -0.8171005988399475E-02
  -0.1325788816769405E-01
   0.4993928974024313E-02
   0.7358920798606071E-03
   0.3478387728456131E-02
   0.1946723410452601E-02
   0.3168070971149200E-02
   0.1755557012486439E-02
  -0.7295456444459995E-02
  -0.6912340363464593E-04
   0.4552257848500149E-02
  -0.4165987292720735E-03
  -0.6650696940943705E-04
  -0.2024619555509473E-03
   0.8052041517166135E-03
   0.0000000000000000E+00
   0.0000000000000000E+00
   0.0000000000000000E+00
   0.0000000000000000E+00
   0.4747328598539626E-03
   0.1624023001371859E-02
  -0.1273124936484758E-02
  -0.9977698595385791E-03
  -0.2076424688198273E-02
  -0.9960590343812178E-03
  -0.7502623019235412E-03
  -0.7419323381353779E-03
   0.6055388210566311E-04
  -0.5966228797960298E-03
   0.8041025402015405E-03
  -0.1730002220136124E-02
   0.3146411115352310E-03
  -0.5710209923050521E-04
  -0.8890512776551170E-03
  -0.1052085466429031E-02
   0.0000000000000000E+00
   0.0000000000000000E+00
   0.0000000000000000E+00
  -0.1035601571586168E-02
  -0.7789944105691352E-02
   0.1821259134870556E-01
  -0.2902416386258999E-04
  -0.1377098266158026E-02
  -0.2028457029394501E-02
  -0.5613671727632262E-02
  -0.1620474497884471E-02
  -0.6357462371176940E-02
  -0.4327186083987297E-02
   0.1517793731184715E-02
   0.3300594268291721E-01
   0.4394531708154036E-04
  -0.2766565860073374E-02
   0.3629287544496893E-02
   0.3910358740693567E-03
   0.0000000000000000E+00
   0.0000000000000000E+00
   0.0000000000000000E+00
   0.0000000000000000E+00
   0.0000000000000000E+00
   0.0000000000000000E+00
   0.0000000000000000E+00
   0.0000000000000000E+00
   0.0000000000000000E+00
   0.0000000000000000E+00
   0.0000000000000000E+00
   0.0000000000000000E+00
   0.0000000000000000E+00
   0.0000000000000000E+00
   0.0000000000000000E+00
   0.0000000000000000E+00
   0.0000000000000000E+00
   0.5001778152232047E-02
   0.3214064984112908E-02
   0.8126045411840607E-02
   0.6096300959066028E-02
   0.1117411733288086E-01
   0.1403811527245588E-01
  -0.3216221683659767E-03
   0.5161911393853327E-02
   0.2930107512919812E-02
   0.3378096158445630E-02
   0.3728544905582455E-02
  -0.1469573982807621E-01
  -0.6136954920345647E-03
   0.6639776037616264E-02
   0.1457244874330285E-02
   0.1959300825013035E-02
   0.4263979916264670E-02
  -0.2812425944262412E-02
   0.1267608886068863E-02
   0.2851959203276811E-02
   0.1534867708778205E-02
   0.2563344284496579E-02
   0.2013568676926701E-02
   0.2154333958906169E-02
   0.8583998670360282E-02
  -0.3830083280051909E-02
   0.6155698677705212E-02
   0.4725659381969419E-04
  -0.4231582879347361E-03
  -0.1674129346728779E-01
  -0.4996659973231564E-02
  -0.4827349478108812E-02
   0.3399378215084278E-02
  -0.6077437442375507E-02
   0.3194964751967465E-04
  -0.3284948887270639E-01
  -0.3181989518881135E-02
   0.4581319061284800E-02
   0.9682231201924355E-03
   0.2133486427552045E-02
   0.4530687255338803E-02
   0.2692787416357486E-02
   0.3243073156836107E-02
   0.5223604842678220E-02
   0.1957627207860886E-02
   0.7485450724583317E-03
  -0.5693767353601087E-04
  -0.5322690362790180E-02
  -0.6972867813568927E-02
  -0.9635299331463085E-03
   0.1062718433116751E-02
  -0.2106021599417484E-02
  -0.3219291876148858E-02
  -0.2544864406618785E-02
  -0.4131306063103654E-02
  -0.7566170037864284E-02
  -0.2012358559169768E-02
   0.6515124817953939E-03
  -0.1916285090895148E-03
   0.1227815973095493E-02
  -0.3502806755896361E-02
   0.4846684093591663E-02
  -0.8642681704561280E-02
   0.3341866884242887E-04
  -0.3327782036097816E-03
   0.2558605783020761E-02
   0.1615750261907479E-02
   0.2039006053072219E-02
  -0.5641501654408508E-02
SCALARS w double 1
LOOKUP_TABLE default
   0.0000000000000000E+00
   0.0000000000000000E+00
   0.0000000000000000E+00
   0.0000000000000000E+00
   0.0000000000000000E+00
   0.0000000000000000E+00
   0.0000000000000000E+00
   0.0000000000000000E+00
   0.0000000000000000E+00
   0.0000000000000000E+00
   0.0000000000000000E+00
   0.0000000000000000E+00
   0.0000000000000000E+00
   0.0000000000000000E+00
   0.0000000000000000E+00
   0.0000000000000000E+00
   0.0000000000000000E+00
   0.0000000000000000E+00
   0.0000000000000000E+00
   0.0000000000000000E+00
   0.0000000000000000E+00
   0.0000000000000000E+00
   0.0000000000000000E+00
   0.0000000000000000E+00
   0.0000000000000000E+00
   0.0000000000000000E+00
   0.0000000000000000E+00
   0.0000000000000000E+00
   0.0000000000000000E+00
   0.0000000000000000E+00
   0.0000000000000000E+00
   0.0000000000000000E+00
   0.0000000000000000E+00
  -0.1007241832224174E+00
  -0.4245528425695607E-01
   0.7158747636994675E-03
   0.5704941484366627E-02
   0.5684952106947631E-03
   0.1606879312391576E-02
   0.3372604582766732E-02
   0.2364299322134764E-02
   0.4720646643303492E-03
   0.3528387201178127E-02
   0.4533336069859380E-01
   0.6563397482280536E-01
   0.8384130478951062E-03
  -0.2266132398142735E-01
   0.4271065125035008E-02
   0.1341970169277790E-01
   0.1029750709028955E-01
   0.4870834201811736E-01
   0.2381551680290417E-02
  -0.6534999320986497E-02
  -0.7372437454725501E-03
   0.3056382317933302E-03
   0.3846852434596304E-02
  -0.3893635121153819E-01
   0.1820273581438244E-01
   0.1120446033708963E-01
   0.3395774037825636E-01
   0.8380191310854048E-02
   0.4924616503650456E-02
   0.4973761446426310E-02
   0.4900524098534237E-02
   0.6056720029924091E-02
   0.2695310533805553E-02
  -0.4127769715405625E-01
  -0.9927104307560489E-01
  -0.1120360381596420E+00
   0.5144526086749953E-02
   0.4216386824091568E-02
  -0.1002595860915773E+00
  -0.9892594332239271E-01
  -0.9835483710506614E-01
  -0.9443969326317536E-01
  -0.6790972041506609E-01
   0.5196996128775081E-02
  -0.1927315286810514E-01
  -0.1563508313893897E-01
  -0.5964346840408744E-02
   0.6822778438237648E-02
  -0.7999951690353882E-01
  -0.2776431487792527E-01
  -0.8086526766325070E-01
  -0.5863339153744147E-01
   0.3073989580997946E-02
   0.2685175110013201E-02
   0.2644703294821521E-02
   0.3457404472996015E-02
   0.3998529112754868E-02
   0.1199875808371698E-02
  -0.1355428924712527E-03
   0.2028964888852598E-02
   0.4894373421486406E-02
   0.3864560993042460E-02
   0.1126431960752133E-02
   0.1188310183560819E-02
   0.1460245645335770E-02
  -0.2199385950821718E-04
   0.9122000655127928E-04
   0.4387187039449839E-02
   0.2712580227638333E-02
   0.2317255031318369E-02
   0.5007037367569609E-02
   0.1069972045847378E-02
   0.2707114676273851E-02
   0.2010664694084559E-02
   0.3391942497218828E-04
   0.8386260313580055E-01
   0.2832480873497264E-02
  -0.8469296496419221E-03
  -0.1274284573904651E-03
   0.1410903979919994E+00
   0.1236626536365290E+00
  -0.1228867642371476E-02
  -0.4383136256425136E-02
  -0.2804612391368496E-03
  -0.6477826826458028E-02
  -0.1895598765602822E-02
   0.1559394040552758E+00
   0.7528604326180573E-01
   0.2567550692919952E-01
   0.1661313051714392E+00