title="tecplot geometry and solution file"
variables = x y z mach temperature lambda1 lambda2 lambda3 lambda4 lambda5
zone t="boundary 1 bc-1", solutiontime= 0.7000000E+02, strandid=1001, i=32, j=46, f=feblock
 -0.547474059460E-02  0.000000000000E+00 -0.567611628244E-02  0.000000000000E+00  0.000000000000E+00  0.000000000000E+00 -0.525163924646E-02
 -0.425780134844E-02  0.000000000000E+00  0.000000000000E+00  0.000000000000E+00  0.000000000000E+00  0.000000000000E+00  0.000000000000E+00
  0.000000000000E+00  0.000000000000E+00 -0.338397968290E-02  0.000000000000E+00  0.000000000000E+00  0.000000000000E+00  0.000000000000E+00
  0.000000000000E+00  0.000000000000E+00  0.000000000000E+00  0.000000000000E+00  0.000000000000E+00  0.000000000000E+00  0.000000000000E+00
  0.000000000000E+00  0.000000000000E+00  0.000000000000E+00  0.000000000000E+00
  0.250494200247E+01  0.250494200247E+01  0.127822172847E+01  0.146289271009E+01  0.157686156160E+01  0.308372018325E+00  0.261950000797E-01
 -0.122573468786E+01 -0.600232012419E+00  0.250494200247E+01  0.477386199275E+00  0.742988685424E+00 -0.739814786992E+00  0.177790177481E+01
  0.155830813274E+01  0.250494200247E+01 -0.249658901876E+01 -0.154800130438E+01 -0.487811078581E+00  0.250494200247E+01  0.627766083140E+00
 -0.345533899378E+00 -0.178862290564E+01 -0.158811787973E+01  0.125000000000E+01 -0.249658901876E+01 -0.144524380962E+01  0.000000000000E+00
 -0.125000000000E+01 -0.249658901876E+01 -0.249658901876E+01 -0.249658901876E+01
  0.803806651373E-04  0.125000000000E+01  0.822455052730E-04  0.103724302461E+01  0.219251206392E+01  0.922061490191E+00  0.103872499450E-03
  0.341545354745E-04  0.715990576545E+00  0.250000000000E+01  0.202479342020E+01  0.324151231464E+01  0.175434191980E+01  0.310152362409E+01
  0.404200324774E+01  0.375000000000E+01  0.810729323493E-04  0.930412228790E+00  0.299062775774E+01  0.500000000000E+01  0.429310310915E+01
  0.409252726285E+01  0.187029682677E+01  0.284428995242E+01  0.500000000000E+01  0.125000000000E+01  0.394624082883E+01  0.500000000000E+01
  0.500000000000E+01  0.250000000000E+01  0.375000000000E+01  0.500000000000E+01
  0.000000000000E+00  0.440673586208E+00  0.000000000000E+00  0.474618312942E+00  0.460126827849E+00  0.468640528253E+00  0.000000000000E+00
  0.000000000000E+00  0.402536918085E+00  0.469888417966E+00  0.464194764523E+00  0.478751111286E+00  0.489556170192E+00  0.483131208311E+00
  0.488003760331E+00  0.489035900682E+00  0.000000000000E+00  0.465239150297E+00  0.473760589661E+00  0.495365426690E+00  0.490293994454E+00
  0.486277511197E+00  0.445852126547E+00  0.464357935362E+00  0.496128464259E+00  0.443892833990E+00  0.486929021189E+00  0.497248848021E+00
  0.496055597969E+00  0.467741935742E+00  0.488188091920E+00  0.495090528096E+00
  0.100000000000E+01  0.102982865541E+01  0.100000000000E+01  0.104241277716E+01  0.101187608801E+01  0.102516476050E+01  0.100000000000E+01
  0.100000000000E+01  0.103882396963E+01  0.100825749378E+01  0.101253466570E+01  0.100301619360E+01  0.102705426408E+01  0.100604070185E+01
  0.100244504891E+01  0.100354784507E+01  0.100000000000E+01  0.103209988123E+01  0.100459396594E+01  0.100178605814E+01  0.100260299680E+01
  0.100234721389E+01  0.101657109411E+01  0.100620576703E+01  0.100168350951E+01  0.104024868236E+01  0.100303449040E+01  0.100118704030E+01
  0.100134433813E+01  0.100976411358E+01  0.100405601417E+01  0.100176413668E+01
  0.610102241827E-02  0.306720303490E-01  0.698457472779E-02  0.492842528141E-01  0.346881308786E-02  0.587066932285E-01  0.512118597722E-02
  0.170568624235E-02  0.582737645694E-01 -0.164992801493E-02  0.389975444092E-02 -0.701965891010E-02  0.329309718391E-02 -0.389675820622E-02
 -0.933389267957E-02 -0.931148294161E-02  0.308583469405E-02  0.385677399852E-01 -0.515854228301E-02 -0.339857232918E-01 -0.121362777311E-01
 -0.812698577881E-02  0.186584934024E-02 -0.443746751219E-02 -0.351895985613E-01  0.248761143315E-01 -0.633156874329E-02 -0.387862064324E-01
 -0.342308360203E-01 -0.361018535968E-02 -0.697149757048E-02 -0.321711777349E-01
  0.239180675964E-03  0.444701317862E-02  0.331444694305E-03  0.629816550742E-02  0.165132232959E-03  0.888148589376E-02  0.361463757003E-03
  0.321542603041E-03  0.868038325986E-02 -0.782597246678E-03  0.347127993118E-03 -0.148144841542E-02 -0.971414065944E-04 -0.114288770528E-02
 -0.182982840833E-02 -0.204924117589E-02  0.284318537173E-03  0.601330035682E-02 -0.103418887526E-02 -0.697914605110E-02 -0.240642405229E-02
 -0.155613374511E-02 -0.207702641113E-03 -0.851563213156E-03 -0.736750427225E-02  0.306415768773E-02 -0.124806692069E-02 -0.814815860301E-02
 -0.716157604759E-02 -0.904780689715E-03 -0.148499194078E-02 -0.669192060447E-02
  0.405828509864E-03  0.128355540560E-03  0.546917117676E-03  0.125031357794E-02  0.147353609773E-03  0.606734737406E-03  0.467391516340E-03
 -0.174892062637E-03 -0.333719909562E-04 -0.133088558413E-04  0.128363455978E-03  0.133157134729E-03 -0.140599084629E-03  0.250903374198E-04
 -0.495599764516E-04 -0.287193460164E-05 -0.245075464679E-03 -0.794180611903E-03  0.152839343396E-04  0.332401805163E-05 -0.320384497914E-04
 -0.381210665682E-04 -0.165135557268E-04 -0.137067641090E-03  0.897595338417E-04 -0.102523340511E-03 -0.785856265311E-04 -0.171164007512E-04
 -0.755929244701E-04 -0.219840329912E-04 -0.801640361090E-05  0.654833598609E-05
 -0.147367795085E-02 -0.134225928776E-02 -0.160705249205E-02 -0.714453312744E-05  0.142115573507E-02  0.153393413336E-02 -0.899982463022E-03
 -0.786598809836E-03  0.108728856019E-02  0.155234513702E-02  0.289643614757E-02  0.159503378231E-02  0.319726431054E-02  0.148275836168E-02
  0.109558732093E-02  0.128762713818E-02 -0.609657910840E-03  0.916847301169E-03  0.183377126541E-02  0.461666114114E-03  0.101739963459E-02
  0.121216320919E-02  0.217919214672E-02  0.148771258460E-02  0.443210772330E-03  0.112535090396E-02  0.111192362774E-02  0.419544272784E-03
  0.501278661969E-03  0.168639347707E-02  0.113901670872E-02  0.491835011966E-03
 -0.487349745512E-02 -0.126327301242E-01 -0.665633335590E-02 -0.197249867933E-01 -0.144251519376E-02 -0.243690491823E-01  0.325705521716E-03
  0.104280479937E-02 -0.242169727246E-01  0.663701312393E-03 -0.170505765801E-02  0.274443057283E-02 -0.142042379022E-02  0.153550240517E-02
  0.372768129018E-02  0.375545827382E-02 -0.101635286854E-02 -0.161238810112E-01  0.191165774980E-02  0.141086940336E-01  0.490141741023E-02
  0.321414571299E-02 -0.897709008422E-03  0.158960349417E-02  0.146348033625E-01 -0.101413077243E-01  0.246916087699E-02  0.161778194869E-01
  0.142447810261E-01  0.131291162814E-02  0.276991228923E-02  0.133527847222E-01
        12        19        11        11
        11         5        12        12
        10        14         5         5
        19        13        11        11
        19        24        13        13
        30        23        24        24
        19        12        22        22
        28        22        21        21
        11        13         6         6
         7         6         9         9
        15        12        14        14
        18        13        23        23
        15        25        21        21
        27        19        22        22
        18         8         9         9
        27        31        24        24
         4        11         6         6
         5        14        12        12
         4         2         5         5
        21        12        15        15
        14        16        15        15
        24        19        27        27
        22        29        27        27
        23        26        18        18
        17         8        18        18
         5        11         4         4
         6         3         4         4
        26        23        30        30
         5         2        10        10
        16        14        10        10
         3         6         7         7
        21        25        28        28
        29        22        28        28
         6        13         9         9
         2         4         1         1
        31        27        32        32
        25        15        20        20
        24        23        13        13
         8         7         9         9
        13        18         9         9
        31        30        24        24
        12        21        22        22
        29        32        27        27
         3         1         4         4
        26        17        18        18
        16        20        15        15
zone t="boundary 2 bc-2", solutiontime= 0.7000000E+02, strandid=1002, i=33, j=48, f=feblock
  0.500195254422E+01  0.375034811298E+01  0.249861145436E+01  0.288036673892E+01  0.124717525199E+01  0.190856697748E+01  0.326577189562E+01
  0.201394855830E+01 -0.338397968290E-02  0.962374244476E+00  0.500000000000E+01  0.403430189262E+01  0.423029563056E+01  0.500000000000E+01
  0.385439188349E+01  0.500000000000E+01  0.398133432926E+01  0.315200081100E+01  0.266958028570E+01  0.154798029932E+01  0.218327860448E+01
  0.893688443034E+00  0.000000000000E+00  0.699009764482E+00  0.964460900712E+00  0.310303671524E+01  0.000000000000E+00  0.000000000000E+00
  0.125000000000E+01  0.500000000000E+01  0.375000000000E+01  0.250000000000E+01  0.000000000000E+00
 -0.249658901876E+01 -0.249658901876E+01 -0.249658901876E+01 -0.249658901876E+01 -0.249658901876E+01 -0.249658901876E+01 -0.249658901876E+01
 -0.249658901876E+01 -0.249658901876E+01 -0.249658901876E+01 -0.249658901876E+01 -0.249658901876E+01 -0.249658901876E+01 -0.249658901876E+01
 -0.249658901876E+01 -0.249658901876E+01 -0.249658901876E+01 -0.249658901876E+01 -0.249658901876E+01 -0.249658901876E+01 -0.249658901876E+01
 -0.249658901876E+01 -0.249658901876E+01 -0.249658901876E+01 -0.249658901876E+01 -0.249658901876E+01 -0.249658901876E+01 -0.249658901876E+01
 -0.249658901876E+01 -0.249658901876E+01 -0.249658901876E+01 -0.249658901876E+01 -0.249658901876E+01
  0.108226447141E-03  0.145876065134E-03  0.100893846408E-03  0.901663358034E+00  0.110859295738E-03  0.714928307672E+00  0.188140645381E+01
  0.175892163508E+01  0.810729323493E-04  0.957504280272E+00  0.125000000000E+01  0.100596695734E+01  0.191313517561E+01  0.250000000000E+01
  0.292898095401E+01  0.375000000000E+01  0.406883368972E+01  0.363389288779E+01  0.284756859276E+01  0.292582306774E+01  0.395754054024E+01
  0.205027255782E+01  0.125000000000E+01  0.306703271994E+01  0.397155766145E+01  0.433068621574E+01  0.250000000000E+01  0.375000000000E+01
  0.500000000000E+01  0.500000000000E+01  0.500000000000E+01  0.500000000000E+01  0.500000000000E+01
  0.000000000000E+00  0.000000000000E+00  0.000000000000E+00  0.380535862472E+00  0.000000000000E+00  0.343212834639E+00  0.585244990074E+00
  0.579498833438E+00  0.000000000000E+00  0.500957423107E+00  0.508771778229E+00  0.434314571228E+00  0.572818734534E+00  0.537159705297E+00
  0.569105413070E+00  0.515014322279E+00  0.508256786360E+00  0.527354096717E+00  0.567655991946E+00  0.531857160672E+00  0.506013908922E+00
  0.521044924071E+00  0.443892833990E+00  0.490703886068E+00  0.492148704113E+00  0.501388511919E+00  0.467741935742E+00  0.488188091920E+00
  0.489960762589E+00  0.491323960968E+00  0.486020165251E+00  0.489981969829E+00  0.495090528096E+00
  0.100000000000E+01  0.100000000000E+01  0.100000000000E+01  0.989599128023E+00  0.100000000000E+01  0.985607741824E+00  0.989839398554E+00
  0.991730726837E+00  0.100000000000E+01  0.984222782614E+00  0.985140550700E+00  0.984819565150E+00  0.990066408426E+00  0.100292339881E+01
  0.999857222347E+00  0.100487240082E+01  0.100122707404E+01  0.100056950113E+01  0.997887793721E+00  0.100350888053E+01  0.100059339364E+01
  0.101090629484E+01  0.104024868236E+01  0.100327934770E+01  0.100254926022E+01  0.100046782861E+01  0.100976411358E+01  0.100405601417E+01
  0.100192601697E+01  0.100045821179E+01  0.100058930479E+01  0.100110067301E+01  0.100176413668E+01
 -0.252334079200E-02 -0.197846970507E-02 -0.121475864358E-02  0.238871703643E-01  0.241567864620E-02  0.783256770692E-01 -0.513277927625E-02
  0.945414729419E-03  0.308583469405E-02  0.364113084968E-01 -0.659551922998E-02 -0.762583803909E-02 -0.517690454369E-02 -0.442561968093E-02
 -0.325429608083E-02 -0.297010339374E-02 -0.218683194500E-02 -0.253095679849E-02 -0.418847158731E-02 -0.501223020135E-02 -0.329357291368E-02
  0.131167817900E-02  0.248761143315E-01 -0.338766843374E-02 -0.608990500721E-02 -0.396512513076E-02 -0.361018535968E-02 -0.697149757048E-02
 -0.289378481876E-01 -0.345690870263E-02 -0.132317709811E-01 -0.254252445053E-01 -0.321711777349E-01
  0.688038081174E-03 -0.192403533155E-03  0.186101401296E-04  0.410465689438E-02 -0.447442132506E-03  0.973206846323E-02 -0.195082881198E-04
 -0.387683651746E-03  0.284318537173E-03  0.429795331782E-02  0.149333696921E-02  0.510882914875E-04  0.758620917689E-03  0.113148902386E-02
  0.753206522577E-03  0.696421683642E-03  0.834192268908E-03  0.695143046206E-03  0.255874137858E-03 -0.423867387615E-03  0.298485428606E-03
 -0.360622718333E-03  0.306415768773E-02 -0.230087344645E-03 -0.701335223564E-03  0.411794777089E-03 -0.904780689715E-03 -0.148499194078E-02
 -0.520566293452E-02  0.174287737658E-03 -0.132938679347E-02 -0.395258139795E-02 -0.669192060447E-02
 -0.155445387232E-03  0.410978043588E-04  0.241703123586E-03  0.557909652144E-03  0.128348312929E-03  0.973157113307E-03 -0.761027555399E-04
  0.867280424025E-05 -0.245075464679E-03  0.373144225779E-03 -0.884472436658E-04 -0.284867901442E-03  0.530198711990E-05  0.835695780727E-05
  0.687479274057E-05 -0.133552225058E-04  0.161907057069E-05 -0.712009225174E-05  0.115816081638E-04  0.276329936062E-04 -0.169165107676E-04
  0.289601548994E-04 -0.102523340511E-03  0.546502554329E-05 -0.265955912365E-05 -0.591922455488E-05 -0.219840329912E-04 -0.801640361090E-05
 -0.261318898048E-05 -0.238101595304E-05  0.519589093492E-06  0.173546100775E-05  0.654833598609E-05
 -0.198502312180E-03 -0.204937288008E-03 -0.309704229842E-03  0.103428940354E-02 -0.716689636744E-03  0.224309297810E-03  0.156046793000E-02
  0.208719959122E-02 -0.609657910840E-03  0.980881359519E-03  0.298760115909E-03  0.109220658408E-02  0.626960855077E-03  0.283390142504E-03
  0.647041528791E-03  0.236871377688E-03  0.629155208064E-03  0.888605242256E-03  0.105428814502E-02  0.109572331148E-02  0.102598437533E-02
  0.165899041105E-02  0.112535090396E-02  0.116590010510E-02  0.102755991226E-02  0.886987124428E-03  0.168639347707E-02  0.113901670872E-02
  0.691338073626E-03  0.368558941472E-03  0.801744547264E-03  0.869555079776E-03  0.491835011966E-03
  0.718496995253E-03  0.197895310083E-02  0.342985830986E-02 -0.108863967241E-01  0.409111126997E-02 -0.335475998767E-01  0.152394004557E-02
 -0.485550728547E-03 -0.101635286854E-02 -0.150874752012E-01  0.142554847328E-02  0.231557958739E-02  0.127169322394E-02  0.848578034738E-03
  0.635894838266E-03  0.600582616059E-03  0.300591644453E-03  0.460766266829E-03  0.114881765936E-02  0.170379968718E-02  0.880405275758E-03
 -0.598247083683E-03 -0.101413077243E-01  0.109208966417E-02  0.222185731730E-02  0.108184121584E-02  0.131291162814E-02  0.276991228923E-02
  0.117575875544E-01  0.104476016382E-02  0.496527073784E-02  0.101092977693E-01  0.133527847222E-01
        15         7        19        19
         8        20        19        19
        18        19        21        21
         7         4         8         8
         3         6         4         4
        19         7         8         8
        19        18        15        15
        14        13        15        15
         8        22        20        20
        27        24        22        22
        19        20        21        21
        32        26        21        21
        17        18        26        26
        17        16        15        15
        25        29        21        21
        12         7        13        13
        10         8         6         6
        25        20        24        24
         4         6         8         8
        12         2         4         4
        10        23        22        22
        26        31        17        17
        30        16        17        17
         4         7        12        12
        13        11        12        12
        21        20        25        25
        24        28        25        25
        22         8        10        10
         6         5        10        10
        31        26        32        32
         4         2         3         3
         5         6         3         3
        11        13        14        14
        22        23        27        27
        28        24        27        27
        15        13         7         7
         2        12         1         1
        29        25        33        33
        23        10         9         9
        21        26        18        18
        16        14        15        15
        18        17        15        15
        29        32        21        21
        22        24        20        20
        28        33        25        25
        11         1        12        12
        31        30        17        17
         5         9        10        10
zone t="boundary 3 bc-3", solutiontime= 0.7000000E+02, strandid=1003, i=33, j=48, f=feblock
  0.375059098390E+01  0.249769607367E+01  0.500322137759E+01  0.403612219697E+01  0.287976771604E+01  0.124541906059E+01  0.190552233801E+01
  0.500000000000E+01  0.326671104356E+01  0.423253756077E+01  0.201271135077E+01 -0.547474059460E-02  0.958895606422E+00  0.500000000000E+01
  0.266968146972E+01  0.385584487519E+01  0.890374194728E+00  0.154654012793E+01  0.000000000000E+00  0.500000000000E+01  0.315261136749E+01
  0.218304199327E+01  0.398195307995E+01  0.000000000000E+00  0.697379944222E+00  0.963757274675E+00  0.125000000000E+01  0.000000000000E+00
  0.500000000000E+01  0.310330738530E+01  0.250000000000E+01  0.375000000000E+01  0.000000000000E+00
  0.250494200247E+01  0.250494200247E+01  0.250494200247E+01  0.250494200247E+01  0.250494200247E+01  0.250494200247E+01  0.250494200247E+01
  0.250494200247E+01  0.250494200247E+01  0.250494200247E+01  0.250494200247E+01  0.250494200247E+01  0.250494200247E+01  0.250494200247E+01
  0.250494200247E+01  0.250494200247E+01  0.250494200247E+01  0.250494200247E+01  0.250494200247E+01  0.250494200247E+01  0.250494200247E+01
  0.250494200247E+01  0.250494200247E+01  0.250494200247E+01  0.250494200247E+01  0.250494200247E+01  0.250494200247E+01  0.250494200247E+01
  0.250494200247E+01  0.250494200247E+01  0.250494200247E+01  0.250494200247E+01  0.250494200247E+01
  0.135649803876E-03  0.110129310889E-03  0.966880623676E-04  0.101756755321E+01  0.908094609206E+00  0.103942035531E-03  0.722629117445E+00
  0.125000000000E+01  0.188965663752E+01  0.191862698617E+01  0.176708241773E+01  0.803806651373E-04  0.969652600869E+00  0.250000000000E+01
  0.285339435101E+01  0.293325059952E+01  0.205656226267E+01  0.293157018903E+01  0.125000000000E+01  0.375000000000E+01  0.363766839843E+01
  0.396069445891E+01  0.407056385916E+01  0.250000000000E+01  0.307031996474E+01  0.397359820986E+01  0.500000000000E+01  0.375000000000E+01
  0.500000000000E+01  0.433260781817E+01  0.500000000000E+01  0.500000000000E+01  0.500000000000E+01
  0.000000000000E+00  0.000000000000E+00  0.000000000000E+00  0.444964218501E+00  0.402838535671E+00  0.000000000000E+00  0.379027137704E+00
  0.508831221839E+00  0.575719994476E+00  0.573485099217E+00  0.562570372405E+00  0.000000000000E+00  0.491640726445E+00  0.534339883219E+00
  0.556353524884E+00  0.564141469005E+00  0.522490172140E+00  0.521815692485E+00  0.440673586208E+00  0.517131699716E+00  0.524065006035E+00
  0.503613227420E+00  0.509416713766E+00  0.469888417966E+00  0.495647328021E+00  0.494503863371E+00  0.488631009022E+00  0.489035900682E+00
  0.492985484132E+00  0.498954248826E+00  0.486506343185E+00  0.484611155376E+00  0.495365426690E+00
  0.100000000000E+01  0.100000000000E+01  0.100000000000E+01  0.981378637640E+00  0.988676386002E+00  0.100000000000E+01  0.982276878930E+00
  0.984076692470E+00  0.990406105598E+00  0.990320048530E+00  0.994390401808E+00  0.100000000000E+01  0.988746056559E+00  0.100365347654E+01
  0.999773965859E+00  0.100117457037E+01  0.100829989476E+01  0.100251241873E+01  0.102982865541E+01  0.100442012645E+01  0.100199236467E+01
  0.100081968835E+01  0.100137931905E+01  0.100825749378E+01  0.100297346799E+01  0.100191685324E+01  0.100214764399E+01  0.100354784507E+01
  0.100047560994E+01  0.100056553044E+01  0.100126695642E+01  0.100066754363E+01  0.100178605814E+01
 -0.170721233187E-02  0.132173189229E-02 -0.282324505772E-02  0.156157556090E-01  0.610984139240E-01  0.384237012081E-02  0.607957226348E-01
 -0.967055381266E-02 -0.492444043940E-02 -0.609295738280E-02  0.101026448693E-01  0.610102241827E-02  0.411704927344E-01 -0.462853240060E-02
 -0.535320299084E-02 -0.380346612199E-02  0.118127027169E-02 -0.517345088419E-02  0.306720303490E-01 -0.315210841199E-02 -0.230359965357E-02
 -0.315306277322E-02 -0.240360981478E-02 -0.164992801493E-02 -0.450973091792E-02 -0.833694872842E-02 -0.256249015167E-01 -0.931148294161E-02
 -0.298757659459E-02 -0.367462369736E-02 -0.239584166150E-01 -0.129992214147E-01 -0.339857232918E-01
 -0.395676428873E-03 -0.383832597789E-03  0.702900325074E-03  0.442207168729E-02  0.844050738172E-02 -0.799471516196E-03  0.752263536034E-02
  0.158576430076E-02 -0.850432840365E-04  0.835489214940E-03  0.183878068016E-03  0.239180675964E-03  0.310176605063E-02  0.121103602183E-02
 -0.766997266844E-04  0.632352349679E-03 -0.114681956234E-02 -0.543471547966E-03  0.444701317862E-02  0.772767943437E-03  0.668039263724E-03
  0.362273304753E-03  0.780353469940E-03 -0.782597246678E-03 -0.105764364809E-02 -0.104818410541E-02 -0.454535571971E-02 -0.204924117589E-02
  0.271637244067E-03  0.430048298792E-03 -0.371588188154E-02 -0.129187870813E-02 -0.697914605110E-02
 -0.747407909959E-04  0.397264668300E-04  0.956435448596E-04 -0.296480554585E-03 -0.858473153588E-03  0.335346080651E-03 -0.127810841576E-04
  0.190221630545E-05 -0.958223689314E-04  0.160431544531E-04 -0.808170504738E-04  0.405828509864E-03  0.465374856352E-03  0.352486021791E-04
 -0.404365381730E-05  0.485507192023E-05 -0.158971853603E-03 -0.597013484069E-04  0.128355540560E-03  0.197186200412E-04  0.966561176783E-05
  0.428267182987E-04  0.767634975566E-06 -0.133088558413E-04 -0.361606962268E-04  0.121953544165E-04  0.171306576214E-04 -0.287193460164E-05
  0.691932264817E-05 -0.249910325427E-06  0.391651591362E-05 -0.101231256892E-05  0.332401805163E-05
 -0.462505567268E-03 -0.866072454478E-03 -0.242269567407E-03  0.654608936648E-03  0.104378684053E-02 -0.834671309767E-03  0.330727699077E-03
  0.374370347833E-03  0.191566349762E-02  0.929921528726E-03  0.277650862197E-02 -0.147367795085E-02  0.912504451356E-03  0.371759286670E-03
  0.986721988012E-03  0.826389876602E-03  0.233920517708E-02  0.105020387123E-02 -0.134225928776E-02  0.329618596142E-03  0.949379751409E-03
  0.981459059671E-03  0.710073858655E-03  0.155234513702E-02  0.151209152959E-02  0.101234547232E-02  0.727860697295E-03  0.128762713818E-02
  0.350548215046E-03  0.922630313786E-03  0.882376528387E-03  0.804657657302E-03  0.461666114114E-03
  0.706485321135E-02  0.301242070789E-02  0.132766966160E-02 -0.812545379511E-02 -0.264543987847E-01  0.190784093999E-03 -0.255327515328E-01
  0.246328979629E-02  0.152871662926E-02  0.157353604475E-02 -0.394626688041E-02 -0.487349745512E-02 -0.162216001540E-01  0.871157421141E-03
  0.169079275898E-02  0.862152553915E-03 -0.353979568326E-03  0.179127232293E-02 -0.126327301242E-01  0.618609403958E-03  0.381152987330E-03
  0.812867651922E-03  0.391885523187E-03  0.663701312393E-03  0.165151391022E-02  0.313660482532E-02  0.103598954233E-01  0.375545827382E-02
  0.846643598643E-03  0.970843254133E-03  0.950692860340E-02  0.486641423742E-02  0.141086940336E-01
        15         9        16        16
        15        18        11        11
        22        15        21        21
        11         5         9         9
         5         7         2         2
        11         9        15        15
        16        21        15        15
        16        10        14        14
        18        17        11        11
        17        25        24        24
        22        18        15        15
        22        30        31        31
        30        21        23        23
        16        20        23        23
        22        27        26        26
        10         9         4         4
         7        11        13        13
        25        18        26        26
        11         7         5         5
         5         1         4         4
        17        19        13        13
        23        32        30        30
        23        20        29        29
         4         9         5         5
         4         8        10        10
        26        18        22        22
        26        28        25        25
        13        11        17        17
        13         6         7         7
        31        30        32        32
         2         1         5         5
         2         7         6         6
        14        10         8         8
        24        19        17        17
        24        25        28        28
         9        10        16        16
         3         4         1         1
        33        26        27        27
        12        13        19        19
        21        30        22        22
        16        14        20        20
        16        23        21        21
        22        31        27        27
        18        25        17        17
        26        33        28        28
         4         3         8         8
        23        29        32        32
        13        12         6         6
zone t="boundary 4 bc-4", solutiontime= 0.7000000E+02, strandid=1004, i=32, j=46, f=feblock
  0.125000000000E+01  0.219251206392E+01  0.103724302461E+01  0.500000000000E+01  0.250000000000E+01  0.375000000000E+01  0.404200324774E+01
  0.500000000000E+01  0.000000000000E+00  0.310152362409E+01  0.202479342020E+01  0.324151231464E+01  0.922061490191E+00  0.000000000000E+00
  0.299062775774E+01  0.394624082883E+01  0.500000000000E+01  0.409252726285E+01  0.500000000000E+01  0.429310310915E+01  0.175434191980E+01
  0.284428995242E+01  0.000000000000E+00  0.000000000000E+00  0.715990576545E+00  0.930412228790E+00  0.125000000000E+01  0.187029682677E+01
  0.500000000000E+01  0.375000000000E+01  0.250000000000E+01  0.000000000000E+00
  0.250494200247E+01  0.157686156160E+01  0.146289271009E+01  0.250494200247E+01  0.250494200247E+01  0.250494200247E+01  0.155830813274E+01
  0.125000000000E+01  0.250494200247E+01  0.177790177481E+01  0.477386199275E+00  0.742988685424E+00  0.308372018325E+00  0.125000000000E+01
 -0.487811078581E+00 -0.144524380962E+01 -0.125000000000E+01 -0.345533899378E+00  0.000000000000E+00  0.627766083140E+00 -0.739814786992E+00
 -0.158811787973E+01  0.000000000000E+00 -0.125000000000E+01 -0.600232012419E+00 -0.154800130438E+01 -0.249658901876E+01 -0.178862290564E+01
 -0.249658901876E+01 -0.249658901876E+01 -0.249658901876E+01 -0.249658901876E+01
  0.500000000000E+01  0.500000000000E+01  0.500000000000E+01  0.500000000000E+01  0.500000000000E+01  0.500000000000E+01  0.500000000000E+01
  0.500000000000E+01  0.500000000000E+01  0.500000000000E+01  0.500000000000E+01  0.500000000000E+01  0.500000000000E+01  0.500000000000E+01
  0.500000000000E+01  0.500000000000E+01  0.500000000000E+01  0.500000000000E+01  0.500000000000E+01  0.500000000000E+01  0.500000000000E+01
  0.500000000000E+01  0.500000000000E+01  0.500000000000E+01  0.500000000000E+01  0.500000000000E+01  0.500000000000E+01  0.500000000000E+01
  0.500000000000E+01  0.500000000000E+01  0.500000000000E+01  0.500000000000E+01
  0.488631009022E+00  0.488908213432E+00  0.490614382053E+00  0.492985484132E+00  0.486506343185E+00  0.484611155376E+00  0.485346978111E+00
  0.494164050852E+00  0.495365426690E+00  0.486545226105E+00  0.487827599821E+00  0.487054846429E+00  0.494058653000E+00  0.496128464259E+00
  0.487591693567E+00  0.483170111427E+00  0.492384612378E+00  0.487198851309E+00  0.494738256890E+00  0.487947708090E+00  0.489651879229E+00
  0.487976024544E+00  0.497248848021E+00  0.496055597969E+00  0.494948503219E+00  0.492778628389E+00  0.489960762589E+00  0.489964141879E+00
  0.491323960968E+00  0.486020165251E+00  0.489981969829E+00  0.495090528096E+00
  0.100214764399E+01  0.100152351571E+01  0.100177897248E+01  0.100047560994E+01  0.100126695642E+01  0.100066754363E+01  0.100025500110E+01
  0.100050303408E+01  0.100178605814E+01  0.100112360554E+01  0.100132834958E+01  0.100072282922E+01  0.100164061466E+01  0.100168350951E+01
  0.100096361053E+01  0.100001099323E+01  0.100083211642E+01  0.100022370399E+01  0.100062124631E+01  0.100023372443E+01  0.100174711680E+01
  0.100099001844E+01  0.100118704030E+01  0.100134433813E+01  0.100132706144E+01  0.100179957654E+01  0.100192601697E+01  0.100163785484E+01
  0.100045821179E+01  0.100058930479E+01  0.100110067301E+01  0.100176413668E+01
 -0.256249015167E-01 -0.248594934505E-01 -0.255308450959E-01 -0.298757659459E-02 -0.239584166150E-01 -0.129992214147E-01 -0.903623400035E-02
 -0.297351135709E-02 -0.339857232918E-01 -0.199243013971E-01 -0.267206844657E-01 -0.187258418055E-01 -0.311250969203E-01 -0.351895985613E-01
 -0.211049223425E-01 -0.870197679515E-02 -0.336859035291E-02 -0.110809066279E-01 -0.276174955798E-02 -0.110693204680E-01 -0.328857715449E-01
 -0.198619389866E-01 -0.387862064324E-01 -0.342308360203E-01 -0.360587985330E-01 -0.289175924200E-01 -0.289378481876E-01 -0.306015832011E-01
 -0.345690870263E-02 -0.132317709811E-01 -0.254252445053E-01 -0.321711777349E-01