title="tecplot geometry and solution file"
variables = x y z mach temperature lambda1 lambda2 lambda3 lambda4 lambda5
zone t="boundary 1 bc-1", solutiontime= 0.9000000E+02, strandid=1001, i=32, j=46, f=feblock
 -0.547474059460E-02  0.000000000000E+00 -0.567611628244E-02  0.000000000000E+00  0.000000000000E+00  0.000000000000E+00 -0.525163924646E-02
 -0.425780134844E-02  0.000000000000E+00  0.000000000000E+00  0.000000000000E+00  0.000000000000E+00  0.000000000000E+00  0.000000000000E+00
  0.000000000000E+00  0.000000000000E+00 -0.338397968290E-02  0.000000000000E+00  0.000000000000E+00  0.000000000000E+00  0.000000000000E+00
  0.000000000000E+00  0.000000000000E+00  0.000000000000E+00  0.000000000000E+00  0.000000000000E+00  0.000000000000E+00  0.000000000000E+00
  0.000000000000E+00  0.000000000000E+00  0.000000000000E+00  0.000000000000E+00
  0.250494200247E+01  0.250494200247E+01  0.127822172847E+01  0.146289271009E+01  0.157686156160E+01  0.308372018325E+00  0.261950000797E-01
 -0.122573468786E+01 -0.600232012419E+00  0.250494200247E+01  0.477386199275E+00  0.742988685424E+00 -0.739814786992E+00  0.177790177481E+01
  0.155830813274E+01  0.250494200247E+01 -0.249658901876E+01 -0.154800130438E+01 -0.487811078581E+00  0.250494200247E+01  0.627766083140E+00
 -0.345533899378E+00 -0.178862290564E+01 -0.158811787973E+01  0.125000000000E+01 -0.249658901876E+01 -0.144524380962E+01  0.000000000000E+00
 -0.125000000000E+01 -0.249658901876E+01 -0.249658901876E+01 -0.249658901876E+01
  0.803806651373E-04  0.125000000000E+01  0.822455052730E-04  0.103724302461E+01  0.219251206392E+01  0.922061490191E+00  0.103872499450E-03
  0.341545354745E-04  0.715990576545E+00  0.250000000000E+01  0.202479342020E+01  0.324151231464E+01  0.175434191980E+01  0.310152362409E+01
  0.404200324774E+01  0.375000000000E+01  0.810729323493E-04  0.930412228790E+00  0.299062775774E+01  0.500000000000E+01  0.429310310915E+01
  0.409252726285E+01  0.187029682677E+01  0.284428995242E+01  0.500000000000E+01  0.125000000000E+01  0.394624082883E+01  0.500000000000E+01
  0.500000000000E+01  0.250000000000E+01  0.375000000000E+01  0.500000000000E+01
  0.000000000000E+00  0.440673586208E+00  0.000000000000E+00  0.474618312942E+00  0.460126827849E+00  0.468640528253E+00  0.000000000000E+00
  0.000000000000E+00  0.402536918085E+00  0.469888417966E+00  0.464194764523E+00  0.478751111286E+00  0.489556170192E+00  0.483131208311E+00
  0.488003760331E+00  0.489035900682E+00  0.000000000000E+00  0.465239150297E+00  0.473760589661E+00  0.495365426690E+00  0.490293994454E+00
  0.486277511197E+00  0.445852126547E+00  0.464357935362E+00  0.496128464259E+00  0.443892833990E+00  0.486929021189E+00  0.497248848021E+00
  0.496055597969E+00  0.467741935742E+00  0.488188091920E+00  0.495090528096E+00
  0.100000000000E+01  0.102982865541E+01  0.100000000000E+01  0.104241277716E+01  0.101187608801E+01  0.102516476050E+01  0.100000000000E+01
  0.100000000000E+01  0.103882396963E+01  0.100825749378E+01  0.101253466570E+01  0.100301619360E+01  0.102705426408E+01  0.100604070185E+01
  0.100244504891E+01  0.100354784507E+01  0.100000000000E+01  0.103209988123E+01  0.100459396594E+01  0.100178605814E+01  0.100260299680E+01
  0.100234721389E+01  0.101657109411E+01  0.100620576703E+01  0.100168350951E+01  0.104024868236E+01  0.100303449040E+01  0.100118704030E+01
  0.100134433813E+01  0.100976411358E+01  0.100405601417E+01  0.100176413668E+01
  0.610102242394E-02  0.306720303464E-01  0.698457473125E-02  0.492842528407E-01  0.346881306726E-02  0.587066931864E-01  0.512118597962E-02
  0.170568625975E-02  0.582737645743E-01 -0.164992801563E-02  0.389975445313E-02 -0.701965885862E-02  0.329309709709E-02 -0.389675819661E-02
 -0.933389278066E-02 -0.931148289698E-02  0.308583470784E-02  0.385677403726E-01 -0.515854224787E-02 -0.339857231042E-01 -0.121362779198E-01
 -0.812698578777E-02  0.186584932198E-02 -0.443746750899E-02 -0.351895983349E-01  0.248761139054E-01 -0.633156882206E-02 -0.387862061006E-01
 -0.342308359039E-01 -0.361018529224E-02 -0.697149759959E-02 -0.321711776323E-01
  0.239180677107E-03  0.444701318462E-02  0.331444695924E-03  0.629816551588E-02  0.165132229136E-03  0.888148588103E-02  0.361463758149E-03
  0.321542602688E-03  0.868038326419E-02 -0.782597246304E-03  0.347127995058E-03 -0.148144840488E-02 -0.971414233149E-04 -0.114288770647E-02
 -0.182982843596E-02 -0.204924117278E-02  0.284318536014E-03  0.601330042054E-02 -0.103418886615E-02 -0.697914599813E-02 -0.240642409981E-02
 -0.155613375059E-02 -0.207702644419E-03 -0.851563215718E-03 -0.736750421837E-02  0.306415760976E-02 -0.124806693906E-02 -0.814815853223E-02
 -0.716157602473E-02 -0.904780679011E-03 -0.148499194904E-02 -0.669192057827E-02
  0.405828509743E-03  0.128355540903E-03  0.546917118031E-03  0.125031358626E-02  0.147353611658E-03  0.606734744873E-03  0.467391515735E-03
 -0.174892063940E-03 -0.333719848451E-04 -0.133088559494E-04  0.128363452146E-03  0.133157137863E-03 -0.140599083335E-03  0.250903389863E-04
 -0.495599740976E-04 -0.287193510444E-05 -0.245075465454E-03 -0.794180620269E-03  0.152839299692E-04  0.332401743869E-05 -0.320384451661E-04
 -0.381210600834E-04 -0.165135537449E-04 -0.137067636764E-03  0.897595266974E-04 -0.102523342129E-03 -0.785856216223E-04 -0.171164128775E-04
 -0.755929330184E-04 -0.219840326173E-04 -0.801640327688E-05  0.654833620195E-05
 -0.147367795359E-02 -0.134225930190E-02 -0.160705249430E-02 -0.714454009652E-05  0.142115572784E-02  0.153393412995E-02 -0.899982463515E-03
 -0.786598812694E-03  0.108728854669E-02  0.155234512417E-02  0.289643614942E-02  0.159503378454E-02  0.319726429973E-02  0.148275835593E-02
  0.109558732017E-02  0.128762713589E-02 -0.609657911260E-03  0.916847317475E-03  0.183377126481E-02  0.461666111518E-03  0.101739962991E-02
  0.121216320619E-02  0.217919214501E-02  0.148771258246E-02  0.443210766578E-03  0.112535089862E-02  0.111192362185E-02  0.419544266158E-03
  0.501278658298E-03  0.168639347401E-02  0.113901670545E-02  0.491835008382E-03
 -0.487349745799E-02 -0.126327301243E-01 -0.665633335658E-02 -0.197249868046E-01 -0.144251518435E-02 -0.243690491646E-01  0.325705524228E-03
  0.104280478807E-02 -0.242169727257E-01  0.663701313148E-03 -0.170505766224E-02  0.274443055114E-02 -0.142042375308E-02  0.153550240184E-02
  0.372768133526E-02  0.375545825586E-02 -0.101635287330E-02 -0.161238811692E-01  0.191165773474E-02  0.141086939522E-01  0.490141749394E-02
  0.321414571905E-02 -0.897709000089E-03  0.158960349364E-02  0.146348032664E-01 -0.101413075475E-01  0.246916091162E-02  0.161778193461E-01
  0.142447809771E-01  0.131291160074E-02  0.276991230262E-02  0.133527846782E-01
        12        19        11        11
        11         5        12        12
        10        14         5         5
        19        13        11        11
        19        24        13        13
        30        23        24        24
        19        12        22        22
        28        22        21        21
        11        13         6         6
         7         6         9         9
        15        12        14        14
        18        13        23        23
        15        25        21        21
        27        19        22        22
        18         8         9         9
        27        31        24        24
         4        11         6         6
         5        14        12        12
         4         2         5         5
        21        12        15        15
        14        16        15        15
        24        19        27        27
        22        29        27        27
        23        26        18        18
        17         8        18        18
         5        11         4         4
         6         3         4         4
        26        23        30        30
         5         2        10        10
        16        14        10        10
         3         6         7         7
        21        25        28        28
        29        22        28        28
         6        13         9         9
         2         4         1         1
        31        27        32        32
        25        15        20        20
        24        23        13        13
         8         7         9         9
        13        18         9         9
        31        30        24        24
        12        21        22        22
        29        32        27        27
         3         1         4         4
        26        17        18        18
        16        20        15        15
zone t="boundary 2 bc-2", solutiontime= 0.9000000E+02, strandid=1002, i=33, j=48, f=feblock
  0.500195254422E+01  0.375034811298E+01  0.249861145436E+01  0.288036673892E+01  0.124717525199E+01  0.190856697748E+01  0.326577189562E+01
  0.201394855830E+01 -0.338397968290E-02  0.962374244476E+00  0.500000000000E+01  0.403430189262E+01  0.423029563056E+01  0.500000000000E+01
  0.385439188349E+01  0.500000000000E+01  0.398133432926E+01  0.315200081100E+01  0.266958028570E+01  0.154798029932E+01  0.218327860448E+01
  0.893688443034E+00  0.000000000000E+00  0.699009764482E+00  0.964460900712E+00  0.310303671524E+01  0.000000000000E+00  0.000000000000E+00
  0.125000000000E+01  0.500000000000E+01  0.375000000000E+01  0.250000000000E+01  0.000000000000E+00
 -0.249658901876E+01 -0.249658901876E+01 -0.249658901876E+01 -0.249658901876E+01 -0.249658901876E+01 -0.249658901876E+01 -0.249658901876E+01
 -0.249658901876E+01 -0.249658901876E+01 -0.249658901876E+01 -0.249658901876E+01 -0.249658901876E+01 -0.249658901876E+01 -0.249658901876E+01
 -0.249658901876E+01 -0.249658901876E+01 -0.249658901876E+01 -0.249658901876E+01 -0.249658901876E+01 -0.249658901876E+01 -0.249658901876E+01
 -0.249658901876E+01 -0.249658901876E+01 -0.249658901876E+01 -0.249658901876E+01 -0.249658901876E+01 -0.249658901876E+01 -0.249658901876E+01
 -0.249658901876E+01 -0.249658901876E+01 -0.249658901876E+01 -0.249658901876E+01 -0.249658901876E+01
  0.108226447141E-03  0.145876065134E-03  0.100893846408E-03  0.901663358034E+00  0.110859295738E-03  0.714928307672E+00  0.188140645381E+01
  0.175892163508E+01  0.810729323493E-04  0.957504280272E+00  0.125000000000E+01  0.100596695734E+01  0.191313517561E+01  0.250000000000E+01
  0.292898095401E+01  0.375000000000E+01  0.406883368972E+01  0.363389288779E+01  0.284756859276E+01  0.292582306774E+01  0.395754054024E+01
  0.205027255782E+01  0.125000000000E+01  0.306703271994E+01  0.397155766145E+01  0.433068621574E+01  0.250000000000E+01  0.375000000000E+01
  0.500000000000E+01  0.500000000000E+01  0.500000000000E+01  0.500000000000E+01  0.500000000000E+01
  0.000000000000E+00  0.000000000000E+00  0.000000000000E+00  0.380535862472E+00  0.000000000000E+00  0.343212834639E+00  0.585244990074E+00
  0.579498833438E+00  0.000000000000E+00  0.500957423107E+00  0.508771778229E+00  0.434314571228E+00  0.572818734534E+00  0.537159705297E+00
  0.569105413070E+00  0.515014322279E+00  0.508256786360E+00  0.527354096717E+00  0.567655991946E+00  0.531857160672E+00  0.506013908922E+00
  0.521044924071E+00  0.443892833990E+00  0.490703886068E+00  0.492148704113E+00  0.501388511919E+00  0.467741935742E+00  0.488188091920E+00
  0.489960762589E+00  0.491323960968E+00  0.486020165251E+00  0.489981969829E+00  0.495090528096E+00
  0.100000000000E+01  0.100000000000E+01  0.100000000000E+01  0.989599128023E+00  0.100000000000E+01  0.985607741824E+00  0.989839398554E+00
  0.991730726837E+00  0.100000000000E+01  0.984222782614E+00  0.985140550700E+00  0.984819565150E+00  0.990066408426E+00  0.100292339881E+01
  0.999857222347E+00  0.100487240082E+01  0.100122707404E+01  0.100056950113E+01  0.997887793721E+00  0.100350888053E+01  0.100059339364E+01
  0.101090629484E+01  0.104024868236E+01  0.100327934770E+01  0.100254926022E+01  0.100046782861E+01  0.100976411358E+01  0.100405601417E+01
  0.100192601697E+01  0.100045821179E+01  0.100058930479E+01  0.100110067301E+01  0.100176413668E+01
 -0.252334079734E-02 -0.197846970438E-02 -0.121475863596E-02  0.238871703438E-01  0.241567864677E-02  0.783256770484E-01 -0.513277932387E-02
  0.945414707311E-03  0.308583470784E-02  0.364113084513E-01 -0.659551919826E-02 -0.762583829897E-02 -0.517690448179E-02 -0.442561968669E-02
 -0.325429607063E-02 -0.297010339197E-02 -0.218683194366E-02 -0.253095679149E-02 -0.418847158308E-02 -0.501223023760E-02 -0.329357291108E-02
  0.131167826939E-02  0.248761139054E-01 -0.338766842334E-02 -0.608990500103E-02 -0.396512512927E-02 -0.361018529224E-02 -0.697149759959E-02
 -0.289378482188E-01 -0.345690869957E-02 -0.132317709654E-01 -0.254252444699E-01 -0.321711776323E-01
  0.688038082324E-03 -0.192403535681E-03  0.186101408450E-04  0.410465688842E-02 -0.447442133029E-03  0.973206846709E-02 -0.195083025170E-04
 -0.387683659284E-03  0.284318536014E-03  0.429795330738E-02  0.149333697628E-02  0.510882334999E-04  0.758620933794E-03  0.113148902108E-02
  0.753206522869E-03  0.696421682615E-03  0.834192268084E-03  0.695143046086E-03  0.255874136110E-03 -0.423867403169E-03  0.298485426785E-03
 -0.360622694927E-03  0.306415760976E-02 -0.230087348922E-03 -0.701335227664E-03  0.411794775559E-03 -0.904780679011E-03 -0.148499194904E-02
 -0.520566293923E-02  0.174287737360E-03 -0.132938679156E-02 -0.395258139189E-02 -0.669192057827E-02
 -0.155445386474E-03  0.410978054039E-04  0.241703124483E-03  0.557909651296E-03  0.128348311476E-03  0.973157112214E-03 -0.761027565768E-04
  0.867280366498E-05 -0.245075465454E-03  0.373144223448E-03 -0.884472435925E-04 -0.284867903844E-03  0.530198768152E-05  0.835695779652E-05
  0.687479291712E-05 -0.133552225787E-04  0.161907062200E-05 -0.712009213152E-05  0.115816084977E-04  0.276329934053E-04 -0.169165108476E-04
  0.289601549465E-04 -0.102523342129E-03  0.546502495146E-05 -0.265955956448E-05 -0.591922443182E-05 -0.219840326173E-04 -0.801640327688E-05
 -0.261318925857E-05 -0.238101593234E-05  0.519589163886E-06  0.173546094546E-05  0.654833620195E-05
 -0.198502312118E-03 -0.204937287928E-03 -0.309704230720E-03  0.103428940389E-02 -0.716689636819E-03  0.224309298547E-03  0.156046793537E-02
  0.208719959356E-02 -0.609657911260E-03  0.980881358719E-03  0.298760116022E-03  0.109220660401E-02  0.626960855511E-03  0.283390142731E-03
  0.647041529289E-03  0.236871377223E-03  0.629155207413E-03  0.888605242034E-03  0.105428814578E-02  0.109572331099E-02  0.102598437311E-02
  0.165899040853E-02  0.112535089862E-02  0.116590010485E-02  0.102755990932E-02  0.886987122799E-03  0.168639347401E-02  0.113901670545E-02
  0.691338073074E-03  0.368558941160E-03  0.801744546341E-03  0.869555079101E-03  0.491835008382E-03
  0.718496999827E-03  0.197895310373E-02  0.342985830938E-02 -0.108863967144E-01  0.409111126977E-02 -0.335475998681E-01  0.152394006765E-02
 -0.485550717536E-03 -0.101635287330E-02 -0.150874751801E-01  0.142554845964E-02  0.231557970215E-02  0.127169319664E-02  0.848578037945E-03
  0.635894834873E-03  0.600582615995E-03  0.300591644502E-03  0.460766264678E-03  0.114881765865E-02  0.170379970486E-02  0.880405275722E-03
 -0.598247122530E-03 -0.101413075475E-01  0.109208966137E-02  0.222185731617E-02  0.108184121608E-02  0.131291160074E-02  0.276991230262E-02
  0.117575875674E-01  0.104476016296E-02  0.496527073175E-02  0.101092977547E-01  0.133527846782E-01
        15         7        19        19
         8        20        19        19
        18        19        21        21
         7         4         8         8
         3         6         4         4
        19         7         8         8
        19        18        15        15
        14        13        15        15
         8        22        20        20
        27        24        22        22
        19        20        21        21
        32        26        21        21
        17        18        26        26
        17        16        15        15
        25        29        21        21
        12         7        13        13
        10         8         6         6
        25        20        24        24
         4         6         8         8
        12         2         4         4
        10        23        22        22
        26        31        17        17
        30        16        17        17
         4         7        12        12
        13        11        12        12
        21        20        25        25
        24        28        25        25
        22         8        10        10
         6         5        10        10
        31        26        32        32
         4         2         3         3
         5         6         3         3
        11        13        14        14
        22        23        27        27
        28        24        27        27
        15        13         7         7
         2        12         1         1
        29        25        33        33
        23        10         9         9
        21        26        18        18
        16        14        15        15
        18        17        15        15
        29        32        21        21
        22        24        20        20
        28        33        25        25
        11         1        12        12
        31        30        17        17
         5         9        10        10
zone t="boundary 3 bc-3", solutiontime= 0.9000000E+02, strandid=1003, i=33, j=48, f=feblock
  0.375059098390E+01  0.249769607367E+01  0.500322137759E+01  0.403612219697E+01  0.287976771604E+01  0.124541906059E+01  0.190552233801E+01
  0.500000000000E+01  0.326671104356E+01  0.423253756077E+01  0.201271135077E+01 -0.547474059460E-02  0.958895606422E+00  0.500000000000E+01
  0.266968146972E+01  0.385584487519E+01  0.890374194728E+00  0.154654012793E+01  0.000000000000E+00  0.500000000000E+01  0.315261136749E+01
  0.218304199327E+01  0.398195307995E+01  0.000000000000E+00  0.697379944222E+00  0.963757274675E+00  0.125000000000E+01  0.000000000000E+00
  0.500000000000E+01  0.310330738530E+01  0.250000000000E+01  0.375000000000E+01  0.000000000000E+00
  0.250494200247E+01  0.250494200247E+01  0.250494200247E+01  0.250494200247E+01  0.250494200247E+01  0.250494200247E+01  0.250494200247E+01
  0.250494200247E+01  0.250494200247E+01  0.250494200247E+01  0.250494200247E+01  0.250494200247E+01  0.250494200247E+01  0.250494200247E+01
  0.250494200247E+01  0.250494200247E+01  0.250494200247E+01  0.250494200247E+01  0.250494200247E+01  0.250494200247E+01  0.250494200247E+01
  0.250494200247E+01  0.250494200247E+01  0.250494200247E+01  0.250494200247E+01  0.250494200247E+01  0.250494200247E+01  0.250494200247E+01
  0.250494200247E+01  0.250494200247E+01  0.250494200247E+01  0.250494200247E+01  0.250494200247E+01
  0.135649803876E-03  0.110129310889E-03  0.966880623676E-04  0.101756755321E+01  0.908094609206E+00  0.103942035531E-03  0.722629117445E+00
  0.125000000000E+01  0.188965663752E+01  0.191862698617E+01  0.176708241773E+01  0.803806651373E-04  0.969652600869E+00  0.250000000000E+01
  0.285339435101E+01  0.293325059952E+01  0.205656226267E+01  0.293157018903E+01  0.125000000000E+01  0.375000000000E+01  0.363766839843E+01
  0.396069445891E+01  0.407056385916E+01  0.250000000000E+01  0.307031996474E+01  0.397359820986E+01  0.500000000000E+01  0.375000000000E+01
  0.500000000000E+01  0.433260781817E+01  0.500000000000E+01  0.500000000000E+01  0.500000000000E+01
  0.000000000000E+00  0.000000000000E+00  0.000000000000E+00  0.444964218501E+00  0.402838535671E+00  0.000000000000E+00  0.379027137704E+00
  0.508831221839E+00  0.575719994476E+00  0.573485099217E+00  0.562570372405E+00  0.000000000000E+00  0.491640726445E+00  0.534339883219E+00
  0.556353524884E+00  0.564141469005E+00  0.522490172140E+00  0.521815692485E+00  0.440673586208E+00  0.517131699716E+00  0.524065006035E+00
  0.503613227420E+00  0.509416713766E+00  0.469888417966E+00  0.495647328021E+00  0.494503863371E+00  0.488631009022E+00  0.489035900682E+00
  0.492985484132E+00  0.498954248826E+00  0.486506343185E+00  0.484611155376E+00  0.495365426690E+00
  0.100000000000E+01  0.100000000000E+01  0.100000000000E+01  0.981378637640E+00  0.988676386002E+00  0.100000000000E+01  0.982276878930E+00
  0.984076692470E+00  0.990406105598E+00  0.990320048530E+00  0.994390401808E+00  0.100000000000E+01  0.988746056559E+00  0.100365347654E+01
  0.999773965859E+00  0.100117457037E+01  0.100829989476E+01  0.100251241873E+01  0.102982865541E+01  0.100442012645E+01  0.100199236467E+01
  0.100081968835E+01  0.100137931905E+01  0.100825749378E+01  0.100297346799E+01  0.100191685324E+01  0.100214764399E+01  0.100354784507E+01
  0.100047560994E+01  0.100056553044E+01  0.100126695642E+01  0.100066754363E+01  0.100178605814E+01
 -0.170721233033E-02  0.132173189147E-02 -0.282324505043E-02  0.156157555393E-01  0.610984138855E-01  0.384237012478E-02  0.607957226196E-01
 -0.967055379528E-02 -0.492444044094E-02 -0.609295736459E-02  0.101026448526E-01  0.610102242394E-02  0.411704927359E-01 -0.462853239558E-02
 -0.535320297777E-02 -0.380346611511E-02  0.118127026407E-02 -0.517345089046E-02  0.306720303464E-01 -0.315210840809E-02 -0.230359965038E-02
 -0.315306276815E-02 -0.240360980590E-02 -0.164992801563E-02 -0.450973088734E-02 -0.833694871633E-02 -0.256249015172E-01 -0.931148289698E-02
 -0.298757659044E-02 -0.367462369225E-02 -0.239584165718E-01 -0.129992214044E-01 -0.339857231042E-01
 -0.395676428345E-03 -0.383832596636E-03  0.702900323978E-03  0.442207169165E-02  0.844050740340E-02 -0.799471517503E-03  0.752263537937E-02
  0.158576430174E-02 -0.850432903549E-04  0.835489216078E-03  0.183878071538E-03  0.239180677107E-03  0.310176607052E-02  0.121103601954E-02
 -0.766997286009E-04  0.632352348337E-03 -0.114681955725E-02 -0.543471555766E-03  0.444701318462E-02  0.772767942308E-03  0.668039262972E-03
  0.362273299551E-03  0.780353470082E-03 -0.782597246304E-03 -0.105764364558E-02 -0.104818411009E-02 -0.454535571788E-02 -0.204924117278E-02
  0.271637243806E-03  0.430048296450E-03 -0.371588187384E-02 -0.129187870876E-02 -0.697914599813E-02
 -0.747407911753E-04  0.397264665034E-04  0.956435451594E-04 -0.296480555915E-03 -0.858473155273E-03  0.335346080169E-03 -0.127810843782E-04
  0.190221630135E-05 -0.958223682609E-04  0.160431543165E-04 -0.808170497307E-04  0.405828509743E-03  0.465374855737E-03  0.352486021477E-04
 -0.404365377976E-05  0.485507191081E-05 -0.158971854645E-03 -0.597013487169E-04  0.128355540903E-03  0.197186200568E-04  0.966561165321E-05
  0.428267184036E-04  0.767634905883E-06 -0.133088559494E-04 -0.361606964795E-04  0.121953544003E-04  0.171306579135E-04 -0.287193510444E-05
  0.691932262899E-05 -0.249910306074E-06  0.391651608165E-05 -0.101231256953E-05  0.332401743869E-05
 -0.462505568271E-03 -0.866072456366E-03 -0.242269568328E-03  0.654608929577E-03  0.104378682341E-02 -0.834671312022E-03  0.330727684318E-03
  0.374370346204E-03  0.191566349443E-02  0.929921528359E-03  0.277650861216E-02 -0.147367795359E-02  0.912504437635E-03  0.371759286323E-03
  0.986721986262E-03  0.826389875715E-03  0.233920516834E-02  0.105020386617E-02 -0.134225930190E-02  0.329618595670E-03  0.949379750291E-03
  0.981459056273E-03  0.710073857956E-03  0.155234512417E-02  0.151209152065E-02  0.101234546727E-02  0.727860694887E-03  0.128762713589E-02
  0.350548214761E-03  0.922630311425E-03  0.882376527111E-03  0.804657655933E-03  0.461666111518E-03
  0.706485321158E-02  0.301242070872E-02  0.132766965903E-02 -0.812545376883E-02 -0.264543987728E-01  0.190784094727E-03 -0.255327515308E-01
  0.246328978992E-02  0.152871663283E-02  0.157353603842E-02 -0.394626687315E-02 -0.487349745799E-02 -0.162216001576E-01  0.871157420620E-03
  0.169079275509E-02  0.862152552353E-03 -0.353979565418E-03  0.179127232745E-02 -0.126327301243E-01  0.618609403265E-03  0.381152986842E-03
  0.812867651754E-03  0.391885520297E-03  0.663701313148E-03  0.165151389824E-02  0.313660482228E-02  0.103598954238E-01  0.375545825586E-02
  0.846643597429E-03  0.970843253394E-03  0.950692858567E-02  0.486641423414E-02  0.141086939522E-01
        15         9        16        16
        15        18        11        11
        22        15        21        21
        11         5         9         9
         5         7         2         2
        11         9        15        15
        16        21        15        15
        16        10        14        14
        18        17        11        11
        17        25        24        24
        22        18        15        15
        22        30        31        31
        30        21        23        23
        16        20        23        23
        22        27        26        26
        10         9         4         4
         7        11        13        13
        25        18        26        26
        11         7         5         5
         5         1         4         4
        17        19        13        13
        23        32        30        30
        23        20        29        29
         4         9         5         5
         4         8        10        10
        26        18        22        22
        26        28        25        25
        13        11        17        17
        13         6         7         7
        31        30        32        32
         2         1         5         5
         2         7         6         6
        14        10         8         8
        24        19        17        17
        24        25        28        28
         9        10        16        16
         3         4         1         1
        33        26        27        27
        12        13        19        19
        21        30        22        22
        16        14        20        20
        16        23        21        21
        22        31        27        27
        18        25        17        17
        26        33        28        28
         4         3         8         8
        23        29        32        32
        13        12         6         6
zone t="boundary 4 bc-4", solutiontime= 0.9000000E+02, strandid=1004, i=32, j=46, f=feblock
  0.125000000000E+01  0.219251206392E+01  0.103724302461E+01  0.500000000000E+01  0.250000000000E+01  0.375000000000E+01  0.404200324774E+01
  0.500000000000E+01  0.000000000000E+00  0.310152362409E+01  0.202479342020E+01  0.324151231464E+01  0.922061490191E+00  0.000000000000E+00
  0.299062775774E+01  0.394624082883E+01  0.500000000000E+01  0.409252726285E+01  0.500000000000E+01  0.429310310915E+01  0.175434191980E+01
  0.284428995242E+01  0.000000000000E+00  0.000000000000E+00  0.715990576545E+00  0.930412228790E+00  0.125000000000E+01  0.187029682677E+01
  0.500000000000E+01  0.375000000000E+01  0.250000000000E+01  0.000000000000E+00
  0.250494200247E+01  0.157686156160E+01  0.146289271009E+01  0.250494200247E+01  0.250494200247E+01  0.250494200247E+01  0.155830813274E+01
  0.125000000000E+01  0.250494200247E+01  0.177790177481E+01  0.477386199275E+00  0.742988685424E+00  0.308372018325E+00  0.125000000000E+01
 -0.487811078581E+00 -0.144524380962E+01 -0.125000000000E+01 -0.345533899378E+00  0.000000000000E+00  0.627766083140E+00 -0.739814786992E+00
 -0.158811787973E+01  0.000000000000E+00 -0.125000000000E+01 -0.600232012419E+00 -0.154800130438E+01 -0.249658901876E+01 -0.178862290564E+01
 -0.249658901876E+01 -0.249658901876E+01 -0.249658901876E+01 -0.249658901876E+01
  0.500000000000E+01  0.500000000000E+01  0.500000000000E+01  0.500000000000E+01  0.500000000000E+01  0.500000000000E+01  0.500000000000E+01
  0.500000000000E+01  0.500000000000E+01  0.500000000000E+01  0.500000000000E+01  0.500000000000E+01  0.500000000000E+01  0.500000000000E+01
  0.500000000000E+01  0.500000000000E+01  0.500000000000E+01  0.500000000000E+01  0.500000000000E+01  0.500000000000E+01  0.500000000000E+01
  0.500000000000E+01  0.500000000000E+01  0.500000000000E+01  0.500000000000E+01  0.500000000000E+01  0.500000000000E+01  0.500000000000E+01
  0.500000000000E+01  0.500000000000E+01  0.500000000000E+01  0.500000000000E+01
  0.488631009022E+00  0.488908213432E+00  0.490614382053E+00  0.492985484132E+00  0.486506343185E+00  0.484611155376E+00  0.485346978111E+00
  0.494164050852E+00  0.495365426690E+00  0.486545226105E+00  0.487827599821E+00  0.487054846429E+00  0.494058653000E+00  0.496128464259E+00
  0.487591693567E+00  0.483170111427E+00  0.492384612378E+00  0.487198851309E+00  0.494738256890E+00  0.487947708090E+00  0.489651879229E+00
  0.487976024544E+00  0.497248848021E+00  0.496055597969E+00  0.494948503219E+00  0.492778628389E+00  0.489960762589E+00  0.489964141879E+00
  0.491323960968E+00  0.486020165251E+00  0.489981969829E+00  0.495090528096E+00
  0.100214764399E+01  0.100152351571E+01  0.100177897248E+01  0.100047560994E+01  0.100126695642E+01  0.100066754363E+01  0.100025500110E+01
  0.100050303408E+01  0.100178605814E+01  0.100112360554E+01  0.100132834958E+01  0.100072282922E+01  0.100164061466E+01  0.100168350951E+01
  0.100096361053E+01  0.100001099323E+01  0.100083211642E+01  0.100022370399E+01  0.100062124631E+01  0.100023372443E+01  0.100174711680E+01
  0.100099001844E+01  0.100118704030E+01  0.100134433813E+01  0.100132706144E+01  0.100179957654E+01  0.100192601697E+01  0.100163785484E+01
  0.100045821179E+01  0.100058930479E+01  0.100110067301E+01  0.100176413668E+01
 -0.256249015172E-01 -0.248594933862E-01 -0.255308450559E-01 -0.298757659044E-02 -0.239584165718E-01 -0.129992214044E-01 -0.903623399250E-02
 -0.297351135267E-02 -0.339857231042E-01 -0.199243013651E-01 -0.267206844449E-01 -0.187258417675E-01 -0.311250968166E-01 -0.351895983349E-01
 -0.211049222954E-01 -0.870197678379E-02 -0.336859034999E-02 -0.110809066228E-01 -0.276174955272E-02 -0.110693204478E-01 -0.328857713963E-01
 -0.198619389657E-01 -0.387862061006E-01 -0.342308359039E-01 -0.360587984862E-01 -0.289175923670E-01 -0.289378482188E-01 -0.306015831575E-01
 -0.345690869957E-02 -0.132317709654E-01 -0.254252444699E-01 -0.321711776323E-01