title="tecplot geometry and solution file"
variables = x y z mach temperature lambda1 lambda2 lambda3 lambda4 lambda5
zone t="boundary 1 bc-1", solutiontime= 0.2000000E+02, strandid=1001, i=32, j=46, f=feblock
 -0.547472451393E-02  0.000000000000E+00 -0.567610115175E-02  0.000000000000E+00  0.000000000000E+00  0.000000000000E+00 -0.525162567618E-02
 -0.425778987282E-02  0.000000000000E+00  0.000000000000E+00  0.000000000000E+00  0.000000000000E+00  0.000000000000E+00  0.000000000000E+00
  0.000000000000E+00  0.000000000000E+00 -0.338396964726E-02  0.000000000000E+00  0.000000000000E+00  0.000000000000E+00  0.000000000000E+00
  0.000000000000E+00  0.000000000000E+00  0.000000000000E+00  0.000000000000E+00  0.000000000000E+00  0.000000000000E+00  0.000000000000E+00
  0.000000000000E+00  0.000000000000E+00  0.000000000000E+00  0.000000000000E+00
  0.250494200518E+01  0.250494200518E+01  0.127822174353E+01  0.146289271009E+01  0.157686156160E+01  0.308372018325E+00  0.261950149578E-01
 -0.122573467301E+01 -0.600232012419E+00  0.250494200518E+01  0.477386199275E+00  0.742988685424E+00 -0.739814786992E+00  0.177790177481E+01
  0.155830813274E+01  0.250494200518E+01 -0.249658901620E+01 -0.154800130438E+01 -0.487811078581E+00  0.250494200518E+01  0.627766083140E+00
 -0.345533899378E+00 -0.178862290564E+01 -0.158811787973E+01  0.125000000000E+01 -0.249658901620E+01 -0.144524380962E+01  0.000000000000E+00
 -0.125000000000E+01 -0.249658901620E+01 -0.249658901620E+01 -0.249658901620E+01
  0.803217454595E-04  0.125000000000E+01  0.822205720440E-04  0.103724302461E+01  0.219251206392E+01  0.922061490191E+00  0.103877916079E-03
  0.341876758094E-04  0.715990576545E+00  0.250000000000E+01  0.202479342020E+01  0.324151231464E+01  0.175434191980E+01  0.310152362409E+01
  0.404200324774E+01  0.375000000000E+01  0.811362740114E-04  0.930412228790E+00  0.299062775774E+01  0.500000000000E+01  0.429310310915E+01
  0.409252726285E+01  0.187029682677E+01  0.284428995242E+01  0.500000000000E+01  0.125000000000E+01  0.394624082883E+01  0.500000000000E+01
  0.500000000000E+01  0.250000000000E+01  0.375000000000E+01  0.500000000000E+01
  0.000000000000E+00  0.447917908494E+00  0.000000000000E+00  0.476275946409E+00  0.468523773278E+00  0.473519713474E+00  0.000000000000E+00
  0.000000000000E+00  0.412988893280E+00  0.477443354465E+00  0.472504683437E+00  0.485153445816E+00  0.492070561763E+00  0.488543843201E+00
  0.491923382132E+00  0.493078172475E+00  0.000000000000E+00  0.471586661864E+00  0.480934099844E+00  0.498012894274E+00  0.493689911511E+00
  0.490409921473E+00  0.456073463664E+00  0.472047042432E+00  0.498545866604E+00  0.449257997099E+00  0.491117576321E+00  0.499470104894E+00
  0.498443303809E+00  0.475665757693E+00  0.492352555709E+00  0.497648494016E+00
  0.104242640687E+01  0.102508329740E+01  0.104242640687E+01  0.103461471513E+01  0.100936211229E+01  0.102707646421E+01  0.104242640687E+01
  0.104242640687E+01  0.104103511740E+01  0.100608607710E+01  0.100935928463E+01  0.100173207489E+01  0.101882157166E+01  0.100399703674E+01
  0.100113915962E+01  0.100201867046E+01  0.104242640687E+01  0.103067303498E+01  0.100321571320E+01  0.100090132434E+01  0.100133271162E+01
  0.100116394723E+01  0.101357751201E+01  0.100469368428E+01  0.100084556758E+01  0.103269876530E+01  0.100165718057E+01  0.100040727307E+01
  0.100050934928E+01  0.100724883397E+01  0.100246497614E+01  0.100085386785E+01
  0.711216196855E-03 -0.135797659829E-02  0.837328336499E-03 -0.173539129591E-02 -0.469148514909E-03 -0.302601599922E-02  0.671318503097E-03
  0.858586503564E-03 -0.354903103691E-02 -0.144550326695E-03 -0.696798577676E-03 -0.161152065060E-03 -0.873816237199E-03 -0.765134800525E-04
 -0.359851188803E-03 -0.293434247191E-03  0.855509921685E-03 -0.255985417667E-02 -0.298986594414E-03 -0.228574243240E-02 -0.532169768400E-03
 -0.303377230720E-03 -0.783595778403E-03 -0.308509175334E-03 -0.235678700056E-02 -0.181759591768E-02 -0.269131858010E-03 -0.243888783813E-02
 -0.174073052812E-02 -0.370961349633E-03 -0.274760347965E-03 -0.146307551953E-02
  0.383041925910E-03  0.905565689452E-04  0.527156054908E-03  0.260868067390E-03 -0.124246019966E-03  0.488589746669E-03  0.426506641449E-04
  0.136201704580E-03  0.358603090547E-03 -0.100935596457E-03 -0.630611408181E-04 -0.183360745366E-03  0.140067888822E-04 -0.147502391125E-03
 -0.217572894179E-03 -0.237773098903E-03  0.218024047557E-03  0.417213133250E-03 -0.185121474956E-03 -0.475746358316E-03 -0.217982717559E-03
 -0.193877861512E-03 -0.375693913560E-04 -0.201782502000E-03 -0.500045089919E-03  0.125161948086E-03 -0.176344027562E-03 -0.520287660430E-03
 -0.378323638964E-03 -0.156650961850E-03 -0.175691378305E-03 -0.328865822025E-03
  0.139358853564E-05 -0.999247558324E-05  0.329355224604E-04  0.851857456361E-04 -0.173304412133E-04  0.160157339305E-03 -0.205366248644E-05
 -0.323799743547E-04 -0.856044697232E-04 -0.957321252761E-05  0.125576212524E-03  0.185716147221E-04  0.470922933425E-04 -0.257137594786E-04
  0.143151474353E-05 -0.509171247285E-05 -0.238843275924E-05 -0.144599399501E-03  0.607406729831E-04  0.165668671039E-05  0.454477638485E-05
 -0.665669031925E-09 -0.683370676227E-04  0.420363796623E-04  0.710713052383E-05 -0.263961122967E-04  0.992805224227E-05  0.135664245113E-04
  0.860034205616E-05  0.811027942757E-06 -0.238196421158E-05 -0.304941600574E-05
 -0.117707095043E-03 -0.616994409626E-03 -0.238126380981E-03 -0.586893238567E-03 -0.480687869389E-03 -0.417624081643E-03 -0.291216269057E-03
 -0.421585502372E-03  0.630836233681E-03 -0.406652536541E-03 -0.453424288566E-03 -0.164941921152E-03 -0.307250347569E-03 -0.235641228899E-03
  0.179484103133E-04  0.203699996500E-04 -0.240071361807E-03 -0.373512430794E-04 -0.173532700637E-03  0.537409778779E-04  0.433136785633E-04
  0.195916786581E-04 -0.337516104566E-03 -0.116132825414E-03  0.517242010411E-04 -0.439239102983E-03  0.214262511586E-04  0.570600638326E-04
  0.540358061814E-04 -0.248718462866E-03  0.299596114130E-04  0.567687208971E-04
 -0.125097713918E-03  0.610966217006E-03 -0.195469878286E-03  0.782299198292E-03  0.277639511067E-03  0.118640402987E-02 -0.392671553970E-04
 -0.156740155331E-03  0.141063360567E-02  0.117645825112E-03  0.345030094590E-03  0.954334503715E-04  0.374328397836E-03  0.679854384819E-04
  0.159797680518E-03  0.131963466417E-03 -0.140513911915E-03  0.103006122206E-02  0.155819060209E-03  0.945775816669E-03  0.222908693893E-03
  0.131464805539E-03  0.355237331876E-03  0.161215202604E-03  0.977885956261E-03  0.763502867842E-03  0.117418191067E-03  0.101207277673E-02
  0.719094526694E-03  0.190764142171E-03  0.115141503618E-03  0.601948134822E-03
        12        19        11        11
        11         5        12        12
        10        14         5         5
        19        13        11        11
        19        24        13        13
        30        23        24        24
        19        12        22        22
        28        22        21        21
        11        13         6         6
         7         6         9         9
        15        12        14        14
        18        13        23        23
        15        25        21        21
        27        19        22        22
        18         8         9         9
        27        31        24        24
         4        11         6         6
         5        14        12        12
         4         2         5         5
        21        12        15        15
        14        16        15        15
        24        19        27        27
        22        29        27        27
        23        26        18        18
        17         8        18        18
         5        11         4         4
         6         3         4         4
        26        23        30        30
         5         2        10        10
        16        14        10        10
         3         6         7         7
        21        25        28        28
        29        22        28        28
         6        13         9         9
         2         4         1         1
        31        27        32        32
        25        15        20        20
        24        23        13        13
         8         7         9         9
        13        18         9         9
        31        30        24        24
        12        21        22        22
        29        32        27        27
         3         1         4         4
        26        17        18        18
        16        20        15        15
zone t="boundary 2 bc-2", solutiontime= 0.2000000E+02, strandid=1002, i=33, j=48, f=feblock
  0.500195255314E+01  0.375034812201E+01  0.249861146354E+01  0.288036675734E+01  0.124717526151E+01  0.190856699607E+01  0.326577190793E+01
  0.201394857590E+01 -0.338396964726E-02  0.962374261039E+00  0.500000000000E+01  0.403430190134E+01  0.423029563300E+01  0.500000000000E+01
  0.385439188555E+01  0.500000000000E+01  0.398133432910E+01  0.315200081435E+01  0.266958029510E+01  0.154798030854E+01  0.218327860925E+01
  0.893688451289E+00  0.000000000000E+00  0.699009769630E+00  0.964460904435E+00  0.310303671669E+01  0.000000000000E+00  0.000000000000E+00
  0.125000000000E+01  0.500000000000E+01  0.375000000000E+01  0.250000000000E+01  0.000000000000E+00
 -0.249658901620E+01 -0.249658901620E+01 -0.249658901620E+01 -0.249658901620E+01 -0.249658901620E+01 -0.249658901620E+01 -0.249658901620E+01
 -0.249658901620E+01 -0.249658901620E+01 -0.249658901620E+01 -0.249658901620E+01 -0.249658901620E+01 -0.249658901620E+01 -0.249658901620E+01
 -0.249658901620E+01 -0.249658901620E+01 -0.249658901620E+01 -0.249658901620E+01 -0.249658901620E+01 -0.249658901620E+01 -0.249658901620E+01
 -0.249658901620E+01 -0.249658901620E+01 -0.249658901620E+01 -0.249658901620E+01 -0.249658901620E+01 -0.249658901620E+01 -0.249658901620E+01
 -0.249658901620E+01 -0.249658901620E+01 -0.249658901620E+01 -0.249658901620E+01 -0.249658901620E+01
  0.108209230302E-03  0.145875485829E-03  0.100909960121E-03  0.901663357826E+00  0.110895836306E-03  0.714928325676E+00  0.188140643916E+01
  0.175892163458E+01  0.811362740114E-04  0.957504305825E+00  0.125000000000E+01  0.100596693416E+01  0.191313516265E+01  0.250000000000E+01
  0.292898094244E+01  0.375000000000E+01  0.406883368474E+01  0.363389287838E+01  0.284756858001E+01  0.292582306272E+01  0.395754053293E+01
  0.205027256174E+01  0.125000000000E+01  0.306703271839E+01  0.397155765835E+01  0.433068621090E+01  0.250000000000E+01  0.375000000000E+01
  0.500000000000E+01  0.500000000000E+01  0.500000000000E+01  0.500000000000E+01  0.500000000000E+01
  0.000000000000E+00  0.000000000000E+00  0.000000000000E+00  0.384516097266E+00  0.000000000000E+00  0.340285870380E+00  0.586752966553E+00
  0.575426017700E+00  0.000000000000E+00  0.487199380218E+00  0.520641039152E+00  0.445423546630E+00  0.576269216779E+00  0.533962374799E+00
  0.567224532018E+00  0.511735126950E+00  0.508063930500E+00  0.527166123912E+00  0.565842714897E+00  0.531744062706E+00  0.508272215462E+00
  0.522388441789E+00  0.449257997099E+00  0.494521462110E+00  0.495788430480E+00  0.503678487227E+00  0.475665757693E+00  0.492352555709E+00
  0.494346758124E+00  0.491660272589E+00  0.489529544767E+00  0.494638538745E+00  0.497648494016E+00
  0.104242640687E+01  0.104242640687E+01  0.104242640687E+01  0.100355246768E+01  0.104242640687E+01  0.100599607949E+01  0.989008031359E+00
  0.992225314811E+00  0.104242640687E+01  0.997058797553E+00  0.987964542423E+00  0.995589878418E+00  0.989405264129E+00  0.100087323701E+01
  0.997203118982E+00  0.100346283376E+01  0.100053321026E+01  0.999080756664E+00  0.995647248970E+00  0.100095637369E+01  0.999458338080E+00
  0.100692572870E+01  0.103269876530E+01  0.100216635751E+01  0.100130290673E+01  0.999493813801E+00  0.100724883397E+01  0.100246497614E+01
  0.100077487195E+01  0.100026599090E+01  0.999860680862E+00  0.999993716634E+00  0.100085386785E+01
 -0.329213013454E-04  0.289778121753E-03  0.472212010828E-03 -0.151318969128E-02  0.100351529007E-02 -0.198217959519E-02 -0.962146290257E-03
 -0.103519293241E-02  0.855509921685E-03 -0.133167202491E-02 -0.116346413744E-02 -0.105781269903E-02 -0.951839029058E-03 -0.791216236993E-03
 -0.553285779151E-03 -0.429607893480E-03 -0.427589230185E-03 -0.409244481592E-03 -0.551285026763E-03 -0.434249592333E-03 -0.320752058418E-03
 -0.902529064572E-03 -0.181759591768E-02 -0.518991699278E-03 -0.307693961027E-03 -0.491366001507E-03 -0.370961349633E-03 -0.274760347965E-03
 -0.936393351246E-03 -0.624682272499E-03 -0.671260157427E-03 -0.302626561556E-03 -0.146307551953E-02
 -0.205797964987E-03 -0.262961732247E-03 -0.355748446369E-03  0.107011949991E-02 -0.482454240213E-03  0.186500396828E-02 -0.656602842793E-04
 -0.710667368741E-04  0.218024047557E-03  0.704046231304E-03  0.254319022240E-03  0.975714570836E-04  0.227111978874E-04  0.200425061484E-03
  0.632726093372E-06  0.107153595836E-03  0.480031309723E-04 -0.585456047572E-04 -0.244209644963E-03 -0.409022273248E-03 -0.113789710858E-03
 -0.230470781428E-03  0.125161948086E-03 -0.373781156584E-03 -0.195774374644E-03 -0.308473077439E-04 -0.156650961850E-03 -0.175691378305E-03
 -0.184601027019E-03 -0.625176167901E-05  0.198858383298E-04  0.321364932166E-04 -0.328865822025E-03
 -0.620892361790E-05  0.505811385697E-04  0.550662806376E-04  0.180339510781E-03  0.319277220477E-04  0.691439668504E-04  0.266265727282E-04
  0.195198492639E-04 -0.238843275924E-05 -0.534777539369E-04 -0.293512415533E-04 -0.743345466379E-05 -0.185954937162E-04 -0.104279541738E-05
 -0.743018632415E-05 -0.286873516414E-05 -0.103134796368E-05  0.202004302557E-05 -0.873867561966E-06  0.344841607647E-05  0.682993326170E-06
 -0.143175929383E-04 -0.263961122967E-04  0.213621436268E-05 -0.284475359589E-05 -0.203375974122E-05  0.811027942757E-06 -0.238196421158E-05
 -0.137071067621E-05 -0.662126913625E-06  0.427794915584E-06  0.602434880909E-06 -0.304941600574E-05
  0.165463539481E-03 -0.617091309683E-03 -0.291801579778E-03  0.192575932934E-03 -0.514015129478E-03  0.668035939639E-03  0.246346424278E-03
  0.198635623408E-03 -0.240071361807E-03  0.942369215530E-04 -0.457405790167E-05 -0.965612569711E-04  0.155219447529E-03  0.702953258312E-04
  0.155763166634E-03  0.466844232064E-04  0.101429697666E-03  0.151650292109E-03  0.229035664503E-03  0.177305057007E-03  0.127301988942E-03
 -0.200363938111E-04 -0.439239102983E-03  0.468342036199E-04  0.743357528217E-04  0.120891982251E-03 -0.248718462866E-03  0.299596114130E-04
  0.533959283460E-04  0.509856515536E-04  0.887383178182E-04  0.846640023091E-04  0.567687208971E-04
  0.182222144675E-04  0.229834320811E-04  0.194124233026E-04  0.370181331790E-03  0.496314396119E-04  0.558420652157E-03  0.313728343829E-03
  0.410070633752E-03 -0.140513911915E-03  0.521429221281E-03  0.246981776452E-03  0.292047308978E-03  0.286276031325E-03  0.152199402540E-03
  0.155698815928E-03  0.844050607996E-04  0.109193735440E-03  0.131850624953E-03  0.236756220305E-03  0.245363128274E-03  0.122199229957E-03
  0.435683748860E-03  0.763502867842E-03  0.274397423560E-03  0.140584072875E-03  0.159404475619E-03  0.190764142171E-03  0.115141503618E-03
  0.373446479242E-03  0.206464015541E-03  0.214447369531E-03  0.796690217438E-04  0.601948134822E-03
        15         7        19        19
         8        20        19        19
        18        19        21        21
         7         4         8         8
         3         6         4         4
        19         7         8         8
        19        18        15        15
        14        13        15        15
         8        22        20        20
        27        24        22        22
        19        20        21        21
        32        26        21        21
        17        18        26        26
        17        16        15        15
        25        29        21        21
        12         7        13        13
        10         8         6         6
        25        20        24        24
         4         6         8         8
        12         2         4         4
        10        23        22        22
        26        31        17        17
        30        16        17        17
         4         7        12        12
        13        11        12        12
        21        20        25        25
        24        28        25        25
        22         8        10        10
         6         5        10        10
        31        26        32        32
         4         2         3         3
         5         6         3         3
        11        13        14        14
        22        23        27        27
        28        24        27        27
        15        13         7         7
         2        12         1         1
        29        25        33        33
        23        10         9         9
        21        26        18        18
        16        14        15        15
        18        17        15        15
        29        32        21        21
        22        24        20        20
        28        33        25        25
        11         1        12        12
        31        30        17        17
         5         9        10        10
zone t="boundary 3 bc-3", solutiontime= 0.2000000E+02, strandid=1003, i=33, j=48, f=feblock
  0.375059100023E+01  0.249769609018E+01  0.500322139357E+01  0.403612222764E+01  0.287976775183E+01  0.124541907694E+01  0.190552236758E+01
  0.500000000000E+01  0.326671106334E+01  0.423253756072E+01  0.201271138088E+01 -0.547472451393E-02  0.958895628172E+00  0.500000000000E+01
  0.266968148532E+01  0.385584487668E+01  0.890374213119E+00  0.154654014519E+01  0.000000000000E+00  0.500000000000E+01  0.315261137241E+01
  0.218304200095E+01  0.398195307874E+01  0.000000000000E+00  0.697379955532E+00  0.963757281441E+00  0.125000000000E+01  0.000000000000E+00
  0.500000000000E+01  0.310330738721E+01  0.250000000000E+01  0.375000000000E+01  0.000000000000E+00
  0.250494200518E+01  0.250494200518E+01  0.250494200518E+01  0.250494200518E+01  0.250494200518E+01  0.250494200518E+01  0.250494200518E+01
  0.250494200518E+01  0.250494200518E+01  0.250494200518E+01  0.250494200518E+01  0.250494200518E+01  0.250494200518E+01  0.250494200518E+01
  0.250494200518E+01  0.250494200518E+01  0.250494200518E+01  0.250494200518E+01  0.250494200518E+01  0.250494200518E+01  0.250494200518E+01
  0.250494200518E+01  0.250494200518E+01  0.250494200518E+01  0.250494200518E+01  0.250494200518E+01  0.250494200518E+01  0.250494200518E+01
  0.250494200518E+01  0.250494200518E+01  0.250494200518E+01  0.250494200518E+01  0.250494200518E+01
  0.135457018303E-03  0.109983667052E-03  0.964506812793E-04  0.101756739735E+01  0.908094462124E+00  0.103842439781E-03  0.722629008359E+00
  0.125000000000E+01  0.188965653796E+01  0.191862692310E+01  0.176708233168E+01  0.803217454595E-04  0.969652538213E+00  0.250000000000E+01
  0.285339429035E+01  0.293325055336E+01  0.205656222195E+01  0.293157014695E+01  0.125000000000E+01  0.375000000000E+01  0.363766836446E+01
  0.396069443368E+01  0.407056384269E+01  0.250000000000E+01  0.307031994183E+01  0.397359819531E+01  0.500000000000E+01  0.375000000000E+01
  0.500000000000E+01  0.433260780167E+01  0.500000000000E+01  0.500000000000E+01  0.500000000000E+01
  0.000000000000E+00  0.000000000000E+00  0.000000000000E+00  0.453747884457E+00  0.402545473609E+00  0.000000000000E+00  0.369628989658E+00
  0.520525437453E+00  0.575220769144E+00  0.575502687911E+00  0.558260167029E+00  0.000000000000E+00  0.478252952434E+00  0.530976526914E+00
  0.555830977781E+00  0.562793216286E+00  0.524675242564E+00  0.523282023757E+00  0.447917908494E+00  0.513796073895E+00  0.524673099809E+00
  0.506323918429E+00  0.509686672292E+00  0.477443354465E+00  0.499194827399E+00  0.497912970406E+00  0.492962761898E+00  0.493078172475E+00
  0.493192028151E+00  0.501531687671E+00  0.491169162713E+00  0.488098788288E+00  0.498012894274E+00
  0.104242640687E+01  0.104242640687E+01  0.104242640687E+01  0.992555423454E+00  0.100338777740E+01  0.104242640687E+01  0.100275102295E+01
  0.987610947936E+00  0.990360755008E+00  0.989796153217E+00  0.994453863917E+00  0.104242640687E+01  0.999323378079E+00  0.100158433860E+01
  0.997121319149E+00  0.998147046213E+00  0.100443205127E+01  0.100036232945E+01  0.102508329740E+01  0.100269535198E+01  0.100014129775E+01
  0.999693736776E+00  0.100036856429E+01  0.100608607710E+01  0.100156233864E+01  0.100069385080E+01  0.100096903846E+01  0.100201867046E+01
  0.100024531069E+01  0.999658106520E+00  0.100018113445E+01  0.100002132898E+01  0.100090132434E+01
  0.439699828826E-03  0.617836447308E-03 -0.545854982522E-04 -0.139020299519E-02 -0.164669221668E-02  0.733511729275E-03 -0.144107544807E-02
 -0.134603850974E-02 -0.897216876606E-03 -0.938930195002E-03 -0.107856164039E-02  0.711216196855E-03 -0.114259810340E-02 -0.738039823568E-03
 -0.463217567381E-03 -0.569946770470E-03 -0.651251986476E-03 -0.315081487612E-03 -0.135797659829E-02 -0.451562505910E-03 -0.343668684558E-03
 -0.282825344145E-03 -0.330678872747E-03 -0.144550326695E-03 -0.494061799936E-03 -0.507033369814E-03 -0.138047778467E-02 -0.293434247191E-03
 -0.407135728345E-03 -0.497364188756E-03 -0.824754217976E-03 -0.995664238421E-03 -0.228574243240E-02
 -0.552727531804E-03 -0.242632214590E-03 -0.256047823198E-03  0.484513311410E-03  0.929185929064E-03 -0.408536082710E-04  0.889678559875E-03
  0.299938721615E-03 -0.489572969033E-04  0.152634709915E-03 -0.420704612594E-04  0.383041925910E-03  0.342413616396E-03  0.190438443646E-03
 -0.199645067976E-03  0.293549177881E-04 -0.340971518177E-03 -0.377817284869E-03  0.905565689452E-04  0.109919605367E-03 -0.300715941841E-04
 -0.130402806761E-03  0.679537066607E-04 -0.100935596457E-03 -0.471954587976E-03 -0.230394978933E-03 -0.282657628049E-03 -0.237773098903E-03
  0.299675924315E-04 -0.358564507396E-04 -0.851583100493E-04 -0.614765161399E-04 -0.475746358316E-03
 -0.187341566522E-04  0.173806360716E-04  0.338244382456E-05 -0.143540444065E-04  0.169082588301E-04  0.235988006414E-04  0.546819941519E-04
  0.664946304287E-05  0.559990576906E-05  0.457720608286E-05  0.184125715847E-04  0.139358853564E-05  0.665452597228E-04  0.478983006775E-05
 -0.337308884615E-05 -0.177540605413E-05 -0.256210803506E-05  0.517933914422E-05 -0.999247558324E-05  0.418003653727E-05 -0.715343711560E-06
  0.289787533107E-05  0.193002610698E-05 -0.957321252761E-05 -0.528204518723E-05 -0.123302473898E-05 -0.292658778012E-06 -0.509171247285E-05
  0.859667736165E-06  0.185529400122E-06  0.276252475103E-06 -0.712997132715E-06  0.165668671039E-05
 -0.579075929630E-03 -0.164254750577E-03 -0.253598128539E-04  0.541273604081E-03  0.342076595196E-03  0.895803462813E-04  0.681934918847E-03
 -0.439793158832E-04  0.359166624511E-03  0.207970013102E-03  0.276580523684E-03 -0.117707095043E-03 -0.902939896043E-04  0.675748119872E-04
  0.264966403040E-03  0.182916990234E-03  0.520031064733E-05  0.168587601638E-03 -0.616994409626E-03  0.552063299362E-04  0.168245865905E-03
  0.124753185256E-03  0.109186617641E-03 -0.406652536541E-03  0.729739672522E-04  0.689873906256E-04  0.492660205978E-04  0.203699996500E-04
  0.483253154226E-04  0.116563493064E-03  0.747420744609E-04  0.911024666308E-04  0.537409778779E-04
  0.366510013354E-04  0.429661245365E-04  0.261936262119E-04  0.353460393678E-03  0.519273143407E-03  0.445633540555E-04  0.520093909799E-03
  0.289209480235E-03  0.296857036632E-03  0.229509163616E-03  0.424329730656E-03 -0.125097713918E-03  0.524568493646E-03  0.142448104263E-03
  0.193931426047E-03  0.156208806012E-03  0.389286028676E-03  0.204247261987E-03  0.610966217006E-03  0.893376901956E-04  0.103213754671E-03
  0.115626635044E-03  0.681302779220E-04  0.117645825112E-03  0.293142315030E-03  0.223560393961E-03  0.559509982322E-03  0.131963466417E-03
  0.118729154958E-03  0.165020079570E-03  0.303551679608E-03  0.353620923463E-03  0.945775816669E-03
        15         9        16        16
        15        18        11        11
        22        15        21        21
        11         5         9         9
         5         7         2         2
        11         9        15        15
        16        21        15        15
        16        10        14        14
        18        17        11        11
        17        25        24        24
        22        18        15        15
        22        30        31        31
        30        21        23        23
        16        20        23        23
        22        27        26        26
        10         9         4         4
         7        11        13        13
        25        18        26        26
        11         7         5         5
         5         1         4         4
        17        19        13        13
        23        32        30        30
        23        20        29        29
         4         9         5         5
         4         8        10        10
        26        18        22        22
        26        28        25        25
        13        11        17        17
        13         6         7         7
        31        30        32        32
         2         1         5         5
         2         7         6         6
        14        10         8         8
        24        19        17        17
        24        25        28        28
         9        10        16        16
         3         4         1         1
        33        26        27        27
        12        13        19        19
        21        30        22        22
        16        14        20        20
        16        23        21        21
        22        31        27        27
        18        25        17        17
        26        33        28        28
         4         3         8         8
        23        29        32        32
        13        12         6         6
zone t="boundary 4 bc-4", solutiontime= 0.2000000E+02, strandid=1004, i=32, j=46, f=feblock
  0.125000000000E+01  0.219251206392E+01  0.103724302461E+01  0.500000000000E+01  0.250000000000E+01  0.375000000000E+01  0.404200324774E+01
  0.500000000000E+01  0.000000000000E+00  0.310152362409E+01  0.202479342020E+01  0.324151231464E+01  0.922061490191E+00  0.000000000000E+00
  0.299062775774E+01  0.394624082883E+01  0.500000000000E+01  0.409252726285E+01  0.500000000000E+01  0.429310310915E+01  0.175434191980E+01
  0.284428995242E+01  0.000000000000E+00  0.000000000000E+00  0.715990576545E+00  0.930412228790E+00  0.125000000000E+01  0.187029682677E+01
  0.500000000000E+01  0.375000000000E+01  0.250000000000E+01  0.000000000000E+00
  0.250494200518E+01  0.157686156160E+01  0.146289271009E+01  0.250494200518E+01  0.250494200518E+01  0.250494200518E+01  0.155830813274E+01
  0.125000000000E+01  0.250494200518E+01  0.177790177481E+01  0.477386199275E+00  0.742988685424E+00  0.308372018325E+00  0.125000000000E+01
 -0.487811078581E+00 -0.144524380962E+01 -0.125000000000E+01 -0.345533899378E+00  0.000000000000E+00  0.627766083140E+00 -0.739814786992E+00
 -0.158811787973E+01  0.000000000000E+00 -0.125000000000E+01 -0.600232012419E+00 -0.154800130438E+01 -0.249658901620E+01 -0.178862290564E+01
 -0.249658901620E+01 -0.249658901620E+01 -0.249658901620E+01 -0.249658901620E+01
  0.500000000000E+01  0.500000000000E+01  0.500000000000E+01  0.500000000000E+01  0.500000000000E+01  0.500000000000E+01  0.500000000000E+01
  0.500000000000E+01  0.500000000000E+01  0.500000000000E+01  0.500000000000E+01  0.500000000000E+01  0.500000000000E+01  0.500000000000E+01
  0.500000000000E+01  0.500000000000E+01  0.500000000000E+01  0.500000000000E+01  0.500000000000E+01  0.500000000000E+01  0.500000000000E+01
  0.500000000000E+01  0.500000000000E+01  0.500000000000E+01  0.500000000000E+01  0.500000000000E+01  0.500000000000E+01  0.500000000000E+01
  0.500000000000E+01  0.500000000000E+01  0.500000000000E+01  0.500000000000E+01
  0.492962761898E+00  0.493501814036E+00  0.494482156815E+00  0.493192028151E+00  0.491169162713E+00  0.488098788288E+00  0.488213917735E+00
  0.494128983609E+00  0.498012894274E+00  0.490743062847E+00  0.492687815535E+00  0.491182352522E+00  0.497494164823E+00  0.498545866604E+00
  0.492035513110E+00  0.486141830894E+00  0.492132924850E+00  0.489715882998E+00  0.494539390278E+00  0.490046921552E+00  0.494491367465E+00
  0.492624366008E+00  0.499470104894E+00  0.498443303809E+00  0.498085505949E+00  0.496394047971E+00  0.494346758124E+00  0.494728911457E+00
  0.491660272589E+00  0.489529544767E+00  0.494638538745E+00  0.497648494016E+00
  0.100096903846E+01  0.100040310323E+01  0.100072208242E+01  0.100024531069E+01  0.100018113445E+01  0.100002132898E+01  0.999888522773E+00
  0.100031159595E+01  0.100090132434E+01  0.100020963067E+01  0.100030894028E+01  0.999990939549E+00  0.100060759920E+01  0.100084556758E+01
  0.100008167684E+01  0.999676406979E+00  0.100057119068E+01  0.999878617502E+00  0.100042307847E+01  0.999981274433E+00  0.100055778087E+01
  0.999986004747E+00  0.100040727307E+01  0.100050934928E+01  0.100040913546E+01  0.100074102297E+01  0.100077487195E+01  0.100045005087E+01
  0.100026599090E+01  0.999860680862E+00  0.999993716634E+00  0.100085386785E+01
 -0.138047778467E-02 -0.152977226889E-02 -0.159654962402E-02 -0.407135728345E-03 -0.824754217976E-03 -0.995664238421E-03 -0.129760053825E-02
 -0.356537004736E-03 -0.228574243240E-02 -0.115796028488E-02 -0.141342109166E-02 -0.102003784700E-02 -0.177993943141E-02 -0.235678700056E-02
 -0.464340091867E-03 -0.560713546062E-03 -0.564622366702E-03 -0.631055966084E-03 -0.440214695555E-03 -0.161999449531E-02 -0.126239100618E-02
 -0.404105062442E-03 -0.243888783813E-02 -0.174073052812E-02 -0.190176198148E-02 -0.122177762037E-02 -0.936393351246E-03 -0.954072236779E-03
 -0.624682272499E-03 -0.671260157427E-03 -0.302626561556E-03 -0.146307551953E-02