title="tecplot geometry and solution file"
variables = x y z mach temperature lambda1 lambda2 lambda3 lambda4 lambda5
zone t="boundary 1 bc-1", solutiontime= 0.4000000E+02, strandid=1001, i=32, j=46, f=feblock
 -0.547472451393E-02  0.000000000000E+00 -0.567610115175E-02  0.000000000000E+00  0.000000000000E+00  0.000000000000E+00 -0.525162567618E-02
 -0.425778987282E-02  0.000000000000E+00  0.000000000000E+00  0.000000000000E+00  0.000000000000E+00  0.000000000000E+00  0.000000000000E+00
  0.000000000000E+00  0.000000000000E+00 -0.338396964726E-02  0.000000000000E+00  0.000000000000E+00  0.000000000000E+00  0.000000000000E+00
  0.000000000000E+00  0.000000000000E+00  0.000000000000E+00  0.000000000000E+00  0.000000000000E+00  0.000000000000E+00  0.000000000000E+00
  0.000000000000E+00  0.000000000000E+00  0.000000000000E+00  0.000000000000E+00
  0.250494200518E+01  0.250494200518E+01  0.127822174353E+01  0.146289271009E+01  0.157686156160E+01  0.308372018325E+00  0.261950149578E-01
 -0.122573467301E+01 -0.600232012419E+00  0.250494200518E+01  0.477386199275E+00  0.742988685424E+00 -0.739814786992E+00  0.177790177481E+01
  0.155830813274E+01  0.250494200518E+01 -0.249658901620E+01 -0.154800130438E+01 -0.487811078581E+00  0.250494200518E+01  0.627766083140E+00
 -0.345533899378E+00 -0.178862290564E+01 -0.158811787973E+01  0.125000000000E+01 -0.249658901620E+01 -0.144524380962E+01  0.000000000000E+00
 -0.125000000000E+01 -0.249658901620E+01 -0.249658901620E+01 -0.249658901620E+01
  0.803217454595E-04  0.125000000000E+01  0.822205720440E-04  0.103724302461E+01  0.219251206392E+01  0.922061490191E+00  0.103877916079E-03
  0.341876758094E-04  0.715990576545E+00  0.250000000000E+01  0.202479342020E+01  0.324151231464E+01  0.175434191980E+01  0.310152362409E+01
  0.404200324774E+01  0.375000000000E+01  0.811362740114E-04  0.930412228790E+00  0.299062775774E+01  0.500000000000E+01  0.429310310915E+01
  0.409252726285E+01  0.187029682677E+01  0.284428995242E+01  0.500000000000E+01  0.125000000000E+01  0.394624082883E+01  0.500000000000E+01
  0.500000000000E+01  0.250000000000E+01  0.375000000000E+01  0.500000000000E+01
  0.000000000000E+00  0.447917908494E+00  0.000000000000E+00  0.476275946409E+00  0.468523773278E+00  0.473519713474E+00  0.000000000000E+00
  0.000000000000E+00  0.412988893280E+00  0.477443354465E+00  0.472504683437E+00  0.485153445816E+00  0.492070561763E+00  0.488543843201E+00
  0.491923382132E+00  0.493078172475E+00  0.000000000000E+00  0.471586661864E+00  0.480934099844E+00  0.498012894274E+00  0.493689911511E+00
  0.490409921473E+00  0.456073463664E+00  0.472047042432E+00  0.498545866604E+00  0.449257997099E+00  0.491117576321E+00  0.499470104894E+00
  0.498443303809E+00  0.475665757693E+00  0.492352555709E+00  0.497648494016E+00
  0.104242640687E+01  0.102508329740E+01  0.104242640687E+01  0.103461471513E+01  0.100936211229E+01  0.102707646421E+01  0.104242640687E+01
  0.104242640687E+01  0.104103511740E+01  0.100608607710E+01  0.100935928463E+01  0.100173207489E+01  0.101882157166E+01  0.100399703674E+01
  0.100113915962E+01  0.100201867046E+01  0.104242640687E+01  0.103067303498E+01  0.100321571320E+01  0.100090132434E+01  0.100133271162E+01
  0.100116394723E+01  0.101357751201E+01  0.100469368428E+01  0.100084556758E+01  0.103269876530E+01  0.100165718057E+01  0.100040727307E+01
  0.100050934928E+01  0.100724883397E+01  0.100246497614E+01  0.100085386785E+01
  0.711160308136E-03 -0.135833072005E-02  0.837381721594E-03 -0.173646506417E-02 -0.468748515242E-03 -0.302704616849E-02  0.670986898059E-03
  0.858473654160E-03 -0.355116873231E-02 -0.144164463640E-03 -0.695731602069E-03 -0.161807602115E-03 -0.870217082220E-03 -0.775214463094E-04
 -0.358063233774E-03 -0.295615623568E-03  0.855440084646E-03 -0.256272843009E-02 -0.300563701668E-03 -0.228559805382E-02 -0.531150120157E-03
 -0.304598274336E-03 -0.783465558738E-03 -0.309230717924E-03 -0.235589161442E-02 -0.181615207824E-02 -0.268664813714E-03 -0.243841782588E-02
 -0.173943684071E-02 -0.371544063290E-03 -0.274494510283E-03 -0.146411852236E-02
  0.383056785116E-03  0.905204653103E-04  0.527162324293E-03  0.260669796114E-03 -0.124152922316E-03  0.488484530763E-03  0.426564897889E-04
  0.136231113935E-03  0.358282174574E-03 -0.100811909804E-03 -0.629558714007E-04 -0.183424253374E-03  0.146168812549E-04 -0.147660570452E-03
 -0.217176851119E-03 -0.238209885121E-03  0.218035422919E-03  0.416821368467E-03 -0.185370018349E-03 -0.475838760669E-03 -0.217790771955E-03
 -0.194107192210E-03 -0.375659167051E-04 -0.201848468364E-03 -0.499947613482E-03  0.125411693962E-03 -0.176145098711E-03 -0.520152144131E-03
 -0.378200240110E-03 -0.156745621220E-03 -0.175536020874E-03 -0.329319905793E-03
  0.136033052923E-05 -0.100017580580E-04  0.329579082055E-04  0.852300112713E-04 -0.172898337604E-04  0.160345484031E-03 -0.202237180249E-05
 -0.324067432100E-04 -0.856899518715E-04 -0.957336524946E-05  0.125580681821E-03  0.185894986125E-04  0.470647430868E-04 -0.256662569130E-04
  0.139576699081E-05 -0.507881250911E-05 -0.236779558667E-05 -0.144803610496E-03  0.607908630706E-04  0.166313902059E-05  0.446295481464E-05
  0.140892859237E-08 -0.682889724487E-04  0.420530835391E-04  0.712177077805E-05 -0.263776438372E-04  0.991194046689E-05  0.135312134577E-04
  0.852628841579E-05  0.804866045123E-06 -0.237901385093E-05 -0.304377587084E-05
 -0.117696637696E-03 -0.617103610713E-03 -0.238133632768E-03 -0.586950749798E-03 -0.480729977125E-03 -0.417929936325E-03 -0.291166363904E-03
 -0.421538057221E-03  0.630690158109E-03 -0.406613821626E-03 -0.453419711605E-03 -0.164965122195E-03 -0.307179577972E-03 -0.235682293704E-03
  0.178732782341E-04  0.203462066128E-04 -0.240065285748E-03 -0.376331462731E-04 -0.173384730842E-03  0.537478888228E-04  0.433070149931E-04
  0.195460790602E-04 -0.337516574213E-03 -0.116050168026E-03  0.517558612635E-04 -0.439178857134E-03  0.213465153040E-04  0.570332182937E-04
  0.539948606111E-04 -0.248753078210E-03  0.298512727012E-04  0.568072905374E-04
 -0.125052167163E-03  0.611107578682E-03 -0.195591449784E-03  0.782753060921E-03  0.277471875507E-03  0.118681612289E-02 -0.390918928581E-04
 -0.156696605833E-03  0.141149736244E-02  0.117480460542E-03  0.344586454432E-03  0.957073076090E-04  0.372816867880E-03  0.684091696650E-04
  0.159027166970E-03  0.132889964019E-03 -0.140542509444E-03  0.103123000940E-02  0.156479605411E-03  0.945731465240E-03  0.222476940367E-03
  0.131984651071E-03  0.355177989514E-03  0.161501999955E-03  0.977520308437E-03  0.762902467491E-03  0.117213076658E-03  0.101186904362E-02
  0.718563158781E-03  0.191003752591E-03  0.115028441320E-03  0.602421666971E-03
        12        19        11        11
        11         5        12        12
        10        14         5         5
        19        13        11        11
        19        24        13        13
        30        23        24        24
        19        12        22        22
        28        22        21        21
        11        13         6         6
         7         6         9         9
        15        12        14        14
        18        13        23        23
        15        25        21        21
        27        19        22        22
        18         8         9         9
        27        31        24        24
         4        11         6         6
         5        14        12        12
         4         2         5         5
        21        12        15        15
        14        16        15        15
        24        19        27        27
        22        29        27        27
        23        26        18        18
        17         8        18        18
         5        11         4         4
         6         3         4         4
        26        23        30        30
         5         2        10        10
        16        14        10        10
         3         6         7         7
        21        25        28        28
        29        22        28        28
         6        13         9         9
         2         4         1         1
        31        27        32        32
        25        15        20        20
        24        23        13        13
         8         7         9         9
        13        18         9         9
        31        30        24        24
        12        21        22        22
        29        32        27        27
         3         1         4         4
        26        17        18        18
        16        20        15        15
zone t="boundary 2 bc-2", solutiontime= 0.4000000E+02, strandid=1002, i=33, j=48, f=feblock
  0.500195255314E+01  0.375034812201E+01  0.249861146354E+01  0.288036675734E+01  0.124717526151E+01  0.190856699607E+01  0.326577190793E+01
  0.201394857590E+01 -0.338396964726E-02  0.962374261039E+00  0.500000000000E+01  0.403430190134E+01  0.423029563300E+01  0.500000000000E+01
  0.385439188555E+01  0.500000000000E+01  0.398133432910E+01  0.315200081435E+01  0.266958029510E+01  0.154798030854E+01  0.218327860925E+01
  0.893688451289E+00  0.000000000000E+00  0.699009769630E+00  0.964460904435E+00  0.310303671669E+01  0.000000000000E+00  0.000000000000E+00
  0.125000000000E+01  0.500000000000E+01  0.375000000000E+01  0.250000000000E+01  0.000000000000E+00
 -0.249658901620E+01 -0.249658901620E+01 -0.249658901620E+01 -0.249658901620E+01 -0.249658901620E+01 -0.249658901620E+01 -0.249658901620E+01
 -0.249658901620E+01 -0.249658901620E+01 -0.249658901620E+01 -0.249658901620E+01 -0.249658901620E+01 -0.249658901620E+01 -0.249658901620E+01
 -0.249658901620E+01 -0.249658901620E+01 -0.249658901620E+01 -0.249658901620E+01 -0.249658901620E+01 -0.249658901620E+01 -0.249658901620E+01
 -0.249658901620E+01 -0.249658901620E+01 -0.249658901620E+01 -0.249658901620E+01 -0.249658901620E+01 -0.249658901620E+01 -0.249658901620E+01
 -0.249658901620E+01 -0.249658901620E+01 -0.249658901620E+01 -0.249658901620E+01 -0.249658901620E+01
  0.108209230302E-03  0.145875485829E-03  0.100909960121E-03  0.901663357826E+00  0.110895836306E-03  0.714928325676E+00  0.188140643916E+01
  0.175892163458E+01  0.811362740114E-04  0.957504305825E+00  0.125000000000E+01  0.100596693416E+01  0.191313516265E+01  0.250000000000E+01
  0.292898094244E+01  0.375000000000E+01  0.406883368474E+01  0.363389287838E+01  0.284756858001E+01  0.292582306272E+01  0.395754053293E+01
  0.205027256174E+01  0.125000000000E+01  0.306703271839E+01  0.397155765835E+01  0.433068621090E+01  0.250000000000E+01  0.375000000000E+01
  0.500000000000E+01  0.500000000000E+01  0.500000000000E+01  0.500000000000E+01  0.500000000000E+01
  0.000000000000E+00  0.000000000000E+00  0.000000000000E+00  0.384516097266E+00  0.000000000000E+00  0.340285870380E+00  0.586752966553E+00
  0.575426017700E+00  0.000000000000E+00  0.487199380218E+00  0.520641039152E+00  0.445423546630E+00  0.576269216779E+00  0.533962374799E+00
  0.567224532018E+00  0.511735126950E+00  0.508063930500E+00  0.527166123912E+00  0.565842714897E+00  0.531744062706E+00  0.508272215462E+00
  0.522388441789E+00  0.449257997099E+00  0.494521462110E+00  0.495788430480E+00  0.503678487227E+00  0.475665757693E+00  0.492352555709E+00
  0.494346758124E+00  0.491660272589E+00  0.489529544767E+00  0.494638538745E+00  0.497648494016E+00
  0.104242640687E+01  0.104242640687E+01  0.104242640687E+01  0.100355246768E+01  0.104242640687E+01  0.100599607949E+01  0.989008031359E+00
  0.992225314811E+00  0.104242640687E+01  0.997058797553E+00  0.987964542423E+00  0.995589878418E+00  0.989405264129E+00  0.100087323701E+01
  0.997203118982E+00  0.100346283376E+01  0.100053321026E+01  0.999080756664E+00  0.995647248970E+00  0.100095637369E+01  0.999458338080E+00
  0.100692572870E+01  0.103269876530E+01  0.100216635751E+01  0.100130290673E+01  0.999493813801E+00  0.100724883397E+01  0.100246497614E+01
  0.100077487195E+01  0.100026599090E+01  0.999860680862E+00  0.999993716634E+00  0.100085386785E+01
 -0.328734005337E-04  0.289827314301E-03  0.472192546209E-03 -0.151313143548E-02  0.100346298669E-02 -0.198436379346E-02 -0.962058822338E-03
 -0.103522990143E-02  0.855440084646E-03 -0.133011657155E-02 -0.116349186265E-02 -0.105714882317E-02 -0.951921717734E-03 -0.791159630138E-03
 -0.553280963265E-03 -0.429617591603E-03 -0.427567884194E-03 -0.408959442913E-03 -0.551071168791E-03 -0.434959649894E-03 -0.321172611876E-03
 -0.902762363523E-03 -0.181615207824E-02 -0.519729670878E-03 -0.307182291961E-03 -0.491525349557E-03 -0.371544063290E-03 -0.274494510283E-03
 -0.934247678854E-03 -0.624566813834E-03 -0.671324215596E-03 -0.302190529224E-03 -0.146411852236E-02
 -0.205808039536E-03 -0.262954471331E-03 -0.355747757146E-03  0.107029764250E-02 -0.482451107797E-03  0.186496896978E-02 -0.656820663169E-04
 -0.711164168408E-04  0.218035422919E-03  0.704478949353E-03  0.254298732924E-03  0.976581101709E-04  0.226722216622E-04  0.200422868478E-03
  0.621301122380E-06  0.107147835835E-03  0.480060818068E-04 -0.584780241829E-04 -0.244258515592E-03 -0.409297973115E-03 -0.113847093356E-03
 -0.230666854996E-03  0.125411693962E-03 -0.373830841679E-03 -0.195553037593E-03 -0.308972585913E-04 -0.156745621220E-03 -0.175536020874E-03
 -0.184482686310E-03 -0.623339691706E-05  0.198414418782E-04  0.321638159026E-04 -0.329319905793E-03
 -0.621863904419E-05  0.505758234833E-04  0.550638426448E-04  0.180357416838E-03  0.319424758878E-04  0.691531799797E-04  0.266265055437E-04
  0.195210286380E-04 -0.236779558667E-05 -0.534198075368E-04 -0.293530816133E-04 -0.743021013841E-05 -0.185977477582E-04 -0.104291052645E-05
 -0.743002842428E-05 -0.286871513359E-05 -0.102997572534E-05  0.202012427031E-05 -0.877105583292E-06  0.343911697987E-05  0.677904812754E-06
 -0.143297309648E-04 -0.263776438372E-04  0.212831652646E-05 -0.283902929215E-05 -0.203444185024E-05  0.804866045123E-06 -0.237901385093E-05
 -0.137506077090E-05 -0.662785622482E-06  0.428486044390E-06  0.604028395241E-06 -0.304377587084E-05
  0.165451191649E-03 -0.617092448239E-03 -0.291798018478E-03  0.192564191011E-03 -0.514000940405E-03  0.667924891429E-03  0.246351753835E-03
  0.198622473995E-03 -0.240065285748E-03  0.942089535328E-04 -0.458688766639E-05 -0.966093994235E-04  0.155219085411E-03  0.702858566208E-04
  0.155759186141E-03  0.466751132863E-04  0.101442287711E-03  0.151643115882E-03  0.229011126041E-03  0.177203526877E-03  0.127313610663E-03
 -0.201029019852E-04 -0.439178857134E-03  0.467899410346E-04  0.743370626927E-04  0.120910420710E-03 -0.248753078210E-03  0.298512727012E-04
  0.534207565634E-04  0.509773981837E-04  0.887310216046E-04  0.846433056985E-04  0.568072905374E-04
  0.181894637059E-04  0.229753066637E-04  0.193941880567E-04  0.370130440960E-03  0.496568477223E-04  0.559278035118E-03  0.313705273524E-03
  0.410103481784E-03 -0.140542509444E-03  0.520735959481E-03  0.247000751329E-03  0.291775428198E-03  0.286323045820E-03  0.152181905856E-03
  0.155705388834E-03  0.844116529613E-04  0.109188338085E-03  0.131730517789E-03  0.236692337546E-03  0.245699196933E-03  0.122374682281E-03
  0.435819111919E-03  0.762902467491E-03  0.274693158485E-03  0.140351931140E-03  0.159476617132E-03  0.191003752591E-03  0.115028441320E-03
  0.372615720680E-03  0.206419886482E-03  0.214485490648E-03  0.795021643894E-04  0.602421666971E-03
        15         7        19        19
         8        20        19        19
        18        19        21        21
         7         4         8         8
         3         6         4         4
        19         7         8         8
        19        18        15        15
        14        13        15        15
         8        22        20        20
        27        24        22        22
        19        20        21        21
        32        26        21        21
        17        18        26        26
        17        16        15        15
        25        29        21        21
        12         7        13        13
        10         8         6         6
        25        20        24        24
         4         6         8         8
        12         2         4         4
        10        23        22        22
        26        31        17        17
        30        16        17        17
         4         7        12        12
        13        11        12        12
        21        20        25        25
        24        28        25        25
        22         8        10        10
         6         5        10        10
        31        26        32        32
         4         2         3         3
         5         6         3         3
        11        13        14        14
        22        23        27        27
        28        24        27        27
        15        13         7         7
         2        12         1         1
        29        25        33        33
        23        10         9         9
        21        26        18        18
        16        14        15        15
        18        17        15        15
        29        32        21        21
        22        24        20        20
        28        33        25        25
        11         1        12        12
        31        30        17        17
         5         9        10        10
zone t="boundary 3 bc-3", solutiontime= 0.4000000E+02, strandid=1003, i=33, j=48, f=feblock
  0.375059100023E+01  0.249769609018E+01  0.500322139357E+01  0.403612222764E+01  0.287976775183E+01  0.124541907694E+01  0.190552236758E+01
  0.500000000000E+01  0.326671106334E+01  0.423253756072E+01  0.201271138088E+01 -0.547472451393E-02  0.958895628172E+00  0.500000000000E+01
  0.266968148532E+01  0.385584487668E+01  0.890374213119E+00  0.154654014519E+01  0.000000000000E+00  0.500000000000E+01  0.315261137241E+01
  0.218304200095E+01  0.398195307874E+01  0.000000000000E+00  0.697379955532E+00  0.963757281441E+00  0.125000000000E+01  0.000000000000E+00
  0.500000000000E+01  0.310330738721E+01  0.250000000000E+01  0.375000000000E+01  0.000000000000E+00
  0.250494200518E+01  0.250494200518E+01  0.250494200518E+01  0.250494200518E+01  0.250494200518E+01  0.250494200518E+01  0.250494200518E+01
  0.250494200518E+01  0.250494200518E+01  0.250494200518E+01  0.250494200518E+01  0.250494200518E+01  0.250494200518E+01  0.250494200518E+01
  0.250494200518E+01  0.250494200518E+01  0.250494200518E+01  0.250494200518E+01  0.250494200518E+01  0.250494200518E+01  0.250494200518E+01
  0.250494200518E+01  0.250494200518E+01  0.250494200518E+01  0.250494200518E+01  0.250494200518E+01  0.250494200518E+01  0.250494200518E+01
  0.250494200518E+01  0.250494200518E+01  0.250494200518E+01  0.250494200518E+01  0.250494200518E+01
  0.135457018303E-03  0.109983667052E-03  0.964506812793E-04  0.101756739735E+01  0.908094462124E+00  0.103842439781E-03  0.722629008359E+00
  0.125000000000E+01  0.188965653796E+01  0.191862692310E+01  0.176708233168E+01  0.803217454595E-04  0.969652538213E+00  0.250000000000E+01
  0.285339429035E+01  0.293325055336E+01  0.205656222195E+01  0.293157014695E+01  0.125000000000E+01  0.375000000000E+01  0.363766836446E+01
  0.396069443368E+01  0.407056384269E+01  0.250000000000E+01  0.307031994183E+01  0.397359819531E+01  0.500000000000E+01  0.375000000000E+01
  0.500000000000E+01  0.433260780167E+01  0.500000000000E+01  0.500000000000E+01  0.500000000000E+01
  0.000000000000E+00  0.000000000000E+00  0.000000000000E+00  0.453747884457E+00  0.402545473609E+00  0.000000000000E+00  0.369628989658E+00
  0.520525437453E+00  0.575220769144E+00  0.575502687911E+00  0.558260167029E+00  0.000000000000E+00  0.478252952434E+00  0.530976526914E+00
  0.555830977781E+00  0.562793216286E+00  0.524675242564E+00  0.523282023757E+00  0.447917908494E+00  0.513796073895E+00  0.524673099809E+00
  0.506323918429E+00  0.509686672292E+00  0.477443354465E+00  0.499194827399E+00  0.497912970406E+00  0.492962761898E+00  0.493078172475E+00
  0.493192028151E+00  0.501531687671E+00  0.491169162713E+00  0.488098788288E+00  0.498012894274E+00
  0.104242640687E+01  0.104242640687E+01  0.104242640687E+01  0.992555423454E+00  0.100338777740E+01  0.104242640687E+01  0.100275102295E+01
  0.987610947936E+00  0.990360755008E+00  0.989796153217E+00  0.994453863917E+00  0.104242640687E+01  0.999323378079E+00  0.100158433860E+01
  0.997121319149E+00  0.998147046213E+00  0.100443205127E+01  0.100036232945E+01  0.102508329740E+01  0.100269535198E+01  0.100014129775E+01
  0.999693736776E+00  0.100036856429E+01  0.100608607710E+01  0.100156233864E+01  0.100069385080E+01  0.100096903846E+01  0.100201867046E+01
  0.100024531069E+01  0.999658106520E+00  0.100018113445E+01  0.100002132898E+01  0.100090132434E+01
  0.439667311772E-03  0.617801553459E-03 -0.545864507556E-04 -0.138979486789E-02 -0.164827563098E-02  0.733481338529E-03 -0.144321838978E-02
 -0.134606149041E-02 -0.897160869436E-03 -0.939027244262E-03 -0.107892789967E-02  0.711160308136E-03 -0.114318397750E-02 -0.737975123844E-03
 -0.463101662212E-03 -0.569987373478E-03 -0.650521277968E-03 -0.314527602311E-03 -0.135833072005E-02 -0.451584218087E-03 -0.343321259982E-03
 -0.283289721339E-03 -0.330654800842E-03 -0.144164463640E-03 -0.494479619417E-03 -0.507894037547E-03 -0.137946637055E-02 -0.295615623568E-03
 -0.407174230257E-03 -0.497614736855E-03 -0.824491909723E-03 -0.995672118722E-03 -0.228559805382E-02
 -0.552727888362E-03 -0.242595943762E-03 -0.256060112735E-03  0.484769741307E-03  0.929261702628E-03 -0.408326639858E-04  0.889471859205E-03
  0.299915450423E-03 -0.489783483842E-04  0.152588229001E-03 -0.421047230544E-04  0.383056785116E-03  0.342485060906E-03  0.190437111697E-03
 -0.199677061752E-03  0.293124291906E-04 -0.340783562180E-03 -0.377675284852E-03  0.905204653103E-04  0.109906333056E-03 -0.300318821161E-04
 -0.130476594286E-03  0.679445137514E-04 -0.100811909804E-03 -0.471992854281E-03 -0.230549396547E-03 -0.282690970161E-03 -0.238209885121E-03
  0.299528996373E-04 -0.359155993382E-04 -0.850270792039E-04 -0.614767681258E-04 -0.475838760669E-03
 -0.187367363645E-04  0.173785129010E-04  0.337978570260E-05 -0.143725068852E-04  0.169049728913E-04  0.235906429035E-04  0.546881488263E-04
  0.664968297794E-05  0.560672908248E-05  0.457995252783E-05  0.184211942091E-04  0.136033052923E-05  0.665213072336E-04  0.479049951921E-05
 -0.337246509295E-05 -0.177290401084E-05 -0.258554564165E-05  0.517162061373E-05 -0.100017580580E-04  0.418030738930E-05 -0.715825728977E-06
  0.289347741209E-05  0.193372685175E-05 -0.957336524946E-05 -0.529072193200E-05 -0.121439877208E-05 -0.291234999905E-06 -0.507881250911E-05
  0.860967411865E-06  0.187030330236E-06  0.271544096369E-06 -0.712040176243E-06  0.166313902059E-05
 -0.579074024659E-03 -0.164246312198E-03 -0.253523964506E-04  0.541240636048E-03  0.341925513874E-03  0.895946733520E-04  0.681872279669E-03
 -0.439874453732E-04  0.359164354607E-03  0.207987129630E-03  0.276403530874E-03 -0.117696637696E-03 -0.903314224358E-04  0.675675551033E-04
  0.264947926039E-03  0.182914309217E-03  0.522064449056E-05  0.168552433035E-03 -0.617103610713E-03  0.552036990371E-04  0.168234021151E-03
  0.124789341524E-03  0.109180814927E-03 -0.406613821626E-03  0.730832436049E-04  0.689643330132E-04  0.493075437895E-04  0.203462066128E-04
  0.483240082907E-04  0.116561428878E-03  0.746982979274E-04  0.910896895494E-04  0.537478888228E-04
  0.366222587087E-04  0.429742472992E-04  0.262038678157E-04  0.353249619229E-03  0.519893696305E-03  0.445970902988E-04  0.520969866593E-03
  0.289227201603E-03  0.296850405335E-03  0.229564679921E-03  0.424482698606E-03 -0.125052167163E-03  0.524780640932E-03  0.142427771503E-03
  0.193898881783E-03  0.156238661442E-03  0.388971947464E-03  0.204007961220E-03  0.611107578682E-03  0.893512560402E-04  0.103076518579E-03
  0.115823290808E-03  0.681257133628E-04  0.117480460542E-03  0.293318035644E-03  0.223924629915E-03  0.559127667684E-03  0.132889964019E-03
  0.118747298167E-03  0.165130695390E-03  0.303436400721E-03  0.353628730049E-03  0.945731465240E-03
        15         9        16        16
        15        18        11        11
        22        15        21        21
        11         5         9         9
         5         7         2         2
        11         9        15        15
        16        21        15        15
        16        10        14        14
        18        17        11        11
        17        25        24        24
        22        18        15        15
        22        30        31        31
        30        21        23        23
        16        20        23        23
        22        27        26        26
        10         9         4         4
         7        11        13        13
        25        18        26        26
        11         7         5         5
         5         1         4         4
        17        19        13        13
        23        32        30        30
        23        20        29        29
         4         9         5         5
         4         8        10        10
        26        18        22        22
        26        28        25        25
        13        11        17        17
        13         6         7         7
        31        30        32        32
         2         1         5         5
         2         7         6         6
        14        10         8         8
        24        19        17        17
        24        25        28        28
         9        10        16        16
         3         4         1         1
        33        26        27        27
        12        13        19        19
        21        30        22        22
        16        14        20        20
        16        23        21        21
        22        31        27        27
        18        25        17        17
        26        33        28        28
         4         3         8         8
        23        29        32        32
        13        12         6         6
zone t="boundary 4 bc-4", solutiontime= 0.4000000E+02, strandid=1004, i=32, j=46, f=feblock
  0.125000000000E+01  0.219251206392E+01  0.103724302461E+01  0.500000000000E+01  0.250000000000E+01  0.375000000000E+01  0.404200324774E+01
  0.500000000000E+01  0.000000000000E+00  0.310152362409E+01  0.202479342020E+01  0.324151231464E+01  0.922061490191E+00  0.000000000000E+00
  0.299062775774E+01  0.394624082883E+01  0.500000000000E+01  0.409252726285E+01  0.500000000000E+01  0.429310310915E+01  0.175434191980E+01
  0.284428995242E+01  0.000000000000E+00  0.000000000000E+00  0.715990576545E+00  0.930412228790E+00  0.125000000000E+01  0.187029682677E+01
  0.500000000000E+01  0.375000000000E+01  0.250000000000E+01  0.000000000000E+00
  0.250494200518E+01  0.157686156160E+01  0.146289271009E+01  0.250494200518E+01  0.250494200518E+01  0.250494200518E+01  0.155830813274E+01
  0.125000000000E+01  0.250494200518E+01  0.177790177481E+01  0.477386199275E+00  0.742988685424E+00  0.308372018325E+00  0.125000000000E+01
 -0.487811078581E+00 -0.144524380962E+01 -0.125000000000E+01 -0.345533899378E+00  0.000000000000E+00  0.627766083140E+00 -0.739814786992E+00
 -0.158811787973E+01  0.000000000000E+00 -0.125000000000E+01 -0.600232012419E+00 -0.154800130438E+01 -0.249658901620E+01 -0.178862290564E+01
 -0.249658901620E+01 -0.249658901620E+01 -0.249658901620E+01 -0.249658901620E+01
  0.500000000000E+01  0.500000000000E+01  0.500000000000E+01  0.500000000000E+01  0.500000000000E+01  0.500000000000E+01  0.500000000000E+01
  0.500000000000E+01  0.500000000000E+01  0.500000000000E+01  0.500000000000E+01  0.500000000000E+01  0.500000000000E+01  0.500000000000E+01
  0.500000000000E+01  0.500000000000E+01  0.500000000000E+01  0.500000000000E+01  0.500000000000E+01  0.500000000000E+01  0.500000000000E+01
  0.500000000000E+01  0.500000000000E+01  0.500000000000E+01  0.500000000000E+01  0.500000000000E+01  0.500000000000E+01  0.500000000000E+01
  0.500000000000E+01  0.500000000000E+01  0.500000000000E+01  0.500000000000E+01
  0.492962761898E+00  0.493501814036E+00  0.494482156815E+00  0.493192028151E+00  0.491169162713E+00  0.488098788288E+00  0.488213917735E+00
  0.494128983609E+00  0.498012894274E+00  0.490743062847E+00  0.492687815535E+00  0.491182352522E+00  0.497494164823E+00  0.498545866604E+00
  0.492035513110E+00  0.486141830894E+00  0.492132924850E+00  0.489715882998E+00  0.494539390278E+00  0.490046921552E+00  0.494491367465E+00
  0.492624366008E+00  0.499470104894E+00  0.498443303809E+00  0.498085505949E+00  0.496394047971E+00  0.494346758124E+00  0.494728911457E+00
  0.491660272589E+00  0.489529544767E+00  0.494638538745E+00  0.497648494016E+00
  0.100096903846E+01  0.100040310323E+01  0.100072208242E+01  0.100024531069E+01  0.100018113445E+01  0.100002132898E+01  0.999888522773E+00
  0.100031159595E+01  0.100090132434E+01  0.100020963067E+01  0.100030894028E+01  0.999990939549E+00  0.100060759920E+01  0.100084556758E+01
  0.100008167684E+01  0.999676406979E+00  0.100057119068E+01  0.999878617502E+00  0.100042307847E+01  0.999981274433E+00  0.100055778087E+01
  0.999986004747E+00  0.100040727307E+01  0.100050934928E+01  0.100040913546E+01  0.100074102297E+01  0.100077487195E+01  0.100045005087E+01
  0.100026599090E+01  0.999860680862E+00  0.999993716634E+00  0.100085386785E+01
 -0.137946637055E-02 -0.152886059704E-02 -0.159520488390E-02 -0.407174230257E-03 -0.824491909723E-03 -0.995672118722E-03 -0.129753405490E-02
 -0.356560524471E-03 -0.228559805382E-02 -0.115780204882E-02 -0.141215123972E-02 -0.101954577718E-02 -0.177861722542E-02 -0.235589161442E-02
 -0.463566196053E-03 -0.560632368714E-03 -0.564528811278E-03 -0.631202587720E-03 -0.440182999157E-03 -0.161984142562E-02 -0.126239391710E-02
 -0.403788083067E-03 -0.243841782588E-02 -0.173943684071E-02 -0.190058630506E-02 -0.122127217898E-02 -0.934247678854E-03 -0.952720070733E-03
 -0.624566813834E-03 -0.671324215596E-03 -0.302190529224E-03 -0.146411852236E-02