title="tecplot geometry and solution file"
variables = x y z mach temperature lambda1 lambda2 lambda3 lambda4 lambda5
zone t="boundary 1 bc-1", solutiontime= 0.3000000E+02, strandid=1001, i=32, j=46, f=feblock
 -0.547472451393E-02  0.000000000000E+00 -0.567610115175E-02  0.000000000000E+00  0.000000000000E+00  0.000000000000E+00 -0.525162567618E-02
 -0.425778987282E-02  0.000000000000E+00  0.000000000000E+00  0.000000000000E+00  0.000000000000E+00  0.000000000000E+00  0.000000000000E+00
  0.000000000000E+00  0.000000000000E+00 -0.338396964726E-02  0.000000000000E+00  0.000000000000E+00  0.000000000000E+00  0.000000000000E+00
  0.000000000000E+00  0.000000000000E+00  0.000000000000E+00  0.000000000000E+00  0.000000000000E+00  0.000000000000E+00  0.000000000000E+00
  0.000000000000E+00  0.000000000000E+00  0.000000000000E+00  0.000000000000E+00
  0.250494200518E+01  0.250494200518E+01  0.127822174353E+01  0.146289271009E+01  0.157686156160E+01  0.308372018325E+00  0.261950149578E-01
 -0.122573467301E+01 -0.600232012419E+00  0.250494200518E+01  0.477386199275E+00  0.742988685424E+00 -0.739814786992E+00  0.177790177481E+01
  0.155830813274E+01  0.250494200518E+01 -0.249658901620E+01 -0.154800130438E+01 -0.487811078581E+00  0.250494200518E+01  0.627766083140E+00
 -0.345533899378E+00 -0.178862290564E+01 -0.158811787973E+01  0.125000000000E+01 -0.249658901620E+01 -0.144524380962E+01  0.000000000000E+00
 -0.125000000000E+01 -0.249658901620E+01 -0.249658901620E+01 -0.249658901620E+01
  0.803217454595E-04  0.125000000000E+01  0.822205720440E-04  0.103724302461E+01  0.219251206392E+01  0.922061490191E+00  0.103877916079E-03
  0.341876758094E-04  0.715990576545E+00  0.250000000000E+01  0.202479342020E+01  0.324151231464E+01  0.175434191980E+01  0.310152362409E+01
  0.404200324774E+01  0.375000000000E+01  0.811362740114E-04  0.930412228790E+00  0.299062775774E+01  0.500000000000E+01  0.429310310915E+01
  0.409252726285E+01  0.187029682677E+01  0.284428995242E+01  0.500000000000E+01  0.125000000000E+01  0.394624082883E+01  0.500000000000E+01
  0.500000000000E+01  0.250000000000E+01  0.375000000000E+01  0.500000000000E+01
  0.000000000000E+00  0.447917908494E+00  0.000000000000E+00  0.476275946409E+00  0.468523773278E+00  0.473519713474E+00  0.000000000000E+00
  0.000000000000E+00  0.412988893280E+00  0.477443354465E+00  0.472504683437E+00  0.485153445816E+00  0.492070561763E+00  0.488543843201E+00
  0.491923382132E+00  0.493078172475E+00  0.000000000000E+00  0.471586661864E+00  0.480934099844E+00  0.498012894274E+00  0.493689911511E+00
  0.490409921473E+00  0.456073463664E+00  0.472047042432E+00  0.498545866604E+00  0.449257997099E+00  0.491117576321E+00  0.499470104894E+00
  0.498443303809E+00  0.475665757693E+00  0.492352555709E+00  0.497648494016E+00
  0.104242640687E+01  0.102508329740E+01  0.104242640687E+01  0.103461471513E+01  0.100936211229E+01  0.102707646421E+01  0.104242640687E+01
  0.104242640687E+01  0.104103511740E+01  0.100608607710E+01  0.100935928463E+01  0.100173207489E+01  0.101882157166E+01  0.100399703674E+01
  0.100113915962E+01  0.100201867046E+01  0.104242640687E+01  0.103067303498E+01  0.100321571320E+01  0.100090132434E+01  0.100133271162E+01
  0.100116394723E+01  0.101357751201E+01  0.100469368428E+01  0.100084556758E+01  0.103269876530E+01  0.100165718057E+01  0.100040727307E+01
  0.100050934928E+01  0.100724883397E+01  0.100246497614E+01  0.100085386785E+01
  0.711160979742E-03 -0.135829875923E-02  0.837377746556E-03 -0.173642654944E-02 -0.468779170772E-03 -0.302706335655E-02  0.670987482657E-03
  0.858477166963E-03 -0.355116276032E-02 -0.144195699206E-03 -0.695748683609E-03 -0.161797649090E-03 -0.870272704756E-03 -0.775133728711E-04
 -0.358040951830E-03 -0.295555558060E-03  0.855444093977E-03 -0.256259931644E-02 -0.300562451987E-03 -0.228566095338E-02 -0.531101855387E-03
 -0.304481891323E-03 -0.783475749949E-03 -0.309229919752E-03 -0.235601067458E-02 -0.181627562019E-02 -0.268635365788E-03 -0.243857454763E-02
 -0.173951104440E-02 -0.371546121643E-03 -0.274477130691E-03 -0.146415799051E-02
  0.383055844736E-03  0.905257062341E-04  0.527162374290E-03  0.260677109990E-03 -0.124158784110E-03  0.488480247392E-03  0.426564568105E-04
  0.136230892740E-03  0.358283529679E-03 -0.100818073354E-03 -0.629586901656E-04 -0.183422561176E-03  0.146049515572E-04 -0.147658710878E-03
 -0.217176294077E-03 -0.238196486297E-03  0.218035029117E-03  0.416842403456E-03 -0.185369672127E-03 -0.475848181973E-03 -0.217782825668E-03
 -0.194085393537E-03 -0.375669640036E-04 -0.201847751063E-03 -0.499968328169E-03  0.125387196034E-03 -0.176145181190E-03 -0.520172745116E-03
 -0.378206697669E-03 -0.156743311116E-03 -0.175534945256E-03 -0.329322862321E-03
  0.136103379287E-05 -0.100015568312E-04  0.329576938650E-04  0.852321132119E-04 -0.172913999573E-04  0.160340505254E-03 -0.202350584021E-05
 -0.324070559120E-04 -0.856920991784E-04 -0.957336631230E-05  0.125581816385E-03  0.185895690340E-04  0.470650510853E-04 -0.256682101676E-04
  0.139574621472E-05 -0.507881349578E-05 -0.236820466432E-05 -0.144804142107E-03  0.607914320455E-04  0.166298411199E-05  0.446666927984E-05
  0.206982471595E-08 -0.682905158556E-04  0.420536133130E-04  0.712117688435E-05 -0.263781907266E-04  0.991126302219E-05  0.135291404090E-04
  0.852722462922E-05  0.804862495021E-06 -0.237925976799E-05 -0.304377731789E-05
 -0.117696897129E-03 -0.617099405045E-03 -0.238132727364E-03 -0.586950005411E-03 -0.480727916994E-03 -0.417926700366E-03 -0.291166244545E-03
 -0.421539017526E-03  0.630692221338E-03 -0.406610596867E-03 -0.453421869738E-03 -0.164967353119E-03 -0.307179072376E-03 -0.235683142765E-03
  0.178744977347E-04  0.203476905654E-04 -0.240065689625E-03 -0.376282357773E-04 -0.173387849105E-03  0.537464233490E-04  0.433130712424E-04
  0.195515597316E-04 -0.337516625494E-03 -0.116052722984E-03  0.517563906250E-04 -0.439181186446E-03  0.213475165902E-04  0.570345527603E-04
  0.539950336702E-04 -0.248755395897E-03  0.298528528848E-04  0.568073901655E-04
 -0.125054395277E-03  0.611094238262E-03 -0.195586899574E-03  0.782736891729E-03  0.277484613622E-03  0.118682338613E-02 -0.390916322976E-04
 -0.156699622093E-03  0.141149492052E-02  0.117493669198E-03  0.344593475048E-03  0.957032394642E-04  0.372840538448E-03  0.684056763046E-04
  0.159018482465E-03  0.132864094074E-03 -0.140544683234E-03  0.103117744634E-02  0.156479056853E-03  0.945757825161E-03  0.222456285372E-03
  0.131935047489E-03  0.355182183442E-03  0.161501426082E-03  0.977570008207E-03  0.762954272756E-03  0.117201382082E-03  0.101193414885E-02
  0.718593855138E-03  0.191004231965E-03  0.115021132970E-03  0.602437724191E-03
        12        19        11        11
        11         5        12        12
        10        14         5         5
        19        13        11        11
        19        24        13        13
        30        23        24        24
        19        12        22        22
        28        22        21        21
        11        13         6         6
         7         6         9         9
        15        12        14        14
        18        13        23        23
        15        25        21        21
        27        19        22        22
        18         8         9         9
        27        31        24        24
         4        11         6         6
         5        14        12        12
         4         2         5         5
        21        12        15        15
        14        16        15        15
        24        19        27        27
        22        29        27        27
        23        26        18        18
        17         8        18        18
         5        11         4         4
         6         3         4         4
        26        23        30        30
         5         2        10        10
        16        14        10        10
         3         6         7         7
        21        25        28        28
        29        22        28        28
         6        13         9         9
         2         4         1         1
        31        27        32        32
        25        15        20        20
        24        23        13        13
         8         7         9         9
        13        18         9         9
        31        30        24        24
        12        21        22        22
        29        32        27        27
         3         1         4         4
        26        17        18        18
        16        20        15        15
zone t="boundary 2 bc-2", solutiontime= 0.3000000E+02, strandid=1002, i=33, j=48, f=feblock
  0.500195255314E+01  0.375034812201E+01  0.249861146354E+01  0.288036675734E+01  0.124717526151E+01  0.190856699607E+01  0.326577190793E+01
  0.201394857590E+01 -0.338396964726E-02  0.962374261039E+00  0.500000000000E+01  0.403430190134E+01  0.423029563300E+01  0.500000000000E+01
  0.385439188555E+01  0.500000000000E+01  0.398133432910E+01  0.315200081435E+01  0.266958029510E+01  0.154798030854E+01  0.218327860925E+01
  0.893688451289E+00  0.000000000000E+00  0.699009769630E+00  0.964460904435E+00  0.310303671669E+01  0.000000000000E+00  0.000000000000E+00
  0.125000000000E+01  0.500000000000E+01  0.375000000000E+01  0.250000000000E+01  0.000000000000E+00
 -0.249658901620E+01 -0.249658901620E+01 -0.249658901620E+01 -0.249658901620E+01 -0.249658901620E+01 -0.249658901620E+01 -0.249658901620E+01
 -0.249658901620E+01 -0.249658901620E+01 -0.249658901620E+01 -0.249658901620E+01 -0.249658901620E+01 -0.249658901620E+01 -0.249658901620E+01
 -0.249658901620E+01 -0.249658901620E+01 -0.249658901620E+01 -0.249658901620E+01 -0.249658901620E+01 -0.249658901620E+01 -0.249658901620E+01
 -0.249658901620E+01 -0.249658901620E+01 -0.249658901620E+01 -0.249658901620E+01 -0.249658901620E+01 -0.249658901620E+01 -0.249658901620E+01
 -0.249658901620E+01 -0.249658901620E+01 -0.249658901620E+01 -0.249658901620E+01 -0.249658901620E+01
  0.108209230302E-03  0.145875485829E-03  0.100909960121E-03  0.901663357826E+00  0.110895836306E-03  0.714928325676E+00  0.188140643916E+01
  0.175892163458E+01  0.811362740114E-04  0.957504305825E+00  0.125000000000E+01  0.100596693416E+01  0.191313516265E+01  0.250000000000E+01
  0.292898094244E+01  0.375000000000E+01  0.406883368474E+01  0.363389287838E+01  0.284756858001E+01  0.292582306272E+01  0.395754053293E+01
  0.205027256174E+01  0.125000000000E+01  0.306703271839E+01  0.397155765835E+01  0.433068621090E+01  0.250000000000E+01  0.375000000000E+01
  0.500000000000E+01  0.500000000000E+01  0.500000000000E+01  0.500000000000E+01  0.500000000000E+01
  0.000000000000E+00  0.000000000000E+00  0.000000000000E+00  0.384516097266E+00  0.000000000000E+00  0.340285870380E+00  0.586752966553E+00
  0.575426017700E+00  0.000000000000E+00  0.487199380218E+00  0.520641039152E+00  0.445423546630E+00  0.576269216779E+00  0.533962374799E+00
  0.567224532018E+00  0.511735126950E+00  0.508063930500E+00  0.527166123912E+00  0.565842714897E+00  0.531744062706E+00  0.508272215462E+00
  0.522388441789E+00  0.449257997099E+00  0.494521462110E+00  0.495788430480E+00  0.503678487227E+00  0.475665757693E+00  0.492352555709E+00
  0.494346758124E+00  0.491660272589E+00  0.489529544767E+00  0.494638538745E+00  0.497648494016E+00
  0.104242640687E+01  0.104242640687E+01  0.104242640687E+01  0.100355246768E+01  0.104242640687E+01  0.100599607949E+01  0.989008031359E+00
  0.992225314811E+00  0.104242640687E+01  0.997058797553E+00  0.987964542423E+00  0.995589878418E+00  0.989405264129E+00  0.100087323701E+01
  0.997203118982E+00  0.100346283376E+01  0.100053321026E+01  0.999080756664E+00  0.995647248970E+00  0.100095637369E+01  0.999458338080E+00
  0.100692572870E+01  0.103269876530E+01  0.100216635751E+01  0.100130290673E+01  0.999493813801E+00  0.100724883397E+01  0.100246497614E+01
  0.100077487195E+01  0.100026599090E+01  0.999860680862E+00  0.999993716634E+00  0.100085386785E+01
 -0.328748643700E-04  0.289826542329E-03  0.472191399683E-03 -0.151314293135E-02  0.100346365127E-02 -0.198428056658E-02 -0.962066829448E-03
 -0.103523561584E-02  0.855444093977E-03 -0.133010976601E-02 -0.116348855592E-02 -0.105718033439E-02 -0.951915762516E-03 -0.791161166061E-03
 -0.553279883076E-03 -0.429617746566E-03 -0.427568724514E-03 -0.408955048153E-03 -0.551076944074E-03 -0.434950705278E-03 -0.321169861489E-03
 -0.902763858186E-03 -0.181627562019E-02 -0.519738552141E-03 -0.307170021869E-03 -0.491525344918E-03 -0.371546121643E-03 -0.274477130691E-03
 -0.934279341493E-03 -0.624568854798E-03 -0.671329233490E-03 -0.302183980545E-03 -0.146415799051E-02
 -0.205807791451E-03 -0.262954742062E-03 -0.355747710869E-03  0.107029451196E-02 -0.482451923960E-03  0.186497653643E-02 -0.656834733585E-04
 -0.711160387414E-04  0.218035029117E-03  0.704474922226E-03  0.254299969351E-03  0.976520544857E-04  0.226743879031E-04  0.200422743382E-03
  0.621840126840E-06  0.107147752364E-03  0.480060977667E-04 -0.584769771193E-04 -0.244258459584E-03 -0.409291346845E-03 -0.113847700010E-03
 -0.230662578936E-03  0.125387196034E-03 -0.373830677137E-03 -0.195553523514E-03 -0.308976547371E-04 -0.156743311116E-03 -0.175534945256E-03
 -0.184492314754E-03 -0.623347018320E-05  0.198419295747E-04  0.321682329869E-04 -0.329322862321E-03
 -0.621845090911E-05  0.505759535927E-04  0.550639428271E-04  0.180357067022E-03  0.319419897863E-04  0.691530890568E-04  0.266263637681E-04
  0.195210607605E-04 -0.236820466432E-05 -0.534205339912E-04 -0.293530559146E-04 -0.743047257630E-05 -0.185976819903E-04 -0.104290764011E-05
 -0.743001840471E-05 -0.286872144702E-05 -0.102992350101E-05  0.202021605478E-05 -0.877111735320E-06  0.343928014820E-05  0.677956984969E-06
 -0.143295519351E-04 -0.263781907266E-04  0.212837341773E-05 -0.283923032964E-05 -0.203433433203E-05  0.804862495021E-06 -0.237925976799E-05
 -0.137519196644E-05 -0.662727955737E-06  0.428564736460E-06  0.604046558977E-06 -0.304377731789E-05
  0.165451337458E-03 -0.617092409918E-03 -0.291797878419E-03  0.192565619964E-03 -0.514001145103E-03  0.667927085866E-03  0.246352508871E-03
  0.198621930765E-03 -0.240065689625E-03  0.942111816121E-04 -0.458684541112E-05 -0.966059906739E-04  0.155219160941E-03  0.702860009811E-04
  0.155759391197E-03  0.466750616067E-04  0.101441959154E-03  0.151643227728E-03  0.229011522357E-03  0.177204996457E-03  0.127313745978E-03
 -0.200989141867E-04 -0.439181186446E-03  0.467898699939E-04  0.743361742590E-04  0.120909729212E-03 -0.248755395897E-03  0.298528528848E-04
  0.534215792914E-04  0.509775925663E-04  0.887313429429E-04  0.846436079196E-04  0.568073901655E-04
  0.181903908170E-04  0.229755796521E-04  0.193952842453E-04  0.370135449279E-03  0.496565813243E-04  0.559244519529E-03  0.313708550773E-03
  0.410105529222E-03 -0.140544683234E-03  0.520734420737E-03  0.246999094839E-03  0.291788875112E-03  0.286320103892E-03  0.152182456424E-03
  0.155704748580E-03  0.844117329861E-04  0.109188582055E-03  0.131728500508E-03  0.236694453349E-03  0.245694079454E-03  0.122373680822E-03
  0.435818627613E-03  0.762954272756E-03  0.274696576453E-03  0.140347216060E-03  0.159476622998E-03  0.191004231965E-03  0.115021132970E-03
  0.372629688408E-03  0.206420590209E-03  0.214487098534E-03  0.794985265294E-04  0.602437724191E-03
        15         7        19        19
         8        20        19        19
        18        19        21        21
         7         4         8         8
         3         6         4         4
        19         7         8         8
        19        18        15        15
        14        13        15        15
         8        22        20        20
        27        24        22        22
        19        20        21        21
        32        26        21        21
        17        18        26        26
        17        16        15        15
        25        29        21        21
        12         7        13        13
        10         8         6         6
        25        20        24        24
         4         6         8         8
        12         2         4         4
        10        23        22        22
        26        31        17        17
        30        16        17        17
         4         7        12        12
        13        11        12        12
        21        20        25        25
        24        28        25        25
        22         8        10        10
         6         5        10        10
        31        26        32        32
         4         2         3         3
         5         6         3         3
        11        13        14        14
        22        23        27        27
        28        24        27        27
        15        13         7         7
         2        12         1         1
        29        25        33        33
        23        10         9         9
        21        26        18        18
        16        14        15        15
        18        17        15        15
        29        32        21        21
        22        24        20        20
        28        33        25        25
        11         1        12        12
        31        30        17        17
         5         9        10        10
zone t="boundary 3 bc-3", solutiontime= 0.3000000E+02, strandid=1003, i=33, j=48, f=feblock
  0.375059100023E+01  0.249769609018E+01  0.500322139357E+01  0.403612222764E+01  0.287976775183E+01  0.124541907694E+01  0.190552236758E+01
  0.500000000000E+01  0.326671106334E+01  0.423253756072E+01  0.201271138088E+01 -0.547472451393E-02  0.958895628172E+00  0.500000000000E+01
  0.266968148532E+01  0.385584487668E+01  0.890374213119E+00  0.154654014519E+01  0.000000000000E+00  0.500000000000E+01  0.315261137241E+01
  0.218304200095E+01  0.398195307874E+01  0.000000000000E+00  0.697379955532E+00  0.963757281441E+00  0.125000000000E+01  0.000000000000E+00
  0.500000000000E+01  0.310330738721E+01  0.250000000000E+01  0.375000000000E+01  0.000000000000E+00
  0.250494200518E+01  0.250494200518E+01  0.250494200518E+01  0.250494200518E+01  0.250494200518E+01  0.250494200518E+01  0.250494200518E+01
  0.250494200518E+01  0.250494200518E+01  0.250494200518E+01  0.250494200518E+01  0.250494200518E+01  0.250494200518E+01  0.250494200518E+01
  0.250494200518E+01  0.250494200518E+01  0.250494200518E+01  0.250494200518E+01  0.250494200518E+01  0.250494200518E+01  0.250494200518E+01
  0.250494200518E+01  0.250494200518E+01  0.250494200518E+01  0.250494200518E+01  0.250494200518E+01  0.250494200518E+01  0.250494200518E+01
  0.250494200518E+01  0.250494200518E+01  0.250494200518E+01  0.250494200518E+01  0.250494200518E+01
  0.135457018303E-03  0.109983667052E-03  0.964506812793E-04  0.101756739735E+01  0.908094462124E+00  0.103842439781E-03  0.722629008359E+00
  0.125000000000E+01  0.188965653796E+01  0.191862692310E+01  0.176708233168E+01  0.803217454595E-04  0.969652538213E+00  0.250000000000E+01
  0.285339429035E+01  0.293325055336E+01  0.205656222195E+01  0.293157014695E+01  0.125000000000E+01  0.375000000000E+01  0.363766836446E+01
  0.396069443368E+01  0.407056384269E+01  0.250000000000E+01  0.307031994183E+01  0.397359819531E+01  0.500000000000E+01  0.375000000000E+01
  0.500000000000E+01  0.433260780167E+01  0.500000000000E+01  0.500000000000E+01  0.500000000000E+01
  0.000000000000E+00  0.000000000000E+00  0.000000000000E+00  0.453747884457E+00  0.402545473609E+00  0.000000000000E+00  0.369628989658E+00
  0.520525437453E+00  0.575220769144E+00  0.575502687911E+00  0.558260167029E+00  0.000000000000E+00  0.478252952434E+00  0.530976526914E+00
  0.555830977781E+00  0.562793216286E+00  0.524675242564E+00  0.523282023757E+00  0.447917908494E+00  0.513796073895E+00  0.524673099809E+00
  0.506323918429E+00  0.509686672292E+00  0.477443354465E+00  0.499194827399E+00  0.497912970406E+00  0.492962761898E+00  0.493078172475E+00
  0.493192028151E+00  0.501531687671E+00  0.491169162713E+00  0.488098788288E+00  0.498012894274E+00
  0.104242640687E+01  0.104242640687E+01  0.104242640687E+01  0.992555423454E+00  0.100338777740E+01  0.104242640687E+01  0.100275102295E+01
  0.987610947936E+00  0.990360755008E+00  0.989796153217E+00  0.994453863917E+00  0.104242640687E+01  0.999323378079E+00  0.100158433860E+01
  0.997121319149E+00  0.998147046213E+00  0.100443205127E+01  0.100036232945E+01  0.102508329740E+01  0.100269535198E+01  0.100014129775E+01
  0.999693736776E+00  0.100036856429E+01  0.100608607710E+01  0.100156233864E+01  0.100069385080E+01  0.100096903846E+01  0.100201867046E+01
  0.100024531069E+01  0.999658106520E+00  0.100018113445E+01  0.100002132898E+01  0.100090132434E+01
  0.439668545944E-03  0.617803069704E-03 -0.545861800770E-04 -0.138981947009E-02 -0.164823899247E-02  0.733481336176E-03 -0.144318043812E-02
 -0.134605615569E-02 -0.897170124825E-03 -0.939024366475E-03 -0.107892890610E-02  0.711160979742E-03 -0.114315313993E-02 -0.737976466040E-03
 -0.463097063515E-03 -0.569987985745E-03 -0.650532279980E-03 -0.314533832527E-03 -0.135829875923E-02 -0.451585292165E-03 -0.343321150797E-03
 -0.283290897714E-03 -0.330651450504E-03 -0.144195699206E-03 -0.494494302362E-03 -0.507882753393E-03 -0.137947704678E-02 -0.295555558060E-03
 -0.407174124883E-03 -0.497614412745E-03 -0.824482952264E-03 -0.995674773079E-03 -0.228566095338E-02
 -0.552727846168E-03 -0.242596683809E-03 -0.256059722928E-03  0.484761073995E-03  0.929261041664E-03 -0.408335233118E-04  0.889474257876E-03
  0.299916978012E-03 -0.489796908303E-04  0.152589452067E-03 -0.421076887802E-04  0.383055844736E-03  0.342487056599E-03  0.190437146703E-03
 -0.199674410868E-03  0.293130665767E-04 -0.340787116975E-03 -0.377675033995E-03  0.905257062341E-04  0.109906310685E-03 -0.300318329833E-04
 -0.130475530164E-03  0.679456575018E-04 -0.100818073354E-03 -0.471995846081E-03 -0.230546645330E-03 -0.282698961892E-03 -0.238196486297E-03
  0.299529272853E-04 -0.359150951026E-04 -0.850248977519E-04 -0.614767337612E-04 -0.475848181973E-03
 -0.187366871606E-04  0.173786952390E-04  0.337984496091E-05 -0.143720249109E-04  0.169049897744E-04  0.235906460008E-04  0.546881706312E-04
  0.664970546609E-05  0.560666610911E-05  0.457985734045E-05  0.184210999532E-04  0.136103379287E-05  0.665212809541E-04  0.479047746215E-05
 -0.337239595732E-05 -0.177290659250E-05 -0.258561552915E-05  0.517186217229E-05 -0.100015568312E-04  0.418031217769E-05 -0.715793372859E-06
  0.289348563647E-05  0.193370270765E-05 -0.957336631230E-05 -0.529046432613E-05 -0.121419104863E-05 -0.291117160618E-06 -0.507881349578E-05
  0.860959375534E-06  0.186936872304E-06  0.271495832282E-06 -0.712065651150E-06  0.166298411199E-05
 -0.579074034687E-03 -0.164246497779E-03 -0.253528372319E-04  0.541242844919E-03  0.341928595830E-03  0.895947202249E-04  0.681873733903E-03
 -0.439876880517E-04  0.359164451783E-03  0.207986865555E-03  0.276405919042E-03 -0.117696897129E-03 -0.903280063193E-04  0.675677320608E-04
  0.264947698639E-03  0.182914424566E-03  0.522519296899E-05  0.168552782226E-03 -0.617099405045E-03  0.552036819796E-04  0.168234319677E-03
  0.124789904641E-03  0.109180869320E-03 -0.406610596867E-03  0.730839436701E-04  0.689638633953E-04  0.493089138248E-04  0.203476905654E-04
  0.483240471209E-04  0.116561591070E-03  0.746985443974E-04  0.910898769334E-04  0.537464233490E-04
  0.366230333882E-04  0.429739849091E-04  0.262031830613E-04  0.353260999407E-03  0.519879268824E-03  0.445975218749E-04  0.520954725004E-03
  0.289224742059E-03  0.296854060921E-03  0.229563154130E-03  0.424483709962E-03 -0.125054395277E-03  0.524768163263E-03  0.142428187927E-03
  0.193896439757E-03  0.156238622991E-03  0.388976699790E-03  0.204010221712E-03  0.611094238262E-03  0.893516049528E-04  0.103076379176E-03
  0.115823487946E-03  0.681241100394E-04  0.117493669198E-03  0.293324321076E-03  0.223919725900E-03  0.559133224221E-03  0.132864094074E-03
  0.118747229433E-03  0.165130350716E-03  0.303432458483E-03  0.353629639343E-03  0.945757825161E-03
        15         9        16        16
        15        18        11        11
        22        15        21        21
        11         5         9         9
         5         7         2         2
        11         9        15        15
        16        21        15        15
        16        10        14        14
        18        17        11        11
        17        25        24        24
        22        18        15        15
        22        30        31        31
        30        21        23        23
        16        20        23        23
        22        27        26        26
        10         9         4         4
         7        11        13        13
        25        18        26        26
        11         7         5         5
         5         1         4         4
        17        19        13        13
        23        32        30        30
        23        20        29        29
         4         9         5         5
         4         8        10        10
        26        18        22        22
        26        28        25        25
        13        11        17        17
        13         6         7         7
        31        30        32        32
         2         1         5         5
         2         7         6         6
        14        10         8         8
        24        19        17        17
        24        25        28        28
         9        10        16        16
         3         4         1         1
        33        26        27        27
        12        13        19        19
        21        30        22        22
        16        14        20        20
        16        23        21        21
        22        31        27        27
        18        25        17        17
        26        33        28        28
         4         3         8         8
        23        29        32        32
        13        12         6         6
zone t="boundary 4 bc-4", solutiontime= 0.3000000E+02, strandid=1004, i=32, j=46, f=feblock
  0.125000000000E+01  0.219251206392E+01  0.103724302461E+01  0.500000000000E+01  0.250000000000E+01  0.375000000000E+01  0.404200324774E+01
  0.500000000000E+01  0.000000000000E+00  0.310152362409E+01  0.202479342020E+01  0.324151231464E+01  0.922061490191E+00  0.000000000000E+00
  0.299062775774E+01  0.394624082883E+01  0.500000000000E+01  0.409252726285E+01  0.500000000000E+01  0.429310310915E+01  0.175434191980E+01
  0.284428995242E+01  0.000000000000E+00  0.000000000000E+00  0.715990576545E+00  0.930412228790E+00  0.125000000000E+01  0.187029682677E+01
  0.500000000000E+01  0.375000000000E+01  0.250000000000E+01  0.000000000000E+00
  0.250494200518E+01  0.157686156160E+01  0.146289271009E+01  0.250494200518E+01  0.250494200518E+01  0.250494200518E+01  0.155830813274E+01
  0.125000000000E+01  0.250494200518E+01  0.177790177481E+01  0.477386199275E+00  0.742988685424E+00  0.308372018325E+00  0.125000000000E+01
 -0.487811078581E+00 -0.144524380962E+01 -0.125000000000E+01 -0.345533899378E+00  0.000000000000E+00  0.627766083140E+00 -0.739814786992E+00
 -0.158811787973E+01  0.000000000000E+00 -0.125000000000E+01 -0.600232012419E+00 -0.154800130438E+01 -0.249658901620E+01 -0.178862290564E+01
 -0.249658901620E+01 -0.249658901620E+01 -0.249658901620E+01 -0.249658901620E+01
  0.500000000000E+01  0.500000000000E+01  0.500000000000E+01  0.500000000000E+01  0.500000000000E+01  0.500000000000E+01  0.500000000000E+01
  0.500000000000E+01  0.500000000000E+01  0.500000000000E+01  0.500000000000E+01  0.500000000000E+01  0.500000000000E+01  0.500000000000E+01
  0.500000000000E+01  0.500000000000E+01  0.500000000000E+01  0.500000000000E+01  0.500000000000E+01  0.500000000000E+01  0.500000000000E+01
  0.500000000000E+01  0.500000000000E+01  0.500000000000E+01  0.500000000000E+01  0.500000000000E+01  0.500000000000E+01  0.500000000000E+01
  0.500000000000E+01  0.500000000000E+01  0.500000000000E+01  0.500000000000E+01
  0.492962761898E+00  0.493501814036E+00  0.494482156815E+00  0.493192028151E+00  0.491169162713E+00  0.488098788288E+00  0.488213917735E+00
  0.494128983609E+00  0.498012894274E+00  0.490743062847E+00  0.492687815535E+00  0.491182352522E+00  0.497494164823E+00  0.498545866604E+00
  0.492035513110E+00  0.486141830894E+00  0.492132924850E+00  0.489715882998E+00  0.494539390278E+00  0.490046921552E+00  0.494491367465E+00
  0.492624366008E+00  0.499470104894E+00  0.498443303809E+00  0.498085505949E+00  0.496394047971E+00  0.494346758124E+00  0.494728911457E+00
  0.491660272589E+00  0.489529544767E+00  0.494638538745E+00  0.497648494016E+00
  0.100096903846E+01  0.100040310323E+01  0.100072208242E+01  0.100024531069E+01  0.100018113445E+01  0.100002132898E+01  0.999888522773E+00
  0.100031159595E+01  0.100090132434E+01  0.100020963067E+01  0.100030894028E+01  0.999990939549E+00  0.100060759920E+01  0.100084556758E+01
  0.100008167684E+01  0.999676406979E+00  0.100057119068E+01  0.999878617502E+00  0.100042307847E+01  0.999981274433E+00  0.100055778087E+01
  0.999986004747E+00  0.100040727307E+01  0.100050934928E+01  0.100040913546E+01  0.100074102297E+01  0.100077487195E+01  0.100045005087E+01
  0.100026599090E+01  0.999860680862E+00  0.999993716634E+00  0.100085386785E+01
 -0.137947704678E-02 -0.152886473575E-02 -0.159523106330E-02 -0.407174124883E-03 -0.824482952264E-03 -0.995674773079E-03 -0.129753650531E-02
 -0.356558649285E-03 -0.228566095338E-02 -0.115781240560E-02 -0.141217631539E-02 -0.101954241953E-02 -0.177872920806E-02 -0.235601067458E-02
 -0.463561761912E-03 -0.560633776775E-03 -0.564529531337E-03 -0.631201767385E-03 -0.440182096903E-03 -0.161984889698E-02 -0.126241354778E-02
 -0.403810760804E-03 -0.243857454763E-02 -0.173951104440E-02 -0.190066339348E-02 -0.122127390748E-02 -0.934279341493E-03 -0.952738065168E-03
 -0.624568854798E-03 -0.671329233490E-03 -0.302183980545E-03 -0.146415799051E-02