title="tecplot geometry and solution file"
variables = x y z mach temperature lambda1 lambda2 lambda3 lambda4 lambda5
zone t="boundary 1 bc-1", solutiontime= 0.8000000E+02, strandid=1001, i=32, j=46, f=feblock
 -0.547472451393E-02  0.000000000000E+00 -0.567610115175E-02  0.000000000000E+00  0.000000000000E+00  0.000000000000E+00 -0.525162567618E-02
 -0.425778987282E-02  0.000000000000E+00  0.000000000000E+00  0.000000000000E+00  0.000000000000E+00  0.000000000000E+00  0.000000000000E+00
  0.000000000000E+00  0.000000000000E+00 -0.338396964726E-02  0.000000000000E+00  0.000000000000E+00  0.000000000000E+00  0.000000000000E+00
  0.000000000000E+00  0.000000000000E+00  0.000000000000E+00  0.000000000000E+00  0.000000000000E+00  0.000000000000E+00  0.000000000000E+00
  0.000000000000E+00  0.000000000000E+00  0.000000000000E+00  0.000000000000E+00
  0.250494200518E+01  0.250494200518E+01  0.127822174353E+01  0.146289271009E+01  0.157686156160E+01  0.308372018325E+00  0.261950149578E-01
 -0.122573467301E+01 -0.600232012419E+00  0.250494200518E+01  0.477386199275E+00  0.742988685424E+00 -0.739814786992E+00  0.177790177481E+01
  0.155830813274E+01  0.250494200518E+01 -0.249658901620E+01 -0.154800130438E+01 -0.487811078581E+00  0.250494200518E+01  0.627766083140E+00
 -0.345533899378E+00 -0.178862290564E+01 -0.158811787973E+01  0.125000000000E+01 -0.249658901620E+01 -0.144524380962E+01  0.000000000000E+00
 -0.125000000000E+01 -0.249658901620E+01 -0.249658901620E+01 -0.249658901620E+01
  0.803217454595E-04  0.125000000000E+01  0.822205720440E-04  0.103724302461E+01  0.219251206392E+01  0.922061490191E+00  0.103877916079E-03
  0.341876758094E-04  0.715990576545E+00  0.250000000000E+01  0.202479342020E+01  0.324151231464E+01  0.175434191980E+01  0.310152362409E+01
  0.404200324774E+01  0.375000000000E+01  0.811362740114E-04  0.930412228790E+00  0.299062775774E+01  0.500000000000E+01  0.429310310915E+01
  0.409252726285E+01  0.187029682677E+01  0.284428995242E+01  0.500000000000E+01  0.125000000000E+01  0.394624082883E+01  0.500000000000E+01
  0.500000000000E+01  0.250000000000E+01  0.375000000000E+01  0.500000000000E+01
  0.000000000000E+00  0.447917908494E+00  0.000000000000E+00  0.476275946409E+00  0.468523773278E+00  0.473519713474E+00  0.000000000000E+00
  0.000000000000E+00  0.412988893280E+00  0.477443354465E+00  0.472504683437E+00  0.485153445816E+00  0.492070561763E+00  0.488543843201E+00
  0.491923382132E+00  0.493078172475E+00  0.000000000000E+00  0.471586661864E+00  0.480934099844E+00  0.498012894274E+00  0.493689911511E+00
  0.490409921473E+00  0.456073463664E+00  0.472047042432E+00  0.498545866604E+00  0.449257997099E+00  0.491117576321E+00  0.499470104894E+00
  0.498443303809E+00  0.475665757693E+00  0.492352555709E+00  0.497648494016E+00
  0.104242640687E+01  0.102508329740E+01  0.104242640687E+01  0.103461471513E+01  0.100936211229E+01  0.102707646421E+01  0.104242640687E+01
  0.104242640687E+01  0.104103511740E+01  0.100608607710E+01  0.100935928463E+01  0.100173207489E+01  0.101882157166E+01  0.100399703674E+01
  0.100113915962E+01  0.100201867046E+01  0.104242640687E+01  0.103067303498E+01  0.100321571320E+01  0.100090132434E+01  0.100133271162E+01
  0.100116394723E+01  0.101357751201E+01  0.100469368428E+01  0.100084556758E+01  0.103269876530E+01  0.100165718057E+01  0.100040727307E+01
  0.100050934928E+01  0.100724883397E+01  0.100246497614E+01  0.100085386785E+01
  0.711160361998E-03 -0.135833158344E-02  0.837381879835E-03 -0.173646661809E-02 -0.468747747179E-03 -0.302704528513E-02  0.670986919796E-03
  0.858473573292E-03 -0.355116826609E-02 -0.144163519798E-03 -0.695731877068E-03 -0.161806487773E-03 -0.870216886733E-03 -0.775210812230E-04
 -0.358064929412E-03 -0.295615780865E-03  0.855439998478E-03 -0.256273429845E-02 -0.300562255173E-03 -0.228559612825E-02 -0.531154047577E-03
 -0.304601792429E-03 -0.783465020951E-03 -0.309230442081E-03 -0.235588733949E-02 -0.181614619543E-02 -0.268665801729E-03 -0.243841042930E-02
 -0.173943552591E-02 -0.371543914719E-03 -0.274494680731E-03 -0.146411760606E-02
  0.383056816210E-03  0.905203155269E-04  0.527162322008E-03  0.260669491253E-03 -0.124152767692E-03  0.488484751313E-03  0.426564919047E-04
  0.136231129867E-03  0.358282269403E-03 -0.100811739372E-03 -0.629559465294E-04 -0.183424044446E-03  0.146169389084E-04 -0.147660554220E-03
 -0.217177264069E-03 -0.238210051108E-03  0.218035446955E-03  0.416820348231E-03 -0.185369691667E-03 -0.475838188095E-03 -0.217791652160E-03
 -0.194107951103E-03 -0.375658165318E-04 -0.201848412896E-03 -0.499946719327E-03  0.125412870666E-03 -0.176145232359E-03 -0.520150882462E-03
 -0.378200162458E-03 -0.156745637519E-03 -0.175536046423E-03 -0.329319716550E-03
  0.136031345230E-05 -0.100017653190E-04  0.329579276494E-04  0.852299145183E-04 -0.172898184087E-04  0.160345584521E-03 -0.202234001279E-05
 -0.324067380518E-04 -0.856899310383E-04 -0.957336559762E-05  0.125580642607E-03  0.185895467802E-04  0.470647210192E-04 -0.256662115533E-04
  0.139574132123E-05 -0.507882215063E-05 -0.236777749640E-05 -0.144803491203E-03  0.607908859769E-04  0.166313143006E-05  0.446281916295E-05
  0.146224709800E-08 -0.682889474138E-04  0.420530787957E-04  0.712172789029E-05 -0.263776178747E-04  0.991206252817E-05  0.135311358046E-04
  0.852621271450E-05  0.804861021065E-06 -0.237900721933E-05 -0.304377260228E-05
 -0.117696634249E-03 -0.617103771451E-03 -0.238133667311E-03 -0.586950840025E-03 -0.480730110859E-03 -0.417930056046E-03 -0.291166376638E-03
 -0.421538040762E-03  0.630690095988E-03 -0.406613952730E-03 -0.453419708066E-03 -0.164964996591E-03 -0.307179603841E-03 -0.235682251707E-03
  0.178733227647E-04  0.203462796034E-04 -0.240065271011E-03 -0.376333538037E-04 -0.173384666988E-03  0.537478661685E-04  0.433067871000E-04
  0.195458820805E-04 -0.337516587943E-03 -0.116050087838E-03  0.517557649236E-04 -0.439178874097E-03  0.213465067137E-04  0.570330844876E-04
  0.539948098079E-04 -0.248753011081E-03  0.298512783961E-04  0.568072161457E-04
 -0.125052163254E-03  0.611107946993E-03 -0.195591634985E-03  0.782753716406E-03  0.277471558174E-03  0.118681575551E-02 -0.390919336272E-04
 -0.156696543451E-03  0.141149717264E-02  0.117480070147E-03  0.344586585749E-03  0.957068377774E-04  0.372816788075E-03  0.684090351303E-04
  0.159027915161E-03  0.132890056355E-03 -0.140542459683E-03  0.103123241747E-02  0.156478986997E-03  0.945730617557E-03  0.222478662805E-03
  0.131986196078E-03  0.355177764074E-03  0.161501878244E-03  0.977518505108E-03  0.762900003983E-03  0.117213496468E-03  0.101186592979E-02
  0.718562610806E-03  0.191003694758E-03  0.115028525951E-03  0.602421278914E-03
        12        19        11        11
        11         5        12        12
        10        14         5         5
        19        13        11        11
        19        24        13        13
        30        23        24        24
        19        12        22        22
        28        22        21        21
        11        13         6         6
         7         6         9         9
        15        12        14        14
        18        13        23        23
        15        25        21        21
        27        19        22        22
        18         8         9         9
        27        31        24        24
         4        11         6         6
         5        14        12        12
         4         2         5         5
        21        12        15        15
        14        16        15        15
        24        19        27        27
        22        29        27        27
        23        26        18        18
        17         8        18        18
         5        11         4         4
         6         3         4         4
        26        23        30        30
         5         2        10        10
        16        14        10        10
         3         6         7         7
        21        25        28        28
        29        22        28        28
         6        13         9         9
         2         4         1         1
        31        27        32        32
        25        15        20        20
        24        23        13        13
         8         7         9         9
        13        18         9         9
        31        30        24        24
        12        21        22        22
        29        32        27        27
         3         1         4         4
        26        17        18        18
        16        20        15        15
zone t="boundary 2 bc-2", solutiontime= 0.8000000E+02, strandid=1002, i=33, j=48, f=feblock
  0.500195255314E+01  0.375034812201E+01  0.249861146354E+01  0.288036675734E+01  0.124717526151E+01  0.190856699607E+01  0.326577190793E+01
  0.201394857590E+01 -0.338396964726E-02  0.962374261039E+00  0.500000000000E+01  0.403430190134E+01  0.423029563300E+01  0.500000000000E+01
  0.385439188555E+01  0.500000000000E+01  0.398133432910E+01  0.315200081435E+01  0.266958029510E+01  0.154798030854E+01  0.218327860925E+01
  0.893688451289E+00  0.000000000000E+00  0.699009769630E+00  0.964460904435E+00  0.310303671669E+01  0.000000000000E+00  0.000000000000E+00
  0.125000000000E+01  0.500000000000E+01  0.375000000000E+01  0.250000000000E+01  0.000000000000E+00
 -0.249658901620E+01 -0.249658901620E+01 -0.249658901620E+01 -0.249658901620E+01 -0.249658901620E+01 -0.249658901620E+01 -0.249658901620E+01
 -0.249658901620E+01 -0.249658901620E+01 -0.249658901620E+01 -0.249658901620E+01 -0.249658901620E+01 -0.249658901620E+01 -0.249658901620E+01
 -0.249658901620E+01 -0.249658901620E+01 -0.249658901620E+01 -0.249658901620E+01 -0.249658901620E+01 -0.249658901620E+01 -0.249658901620E+01
 -0.249658901620E+01 -0.249658901620E+01 -0.249658901620E+01 -0.249658901620E+01 -0.249658901620E+01 -0.249658901620E+01 -0.249658901620E+01
 -0.249658901620E+01 -0.249658901620E+01 -0.249658901620E+01 -0.249658901620E+01 -0.249658901620E+01
  0.108209230302E-03  0.145875485829E-03  0.100909960121E-03  0.901663357826E+00  0.110895836306E-03  0.714928325676E+00  0.188140643916E+01
  0.175892163458E+01  0.811362740114E-04  0.957504305825E+00  0.125000000000E+01  0.100596693416E+01  0.191313516265E+01  0.250000000000E+01
  0.292898094244E+01  0.375000000000E+01  0.406883368474E+01  0.363389287838E+01  0.284756858001E+01  0.292582306272E+01  0.395754053293E+01
  0.205027256174E+01  0.125000000000E+01  0.306703271839E+01  0.397155765835E+01  0.433068621090E+01  0.250000000000E+01  0.375000000000E+01
  0.500000000000E+01  0.500000000000E+01  0.500000000000E+01  0.500000000000E+01  0.500000000000E+01
  0.000000000000E+00  0.000000000000E+00  0.000000000000E+00  0.384516097266E+00  0.000000000000E+00  0.340285870380E+00  0.586752966553E+00
  0.575426017700E+00  0.000000000000E+00  0.487199380218E+00  0.520641039152E+00  0.445423546630E+00  0.576269216779E+00  0.533962374799E+00
  0.567224532018E+00  0.511735126950E+00  0.508063930500E+00  0.527166123912E+00  0.565842714897E+00  0.531744062706E+00  0.508272215462E+00
  0.522388441789E+00  0.449257997099E+00  0.494521462110E+00  0.495788430480E+00  0.503678487227E+00  0.475665757693E+00  0.492352555709E+00
  0.494346758124E+00  0.491660272589E+00  0.489529544767E+00  0.494638538745E+00  0.497648494016E+00
  0.104242640687E+01  0.104242640687E+01  0.104242640687E+01  0.100355246768E+01  0.104242640687E+01  0.100599607949E+01  0.989008031359E+00
  0.992225314811E+00  0.104242640687E+01  0.997058797553E+00  0.987964542423E+00  0.995589878418E+00  0.989405264129E+00  0.100087323701E+01
  0.997203118982E+00  0.100346283376E+01  0.100053321026E+01  0.999080756664E+00  0.995647248970E+00  0.100095637369E+01  0.999458338080E+00
  0.100692572870E+01  0.103269876530E+01  0.100216635751E+01  0.100130290673E+01  0.999493813801E+00  0.100724883397E+01  0.100246497614E+01
  0.100077487195E+01  0.100026599090E+01  0.999860680862E+00  0.999993716634E+00  0.100085386785E+01
 -0.328733386531E-04  0.289827355652E-03  0.472192598634E-03 -0.151313106496E-02  0.100346297220E-02 -0.198436630454E-02 -0.962058487531E-03
 -0.103522953691E-02  0.855439998478E-03 -0.133011604465E-02 -0.116349196703E-02 -0.105714743993E-02 -0.951922005646E-03 -0.791159541889E-03
 -0.553281008950E-03 -0.429617573600E-03 -0.427567809712E-03 -0.408959507467E-03 -0.551070821385E-03 -0.434959388619E-03 -0.321172888343E-03
 -0.902763869105E-03 -0.181614619543E-02 -0.519729337024E-03 -0.307182103936E-03 -0.491525414123E-03 -0.371543914719E-03 -0.274494680731E-03
 -0.934247231592E-03 -0.624566777542E-03 -0.671324165800E-03 -0.302190713029E-03 -0.146411760606E-02
 -0.205808050940E-03 -0.262954459377E-03 -0.355747755846E-03  0.107029767802E-02 -0.482451091507E-03  0.186496858003E-02 -0.656820143084E-04
 -0.711163890595E-04  0.218035446955E-03  0.704479119912E-03  0.254298678607E-03  0.976583763184E-04  0.226721055746E-04  0.200422873327E-03
  0.621285205445E-06  0.107147831903E-03  0.480060977955E-04 -0.584780354993E-04 -0.244258452389E-03 -0.409298002265E-03 -0.113847133352E-03
 -0.230667366954E-03  0.125412870666E-03 -0.373830820352E-03 -0.195553020705E-03 -0.308972582516E-04 -0.156745637519E-03 -0.175536046423E-03
 -0.184482626805E-03 -0.623339605510E-05  0.198414255130E-04  0.321636744151E-04 -0.329319716550E-03
 -0.621864357128E-05  0.505758179927E-04  0.550638368441E-04  0.180357424647E-03  0.319424978846E-04  0.691531856835E-04  0.266265099403E-04
  0.195210304751E-04 -0.236777749640E-05 -0.534197847695E-04 -0.293530823437E-04 -0.743019812400E-05 -0.185977523956E-04 -0.104291057226E-05
 -0.743002904812E-05 -0.286871511349E-05 -0.102997436271E-05  0.202012469951E-05 -0.877102478649E-06  0.343911798238E-05  0.677899764696E-06
 -0.143297504378E-04 -0.263776178747E-04  0.212830169062E-05 -0.283904319086E-05 -0.203444224388E-05  0.804861021065E-06 -0.237900721933E-05
 -0.137506242051E-05 -0.662786059359E-06  0.428486131583E-06  0.604025139406E-06 -0.304377260228E-05
  0.165451188223E-03 -0.617092449428E-03 -0.291798021273E-03  0.192564136154E-03 -0.514000927813E-03  0.667924807410E-03  0.246351706899E-03
  0.198622483930E-03 -0.240065271011E-03  0.942088715810E-04 -0.458688611230E-05 -0.966095496928E-04  0.155219082199E-03  0.702858538295E-04
  0.155759174711E-03  0.466751147824E-04  0.101442288540E-03  0.151643110981E-03  0.229011118089E-03  0.177203506887E-03  0.127313607311E-03
 -0.201029821610E-04 -0.439178874097E-03  0.467899143715E-04  0.743370349711E-04  0.120910429726E-03 -0.248753011081E-03  0.298512783961E-04
  0.534207733899E-04  0.509773940611E-04  0.887310121442E-04  0.846432912055E-04  0.568072161457E-04
  0.181894286216E-04  0.229752936807E-04  0.193941577122E-04  0.370130296147E-03  0.496568626203E-04  0.559279070028E-03  0.313705138144E-03
  0.410103339505E-03 -0.140542459683E-03  0.520735710764E-03  0.247000810838E-03  0.291774840045E-03  0.286323190721E-03  0.152181875502E-03
  0.155705413396E-03  0.844116490808E-04  0.109188308826E-03  0.131730547963E-03  0.236692193492E-03  0.245699108744E-03  0.122374801180E-03
  0.435819805601E-03  0.762900003983E-03  0.274693023900E-03  0.140351857649E-03  0.159476644145E-03  0.191003694758E-03  0.115028525951E-03
  0.372615530803E-03  0.206419874796E-03  0.214485479365E-03  0.795022690598E-04  0.602421278914E-03
        15         7        19        19
         8        20        19        19
        18        19        21        21
         7         4         8         8
         3         6         4         4
        19         7         8         8
        19        18        15        15
        14        13        15        15
         8        22        20        20
        27        24        22        22
        19        20        21        21
        32        26        21        21
        17        18        26        26
        17        16        15        15
        25        29        21        21
        12         7        13        13
        10         8         6         6
        25        20        24        24
         4         6         8         8
        12         2         4         4
        10        23        22        22
        26        31        17        17
        30        16        17        17
         4         7        12        12
        13        11        12        12
        21        20        25        25
        24        28        25        25
        22         8        10        10
         6         5        10        10
        31        26        32        32
         4         2         3         3
         5         6         3         3
        11        13        14        14
        22        23        27        27
        28        24        27        27
        15        13         7         7
         2        12         1         1
        29        25        33        33
        23        10         9         9
        21        26        18        18
        16        14        15        15
        18        17        15        15
        29        32        21        21
        22        24        20        20
        28        33        25        25
        11         1        12        12
        31        30        17        17
         5         9        10        10
zone t="boundary 3 bc-3", solutiontime= 0.8000000E+02, strandid=1003, i=33, j=48, f=feblock
  0.375059100023E+01  0.249769609018E+01  0.500322139357E+01  0.403612222764E+01  0.287976775183E+01  0.124541907694E+01  0.190552236758E+01
  0.500000000000E+01  0.326671106334E+01  0.423253756072E+01  0.201271138088E+01 -0.547472451393E-02  0.958895628172E+00  0.500000000000E+01
  0.266968148532E+01  0.385584487668E+01  0.890374213119E+00  0.154654014519E+01  0.000000000000E+00  0.500000000000E+01  0.315261137241E+01
  0.218304200095E+01  0.398195307874E+01  0.000000000000E+00  0.697379955532E+00  0.963757281441E+00  0.125000000000E+01  0.000000000000E+00
  0.500000000000E+01  0.310330738721E+01  0.250000000000E+01  0.375000000000E+01  0.000000000000E+00
  0.250494200518E+01  0.250494200518E+01  0.250494200518E+01  0.250494200518E+01  0.250494200518E+01  0.250494200518E+01  0.250494200518E+01
  0.250494200518E+01  0.250494200518E+01  0.250494200518E+01  0.250494200518E+01  0.250494200518E+01  0.250494200518E+01  0.250494200518E+01
  0.250494200518E+01  0.250494200518E+01  0.250494200518E+01  0.250494200518E+01  0.250494200518E+01  0.250494200518E+01  0.250494200518E+01
  0.250494200518E+01  0.250494200518E+01  0.250494200518E+01  0.250494200518E+01  0.250494200518E+01  0.250494200518E+01  0.250494200518E+01
  0.250494200518E+01  0.250494200518E+01  0.250494200518E+01  0.250494200518E+01  0.250494200518E+01
  0.135457018303E-03  0.109983667052E-03  0.964506812793E-04  0.101756739735E+01  0.908094462124E+00  0.103842439781E-03  0.722629008359E+00
  0.125000000000E+01  0.188965653796E+01  0.191862692310E+01  0.176708233168E+01  0.803217454595E-04  0.969652538213E+00  0.250000000000E+01
  0.285339429035E+01  0.293325055336E+01  0.205656222195E+01  0.293157014695E+01  0.125000000000E+01  0.375000000000E+01  0.363766836446E+01
  0.396069443368E+01  0.407056384269E+01  0.250000000000E+01  0.307031994183E+01  0.397359819531E+01  0.500000000000E+01  0.375000000000E+01
  0.500000000000E+01  0.433260780167E+01  0.500000000000E+01  0.500000000000E+01  0.500000000000E+01
  0.000000000000E+00  0.000000000000E+00  0.000000000000E+00  0.453747884457E+00  0.402545473609E+00  0.000000000000E+00  0.369628989658E+00
  0.520525437453E+00  0.575220769144E+00  0.575502687911E+00  0.558260167029E+00  0.000000000000E+00  0.478252952434E+00  0.530976526914E+00
  0.555830977781E+00  0.562793216286E+00  0.524675242564E+00  0.523282023757E+00  0.447917908494E+00  0.513796073895E+00  0.524673099809E+00
  0.506323918429E+00  0.509686672292E+00  0.477443354465E+00  0.499194827399E+00  0.497912970406E+00  0.492962761898E+00  0.493078172475E+00
  0.493192028151E+00  0.501531687671E+00  0.491169162713E+00  0.488098788288E+00  0.498012894274E+00
  0.104242640687E+01  0.104242640687E+01  0.104242640687E+01  0.992555423454E+00  0.100338777740E+01  0.104242640687E+01  0.100275102295E+01
  0.987610947936E+00  0.990360755008E+00  0.989796153217E+00  0.994453863917E+00  0.104242640687E+01  0.999323378079E+00  0.100158433860E+01
  0.997121319149E+00  0.998147046213E+00  0.100443205127E+01  0.100036232945E+01  0.102508329740E+01  0.100269535198E+01  0.100014129775E+01
  0.999693736776E+00  0.100036856429E+01  0.100608607710E+01  0.100156233864E+01  0.100069385080E+01  0.100096903846E+01  0.100201867046E+01
  0.100024531069E+01  0.999658106520E+00  0.100018113445E+01  0.100002132898E+01  0.100090132434E+01
  0.439667287205E-03  0.617801529617E-03 -0.545864522464E-04 -0.138979391927E-02 -0.164827624655E-02  0.733481355418E-03 -0.144321920945E-02
 -0.134606163166E-02 -0.897160655637E-03 -0.939027403016E-03 -0.107892770295E-02  0.711160361998E-03 -0.114318364557E-02 -0.737975077415E-03
 -0.463101669615E-03 -0.569987307184E-03 -0.650521071049E-03 -0.314527831489E-03 -0.135833158344E-02 -0.451584207347E-03 -0.343321215348E-03
 -0.283289855065E-03 -0.330654787548E-03 -0.144163519798E-03 -0.494479672286E-03 -0.507893588487E-03 -0.137946677041E-02 -0.295615780865E-03
 -0.407174245601E-03 -0.497614955840E-03 -0.824491528962E-03 -0.995672109443E-03 -0.228559612825E-02
 -0.552727890449E-03 -0.242595927778E-03 -0.256060125825E-03  0.484769992415E-03  0.929261706176E-03 -0.408326562853E-04  0.889471768046E-03
  0.299915396582E-03 -0.489783132786E-04  0.152588162613E-03 -0.421046205225E-04  0.383056816210E-03  0.342485143193E-03  0.190437108153E-03
 -0.199677097533E-03  0.293124287541E-04 -0.340783537074E-03 -0.377675388967E-03  0.905203155269E-04  0.109906325133E-03 -0.300318810483E-04
 -0.130476663260E-03  0.679445024939E-04 -0.100811739372E-03 -0.471993004871E-03 -0.230549348080E-03 -0.282690961971E-03 -0.238210051108E-03
  0.299528992239E-04 -0.359156739294E-04 -0.850270725878E-04 -0.614767861140E-04 -0.475838188095E-03
 -0.187367384368E-04  0.173785080929E-04  0.337978409377E-05 -0.143725209010E-04  0.169049699599E-04  0.235906433719E-04  0.546881466763E-04
  0.664968197439E-05  0.560672935073E-05  0.457995564462E-05  0.184211949705E-04  0.136031345230E-05  0.665213104259E-04  0.479050028867E-05
 -0.337246646750E-05 -0.177290477146E-05 -0.258553730524E-05  0.517162104331E-05 -0.100017653190E-04  0.418030762909E-05 -0.715827803825E-06
  0.289348539596E-05  0.193372640509E-05 -0.957336559762E-05 -0.529072161134E-05 -0.121439831312E-05 -0.291229565769E-06 -0.507882215063E-05
  0.860967309503E-06  0.187031562467E-06  0.271548695462E-06 -0.712040817461E-06  0.166313143006E-05
 -0.579074026268E-03 -0.164246307570E-03 -0.253523809874E-04  0.541240557827E-03  0.341925442850E-03  0.895946741476E-04  0.681872248375E-03
 -0.439874319519E-04  0.359164338562E-03  0.207987135244E-03  0.276403467488E-03 -0.117696634249E-03 -0.903314521399E-04  0.675675503697E-04
  0.264947925634E-03  0.182914302254E-03  0.522063384765E-05  0.168552426233E-03 -0.617103771451E-03  0.552036997669E-04  0.168234015650E-03
  0.124789314789E-03  0.109180812331E-03 -0.406613952730E-03  0.730832417624E-04  0.689642984274E-04  0.493075130577E-04  0.203462796034E-04
  0.483240081861E-04  0.116561425779E-03  0.746982939858E-04  0.910896760981E-04  0.537478661685E-04
  0.366222406760E-04  0.429742508398E-04  0.262038912139E-04  0.353249201851E-03  0.519893943895E-03  0.445970857225E-04  0.520970203546E-03
  0.289227273140E-03  0.296850320336E-03  0.229564762000E-03  0.424482602112E-03 -0.125052163254E-03  0.524780503216E-03  0.142427758163E-03
  0.193898896013E-03  0.156238640306E-03  0.388971866940E-03  0.204008072079E-03  0.611107946993E-03  0.893512568633E-04  0.103076504113E-03
  0.115823358182E-03  0.681257139715E-04  0.117480070147E-03  0.293318087099E-03  0.223924450332E-03  0.559127825319E-03  0.132890056355E-03
  0.118747304832E-03  0.165130799432E-03  0.303436254250E-03  0.353628734560E-03  0.945730617557E-03
        15         9        16        16
        15        18        11        11
        22        15        21        21
        11         5         9         9
         5         7         2         2
        11         9        15        15
        16        21        15        15
        16        10        14        14
        18        17        11        11
        17        25        24        24
        22        18        15        15
        22        30        31        31
        30        21        23        23
        16        20        23        23
        22        27        26        26
        10         9         4         4
         7        11        13        13
        25        18        26        26
        11         7         5         5
         5         1         4         4
        17        19        13        13
        23        32        30        30
        23        20        29        29
         4         9         5         5
         4         8        10        10
        26        18        22        22
        26        28        25        25
        13        11        17        17
        13         6         7         7
        31        30        32        32
         2         1         5         5
         2         7         6         6
        14        10         8         8
        24        19        17        17
        24        25        28        28
         9        10        16        16
         3         4         1         1
        33        26        27        27
        12        13        19        19
        21        30        22        22
        16        14        20        20
        16        23        21        21
        22        31        27        27
        18        25        17        17
        26        33        28        28
         4         3         8         8
        23        29        32        32
        13        12         6         6
zone t="boundary 4 bc-4", solutiontime= 0.8000000E+02, strandid=1004, i=32, j=46, f=feblock
  0.125000000000E+01  0.219251206392E+01  0.103724302461E+01  0.500000000000E+01  0.250000000000E+01  0.375000000000E+01  0.404200324774E+01
  0.500000000000E+01  0.000000000000E+00  0.310152362409E+01  0.202479342020E+01  0.324151231464E+01  0.922061490191E+00  0.000000000000E+00
  0.299062775774E+01  0.394624082883E+01  0.500000000000E+01  0.409252726285E+01  0.500000000000E+01  0.429310310915E+01  0.175434191980E+01
  0.284428995242E+01  0.000000000000E+00  0.000000000000E+00  0.715990576545E+00  0.930412228790E+00  0.125000000000E+01  0.187029682677E+01
  0.500000000000E+01  0.375000000000E+01  0.250000000000E+01  0.000000000000E+00
  0.250494200518E+01  0.157686156160E+01  0.146289271009E+01  0.250494200518E+01  0.250494200518E+01  0.250494200518E+01  0.155830813274E+01
  0.125000000000E+01  0.250494200518E+01  0.177790177481E+01  0.477386199275E+00  0.742988685424E+00  0.308372018325E+00  0.125000000000E+01
 -0.487811078581E+00 -0.144524380962E+01 -0.125000000000E+01 -0.345533899378E+00  0.000000000000E+00  0.627766083140E+00 -0.739814786992E+00
 -0.158811787973E+01  0.000000000000E+00 -0.125000000000E+01 -0.600232012419E+00 -0.154800130438E+01 -0.249658901620E+01 -0.178862290564E+01
 -0.249658901620E+01 -0.249658901620E+01 -0.249658901620E+01 -0.249658901620E+01
  0.500000000000E+01  0.500000000000E+01  0.500000000000E+01  0.500000000000E+01  0.500000000000E+01  0.500000000000E+01  0.500000000000E+01
  0.500000000000E+01  0.500000000000E+01  0.500000000000E+01  0.500000000000E+01  0.500000000000E+01  0.500000000000E+01  0.500000000000E+01
  0.500000000000E+01  0.500000000000E+01  0.500000000000E+01  0.500000000000E+01  0.500000000000E+01  0.500000000000E+01  0.500000000000E+01
  0.500000000000E+01  0.500000000000E+01  0.500000000000E+01  0.500000000000E+01  0.500000000000E+01  0.500000000000E+01  0.500000000000E+01
  0.500000000000E+01  0.500000000000E+01  0.500000000000E+01  0.500000000000E+01
  0.492962761898E+00  0.493501814036E+00  0.494482156815E+00  0.493192028151E+00  0.491169162713E+00  0.488098788288E+00  0.488213917735E+00
  0.494128983609E+00  0.498012894274E+00  0.490743062847E+00  0.492687815535E+00  0.491182352522E+00  0.497494164823E+00  0.498545866604E+00
  0.492035513110E+00  0.486141830894E+00  0.492132924850E+00  0.489715882998E+00  0.494539390278E+00  0.490046921552E+00  0.494491367465E+00
  0.492624366008E+00  0.499470104894E+00  0.498443303809E+00  0.498085505949E+00  0.496394047971E+00  0.494346758124E+00  0.494728911457E+00
  0.491660272589E+00  0.489529544767E+00  0.494638538745E+00  0.497648494016E+00
  0.100096903846E+01  0.100040310323E+01  0.100072208242E+01  0.100024531069E+01  0.100018113445E+01  0.100002132898E+01  0.999888522773E+00
  0.100031159595E+01  0.100090132434E+01  0.100020963067E+01  0.100030894028E+01  0.999990939549E+00  0.100060759920E+01  0.100084556758E+01
  0.100008167684E+01  0.999676406979E+00  0.100057119068E+01  0.999878617502E+00  0.100042307847E+01  0.999981274433E+00  0.100055778087E+01
  0.999986004747E+00  0.100040727307E+01  0.100050934928E+01  0.100040913546E+01  0.100074102297E+01  0.100077487195E+01  0.100045005087E+01
  0.100026599090E+01  0.999860680862E+00  0.999993716634E+00  0.100085386785E+01
 -0.137946677041E-02 -0.152886005208E-02 -0.159520485566E-02 -0.407174245601E-03 -0.824491528962E-03 -0.995672109443E-03 -0.129753398401E-02
 -0.356560527642E-03 -0.228559612825E-02 -0.115780176468E-02 -0.141215174048E-02 -0.101954549831E-02 -0.177861491836E-02 -0.235588733949E-02
 -0.463566006010E-03 -0.560632365423E-03 -0.564528801412E-03 -0.631202528314E-03 -0.440183001128E-03 -0.161984120774E-02 -0.126239413998E-02
 -0.403787672829E-03 -0.243841042930E-02 -0.173943552591E-02 -0.190058635770E-02 -0.122127258560E-02 -0.934247231592E-03 -0.952719303452E-03
 -0.624566777542E-03 -0.671324165800E-03 -0.302190713029E-03 -0.146411760606E-02