title="tecplot geometry and solution file"
variables = x y z mach temperature lambda1 lambda2 lambda3 lambda4 lambda5
zone t="boundary 1 bc-1", solutiontime= 0.2000000E+02, strandid=1001, i=32, j=46, f=feblock
 -0.547474059460E-02  0.000000000000E+00 -0.567611628244E-02  0.000000000000E+00  0.000000000000E+00  0.000000000000E+00 -0.525163924646E-02
 -0.425780134844E-02  0.000000000000E+00  0.000000000000E+00  0.000000000000E+00  0.000000000000E+00  0.000000000000E+00  0.000000000000E+00
  0.000000000000E+00  0.000000000000E+00 -0.338397968290E-02  0.000000000000E+00  0.000000000000E+00  0.000000000000E+00  0.000000000000E+00
  0.000000000000E+00  0.000000000000E+00  0.000000000000E+00  0.000000000000E+00  0.000000000000E+00  0.000000000000E+00  0.000000000000E+00
  0.000000000000E+00  0.000000000000E+00  0.000000000000E+00  0.000000000000E+00
  0.250494200247E+01  0.250494200247E+01  0.127822172847E+01  0.146289271009E+01  0.157686156160E+01  0.308372018325E+00  0.261950000797E-01
 -0.122573468786E+01 -0.600232012419E+00  0.250494200247E+01  0.477386199275E+00  0.742988685424E+00 -0.739814786992E+00  0.177790177481E+01
  0.155830813274E+01  0.250494200247E+01 -0.249658901876E+01 -0.154800130438E+01 -0.487811078581E+00  0.250494200247E+01  0.627766083140E+00
 -0.345533899378E+00 -0.178862290564E+01 -0.158811787973E+01  0.125000000000E+01 -0.249658901876E+01 -0.144524380962E+01  0.000000000000E+00
 -0.125000000000E+01 -0.249658901876E+01 -0.249658901876E+01 -0.249658901876E+01
  0.803806651374E-04  0.125000000000E+01  0.822455052730E-04  0.103724302461E+01  0.219251206392E+01  0.922061490191E+00  0.103872499450E-03
  0.341545354745E-04  0.715990576545E+00  0.250000000000E+01  0.202479342020E+01  0.324151231464E+01  0.175434191980E+01  0.310152362409E+01
  0.404200324774E+01  0.375000000000E+01  0.810729323492E-04  0.930412228790E+00  0.299062775774E+01  0.500000000000E+01  0.429310310915E+01
  0.409252726285E+01  0.187029682677E+01  0.284428995242E+01  0.500000000000E+01  0.125000000000E+01  0.394624082883E+01  0.500000000000E+01
  0.500000000000E+01  0.250000000000E+01  0.375000000000E+01  0.500000000000E+01
  0.000000000000E+00  0.440673586208E+00  0.000000000000E+00  0.474618312942E+00  0.460126827849E+00  0.468640528253E+00  0.000000000000E+00
  0.000000000000E+00  0.402536918085E+00  0.469888417966E+00  0.464194764523E+00  0.478751111286E+00  0.489556170192E+00  0.483131208311E+00
  0.488003760331E+00  0.489035900682E+00  0.000000000000E+00  0.465239150297E+00  0.473760589661E+00  0.495365426690E+00  0.490293994454E+00
  0.486277511197E+00  0.445852126547E+00  0.464357935362E+00  0.496128464259E+00  0.443892833990E+00  0.486929021189E+00  0.497248848021E+00
  0.496055597969E+00  0.467741935742E+00  0.488188091920E+00  0.495090528096E+00
  0.100000000000E+01  0.102982865541E+01  0.100000000000E+01  0.104241277716E+01  0.101187608801E+01  0.102516476050E+01  0.100000000000E+01
  0.100000000000E+01  0.103882396963E+01  0.100825749378E+01  0.101253466570E+01  0.100301619360E+01  0.102705426408E+01  0.100604070185E+01
  0.100244504891E+01  0.100354784507E+01  0.100000000000E+01  0.103209988123E+01  0.100459396594E+01  0.100178605814E+01  0.100260299680E+01
  0.100234721389E+01  0.101657109411E+01  0.100620576703E+01  0.100168350951E+01  0.104024868236E+01  0.100303449040E+01  0.100118704030E+01
  0.100134433813E+01  0.100976411358E+01  0.100405601417E+01  0.100176413668E+01
  0.606240903579E-02  0.287439958688E-01  0.702859720348E-02  0.475243282462E-01  0.543614013595E-02  0.581754865282E-01  0.510111556156E-02
  0.162735571756E-02  0.573100112068E-01  0.113291339898E-03  0.638530812817E-02 -0.694227027150E-02  0.562389447868E-02 -0.371059457962E-02
 -0.144900177815E-01 -0.104420608421E-01  0.295544207349E-02  0.368442792506E-01 -0.423759549777E-02 -0.263343704105E-01 -0.178424793028E-01
 -0.123963660493E-01  0.295026363393E-02 -0.376207172401E-02 -0.285000055060E-01  0.239174889330E-01 -0.100057258204E-01 -0.291631985389E-01
 -0.290809583929E-01 -0.166346770890E-02 -0.823431441358E-02 -0.295880878937E-01
  0.236211005677E-03  0.415777708594E-02  0.348954330964E-03  0.601290038594E-02  0.603928667743E-03  0.858690398447E-02  0.357505955696E-03
  0.315788905524E-03  0.838351390537E-02 -0.442865115222E-03  0.910915176950E-03 -0.156708358126E-02  0.430924355668E-03 -0.120939966811E-02
 -0.308104238254E-02 -0.246689839766E-02  0.273891433073E-03  0.567167531987E-02 -0.894112547010E-03 -0.504720448810E-02 -0.374901335222E-02
 -0.263686875243E-02  0.546098999934E-04 -0.802016933245E-03 -0.575951765238E-02  0.294144466216E-02 -0.217964436529E-02 -0.595203846583E-02
 -0.590938638142E-02 -0.540973266911E-03 -0.184581820433E-02 -0.596736007017E-02
  0.392346078346E-03  0.121934127866E-03  0.526410702638E-03  0.124346244383E-02  0.220800383171E-03  0.771474663358E-03  0.489686346533E-03
 -0.162917071544E-03  0.689370713084E-05 -0.111699653051E-04  0.121010314109E-03  0.155082453755E-03 -0.201594768593E-03  0.798904483784E-04
 -0.692975830150E-04 -0.181790789464E-04 -0.243513458288E-03 -0.857599206214E-03 -0.231594555504E-04 -0.203231511593E-04 -0.338999207702E-04
  0.828163534621E-05 -0.664296982186E-04 -0.140133288844E-03 -0.370503866241E-04 -0.992945453420E-04 -0.240876774270E-04 -0.480247877792E-05
 -0.373078400010E-04 -0.155773244561E-04  0.104141713609E-04  0.142674004620E-04
 -0.145949086477E-02 -0.155440167965E-02 -0.161042642694E-02 -0.602061106840E-04  0.138124174436E-02  0.159169023557E-02 -0.889118395629E-03
 -0.748246504920E-03  0.111925152371E-02  0.140984027377E-02  0.302908746958E-02  0.174544214357E-02  0.324079808170E-02  0.152395736809E-02
  0.101093707058E-02  0.125107439858E-02 -0.592180422971E-03  0.938758984447E-03  0.199702940105E-02  0.407523125229E-03  0.832308415057E-03
  0.114631129581E-02  0.218982012783E-02  0.158993887851E-02  0.286626419171E-03  0.120073702427E-02  0.105165501095E-02  0.254415970415E-03
  0.335720733896E-03  0.172043589609E-02  0.109968188386E-02  0.394500682501E-03
 -0.481988140266E-02 -0.118488078786E-01 -0.668681037579E-02 -0.189962216855E-01 -0.226587884652E-02 -0.241294710512E-01  0.366704066879E-03
  0.114291701753E-02 -0.238036187492E-01 -0.747811838598E-04 -0.275446741684E-02  0.272286185985E-02 -0.241996984323E-02  0.146875393900E-02
  0.596778690801E-02  0.427149364393E-02 -0.957628416937E-03 -0.154079830807E-01  0.153131179749E-02  0.107995181902E-01  0.738811598048E-02
  0.508896880419E-02 -0.135235027825E-02  0.133229511952E-02  0.118021772618E-01 -0.975073431724E-02  0.407122944720E-02  0.120956391181E-01
  0.120316954971E-01  0.505804651567E-03  0.331768096017E-02  0.122202853572E-01
        12        19        11        11
        11         5        12        12
        10        14         5         5
        19        13        11        11
        19        24        13        13
        30        23        24        24
        19        12        22        22
        28        22        21        21
        11        13         6         6
         7         6         9         9
        15        12        14        14
        18        13        23        23
        15        25        21        21
        27        19        22        22
        18         8         9         9
        27        31        24        24
         4        11         6         6
         5        14        12        12
         4         2         5         5
        21        12        15        15
        14        16        15        15
        24        19        27        27
        22        29        27        27
        23        26        18        18
        17         8        18        18
         5        11         4         4
         6         3         4         4
        26        23        30        30
         5         2        10        10
        16        14        10        10
         3         6         7         7
        21        25        28        28
        29        22        28        28
         6        13         9         9
         2         4         1         1
        31        27        32        32
        25        15        20        20
        24        23        13        13
         8         7         9         9
        13        18         9         9
        31        30        24        24
        12        21        22        22
        29        32        27        27
         3         1         4         4
        26        17        18        18
        16        20        15        15
zone t="boundary 2 bc-2", solutiontime= 0.2000000E+02, strandid=1002, i=33, j=48, f=feblock
  0.500195254422E+01  0.375034811298E+01  0.249861145436E+01  0.288036673892E+01  0.124717525199E+01  0.190856697748E+01  0.326577189562E+01
  0.201394855830E+01 -0.338397968290E-02  0.962374244476E+00  0.500000000000E+01  0.403430189262E+01  0.423029563056E+01  0.500000000000E+01
  0.385439188349E+01  0.500000000000E+01  0.398133432926E+01  0.315200081100E+01  0.266958028570E+01  0.154798029932E+01  0.218327860448E+01
  0.893688443034E+00  0.000000000000E+00  0.699009764482E+00  0.964460900712E+00  0.310303671524E+01  0.000000000000E+00  0.000000000000E+00
  0.125000000000E+01  0.500000000000E+01  0.375000000000E+01  0.250000000000E+01  0.000000000000E+00
 -0.249658901876E+01 -0.249658901876E+01 -0.249658901876E+01 -0.249658901876E+01 -0.249658901876E+01 -0.249658901876E+01 -0.249658901876E+01
 -0.249658901876E+01 -0.249658901876E+01 -0.249658901876E+01 -0.249658901876E+01 -0.249658901876E+01 -0.249658901876E+01 -0.249658901876E+01
 -0.249658901876E+01 -0.249658901876E+01 -0.249658901876E+01 -0.249658901876E+01 -0.249658901876E+01 -0.249658901876E+01 -0.249658901876E+01
 -0.249658901876E+01 -0.249658901876E+01 -0.249658901876E+01 -0.249658901876E+01 -0.249658901876E+01 -0.249658901876E+01 -0.249658901876E+01
 -0.249658901876E+01 -0.249658901876E+01 -0.249658901876E+01 -0.249658901876E+01 -0.249658901876E+01
  0.108226447141E-03  0.145876065134E-03  0.100893846408E-03  0.901663358034E+00  0.110859295738E-03  0.714928307672E+00  0.188140645381E+01
  0.175892163508E+01  0.810729323492E-04  0.957504280272E+00  0.125000000000E+01  0.100596695734E+01  0.191313517561E+01  0.250000000000E+01
  0.292898095401E+01  0.375000000000E+01  0.406883368972E+01  0.363389288779E+01  0.284756859276E+01  0.292582306774E+01  0.395754054024E+01
  0.205027255782E+01  0.125000000000E+01  0.306703271994E+01  0.397155766145E+01  0.433068621574E+01  0.250000000000E+01  0.375000000000E+01
  0.500000000000E+01  0.500000000000E+01  0.500000000000E+01  0.500000000000E+01  0.500000000000E+01
  0.000000000000E+00  0.000000000000E+00  0.000000000000E+00  0.380535862472E+00  0.000000000000E+00  0.343212834639E+00  0.585244990074E+00
  0.579498833438E+00  0.000000000000E+00  0.500957423107E+00  0.508771778229E+00  0.434314571228E+00  0.572818734534E+00  0.537159705297E+00
  0.569105413070E+00  0.515014322279E+00  0.508256786360E+00  0.527354096717E+00  0.567655991946E+00  0.531857160672E+00  0.506013908922E+00
  0.521044924071E+00  0.443892833990E+00  0.490703886068E+00  0.492148704113E+00  0.501388511919E+00  0.467741935742E+00  0.488188091920E+00
  0.489960762589E+00  0.491323960968E+00  0.486020165251E+00  0.489981969829E+00  0.495090528096E+00
  0.100000000000E+01  0.100000000000E+01  0.100000000000E+01  0.989599128023E+00  0.100000000000E+01  0.985607741824E+00  0.989839398554E+00
  0.991730726837E+00  0.100000000000E+01  0.984222782614E+00  0.985140550700E+00  0.984819565150E+00  0.990066408426E+00  0.100292339881E+01
  0.999857222347E+00  0.100487240082E+01  0.100122707404E+01  0.100056950113E+01  0.997887793721E+00  0.100350888053E+01  0.100059339364E+01
  0.101090629484E+01  0.104024868236E+01  0.100327934770E+01  0.100254926022E+01  0.100046782861E+01  0.100976411358E+01  0.100405601417E+01
  0.100192601697E+01  0.100045821179E+01  0.100058930479E+01  0.100110067301E+01  0.100176413668E+01
 -0.247046974544E-02 -0.196440082081E-02 -0.115277799861E-02  0.245770749864E-01  0.227391127071E-02  0.743615969017E-01 -0.473239376992E-02
  0.150009451743E-02  0.295544207349E-02  0.355465704637E-01 -0.677259363629E-02 -0.578760101319E-02 -0.544147385768E-02 -0.438016477557E-02
 -0.325568737665E-02 -0.292447987448E-02 -0.223387984964E-02 -0.262737509734E-02 -0.401336926868E-02 -0.529251547598E-02 -0.345435116851E-02
  0.195787741992E-02  0.239174889330E-01 -0.170607170614E-02 -0.580465632711E-02 -0.440463536682E-02 -0.166346770890E-02 -0.823431441358E-02
 -0.301532325191E-01 -0.348610848451E-02 -0.134855643012E-01 -0.251925240036E-01 -0.295880878937E-01
  0.676592001520E-03 -0.184284083496E-03  0.271443889893E-04  0.422252183806E-02 -0.410863294428E-03  0.925269873333E-02  0.286245805790E-04
 -0.213211741266E-03  0.273891433073E-03  0.428394498244E-02  0.142903659140E-02  0.418339838381E-03  0.674077235437E-03  0.112995720448E-02
  0.754107629166E-03  0.696475341727E-03  0.810042597814E-03  0.672645762401E-03  0.307548919802E-03 -0.498142886449E-03  0.200297280090E-03
 -0.643929149558E-04  0.294144466216E-02  0.832360283102E-04 -0.802358007651E-03  0.292196352177E-03 -0.540973266911E-03 -0.184581820433E-02
 -0.530264890255E-02  0.171966999617E-03 -0.135252783402E-02 -0.378558766166E-02 -0.596736007017E-02
 -0.160375091182E-03  0.361395268905E-04  0.234953332318E-03  0.560207168931E-03  0.122482029456E-03  0.955597662177E-03 -0.713194597453E-04
  0.106987498293E-04 -0.243513458288E-03  0.386352199926E-03 -0.883622890141E-04 -0.270318182763E-03  0.255407460090E-05  0.850446460455E-05
  0.706404693948E-05 -0.126126212017E-04  0.290314782219E-05 -0.171561923464E-05  0.168075496619E-04  0.249769379360E-04 -0.179438299209E-04
  0.414082391776E-04 -0.992945453420E-04  0.163802207263E-04 -0.707253113528E-05 -0.566253109378E-05 -0.155773244561E-04  0.104141713609E-04
 -0.121232923874E-04 -0.116171179584E-05  0.554967380351E-06 -0.181018145803E-05  0.142674004620E-04
 -0.196874945270E-03 -0.205137488098E-03 -0.318806889512E-03  0.949551636561E-03 -0.695068304369E-03  0.159255886018E-03  0.154122940552E-02
  0.204677468869E-02 -0.592180422971E-03  0.936455804471E-03  0.295008796843E-03  0.992621603270E-03  0.626032101551E-03  0.281743997153E-03
  0.648040598319E-03  0.240562796155E-03  0.623951412596E-03  0.892321111820E-03  0.104607735747E-02  0.113123452110E-02  0.983461505884E-03
  0.154369051669E-02  0.120073702427E-02  0.117411783132E-02  0.997692533495E-03  0.835906069784E-03  0.172043589609E-02  0.109968188386E-02
  0.693581298242E-03  0.373475221977E-03  0.798460872065E-03  0.878468197040E-03  0.394500682501E-03
  0.689313366588E-03  0.196552184240E-02  0.337179766391E-02 -0.111799391830E-01  0.410443385953E-02 -0.318975586733E-01  0.136431163825E-02
 -0.740844681819E-03 -0.957628416937E-03 -0.147589621921E-01  0.151414828249E-02  0.152019601946E-02  0.139624218530E-02  0.834992174507E-03
  0.637122544371E-03  0.586225302598E-03  0.325948928310E-03  0.501851954487E-03  0.107100511164E-02  0.182420409773E-02  0.965110604353E-03
 -0.903216145653E-03 -0.975073431724E-02  0.384437201181E-03  0.213577989548E-02  0.128032360462E-02  0.505804651567E-03  0.331768096017E-02
  0.122406114661E-01  0.105503076322E-02  0.506490397891E-02  0.997771529921E-02  0.122202853572E-01
        15         7        19        19
         8        20        19        19
        18        19        21        21
         7         4         8         8
         3         6         4         4
        19         7         8         8
        19        18        15        15
        14        13        15        15
         8        22        20        20
        27        24        22        22
        19        20        21        21
        32        26        21        21
        17        18        26        26
        17        16        15        15
        25        29        21        21
        12         7        13        13
        10         8         6         6
        25        20        24        24
         4         6         8         8
        12         2         4         4
        10        23        22        22
        26        31        17        17
        30        16        17        17
         4         7        12        12
        13        11        12        12
        21        20        25        25
        24        28        25        25
        22         8        10        10
         6         5        10        10
        31        26        32        32
         4         2         3         3
         5         6         3         3
        11        13        14        14
        22        23        27        27
        28        24        27        27
        15        13         7         7
         2        12         1         1
        29        25        33        33
        23        10         9         9
        21        26        18        18
        16        14        15        15
        18        17        15        15
        29        32        21        21
        22        24        20        20
        28        33        25        25
        11         1        12        12
        31        30        17        17
         5         9        10        10
zone t="boundary 3 bc-3", solutiontime= 0.2000000E+02, strandid=1003, i=33, j=48, f=feblock
  0.375059098390E+01  0.249769607367E+01  0.500322137759E+01  0.403612219697E+01  0.287976771604E+01  0.124541906059E+01  0.190552233801E+01
  0.500000000000E+01  0.326671104356E+01  0.423253756077E+01  0.201271135077E+01 -0.547474059460E-02  0.958895606422E+00  0.500000000000E+01
  0.266968146972E+01  0.385584487519E+01  0.890374194728E+00  0.154654012793E+01  0.000000000000E+00  0.500000000000E+01  0.315261136749E+01
  0.218304199327E+01  0.398195307995E+01  0.000000000000E+00  0.697379944222E+00  0.963757274675E+00  0.125000000000E+01  0.000000000000E+00
  0.500000000000E+01  0.310330738530E+01  0.250000000000E+01  0.375000000000E+01  0.000000000000E+00
  0.250494200247E+01  0.250494200247E+01  0.250494200247E+01  0.250494200247E+01  0.250494200247E+01  0.250494200247E+01  0.250494200247E+01
  0.250494200247E+01  0.250494200247E+01  0.250494200247E+01  0.250494200247E+01  0.250494200247E+01  0.250494200247E+01  0.250494200247E+01
  0.250494200247E+01  0.250494200247E+01  0.250494200247E+01  0.250494200247E+01  0.250494200247E+01  0.250494200247E+01  0.250494200247E+01
  0.250494200247E+01  0.250494200247E+01  0.250494200247E+01  0.250494200247E+01  0.250494200247E+01  0.250494200247E+01  0.250494200247E+01
  0.250494200247E+01  0.250494200247E+01  0.250494200247E+01  0.250494200247E+01  0.250494200247E+01
  0.135649803876E-03  0.110129310889E-03  0.966880623677E-04  0.101756755321E+01  0.908094609206E+00  0.103942035531E-03  0.722629117445E+00
  0.125000000000E+01  0.188965663752E+01  0.191862698617E+01  0.176708241773E+01  0.803806651374E-04  0.969652600869E+00  0.250000000000E+01
  0.285339435101E+01  0.293325059952E+01  0.205656226267E+01  0.293157018903E+01  0.125000000000E+01  0.375000000000E+01  0.363766839843E+01
  0.396069445891E+01  0.407056385916E+01  0.250000000000E+01  0.307031996474E+01  0.397359820986E+01  0.500000000000E+01  0.375000000000E+01
  0.500000000000E+01  0.433260781817E+01  0.500000000000E+01  0.500000000000E+01  0.500000000000E+01
  0.000000000000E+00  0.000000000000E+00  0.000000000000E+00  0.444964218501E+00  0.402838535671E+00  0.000000000000E+00  0.379027137704E+00
  0.508831221839E+00  0.575719994476E+00  0.573485099217E+00  0.562570372405E+00  0.000000000000E+00  0.491640726445E+00  0.534339883219E+00
  0.556353524884E+00  0.564141469005E+00  0.522490172140E+00  0.521815692485E+00  0.440673586208E+00  0.517131699716E+00  0.524065006035E+00
  0.503613227420E+00  0.509416713766E+00  0.469888417966E+00  0.495647328021E+00  0.494503863371E+00  0.488631009022E+00  0.489035900682E+00
  0.492985484132E+00  0.498954248826E+00  0.486506343185E+00  0.484611155376E+00  0.495365426690E+00
  0.100000000000E+01  0.100000000000E+01  0.100000000000E+01  0.981378637640E+00  0.988676386002E+00  0.100000000000E+01  0.982276878930E+00
  0.984076692470E+00  0.990406105598E+00  0.990320048530E+00  0.994390401808E+00  0.100000000000E+01  0.988746056559E+00  0.100365347654E+01
  0.999773965859E+00  0.100117457037E+01  0.100829989476E+01  0.100251241873E+01  0.102982865541E+01  0.100442012645E+01  0.100199236467E+01
  0.100081968835E+01  0.100137931905E+01  0.100825749378E+01  0.100297346799E+01  0.100191685324E+01  0.100214764399E+01  0.100354784507E+01
  0.100047560994E+01  0.100056553044E+01  0.100126695642E+01  0.100066754363E+01  0.100178605814E+01
 -0.162322293806E-02  0.118589626695E-02 -0.282406199735E-02  0.168403192387E-01  0.568139886225E-01  0.372936107513E-02  0.568497676978E-01
 -0.995601158634E-02 -0.407818914971E-02 -0.624530818482E-02  0.966621593336E-02  0.606240903579E-02  0.386484106464E-01 -0.457014565402E-02
 -0.554365539454E-02 -0.384207092276E-02  0.707262242327E-03 -0.476063900280E-02  0.287439958688E-01 -0.310448112268E-02 -0.253101532738E-02
 -0.275161238879E-02 -0.234819251010E-02  0.113291339898E-03 -0.312387855104E-02 -0.837901476656E-02 -0.290537022738E-01 -0.104420608421E-01
 -0.289947638486E-02 -0.404208577168E-02 -0.234181816392E-01 -0.133752817968E-01 -0.263343704105E-01
 -0.373025323480E-03 -0.327999971982E-03  0.676062605726E-03  0.464031984531E-02  0.780219629086E-02 -0.797216150044E-03  0.691329850115E-02
  0.149929846426E-02  0.379086572289E-04  0.774370344695E-03  0.144659322041E-03  0.236211005677E-03  0.277520062226E-02  0.121515163710E-02
 -0.170921193530E-03  0.615498408400E-03 -0.110777492834E-02 -0.548570824060E-03  0.415777708594E-02  0.771925835594E-03  0.636396629117E-03
  0.353409067584E-03  0.771436166116E-03 -0.442865115222E-03 -0.868738791861E-03 -0.124925130098E-02 -0.502964209609E-02 -0.246689839766E-02
  0.291639672368E-03  0.311890676267E-03 -0.344659418439E-02 -0.136513878205E-02 -0.504720448810E-02
 -0.724579719500E-04  0.406302396405E-04  0.871603796341E-04 -0.300738542374E-03 -0.814514905312E-03  0.338130840079E-03  0.334565260410E-06
  0.265960289799E-05 -0.947295229043E-04  0.191795215581E-04 -0.684986490508E-04  0.392346078346E-03  0.461963683353E-03  0.355343777585E-04
 -0.608411434437E-05  0.300489791952E-05 -0.174465147839E-03 -0.597885952436E-04  0.121934127866E-03  0.185649331923E-04  0.861463442444E-05
  0.368802761469E-04  0.565633250919E-06 -0.111699653051E-04 -0.457654541980E-04  0.987248666012E-05  0.305145530311E-04 -0.181790789464E-04
  0.606558982382E-05  0.457403779882E-05  0.476165444138E-05  0.198716289476E-05 -0.203231511593E-04
 -0.474223193153E-03 -0.822441844033E-03 -0.228537715736E-03  0.536138281144E-03  0.973068020178E-03 -0.808045881777E-03  0.345535618331E-03
  0.398574952823E-03  0.190909295168E-02  0.941460133214E-03  0.266506104792E-02 -0.145949086477E-02  0.782599068941E-03  0.366592078497E-03
  0.993840100958E-03  0.820787646029E-03  0.214771184494E-02  0.107907064811E-02 -0.155440167965E-02  0.333621371567E-03  0.934282777390E-03
  0.936779676443E-03  0.711390573463E-03  0.140984027377E-02  0.142773486715E-02  0.985676886395E-03  0.701761100606E-03  0.125107439858E-02
  0.354910429430E-03  0.870636836918E-03  0.879898667299E-03  0.798520343039E-03  0.407523125229E-03
  0.698380787714E-02  0.307116381377E-02  0.136206880531E-02 -0.864687466440E-02 -0.246443820438E-01  0.252453079217E-03 -0.238651332442E-01
  0.260121186098E-02  0.117896291163E-02  0.165133309244E-02 -0.377457177978E-02 -0.481988140266E-02 -0.151803989575E-01  0.850559528747E-03
  0.178683733767E-02  0.883604147483E-03 -0.185567115772E-03  0.163508188026E-02 -0.118488078786E-01  0.602542445669E-03  0.475604216823E-03
  0.662463622391E-03  0.375166662939E-03 -0.747811838598E-04  0.108560039173E-02  0.320521684607E-02  0.117682630146E-01  0.427149364393E-02
  0.807728719301E-03  0.114109245271E-02  0.924055906700E-02  0.502326952690E-02  0.107995181902E-01
        15         9        16        16
        15        18        11        11
        22        15        21        21
        11         5         9         9
         5         7         2         2
        11         9        15        15
        16        21        15        15
        16        10        14        14
        18        17        11        11
        17        25        24        24
        22        18        15        15
        22        30        31        31
        30        21        23        23
        16        20        23        23
        22        27        26        26
        10         9         4         4
         7        11        13        13
        25        18        26        26
        11         7         5         5
         5         1         4         4
        17        19        13        13
        23        32        30        30
        23        20        29        29
         4         9         5         5
         4         8        10        10
        26        18        22        22
        26        28        25        25
        13        11        17        17
        13         6         7         7
        31        30        32        32
         2         1         5         5
         2         7         6         6
        14        10         8         8
        24        19        17        17
        24        25        28        28
         9        10        16        16
         3         4         1         1
        33        26        27        27
        12        13        19        19
        21        30        22        22
        16        14        20        20
        16        23        21        21
        22        31        27        27
        18        25        17        17
        26        33        28        28
         4         3         8         8
        23        29        32        32
        13        12         6         6
zone t="boundary 4 bc-4", solutiontime= 0.2000000E+02, strandid=1004, i=32, j=46, f=feblock
  0.125000000000E+01  0.219251206392E+01  0.103724302461E+01  0.500000000000E+01  0.250000000000E+01  0.375000000000E+01  0.404200324774E+01
  0.500000000000E+01  0.000000000000E+00  0.310152362409E+01  0.202479342020E+01  0.324151231464E+01  0.922061490191E+00  0.000000000000E+00
  0.299062775774E+01  0.394624082883E+01  0.500000000000E+01  0.409252726285E+01  0.500000000000E+01  0.429310310915E+01  0.175434191980E+01
  0.284428995242E+01  0.000000000000E+00  0.000000000000E+00  0.715990576545E+00  0.930412228790E+00  0.125000000000E+01  0.187029682677E+01
  0.500000000000E+01  0.375000000000E+01  0.250000000000E+01  0.000000000000E+00
  0.250494200247E+01  0.157686156160E+01  0.146289271009E+01  0.250494200247E+01  0.250494200247E+01  0.250494200247E+01  0.155830813274E+01
  0.125000000000E+01  0.250494200247E+01  0.177790177481E+01  0.477386199275E+00  0.742988685424E+00  0.308372018325E+00  0.125000000000E+01
 -0.487811078581E+00 -0.144524380962E+01 -0.125000000000E+01 -0.345533899378E+00  0.000000000000E+00  0.627766083140E+00 -0.739814786992E+00
 -0.158811787973E+01  0.000000000000E+00 -0.125000000000E+01 -0.600232012419E+00 -0.154800130438E+01 -0.249658901876E+01 -0.178862290564E+01
 -0.249658901876E+01 -0.249658901876E+01 -0.249658901876E+01 -0.249658901876E+01
  0.500000000000E+01  0.500000000000E+01  0.500000000000E+01  0.500000000000E+01  0.500000000000E+01  0.500000000000E+01  0.500000000000E+01
  0.500000000000E+01  0.500000000000E+01  0.500000000000E+01  0.500000000000E+01  0.500000000000E+01  0.500000000000E+01  0.500000000000E+01
  0.500000000000E+01  0.500000000000E+01  0.500000000000E+01  0.500000000000E+01  0.500000000000E+01  0.500000000000E+01  0.500000000000E+01
  0.500000000000E+01  0.500000000000E+01  0.500000000000E+01  0.500000000000E+01  0.500000000000E+01  0.500000000000E+01  0.500000000000E+01
  0.500000000000E+01  0.500000000000E+01  0.500000000000E+01  0.500000000000E+01
  0.488631009022E+00  0.488908213432E+00  0.490614382053E+00  0.492985484132E+00  0.486506343185E+00  0.484611155376E+00  0.485346978111E+00
  0.494164050852E+00  0.495365426690E+00  0.486545226105E+00  0.487827599821E+00  0.487054846429E+00  0.494058653000E+00  0.496128464259E+00
  0.487591693567E+00  0.483170111427E+00  0.492384612378E+00  0.487198851309E+00  0.494738256890E+00  0.487947708090E+00  0.489651879229E+00
  0.487976024544E+00  0.497248848021E+00  0.496055597969E+00  0.494948503219E+00  0.492778628389E+00  0.489960762589E+00  0.489964141879E+00
  0.491323960968E+00  0.486020165251E+00  0.489981969829E+00  0.495090528096E+00
  0.100214764399E+01  0.100152351571E+01  0.100177897248E+01  0.100047560994E+01  0.100126695642E+01  0.100066754363E+01  0.100025500110E+01
  0.100050303408E+01  0.100178605814E+01  0.100112360554E+01  0.100132834958E+01  0.100072282922E+01  0.100164061466E+01  0.100168350951E+01
  0.100096361053E+01  0.100001099323E+01  0.100083211642E+01  0.100022370399E+01  0.100062124631E+01  0.100023372443E+01  0.100174711680E+01
  0.100099001844E+01  0.100118704030E+01  0.100134433813E+01  0.100132706144E+01  0.100179957654E+01  0.100192601697E+01  0.100163785484E+01
  0.100045821179E+01  0.100058930479E+01  0.100110067301E+01  0.100176413668E+01
 -0.290537022738E-01 -0.244657463976E-01 -0.259370805906E-01 -0.289947638486E-02 -0.234181816392E-01 -0.133752817968E-01 -0.909419715198E-02
 -0.292661495893E-02 -0.263343704105E-01 -0.198434829487E-01 -0.271715004118E-01 -0.190185666435E-01 -0.283079657361E-01 -0.285000055060E-01
 -0.210125643180E-01 -0.872700410571E-02 -0.337998910014E-02 -0.113689401396E-01 -0.270017997368E-02 -0.110959615739E-01 -0.328654740100E-01
 -0.192461870811E-01 -0.291631985389E-01 -0.290809583929E-01 -0.341530258956E-01 -0.291446597655E-01 -0.301532325191E-01 -0.294317586162E-01
 -0.348610848451E-02 -0.134855643012E-01 -0.251925240036E-01 -0.295880878937E-01