title="tecplot geometry and solution file"
variables = x y z mach temperature lambda1 lambda2 lambda3 lambda4 lambda5
zone t="boundary 1 bc-1", solutiontime= 0.1000000E+02, strandid=1001, i=32, j=46, f=feblock
 -0.547474059460E-02  0.000000000000E+00 -0.567611628244E-02  0.000000000000E+00  0.000000000000E+00  0.000000000000E+00 -0.525163924646E-02
 -0.425780134844E-02  0.000000000000E+00  0.000000000000E+00  0.000000000000E+00  0.000000000000E+00  0.000000000000E+00  0.000000000000E+00
  0.000000000000E+00  0.000000000000E+00 -0.338397968290E-02  0.000000000000E+00  0.000000000000E+00  0.000000000000E+00  0.000000000000E+00
  0.000000000000E+00  0.000000000000E+00  0.000000000000E+00  0.000000000000E+00  0.000000000000E+00  0.000000000000E+00  0.000000000000E+00
  0.000000000000E+00  0.000000000000E+00  0.000000000000E+00  0.000000000000E+00
  0.250494200247E+01  0.250494200247E+01  0.127822172847E+01  0.146289271009E+01  0.157686156160E+01  0.308372018325E+00  0.261950000797E-01
 -0.122573468786E+01 -0.600232012419E+00  0.250494200247E+01  0.477386199275E+00  0.742988685424E+00 -0.739814786992E+00  0.177790177481E+01
  0.155830813274E+01  0.250494200247E+01 -0.249658901876E+01 -0.154800130438E+01 -0.487811078581E+00  0.250494200247E+01  0.627766083140E+00
 -0.345533899378E+00 -0.178862290564E+01 -0.158811787973E+01  0.125000000000E+01 -0.249658901876E+01 -0.144524380962E+01  0.000000000000E+00
 -0.125000000000E+01 -0.249658901876E+01 -0.249658901876E+01 -0.249658901876E+01
  0.803806651374E-04  0.125000000000E+01  0.822455052730E-04  0.103724302461E+01  0.219251206392E+01  0.922061490191E+00  0.103872499450E-03
  0.341545354745E-04  0.715990576545E+00  0.250000000000E+01  0.202479342020E+01  0.324151231464E+01  0.175434191980E+01  0.310152362409E+01
  0.404200324774E+01  0.375000000000E+01  0.810729323492E-04  0.930412228790E+00  0.299062775774E+01  0.500000000000E+01  0.429310310915E+01
  0.409252726285E+01  0.187029682677E+01  0.284428995242E+01  0.500000000000E+01  0.125000000000E+01  0.394624082883E+01  0.500000000000E+01
  0.500000000000E+01  0.250000000000E+01  0.375000000000E+01  0.500000000000E+01
  0.000000000000E+00  0.440673586208E+00  0.000000000000E+00  0.474618312942E+00  0.460126827849E+00  0.468640528253E+00  0.000000000000E+00
  0.000000000000E+00  0.402536918085E+00  0.469888417966E+00  0.464194764523E+00  0.478751111286E+00  0.489556170192E+00  0.483131208311E+00
  0.488003760331E+00  0.489035900682E+00  0.000000000000E+00  0.465239150297E+00  0.473760589661E+00  0.495365426690E+00  0.490293994454E+00
  0.486277511197E+00  0.445852126547E+00  0.464357935362E+00  0.496128464259E+00  0.443892833990E+00  0.486929021189E+00  0.497248848021E+00
  0.496055597969E+00  0.467741935742E+00  0.488188091920E+00  0.495090528096E+00
  0.100000000000E+01  0.102982865541E+01  0.100000000000E+01  0.104241277716E+01  0.101187608801E+01  0.102516476050E+01  0.100000000000E+01
  0.100000000000E+01  0.103882396963E+01  0.100825749378E+01  0.101253466570E+01  0.100301619360E+01  0.102705426408E+01  0.100604070185E+01
  0.100244504891E+01  0.100354784507E+01  0.100000000000E+01  0.103209988123E+01  0.100459396594E+01  0.100178605814E+01  0.100260299680E+01
  0.100234721389E+01  0.101657109411E+01  0.100620576703E+01  0.100168350951E+01  0.104024868236E+01  0.100303449040E+01  0.100118704030E+01
  0.100134433813E+01  0.100976411358E+01  0.100405601417E+01  0.100176413668E+01
  0.361281581696E-02  0.257032754200E-01 -0.557991763015E-03 -0.316189808339E-02  0.611600129248E-01 -0.165439559952E-01 -0.121307776747E-01
 -0.526658072393E-02 -0.245916306489E-01  0.510501113252E-01  0.885994036504E-01 -0.563593505357E-02  0.104512363510E+00 -0.139813041586E-01
 -0.546654570023E-01 -0.573198473548E-01 -0.641065313649E-02 -0.254078905442E-01  0.107468966968E-01  0.213904468432E-01 -0.481510211693E-01
 -0.539210895108E-01  0.675647947945E-01  0.101470636000E-01  0.141758596037E-01 -0.245612425458E-01 -0.605450174861E-01  0.146584381887E-01
  0.402589164504E-02  0.364246652383E-01 -0.553255910665E-01  0.746316668558E-02
  0.783362020645E-03  0.285305496466E-02  0.145258062236E-02 -0.306366939519E-02  0.935899261600E-02 -0.483474664113E-02  0.908705925263E-04
  0.616448178986E-03 -0.451812427448E-02  0.853900810011E-02  0.134434762920E-01 -0.171094661184E-02  0.173625437749E-01 -0.300351118697E-02
 -0.922831669832E-02 -0.977421966115E-02  0.487696112410E-03 -0.535755319314E-02  0.133048182520E-02  0.756239517780E-02 -0.820040835509E-02
 -0.100205283329E-01  0.109831899815E-01  0.114844562359E-02  0.506528638756E-02 -0.577077868274E-02 -0.107682845217E-01  0.466923042075E-02
  0.390663009733E-02  0.558588720055E-02 -0.103729237953E-01  0.533060671277E-02
  0.225964813929E-03 -0.835548381925E-04  0.160331163423E-02  0.157444384449E-02  0.625850280453E-03  0.300218903371E-02  0.278330011011E-03
 -0.599826828486E-03 -0.105857760907E-02  0.266758131253E-04  0.729196918699E-03  0.285143721794E-03 -0.140057315199E-02  0.109684733302E-02
  0.447544634929E-03  0.116561756125E-04  0.396249631217E-03 -0.168254392550E-02 -0.714810657662E-03  0.202623953259E-04 -0.944964539572E-04
 -0.293528555479E-03 -0.123251654093E-02 -0.164855051633E-03 -0.763560558478E-03 -0.125493440433E-03 -0.222904086954E-03  0.401865578740E-06
  0.403817502913E-03 -0.529429171965E-04 -0.152770094604E-03 -0.829217456343E-05
  0.125359540662E-03 -0.143256258175E-03  0.839970429635E-03  0.248806753337E-02  0.231029678687E-02 -0.149158355346E-02  0.186130953444E-02
  0.955697173854E-03 -0.396401241006E-02  0.861415092804E-03  0.158742590674E-02  0.418736612408E-02  0.189917709239E-02  0.304710852759E-02
  0.206463037884E-02  0.231038984853E-02  0.121282364748E-02 -0.227192940363E-02  0.273888372498E-02  0.132238207647E-02  0.147034804978E-02
  0.171100579538E-02  0.162898657375E-02  0.417396595015E-02  0.669609837381E-03  0.170661429714E-02  0.218430430424E-02  0.812521714451E-03
  0.878515239251E-03  0.309514122959E-02  0.326471056348E-02  0.885052059567E-03
 -0.294882650031E-02 -0.105532957548E-01 -0.736320228495E-04  0.182105136561E-02 -0.252808329903E-01  0.600689514393E-02  0.752807673231E-02
  0.284215927854E-02  0.860653117002E-02 -0.213023856991E-01 -0.366698520781E-01  0.207900928500E-02 -0.432326914966E-01  0.562724806047E-02
  0.222471967695E-01  0.232896716339E-01  0.278508542549E-02  0.975490119673E-02 -0.479533161698E-02 -0.975815303813E-02  0.196811491525E-01
  0.221473507441E-01 -0.280372386341E-01 -0.465235836252E-02 -0.640361454734E-02  0.992222858281E-02  0.247718750167E-01 -0.666559397787E-02
 -0.240470645969E-02 -0.154509640442E-01  0.227672523096E-01 -0.398080618178E-02
        12        19        11        11
        11         5        12        12
        10        14         5         5
        19        13        11        11
        19        24        13        13
        30        23        24        24
        19        12        22        22
        28        22        21        21
        11        13         6         6
         7         6         9         9
        15        12        14        14
        18        13        23        23
        15        25        21        21
        27        19        22        22
        18         8         9         9
        27        31        24        24
         4        11         6         6
         5        14        12        12
         4         2         5         5
        21        12        15        15
        14        16        15        15
        24        19        27        27
        22        29        27        27
        23        26        18        18
        17         8        18        18
         5        11         4         4
         6         3         4         4
        26        23        30        30
         5         2        10        10
        16        14        10        10
         3         6         7         7
        21        25        28        28
        29        22        28        28
         6        13         9         9
         2         4         1         1
        31        27        32        32
        25        15        20        20
        24        23        13        13
         8         7         9         9
        13        18         9         9
        31        30        24        24
        12        21        22        22
        29        32        27        27
         3         1         4         4
        26        17        18        18
        16        20        15        15
zone t="boundary 2 bc-2", solutiontime= 0.1000000E+02, strandid=1002, i=33, j=48, f=feblock
  0.500195254422E+01  0.375034811298E+01  0.249861145436E+01  0.288036673892E+01  0.124717525199E+01  0.190856697748E+01  0.326577189562E+01
  0.201394855830E+01 -0.338397968290E-02  0.962374244476E+00  0.500000000000E+01  0.403430189262E+01  0.423029563056E+01  0.500000000000E+01
  0.385439188349E+01  0.500000000000E+01  0.398133432926E+01  0.315200081100E+01  0.266958028570E+01  0.154798029932E+01  0.218327860448E+01
  0.893688443034E+00  0.000000000000E+00  0.699009764482E+00  0.964460900712E+00  0.310303671524E+01  0.000000000000E+00  0.000000000000E+00
  0.125000000000E+01  0.500000000000E+01  0.375000000000E+01  0.250000000000E+01  0.000000000000E+00
 -0.249658901876E+01 -0.249658901876E+01 -0.249658901876E+01 -0.249658901876E+01 -0.249658901876E+01 -0.249658901876E+01 -0.249658901876E+01
 -0.249658901876E+01 -0.249658901876E+01 -0.249658901876E+01 -0.249658901876E+01 -0.249658901876E+01 -0.249658901876E+01 -0.249658901876E+01
 -0.249658901876E+01 -0.249658901876E+01 -0.249658901876E+01 -0.249658901876E+01 -0.249658901876E+01 -0.249658901876E+01 -0.249658901876E+01
 -0.249658901876E+01 -0.249658901876E+01 -0.249658901876E+01 -0.249658901876E+01 -0.249658901876E+01 -0.249658901876E+01 -0.249658901876E+01
 -0.249658901876E+01 -0.249658901876E+01 -0.249658901876E+01 -0.249658901876E+01 -0.249658901876E+01
  0.108226447141E-03  0.145876065134E-03  0.100893846408E-03  0.901663358034E+00  0.110859295738E-03  0.714928307672E+00  0.188140645381E+01
  0.175892163508E+01  0.810729323492E-04  0.957504280272E+00  0.125000000000E+01  0.100596695734E+01  0.191313517561E+01  0.250000000000E+01
  0.292898095401E+01  0.375000000000E+01  0.406883368972E+01  0.363389288779E+01  0.284756859276E+01  0.292582306774E+01  0.395754054024E+01
  0.205027255782E+01  0.125000000000E+01  0.306703271994E+01  0.397155766145E+01  0.433068621574E+01  0.250000000000E+01  0.375000000000E+01
  0.500000000000E+01  0.500000000000E+01  0.500000000000E+01  0.500000000000E+01  0.500000000000E+01
  0.000000000000E+00  0.000000000000E+00  0.000000000000E+00  0.380535862472E+00  0.000000000000E+00  0.343212834639E+00  0.585244990074E+00
  0.579498833438E+00  0.000000000000E+00  0.500957423107E+00  0.508771778229E+00  0.434314571228E+00  0.572818734534E+00  0.537159705297E+00
  0.569105413070E+00  0.515014322279E+00  0.508256786360E+00  0.527354096717E+00  0.567655991946E+00  0.531857160672E+00  0.506013908922E+00
  0.521044924071E+00  0.443892833990E+00  0.490703886068E+00  0.492148704113E+00  0.501388511919E+00  0.467741935742E+00  0.488188091920E+00
  0.489960762589E+00  0.491323960968E+00  0.486020165251E+00  0.489981969829E+00  0.495090528096E+00
  0.100000000000E+01  0.100000000000E+01  0.100000000000E+01  0.989599128023E+00  0.100000000000E+01  0.985607741824E+00  0.989839398554E+00
  0.991730726837E+00  0.100000000000E+01  0.984222782614E+00  0.985140550700E+00  0.984819565150E+00  0.990066408426E+00  0.100292339881E+01
  0.999857222347E+00  0.100487240082E+01  0.100122707404E+01  0.100056950113E+01  0.997887793721E+00  0.100350888053E+01  0.100059339364E+01
  0.101090629484E+01  0.104024868236E+01  0.100327934770E+01  0.100254926022E+01  0.100046782861E+01  0.100976411358E+01  0.100405601417E+01
  0.100192601697E+01  0.100045821179E+01  0.100058930479E+01  0.100110067301E+01  0.100176413668E+01
 -0.918574439837E-03 -0.114485989967E-02  0.145757063000E-02  0.157259548819E-01 -0.211321117387E-02 -0.887045163219E-01  0.105832812140E-02
  0.327579161956E-01 -0.641065313649E-02 -0.600102368875E-02 -0.617810160485E-02  0.344534862448E-01 -0.880359324077E-02  0.650003462516E-03
 -0.335020058560E-02 -0.574991049577E-03 -0.319872601194E-02 -0.615496392531E-02 -0.950989664422E-02  0.142502278225E-03 -0.230596870278E-01
  0.298903031899E-01 -0.245612425458E-01 -0.162397568858E-01 -0.403936053064E-01 -0.962652324061E-02  0.364246652383E-01 -0.553255910665E-01
  0.166692820457E-01 -0.713637457491E-02 -0.588479259175E-02  0.692593814870E-02  0.746316668558E-02
  0.480782306503E-03  0.392463131792E-03  0.382227028960E-03  0.106772081031E-02  0.146581939922E-02 -0.122243636918E-01  0.102781627205E-02
  0.673179322436E-02  0.487696112410E-03 -0.148891008483E-02 -0.289153567331E-03  0.715603007688E-02 -0.124761297488E-02  0.100918781982E-02
  0.588705304743E-03  0.674096198352E-03  0.152407590738E-03  0.493647369509E-03  0.581651772878E-03  0.164093811871E-02 -0.265911675507E-02
  0.556847241859E-02 -0.577077868274E-02 -0.314917173215E-02 -0.595042462044E-02 -0.888476153028E-03  0.558588720055E-02 -0.103729237953E-01
  0.824010729165E-02 -0.518693606346E-03  0.467738686717E-03  0.476651566850E-02  0.533060671277E-02
 -0.246610622063E-03 -0.158583721668E-03 -0.130114198730E-03  0.584668776944E-03  0.255592063296E-03  0.345166719847E-04  0.815867562155E-04
  0.296946136571E-03  0.396249631217E-03  0.964161313517E-04 -0.750770356570E-04  0.284672383100E-03 -0.791156247021E-04 -0.113040261492E-04
  0.268132234762E-05 -0.177926640725E-04 -0.697251349424E-04  0.763925200692E-04  0.127536558690E-03  0.843379131101E-04 -0.137695224791E-04
  0.156081042818E-03 -0.125493440433E-03 -0.116098697430E-03 -0.771837523213E-04  0.268410506936E-04 -0.529429171965E-04 -0.152770094604E-03
  0.744885500881E-04 -0.303882806627E-04 -0.333767882946E-05  0.427822653597E-05 -0.829217456343E-05
 -0.780795241262E-05 -0.209353658116E-03 -0.526018708283E-03 -0.157054550012E-02  0.374147898697E-03 -0.248924938299E-02 -0.237199809431E-03
  0.981548207621E-03  0.121282364748E-02  0.604074540312E-04  0.462337892344E-03 -0.891866265944E-03  0.872377773923E-05  0.885361017586E-04
 -0.220287813864E-03  0.303903030743E-03  0.277949195424E-03 -0.104107746976E-04 -0.456655004010E-03  0.132028891707E-02 -0.501732833728E-03
  0.348133054367E-02  0.170661429714E-02  0.329784694332E-02  0.103675241170E-02 -0.288237516270E-03  0.309514122959E-02  0.326471056348E-02
  0.705857205569E-04  0.581132543479E-03  0.665351414609E-03  0.704830876037E-03  0.885052059567E-03
 -0.194647704607E-03  0.130917760183E-02  0.132318834279E-02 -0.691829971319E-02  0.451971735364E-02  0.362939700743E-01 -0.908211295869E-03
 -0.145579423919E-01  0.278508542549E-02  0.197144654106E-02  0.213611636116E-02 -0.153332459694E-01  0.334856646445E-02 -0.810181024712E-03
  0.774164935556E-03 -0.170328184614E-03  0.950893825454E-03  0.188984716126E-02  0.298236213038E-02 -0.962108935778E-03  0.904809121093E-02
 -0.131074649025E-01  0.992222858281E-02  0.643068492406E-02  0.163505991814E-01  0.365978140009E-02 -0.154509640442E-01  0.227672523096E-01
 -0.827012219190E-02  0.257379607381E-02  0.175284133631E-02 -0.416269983777E-02 -0.398080618178E-02
        15         7        19        19
         8        20        19        19
        18        19        21        21
         7         4         8         8
         3         6         4         4
        19         7         8         8
        19        18        15        15
        14        13        15        15
         8        22        20        20
        27        24        22        22
        19        20        21        21
        32        26        21        21
        17        18        26        26
        17        16        15        15
        25        29        21        21
        12         7        13        13
        10         8         6         6
        25        20        24        24
         4         6         8         8
        12         2         4         4
        10        23        22        22
        26        31        17        17
        30        16        17        17
         4         7        12        12
        13        11        12        12
        21        20        25        25
        24        28        25        25
        22         8        10        10
         6         5        10        10
        31        26        32        32
         4         2         3         3
         5         6         3         3
        11        13        14        14
        22        23        27        27
        28        24        27        27
        15        13         7         7
         2        12         1         1
        29        25        33        33
        23        10         9         9
        21        26        18        18
        16        14        15        15
        18        17        15        15
        29        32        21        21
        22        24        20        20
        28        33        25        25
        11         1        12        12
        31        30        17        17
         5         9        10        10
zone t="boundary 3 bc-3", solutiontime= 0.1000000E+02, strandid=1003, i=33, j=48, f=feblock
  0.375059098390E+01  0.249769607367E+01  0.500322137759E+01  0.403612219697E+01  0.287976771604E+01  0.124541906059E+01  0.190552233801E+01
  0.500000000000E+01  0.326671104356E+01  0.423253756077E+01  0.201271135077E+01 -0.547474059460E-02  0.958895606422E+00  0.500000000000E+01
  0.266968146972E+01  0.385584487519E+01  0.890374194728E+00  0.154654012793E+01  0.000000000000E+00  0.500000000000E+01  0.315261136749E+01
  0.218304199327E+01  0.398195307995E+01  0.000000000000E+00  0.697379944222E+00  0.963757274675E+00  0.125000000000E+01  0.000000000000E+00
  0.500000000000E+01  0.310330738530E+01  0.250000000000E+01  0.375000000000E+01  0.000000000000E+00
  0.250494200247E+01  0.250494200247E+01  0.250494200247E+01  0.250494200247E+01  0.250494200247E+01  0.250494200247E+01  0.250494200247E+01
  0.250494200247E+01  0.250494200247E+01  0.250494200247E+01  0.250494200247E+01  0.250494200247E+01  0.250494200247E+01  0.250494200247E+01
  0.250494200247E+01  0.250494200247E+01  0.250494200247E+01  0.250494200247E+01  0.250494200247E+01  0.250494200247E+01  0.250494200247E+01
  0.250494200247E+01  0.250494200247E+01  0.250494200247E+01  0.250494200247E+01  0.250494200247E+01  0.250494200247E+01  0.250494200247E+01
  0.250494200247E+01  0.250494200247E+01  0.250494200247E+01  0.250494200247E+01  0.250494200247E+01
  0.135649803876E-03  0.110129310889E-03  0.966880623677E-04  0.101756755321E+01  0.908094609206E+00  0.103942035531E-03  0.722629117445E+00
  0.125000000000E+01  0.188965663752E+01  0.191862698617E+01  0.176708241773E+01  0.803806651374E-04  0.969652600869E+00  0.250000000000E+01
  0.285339435101E+01  0.293325059952E+01  0.205656226267E+01  0.293157018903E+01  0.125000000000E+01  0.375000000000E+01  0.363766839843E+01
  0.396069445891E+01  0.407056385916E+01  0.250000000000E+01  0.307031996474E+01  0.397359820986E+01  0.500000000000E+01  0.375000000000E+01
  0.500000000000E+01  0.433260781817E+01  0.500000000000E+01  0.500000000000E+01  0.500000000000E+01
  0.000000000000E+00  0.000000000000E+00  0.000000000000E+00  0.444964218501E+00  0.402838535671E+00  0.000000000000E+00  0.379027137704E+00
  0.508831221839E+00  0.575719994476E+00  0.573485099217E+00  0.562570372405E+00  0.000000000000E+00  0.491640726445E+00  0.534339883219E+00
  0.556353524884E+00  0.564141469005E+00  0.522490172140E+00  0.521815692485E+00  0.440673586208E+00  0.517131699716E+00  0.524065006035E+00
  0.503613227420E+00  0.509416713766E+00  0.469888417966E+00  0.495647328021E+00  0.494503863371E+00  0.488631009022E+00  0.489035900682E+00
  0.492985484132E+00  0.498954248826E+00  0.486506343185E+00  0.484611155376E+00  0.495365426690E+00
  0.100000000000E+01  0.100000000000E+01  0.100000000000E+01  0.981378637640E+00  0.988676386002E+00  0.100000000000E+01  0.982276878930E+00
  0.984076692470E+00  0.990406105598E+00  0.990320048530E+00  0.994390401808E+00  0.100000000000E+01  0.988746056559E+00  0.100365347654E+01
  0.999773965859E+00  0.100117457037E+01  0.100829989476E+01  0.100251241873E+01  0.102982865541E+01  0.100442012645E+01  0.100199236467E+01
  0.100081968835E+01  0.100137931905E+01  0.100825749378E+01  0.100297346799E+01  0.100191685324E+01  0.100214764399E+01  0.100354784507E+01
  0.100047560994E+01  0.100056553044E+01  0.100126695642E+01  0.100066754363E+01  0.100178605814E+01
 -0.133254810600E-02 -0.287233381242E-02 -0.206729948060E-02  0.137489752124E-01 -0.363980544417E-01 -0.433249136357E-03 -0.135204099842E-01
 -0.767560185076E-02 -0.294805721979E-03 -0.602911754778E-02  0.318941445077E-02  0.361281581696E-02  0.332162770498E-01 -0.209225675452E-02
 -0.781382619036E-02 -0.143116200856E-02  0.503989968094E-01 -0.667021852759E-02  0.257032754200E-01 -0.186249839131E-02  0.162938398381E-02
 -0.177555412521E-01 -0.392324302368E-02  0.510501113252E-01 -0.177339656587E-01 -0.345538884745E-01  0.247848905987E-01 -0.573198473548E-01
 -0.787039982115E-02 -0.103482047539E-01  0.221920392419E-01 -0.142177790310E-01  0.213904468432E-01
  0.455206015294E-03  0.939788476318E-03  0.428031493286E-03  0.573805894026E-02 -0.279200848344E-02 -0.494107249479E-03 -0.751237357538E-03
  0.697199247075E-03  0.354024435890E-03 -0.313988352588E-04  0.243224784292E-02  0.783362020645E-03  0.370541148400E-02  0.840155376000E-03
 -0.279882119343E-03  0.122944287928E-02  0.116849303116E-01 -0.255515384713E-03  0.285305496466E-02  0.501246983625E-03  0.153886409204E-02
 -0.237146655124E-02  0.230772049087E-03  0.853900810011E-02 -0.220810017783E-02 -0.540964249686E-02  0.893067156203E-02 -0.977421966115E-02
 -0.563791569621E-03 -0.102988443200E-02  0.720414299632E-02 -0.887514444934E-03  0.756239517780E-02
 -0.330309474875E-04  0.612668286228E-04  0.254269199779E-05 -0.503269436282E-03 -0.516701259525E-03  0.354761785945E-03 -0.544079563871E-04
  0.289912884176E-04  0.529103949916E-04  0.732747894641E-04  0.101006614912E-03  0.225964813929E-03  0.679788314317E-04 -0.209067200880E-04
  0.366938132849E-04 -0.100529925957E-04 -0.412751844538E-03 -0.121829510178E-04 -0.835548381925E-04  0.237821757802E-04  0.970655944547E-04
  0.180529724352E-04  0.572893102088E-04  0.266758131253E-04 -0.868957471979E-04 -0.114873169864E-03  0.848000740032E-05  0.116561756125E-04
  0.995543287117E-05  0.817235763247E-04 -0.347074617385E-04  0.244163421509E-04  0.202623953259E-04
 -0.443245390149E-03 -0.699044214948E-04 -0.132932407283E-04 -0.223006101949E-02 -0.107270916100E-02  0.140392269710E-04  0.129270864866E-02
  0.908363599805E-03  0.155378099115E-03  0.505788440456E-03  0.979170971627E-03  0.125359540662E-03  0.564557700777E-03  0.296156921373E-03
 -0.936440470766E-04 -0.790403326300E-04  0.131391138320E-02  0.199171096477E-02 -0.143256258175E-03  0.284044498661E-03 -0.215648154298E-03
 -0.442539637093E-03  0.331074091398E-03  0.861415092804E-03  0.342827663270E-02  0.135793963083E-02 -0.111781060747E-03  0.231038984853E-02
  0.529494409455E-03 -0.370768823521E-03  0.473914701611E-03  0.701920983590E-03  0.132238207647E-02
  0.562463149778E-02  0.433803120688E-02  0.118428101255E-02 -0.763287502156E-02  0.140299398633E-01  0.134145892907E-02  0.498864187222E-02
  0.218271307823E-02 -0.273547634123E-03  0.185323730307E-02 -0.215069539912E-02 -0.294882650031E-02 -0.136579124031E-01  0.198935854909E-03
  0.263840311574E-02 -0.148961509075E-03 -0.220833122292E-01  0.206634107565E-02 -0.105532957548E-01  0.339158310139E-03 -0.126161919698E-02
  0.696741081089E-02  0.118406295760E-02 -0.213023856991E-01  0.691113342532E-02  0.140550698898E-01 -0.114260186516E-01  0.232896716339E-01
  0.287596635784E-02  0.393083589077E-02 -0.105404390967E-01  0.507765059785E-02 -0.975815303813E-02
        15         9        16        16
        15        18        11        11
        22        15        21        21
        11         5         9         9
         5         7         2         2
        11         9        15        15
        16        21        15        15
        16        10        14        14
        18        17        11        11
        17        25        24        24
        22        18        15        15
        22        30        31        31
        30        21        23        23
        16        20        23        23
        22        27        26        26
        10         9         4         4
         7        11        13        13
        25        18        26        26
        11         7         5         5
         5         1         4         4
        17        19        13        13
        23        32        30        30
        23        20        29        29
         4         9         5         5
         4         8        10        10
        26        18        22        22
        26        28        25        25
        13        11        17        17
        13         6         7         7
        31        30        32        32
         2         1         5         5
         2         7         6         6
        14        10         8         8
        24        19        17        17
        24        25        28        28
         9        10        16        16
         3         4         1         1
        33        26        27        27
        12        13        19        19
        21        30        22        22
        16        14        20        20
        16        23        21        21
        22        31        27        27
        18        25        17        17
        26        33        28        28
         4         3         8         8
        23        29        32        32
        13        12         6         6
zone t="boundary 4 bc-4", solutiontime= 0.1000000E+02, strandid=1004, i=32, j=46, f=feblock
  0.125000000000E+01  0.219251206392E+01  0.103724302461E+01  0.500000000000E+01  0.250000000000E+01  0.375000000000E+01  0.404200324774E+01
  0.500000000000E+01  0.000000000000E+00  0.310152362409E+01  0.202479342020E+01  0.324151231464E+01  0.922061490191E+00  0.000000000000E+00
  0.299062775774E+01  0.394624082883E+01  0.500000000000E+01  0.409252726285E+01  0.500000000000E+01  0.429310310915E+01  0.175434191980E+01
  0.284428995242E+01  0.000000000000E+00  0.000000000000E+00  0.715990576545E+00  0.930412228790E+00  0.125000000000E+01  0.187029682677E+01
  0.500000000000E+01  0.375000000000E+01  0.250000000000E+01  0.000000000000E+00
  0.250494200247E+01  0.157686156160E+01  0.146289271009E+01  0.250494200247E+01  0.250494200247E+01  0.250494200247E+01  0.155830813274E+01
  0.125000000000E+01  0.250494200247E+01  0.177790177481E+01  0.477386199275E+00  0.742988685424E+00  0.308372018325E+00  0.125000000000E+01
 -0.487811078581E+00 -0.144524380962E+01 -0.125000000000E+01 -0.345533899378E+00  0.000000000000E+00  0.627766083140E+00 -0.739814786992E+00
 -0.158811787973E+01  0.000000000000E+00 -0.125000000000E+01 -0.600232012419E+00 -0.154800130438E+01 -0.249658901876E+01 -0.178862290564E+01
 -0.249658901876E+01 -0.249658901876E+01 -0.249658901876E+01 -0.249658901876E+01
  0.500000000000E+01  0.500000000000E+01  0.500000000000E+01  0.500000000000E+01  0.500000000000E+01  0.500000000000E+01  0.500000000000E+01
  0.500000000000E+01  0.500000000000E+01  0.500000000000E+01  0.500000000000E+01  0.500000000000E+01  0.500000000000E+01  0.500000000000E+01
  0.500000000000E+01  0.500000000000E+01  0.500000000000E+01  0.500000000000E+01  0.500000000000E+01  0.500000000000E+01  0.500000000000E+01
  0.500000000000E+01  0.500000000000E+01  0.500000000000E+01  0.500000000000E+01  0.500000000000E+01  0.500000000000E+01  0.500000000000E+01
  0.500000000000E+01  0.500000000000E+01  0.500000000000E+01  0.500000000000E+01
  0.488631009022E+00  0.488908213432E+00  0.490614382053E+00  0.492985484132E+00  0.486506343185E+00  0.484611155376E+00  0.485346978111E+00
  0.494164050852E+00  0.495365426690E+00  0.486545226105E+00  0.487827599821E+00  0.487054846429E+00  0.494058653000E+00  0.496128464259E+00
  0.487591693567E+00  0.483170111427E+00  0.492384612378E+00  0.487198851309E+00  0.494738256890E+00  0.487947708090E+00  0.489651879229E+00
  0.487976024544E+00  0.497248848021E+00  0.496055597969E+00  0.494948503219E+00  0.492778628389E+00  0.489960762589E+00  0.489964141879E+00
  0.491323960968E+00  0.486020165251E+00  0.489981969829E+00  0.495090528096E+00
  0.100214764399E+01  0.100152351571E+01  0.100177897248E+01  0.100047560994E+01  0.100126695642E+01  0.100066754363E+01  0.100025500110E+01
  0.100050303408E+01  0.100178605814E+01  0.100112360554E+01  0.100132834958E+01  0.100072282922E+01  0.100164061466E+01  0.100168350951E+01
  0.100096361053E+01  0.100001099323E+01  0.100083211642E+01  0.100022370399E+01  0.100062124631E+01  0.100023372443E+01  0.100174711680E+01
  0.100099001844E+01  0.100118704030E+01  0.100134433813E+01  0.100132706144E+01  0.100179957654E+01  0.100192601697E+01  0.100163785484E+01
  0.100045821179E+01  0.100058930479E+01  0.100110067301E+01  0.100176413668E+01
  0.247848905987E-01  0.272452607471E-01  0.189648612333E-01 -0.787039982115E-02  0.221920392419E-01 -0.142177790310E-01 -0.140572825575E-01
 -0.479169410243E-02  0.213904468432E-01  0.120577387275E-01  0.292174801599E-01 -0.285412648658E-02  0.301601202464E-01  0.141758596037E-01
  0.569033728851E-02 -0.431081570301E-02 -0.433371035565E-02 -0.133429904968E-01 -0.483472710423E-02 -0.178153859323E-01  0.424114813160E-01
  0.135387717930E-01  0.146584381887E-01  0.402589164504E-02  0.189728807607E-01  0.123017139369E-01  0.166692820457E-01  0.251026770917E-01
 -0.713637457491E-02 -0.588479259175E-02  0.692593814870E-02  0.746316668558E-02