# vtk DataFile Version 2.0
FUN3D:global_image_vtk
ASCII
DATASET UNSTRUCTURED_GRID
POINTS 213 double
   -0.5474740594603412E-02    0.2504942002468015E+01    0.8038066513743635E-04
    0.1245419060588729E+01    0.2504942002468015E+01    0.1039420355314349E-03
    0.2497696073669951E+01    0.2504942002468015E+01    0.1101293108886628E-03
    0.3750590983903951E+01    0.2504942002468015E+01    0.1356498038757596E-03
    0.5003221377586131E+01    0.2504942002468015E+01    0.9668806236773376E-04
    0.5004676742906220E+01    0.1281291392998363E+01    0.1638058477060338E-03
    0.5004772721058898E+01    0.2775095788685266E-01    0.1903487481412230E-03
    0.5003581212092667E+01   -0.1225853379649929E+01    0.1607772012999224E-03
    0.5001952544222647E+01   -0.2496589018760901E+01    0.1082264471409802E-03
    0.3750348112983221E+01   -0.2496589018760901E+01    0.1458760651341654E-03
    0.2498611454364745E+01   -0.2496589018760901E+01    0.1008938464083789E-03
    0.1247175251993104E+01   -0.2496589018760901E+01    0.1108592957382862E-03
   -0.3383979682904945E-02   -0.2496589018760901E+01    0.8107293234921342E-04
   -0.4257801348440459E-02   -0.1225734687856262E+01    0.3415453547450662E-04
   -0.5251639246460118E-02    0.2619500007965763E-01    0.1038724994497644E-03
   -0.5676116282443482E-02    0.1278221728471008E+01    0.8224550527297114E-04
    0.9003209061970090E+00    0.1608979292482069E+01    0.8704095674000344E-04
    0.3983172219358475E+01   -0.1561211781392466E+01    0.1757125336077086E-03
    0.4035602063492015E+01    0.1486760245757028E+01    0.1713318841098936E-03
    0.1036613695255868E+01   -0.1455626302577312E+01    0.1047193358013068E-03
    0.1094353436962879E+01   -0.2964620547863021E+00    0.1260594408126762E-03
    0.7298399732447656E+00    0.6874686355485904E+00    0.1044597967373442E-03
    0.1617018608574693E+01    0.8553209825042055E+00    0.1529816073164163E-03
    0.2143199643574004E+01   -0.1627128385141894E+01    0.1606178561641695E-03
    0.4088840468516652E+01   -0.4351046315069667E+00    0.2719950835657910E-03
    0.2977916498708485E+01   -0.8334990110939410E+00    0.2245609625897155E-03
    0.3044093234685481E+01   -0.1814361102461422E+01    0.1617007901553173E-03
    0.3427866614749028E+01    0.3813906737475883E+00    0.2936972898189291E-03
    0.4313225393964806E+01    0.5489135241650744E+00    0.2313021604604121E-03
    0.1823032697010121E+01    0.1771265398461594E+01    0.1836207261413097E-03
    0.2806311133387878E+01    0.1358629588153143E+01    0.1943500587783258E-03
    0.1891860842801184E+01   -0.8481308964520641E+00    0.1670653536964832E-03
    0.2268769161311812E+01    0.7723708732351989E-01    0.2072318374128362E-03
    0.5000000000000000E+01    0.2504942002468015E+01    0.1250000000000000E+01
    0.5000000000000000E+01    0.2504942002468015E+01    0.2500000000000000E+01
    0.5000000000000000E+01    0.2504942002468015E+01    0.3750000000000000E+01
    0.5000000000000000E+01    0.2504942002468015E+01    0.5000000000000000E+01
    0.3750000000000000E+01    0.2504942002468015E+01    0.5000000000000000E+01
    0.2500000000000000E+01    0.2504942002468015E+01    0.5000000000000000E+01
    0.1250000000000000E+01    0.2504942002468015E+01    0.5000000000000000E+01
    0.0000000000000000E+00    0.2504942002468015E+01    0.5000000000000000E+01
    0.0000000000000000E+00    0.2504942002468015E+01    0.3750000000000000E+01
    0.0000000000000000E+00    0.2504942002468015E+01    0.2500000000000000E+01
    0.0000000000000000E+00    0.2504942002468015E+01    0.1250000000000000E+01
    0.9588956064218437E+00    0.2504942002468015E+01    0.9696526008694621E+00
    0.3981953079952927E+01    0.2504942002468015E+01    0.4070563859161239E+01
    0.4036122196966513E+01    0.2504942002468015E+01    0.1017567553205740E+01
    0.9637572746747127E+00    0.2504942002468015E+01    0.3973598209858040E+01
    0.1546540127929945E+01    0.2504942002468015E+01    0.2931570189025508E+01
    0.6973799442222208E+00    0.2504942002468015E+01    0.3070319964744883E+01
    0.8903741947279155E+00    0.2504942002468015E+01    0.2056562262665314E+01
    0.2183041993268189E+01    0.2504942002468015E+01    0.3960694458912843E+01
    0.3855844875188856E+01    0.2504942002468015E+01    0.2933250599517384E+01
    0.3152611367489019E+01    0.2504942002468015E+01    0.3637668398431754E+01
    0.3103307385298766E+01    0.2504942002468015E+01    0.4332607818174343E+01
    0.3266711043563173E+01    0.2504942002468015E+01    0.1889656637524572E+01
    0.4232537560766444E+01    0.2504942002468015E+01    0.1918626986171087E+01
    0.1905522338007585E+01    0.2504942002468015E+01    0.7226291174446481E+00
    0.2879767716040243E+01    0.2504942002468015E+01    0.9080946092062977E+00
    0.2012711350767000E+01    0.2504942002468015E+01    0.1767082417726313E+01
    0.2669681469718240E+01    0.2504942002468015E+01    0.2853394351007643E+01
    0.5000000000000000E+01    0.1250000000000000E+01    0.5000000000000000E+01
    0.5000000000000000E+01    0.0000000000000000E+00    0.5000000000000000E+01
    0.5000000000000000E+01   -0.1250000000000000E+01    0.5000000000000000E+01
    0.5000000000000000E+01   -0.2496589018760901E+01    0.5000000000000000E+01
    0.5000000000000000E+01   -0.2496589018760901E+01    0.3750000000000000E+01
    0.5000000000000000E+01   -0.2496589018760901E+01    0.2500000000000000E+01
    0.5000000000000000E+01   -0.2496589018760901E+01    0.1250000000000000E+01
    0.5000000000000000E+01    0.1578994732800803E+01    0.9058375365086910E+00
    0.5000000000000000E+01   -0.1583989954232354E+01    0.3982050490726493E+01
    0.5000000000000000E+01    0.1453322699199022E+01    0.4033849428301197E+01
    0.5000000000000000E+01   -0.1479596339503735E+01    0.1040505887381675E+01
    0.5000000000000000E+01   -0.3227322616384110E+00    0.1099454400140349E+01
    0.5000000000000000E+01    0.6593508822075582E+00    0.7354504170366591E+00
    0.5000000000000000E+01    0.8256214013940779E+00    0.1622302608453282E+01
    0.5000000000000000E+01   -0.1650070333782557E+01    0.2145871574390382E+01
    0.5000000000000000E+01   -0.4612828702537229E+00    0.4086422318222992E+01
    0.5000000000000000E+01   -0.8579242121530853E+00    0.2979540174134984E+01
    0.5000000000000000E+01   -0.1836846154397680E+01    0.3045064261640043E+01
    0.5000000000000000E+01    0.3508002863614053E+00    0.3428197553792836E+01
    0.5000000000000000E+01    0.5185680230613409E+00    0.4309693860063405E+01
    0.5000000000000000E+01    0.1738996113203182E+01    0.1827272193562204E+01
    0.5000000000000000E+01    0.1325493893339706E+01    0.2808563282768077E+01
    0.5000000000000000E+01   -0.8731419609589618E+00    0.1895995683864404E+01
    0.5000000000000000E+01    0.4906150219227333E-01    0.2273179336307740E+01
    0.0000000000000000E+00    0.1250000000000000E+01    0.5000000000000000E+01
    0.0000000000000000E+00    0.0000000000000000E+00    0.5000000000000000E+01
    0.0000000000000000E+00   -0.1250000000000000E+01    0.5000000000000000E+01
    0.0000000000000000E+00   -0.2496589018760901E+01    0.5000000000000000E+01
    0.1250000000000000E+01   -0.2496589018760901E+01    0.5000000000000000E+01
    0.2500000000000000E+01   -0.2496589018760901E+01    0.5000000000000000E+01
    0.3750000000000000E+01   -0.2496589018760901E+01    0.5000000000000000E+01
    0.4042003247744892E+01    0.1558308132739014E+01    0.5000000000000000E+01
    0.9304122287900499E+00   -0.1548001304379777E+01    0.5000000000000000E+01
    0.1037243024609388E+01    0.1462892710085612E+01    0.5000000000000000E+01
    0.3946240828834967E+01   -0.1445243809615570E+01    0.5000000000000000E+01
    0.4092527262848217E+01   -0.3455338993778935E+00    0.5000000000000000E+01
    0.4293103109154542E+01    0.6277660831404320E+00    0.5000000000000000E+01
    0.3241512314643519E+01    0.7429886854239611E+00    0.5000000000000000E+01
    0.2844289952419609E+01   -0.1588117879734118E+01    0.5000000000000000E+01
    0.7159905765450471E+00   -0.6002320124191652E+00    0.5000000000000000E+01
    0.1754341919796891E+01   -0.7398147869923652E+00    0.5000000000000000E+01
    0.1870296826774691E+01   -0.1788622905643739E+01    0.5000000000000000E+01
    0.9220614901912976E+00    0.3083720183248586E+00    0.5000000000000000E+01
    0.3101523624086016E+01    0.1777901774806180E+01    0.5000000000000000E+01
    0.2192512063922564E+01    0.1576861561598471E+01    0.5000000000000000E+01
    0.2024793420196460E+01    0.4773861992750707E+00    0.5000000000000000E+01
    0.2990627757741975E+01   -0.4878110785814084E+00    0.5000000000000000E+01
    0.0000000000000000E+00   -0.2496589018760901E+01    0.1250000000000000E+01
    0.0000000000000000E+00   -0.2496589018760901E+01    0.2500000000000000E+01
    0.0000000000000000E+00   -0.2496589018760901E+01    0.3750000000000000E+01
    0.0000000000000000E+00    0.1558308132739014E+01    0.4042003247744892E+01
    0.0000000000000000E+00   -0.1548001304379777E+01    0.9304122287900499E+00
    0.0000000000000000E+00    0.1462892710085612E+01    0.1037243024609388E+01
    0.0000000000000000E+00   -0.1445243809615570E+01    0.3946240828834967E+01
    0.0000000000000000E+00   -0.3455338993778935E+00    0.4092527262848217E+01
    0.0000000000000000E+00    0.6277660831404320E+00    0.4293103109154542E+01
    0.0000000000000000E+00    0.7429886854239611E+00    0.3241512314643519E+01
    0.0000000000000000E+00   -0.1588117879734118E+01    0.2844289952419609E+01
    0.0000000000000000E+00   -0.6002320124191652E+00    0.7159905765450471E+00
    0.0000000000000000E+00   -0.7398147869923652E+00    0.1754341919796891E+01
    0.0000000000000000E+00   -0.1788622905643739E+01    0.1870296826774691E+01
    0.0000000000000000E+00    0.3083720183248586E+00    0.9220614901912976E+00
    0.0000000000000000E+00    0.1777901774806180E+01    0.3101523624086016E+01
    0.0000000000000000E+00    0.1576861561598471E+01    0.2192512063922564E+01
[...]
POINT_DATA 213
SCALARS p double 1
LOOKUP_TABLE default
   0.9614978589135331E+00
   0.6837139206605766E+00
   0.6757803758500965E+00
   0.6729795050247727E+00
   0.6025668159356340E+00
   0.5529903706405266E+00
   0.5448207244941160E+00
   0.5472411435489697E+00
   0.5935981705043112E+00
   0.6681094313362156E+00
   0.6674269022126768E+00
   0.6868454097349265E+00
   0.1034610452846667E+01
   0.1068138957877500E+01
   0.1176226120909088E+01
   0.1018984205598730E+01
   0.7212834518609358E+00
   0.6793841293009727E+00
   0.6741550562467146E+00
   0.6838877977893975E+00
   0.6724837654600900E+00
   0.7407908194876692E+00
   0.6612912961912699E+00
   0.6658885955315397E+00
   0.6812891176886665E+00
   0.6800258403328797E+00
   0.6679215773454320E+00
   0.6832452489676607E+00
   0.6698992091459867E+00
   0.6645173536543576E+00
   0.6747440326755166E+00
   0.6330217489940219E+00
   0.6731406871745309E+00
   0.6774090073373301E+00
   0.7228904230827357E+00
   0.7222594885024254E+00
   0.7160252664907081E+00
   0.7170624124865551E+00
   0.7181371490237337E+00
   0.7195472903249528E+00
   0.7186021181221713E+00
   0.7227459104281077E+00
   0.7373717395735412E+00
   0.7824864827352376E+00
   0.7199361455971011E+00
   0.7165430888843999E+00
   0.6761646762665422E+00
   0.7194209530755621E+00
   0.7166138098371840E+00
   0.7226382074607621E+00
   0.7259988888488358E+00
   0.7165539959063966E+00
   0.7137104718647868E+00
   0.7161340037900014E+00
   0.7158481075217991E+00
   0.6952718007744029E+00
   0.6963363147773750E+00
   0.6899963345817840E+00
   0.6913937323667458E+00
   0.7035162227314838E+00
   0.7094982993246005E+00
   0.7160805613740354E+00
   0.7162532457890641E+00
   0.7165047976327260E+00
   0.7158941776670494E+00
   0.7248108282070563E+00
   0.7210297775225557E+00
   0.6727684491179018E+00
   0.6453730851389735E+00
   0.7221257479010575E+00
   0.7196816769584327E+00
   0.6359286026387474E+00
   0.6309646883845239E+00
   0.5996006649144729E+00
   0.6915935385439397E+00
   0.7156063048955963E+00
   0.7212071411021764E+00
   0.7290382282784961E+00
   0.7269563442896761E+00
   0.7265130584586362E+00
   0.7204387577851531E+00
   0.7038434639026944E+00
   0.7205084018032626E+00
   0.7023917553090018E+00
   0.7220870858422540E+00
   0.7185215082876726E+00
   0.7171973521157081E+00
   0.7176422779681965E+00
   0.7184068876107025E+00
   0.7193228322352977E+00
   0.7173769681450520E+00
   0.7166139332671942E+00
   0.7163180476175087E+00
   0.7184831412615166E+00
   0.7186364507462398E+00
   0.7154667154633018E+00
   0.7160735422777490E+00
   0.7162721271630227E+00
   0.7172837515385274E+00
   0.7174097538240000E+00
   0.7175461821521524E+00
   0.7187036145585866E+00
   0.7185496900175908E+00
   0.7180710854328500E+00
   0.7177473751592619E+00
   0.7184635431422962E+00
   0.7184262037176553E+00
   0.7175688626638562E+00
   0.7909528711718650E+00
   0.7417757772736210E+00
   0.7240727262209953E+00
   0.7207766597046729E+00
   0.8580988486242782E+00
   0.8086333572444721E+00
   0.7221186700009968E+00
   0.7211544113163495E+00
   0.7210119843249672E+00
   0.7257912689888429E+00
   0.7326193197773482E+00
   0.9164912291078117E+00
   0.7574785685611651E+00
   0.7599344930606243E+00
   0.8799544198190862E+00
   0.7291424293617006E+00
   0.7461093470796828E+00
   0.7436488010315715E+00
   0.7280723525764848E+00
   0.7234032102160844E+00
   0.7165942388750287E+00
   0.6758534208481287E+00
   0.7210183862127896E+00
   0.7177428098030848E+00
   0.7243676622562625E+00
   0.7309116633571999E+00
   0.7153812465151627E+00
   0.7127064907751709E+00
   0.7133116686832136E+00
   0.7154712631459186E+00
   0.6958554816759829E+00
   0.6941116447351926E+00
   0.6792682305689730E+00
   0.6842851225794552E+00
   0.7022969586697527E+00
   0.7064270813262773E+00
   0.7092633014111546E+00
   0.7176243669447536E+00
   0.7173819851760185E+00
   0.7117393556518771E+00
   0.7287958339415239E+00
   0.7352749729922591E+00
   0.7097310477876210E+00
   0.7230291106902310E+00
   0.7189762166285288E+00
   0.7231300258778963E+00
   0.7128914811297119E+00
   0.6922551271268020E+00
   0.7175438445813972E+00
   0.7113543821297263E+00
   0.6973962407529667E+00
   0.7095826449649761E+00
   0.7134670890835124E+00
   0.7079221784817563E+00
   0.7159281140829240E+00
   0.7175547233021654E+00
   0.7167024481908005E+00
   0.7110820832070818E+00
   0.7103504534140032E+00
   0.7187127668456953E+00
   0.7362429892770653E+00
   0.7209843504133072E+00
   0.6967147968867592E+00
   0.7191754314748826E+00
   0.7279860306079625E+00
   0.6958383445594051E+00
   0.6741069029800790E+00
   0.7021098195861823E+00
   0.7007168093315536E+00
   0.6996467081834702E+00
   0.7043902935885921E+00
   0.6878268375228832E+00
   0.7541064632508274E+00
   0.7254178760747249E+00
   0.7163755277443482E+00
   0.7164917751304966E+00
   0.7072936655563750E+00
   0.7062523888038447E+00
   0.6799087278200132E+00
   0.7081437624218098E+00
   0.7212275376035221E+00
   0.7177573195769706E+00
   0.7069389294040843E+00
   0.6847913300745384E+00
   0.6587333778285779E+00
   0.6908605760154122E+00
   0.6956168659405068E+00
   0.6931676624714490E+00
   0.6874255331024913E+00
   0.6732324019928860E+00
   0.6670661892298496E+00
   0.6794786325710905E+00
   0.7172126847867879E+00
   0.7168137650548142E+00
   0.7154590131082136E+00
   0.7175332125008450E+00
   0.6790213858178319E+00
   0.6691923654584507E+00
   0.6792011992697410E+00
   0.7156325581762947E+00
   0.7153048662632994E+00
   0.7168583082723615E+00
   0.6951009341622080E+00
   0.6910740998888947E+00
   0.6839127614323276E+00
SCALARS mach double 1
LOOKUP_TABLE default
   0.0000000000000000E+00
   0.0000000000000000E+00
   0.0000000000000000E+00
   0.0000000000000000E+00
   0.0000000000000000E+00
   0.0000000000000000E+00
   0.0000000000000000E+00
   0.0000000000000000E+00
   0.0000000000000000E+00
   0.0000000000000000E+00
   0.0000000000000000E+00
   0.0000000000000000E+00
   0.0000000000000000E+00
   0.0000000000000000E+00
   0.0000000000000000E+00
   0.0000000000000000E+00
   0.0000000000000000E+00
   0.0000000000000000E+00
   0.0000000000000000E+00
   0.0000000000000000E+00
   0.0000000000000000E+00
   0.0000000000000000E+00
   0.0000000000000000E+00
   0.0000000000000000E+00
   0.0000000000000000E+00
   0.0000000000000000E+00
   0.0000000000000000E+00
   0.0000000000000000E+00
   0.0000000000000000E+00
   0.0000000000000000E+00
   0.0000000000000000E+00
   0.0000000000000000E+00
   0.0000000000000000E+00
   0.5088312218385372E+00
   0.5343398832187296E+00
   0.5171316997163250E+00
   0.4929854841315614E+00
   0.4846111553758131E+00
   0.4865063431849297E+00
   0.4886310090215293E+00
   0.4953654266896401E+00
   0.4890359006819804E+00
   0.4698884179656888E+00
   0.4406735862078793E+00
   0.4916407264451495E+00
   0.5094167137662849E+00
   0.4449642185007672E+00
   0.4945038633707797E+00
   0.5218156924846388E+00
   0.4956473280205446E+00
   0.5224901721403838E+00
   0.5036132274197105E+00
   0.5641414690054989E+00
   0.5240650060345922E+00
   0.4989542488263924E+00
   0.5757199944764104E+00
   0.5734850992167547E+00
   0.3790271377041770E+00
   0.4028385356708696E+00
   0.5625703724046687E+00
   0.5563535248839422E+00
   0.4941640508519596E+00
   0.4947382568895136E+00
   0.4923846123775704E+00
   0.4913239609676003E+00
   0.5150143222790524E+00
   0.5371597052966154E+00
   0.5087717782293305E+00
   0.4717193489941379E+00
   0.5119318743373034E+00
   0.5110120710421127E+00
   0.4958234288295882E+00
   0.5102808358829735E+00
   0.4804341181239600E+00
   0.5352215515306668E+00
   0.5339912712904067E+00
   0.5120149235866571E+00
   0.5312220448015982E+00
   0.5296256649082469E+00
   0.5292664847493074E+00
   0.5056202184860000E+00
   0.5355381351155863E+00
   0.5406801356576504E+00
   0.5432019599681609E+00
   0.5391812729669955E+00
   0.4961284642591318E+00
   0.4972488480213403E+00
   0.4960555979688548E+00
   0.4950905280962454E+00
   0.4899607625889751E+00
   0.4899819698292052E+00
   0.4860201652506607E+00
   0.4853469781110040E+00
   0.4927786283888876E+00
   0.4906143820531759E+00
   0.4831701114265203E+00
   0.4871988513089716E+00
   0.4879477080898294E+00
   0.4870548464286940E+00
   0.4879760245435706E+00
   0.4949485032190292E+00
   0.4896518792287188E+00
   0.4899641418788701E+00
   0.4940586529996964E+00
   0.4865452261049920E+00
   0.4889082134317134E+00
   0.4878275998214697E+00
   0.4875916935666134E+00
   0.4438928339897634E+00
   0.4677419357424667E+00
   0.4881880919199045E+00
   0.4880037603312316E+00
   0.4652391502965741E+00
   0.4746183129415470E+00
   0.4869290211892029E+00
   0.4862775111971998E+00
   0.4902939944538339E+00
   0.4787511112859699E+00
   0.4643579353622778E+00
   0.4025369180848953E+00
   0.4895561701922305E+00
   0.4458521265473708E+00
   0.4686405282532213E+00
   0.4831312083106470E+00
   0.4601268278490229E+00
   0.4641947645227394E+00
   0.4737605896613528E+00
   0.5009574231066738E+00
   0.5082567863603007E+00
   0.4343145712284709E+00
   0.4921487041134011E+00
   0.5318571606720015E+00
   0.4907038860684750E+00
   0.5210449240707684E+00
   0.5060139089216377E+00
   0.5691054130703025E+00
   0.5273540967174251E+00
   0.5013885119190635E+00
   0.5852449900737513E+00
   0.5728187345341658E+00
   0.3432128346388296E+00
   0.3805358624719941E+00
   0.5794988334376756E+00
   0.5676559919459736E+00
   0.5706563586812057E+00
   0.5289496686053491E+00
   0.5445338780982142E+00
   0.5732968309131222E+00
   0.5380261788984606E+00
   0.5543142204310941E+00
   0.5870705561916633E+00
   0.4918699377602581E+00
   0.5037859486012233E+00
   0.4954675699707494E+00
   0.5579106787129489E+00
   0.4897880483219031E+00
   0.4947297064897401E+00
   0.5495413017450006E+00
   0.5911010785483485E+00
   0.5842749692052125E+00
   0.5464465620972508E+00
   0.5813643338425266E+00
   0.5103737825776208E+00
   0.5025855986564668E+00
   0.5030169492871862E+00
   0.5674946537014879E+00
   0.5563848879129698E+00
   0.4944260985095841E+00
   0.5525177745986978E+00
   0.5531768157870067E+00
   0.5691412855878136E+00
   0.4915531729270404E+00
   0.4914345896199940E+00
   0.3895358945238752E+00
   0.3712066339144727E+00
   0.5592301839565564E+00
   0.5782799948583319E+00
   0.4228143657342529E+00
   0.5853096655651496E+00
   0.4396738249131462E+00
   0.5448889726472035E+00
   0.5173408139286858E+00
   0.5115521912150405E+00
   0.5045601398327845E+00
   0.5758760896460099E+00
   0.5886507644879119E+00
   0.5429662458356006E+00
   0.5689502962989179E+00
   0.5342433002167339E+00
   0.5330761212026981E+00
   0.5587863276735771E+00
   0.5561726935885761E+00
   0.4325542115214493E+00
   0.5315407647246135E+00
   0.5814010453117208E+00
   0.3318466230983030E+00
   0.4787100377394727E+00
   0.5494868444692222E+00
   0.4853321582270733E+00
   0.3009889689565654E+00
   0.5030320781685308E+00
   0.5014778742777505E+00
   0.5126265107166362E+00
   0.5406384737080284E+00
   0.3454465553315617E+00
   0.3423329311056946E+00
   0.3205033066460885E+00
   0.5064308449143577E+00
   0.5121496613512717E+00
   0.5322643112405222E+00
   0.5911323255514828E+00
   0.4690725145141711E+00
   0.3540229270132941E+00
SCALARS temperature double 1
LOOKUP_TABLE default
   0.9999999999999989E+00
   0.1000000000000000E+01
   0.9999999999999986E+00
   0.9999999999999996E+00
   0.1000000000000001E+01
   0.9999999999999999E+00
   0.9999999999999986E+00
   0.1000000000000000E+01
   0.1000000000000000E+01
   0.9999999999999996E+00
   0.9999999999999984E+00
   0.1000000000000000E+01
   0.9999999999999989E+00
   0.1000000000000000E+01
   0.9999999999999993E+00
   0.1000000000000000E+01
   0.9999999999999989E+00
   0.9999999999999996E+00
   0.9999999999999994E+00
   0.1000000000000000E+01
   0.1000000000000000E+01
   0.9999999999999998E+00
   0.9999999999999999E+00
   0.1000000000000001E+01
   0.9999999999999997E+00
   0.9999999999999988E+00
   0.9999999999999990E+00
   0.9999999999999997E+00
   0.9999999999999988E+00
   0.9999999999999997E+00
   0.1000000000000000E+01
   0.9999999999999999E+00
   0.1000000000000001E+01
   0.9840766924699841E+00
   0.1003653476544779E+01
   0.1004420126452587E+01
   0.1000475609938368E+01
   0.1000667543634789E+01
   0.1001266956424321E+01
   0.1002147643993742E+01
   0.1001786058142168E+01
   0.1003547845066205E+01
   0.1008257493781607E+01
   0.1029828655413895E+01
   0.9887460565587880E+00
   0.1001379319047022E+01
   0.9813786376396800E+00
   0.1001916853235601E+01
   0.1002512418728922E+01
   0.1002973467986910E+01
   0.1008299894764932E+01
   0.1000819688346220E+01
   0.1001174570373310E+01
   0.1001992364670268E+01
   0.1000565530442495E+01
   0.9904061055984781E+00
   0.9903200485299002E+00
   0.9822768789295533E+00
   0.9886763860019120E+00
   0.9943904018080928E+00
   0.9997739658590398E+00
   0.1000503034079712E+01
   0.1000621246312203E+01
   0.1000832116421149E+01
   0.1000458211793744E+01
   0.1004872400820816E+01
   0.1002923398810981E+01
   0.9851405506999047E+00
   0.9764707113885444E+00
   0.1003894881937498E+01
   0.1003049150139428E+01
   0.9735529822278645E+00
   0.9716289780132085E+00
   0.9590943864005266E+00
   0.9912251802258730E+00
   0.1001318012628744E+01
   0.1003840997602937E+01
   0.1007658967196226E+01
   0.1005991638694732E+01
   0.1006632664539002E+01
   0.1003140613069342E+01
   0.9944053563916418E+00
   0.1003540677334055E+01
   0.9972299338782762E+00
   0.1005299209754576E+01
   0.1001683509507334E+01
   0.1001187040303440E+01
   0.1001344338127503E+01
   0.1001764136678623E+01
   0.1001926016967767E+01
   0.1001100673010094E+01
   0.1000589304788502E+01
   0.1000255001101124E+01
   0.1001799576538161E+01
   0.1001778972482290E+01
   0.1000010993230546E+01
   0.1000223703989078E+01
   0.1000233724429461E+01
   0.1000722829217937E+01
   0.1000990018435802E+01
   0.1001327061439803E+01
   0.1001747116799751E+01
   0.1001637854836138E+01
   0.1001640614659049E+01
   0.1001123605542042E+01
   0.1001523515712093E+01
   0.1001328349581961E+01
   0.1000963610526465E+01
   0.1040248682363298E+01
   0.1009764113575499E+01
   0.1004056014170307E+01
   0.1002445048909384E+01
   0.1032099881232079E+01
   0.1042412777164051E+01
   0.1003034490402041E+01
   0.1002347213889454E+01
   0.1002602996797221E+01
   0.1003016193603136E+01
   0.1006205767025997E+01
   0.1038823969632785E+01
   0.1027054264075727E+01
   0.1016571094110848E+01
   0.1025164760495980E+01
   0.1006040701849023E+01
   0.1011876088011058E+01
   0.1012534665701385E+01
   0.1004593965943986E+01
   0.9842227826135259E+00
   0.1001227074035479E+01
   0.9848195651497730E+00
   0.1002549260218948E+01
   0.1003508880529085E+01
   0.1003279347703916E+01
   0.1010906294836875E+01
   0.1000593393638890E+01
   0.9998572223469943E+00
   0.1000569501130291E+01
   0.1000467828612368E+01
   0.9898393985540914E+00
   0.9900664084262434E+00
   0.9856077418243939E+00
   0.9895991280226868E+00
   0.9917307268369947E+00
   0.9978877937209291E+00
   0.1000411929119093E+01
   0.1002940952426830E+01
   0.1005013233569453E+01
   0.1002304201495888E+01
   0.1013240334795073E+01
   0.1006624027281422E+01
   0.9925110832128496E+00
   0.1003427239857533E+01
   0.1001783881097455E+01
   0.1003323485768134E+01
   0.1001333055477763E+01
   0.9637959530806082E+00
   0.1001232266269056E+01
   0.1000914463629886E+01
   0.9928845851584630E+00
   0.9989578350917898E+00
   0.1001509822120356E+01
   0.9978244479680353E+00
   0.1000986028877644E+01
   0.1001571095221006E+01
   0.1001192195333796E+01
   0.1000807073096389E+01
   0.1000711236069243E+01
   0.1001330102918717E+01
   0.1010428027363624E+01
   0.1004016025647236E+01
   0.9935773192088320E+00
   0.1001861514102989E+01
   0.1006721551377065E+01
   0.9866343624765476E+00
   0.9880898532983058E+00
   0.9963775435186217E+00
   0.9943329123316377E+00
   0.9874004464084213E+00
   0.9926519656949874E+00
   0.9667653950145465E+00
   0.1017682739303182E+01
   0.9829860332626882E+00
   0.1001480553211930E+01
   0.1001157278671394E+01
   0.9989734920795085E+00
   0.9976202602957716E+00
   0.9864692511067695E+00
   0.9980153499649236E+00
   0.1003607541148186E+01
   0.1002892518692604E+01
   0.9988414061466113E+00
   0.9840722719444714E+00
   0.9789338898036959E+00
   0.9847752577248584E+00
   0.9942687177112611E+00
   0.1000002848519345E+01
   0.9900355196175782E+00
   0.9861267711768554E+00
   0.9832567146845012E+00
   0.9982055305114048E+00
   0.1001457362038233E+01
   0.1001060996952238E+01
   0.1001129180850403E+01
   0.1002865874867997E+01
   0.9892036306303194E+00
   0.9869666927389579E+00
   0.9919079776798211E+00
   0.1000763851691916E+01
   0.1000926231600944E+01
   0.1002437844272640E+01
   0.9922495829203262E+00
   0.9866861438654230E+00
   0.9943511063926215E+00
SCALARS lambda1 double 1
LOOKUP_TABLE default
   0.6101010783837427E-02
   0.3842366591156113E-02
   0.1321731398896493E-02
  -0.1707205044291179E-02
  -0.2823245600771695E-02
  -0.2506312603164018E-02
  -0.3267084113465889E-02
  -0.2128266348053833E-02
  -0.2523336516597132E-02
  -0.1978469914487017E-02
  -0.1214764082871924E-02
   0.2415678345870611E-02
   0.3085831194867661E-02
   0.1705680063471461E-02
   0.5121202914756057E-02
   0.6984579767877685E-02
   0.4208437226564343E-02
  -0.2260646825033995E-02
  -0.2396694706296900E-02
   0.1992478537039404E-02
   0.1472988009823624E-02
   0.3516890679549343E-02
   0.1479645480977525E-02
   0.9927002745017197E-04
  -0.2621975842565398E-02
  -0.2430803359590587E-03
  -0.1951139736585997E-03
  -0.1086885971046116E-02
  -0.2648707688206969E-02
   0.1598710006929651E-02
   0.3063452779013561E-03
   0.1438689872103821E-02
   0.6215807148159364E-03
  -0.9670571714233108E-02
  -0.4628530890613343E-02
  -0.3152108663314736E-02
  -0.2987579045188716E-02
  -0.1299921761869599E-01
  -0.2395844194670965E-01
  -0.2562494122756611E-01
  -0.3398583007494854E-01
  -0.9311475098349132E-02
  -0.1649904734362190E-02
   0.3067197349980108E-01
   0.4117035594192000E-01
  -0.2403616546586670E-02
   0.1561585933655090E-01
  -0.8336953267033868E-02
  -0.5173439018945087E-02
  -0.4509744003556517E-02
   0.1181267297100696E-02
  -0.3153054100219860E-02
  -0.3803467194194748E-02
  -0.2303603701616792E-02
  -0.3674614194329046E-02
  -0.4924414763841358E-02
  -0.6092979002108978E-02
   0.6079564457643234E-01
   0.6109832642998355E-01
   0.1010266847295934E-01
  -0.5353213477704268E-02
  -0.2973513305630295E-02
  -0.2761748448586904E-02
  -0.3368590678277836E-02
  -0.3456911440947617E-02
  -0.2970101981337757E-02
  -0.4425615350749436E-02
  -0.6595535544171196E-02
  -0.1215046966293753E-01
  -0.2426430672202470E-02
  -0.2527772747656971E-02
  -0.4393043433073449E-02
  -0.5488965391303204E-02
  -0.3423489108577289E-02
  -0.6990323843874119E-02
  -0.5106108040726913E-02
  -0.2215836254884258E-02
  -0.3795970509760569E-02
  -0.3704483682969223E-02
  -0.3247744109043475E-02
  -0.2011453973909629E-02
  -0.6197503440303355E-02
  -0.4016836438306462E-02
  -0.5434807094069364E-02
  -0.4873467144827164E-02
  -0.3518984373644682E-01
  -0.3878665294608240E-01
  -0.3423096210004118E-01
  -0.3217125485752829E-01
  -0.2893794134153395E-01
  -0.2542524411883954E-01
  -0.1323177478728850E-01
  -0.9036229337447386E-02
  -0.2891760492445816E-01
  -0.2553087866468184E-01
  -0.8701973593556529E-02
  -0.1108091082155323E-01
  -0.1106932625410311E-01
  -0.1872586559226483E-01
  -0.1986197613454625E-01
  -0.3605883986636581E-01
  -0.3288579502304406E-01
  -0.3060164231263988E-01
  -0.3112525487946109E-01
  -0.1992433542559836E-01
  -0.2485953279934009E-01
  -0.2672067881255824E-01
  -0.2110496217772816E-01
   0.2487629057576027E-01
  -0.3610174817885502E-02
  -0.6971488947892917E-02
  -0.9333843168219939E-02
   0.3856757307059210E-01
   0.4928426244136783E-01
  -0.6331545160465761E-02
  -0.8126727995671098E-02
  -0.1213610172389896E-01
  -0.7019699419482934E-02
  -0.4437456310738373E-02
   0.5827380195886148E-01
   0.3293054155251683E-02
   0.1865890672116618E-02