# vtk DataFile Version 2.0
FUN3D:global_image_vtk
ASCII
DATASET UNSTRUCTURED_GRID
POINTS 213 double
   -0.5474685439967486E-02    0.2504941971164942E+01    0.8038139960964187E-04
    0.1245419105184686E+01    0.2504941971164942E+01    0.1039425201701522E-03
    0.2497696093128755E+01    0.2504941971164942E+01    0.1101298317049970E-03
    0.3750590968914216E+01    0.2504941971164942E+01    0.1356499165603986E-03
    0.5003221331739129E+01    0.2504941971164942E+01    0.9668874725743404E-04
    0.5004676687975742E+01    0.1281291202152741E+01    0.1638053143207530E-03
    0.5004772673775125E+01    0.2775079905233848E-01    0.1903478087815145E-03
    0.5003581183339178E+01   -0.1225853508894243E+01    0.1607765240893011E-03
    0.5001952533741209E+01   -0.2496589036643189E+01    0.1082258885553022E-03
    0.3750348111606281E+01   -0.2496589036643189E+01    0.1458753688603487E-03
    0.2498611462995454E+01   -0.2496589036643189E+01    0.1008933252991118E-03
    0.1247175269334494E+01   -0.2496589036643189E+01    0.1108587603892430E-03
   -0.3383959864258212E-02   -0.2496589036643189E+01    0.8107259423079749E-04
   -0.4257768978007448E-02   -0.1225734811654061E+01    0.3415458924127535E-04
   -0.5251592446427367E-02    0.2619486023170364E-01    0.1038724443567230E-03
   -0.5676060310338293E-02    0.1278221569052081E+01    0.8224602661344171E-04
    0.9003209617971899E+00    0.1608979112265720E+01    0.8704141841042734E-04
    0.3983172210691512E+01   -0.1561211904850504E+01    0.1757116742180931E-03
    0.4035602039222561E+01    0.1486760030399887E+01    0.1713312987615678E-03
    0.1036613723304496E+01   -0.1455626429928028E+01    0.1047189316801811E-03
    0.1094353480632864E+01   -0.2964622010795518E+00    0.1260590288131858E-03
    0.7298400267501686E+00    0.6874684746584809E+00    0.1044598721227086E-03
    0.1617018659310913E+01    0.8553208024797971E+00    0.1529810995186676E-03
    0.2143199662876846E+01   -0.1627128509227246E+01    0.1606170439217847E-03
    0.4088840445399218E+01   -0.4351047826055321E+00    0.2719933352877679E-03
    0.2977916511249375E+01   -0.8334991483205951E+00    0.2245596973365904E-03
    0.3044093241383677E+01   -0.1814361225118786E+01    0.1617000123376177E-03
    0.3427866614804713E+01    0.3813904839830199E+00    0.2936955566598121E-03
    0.4313225355349219E+01    0.5489133376202769E+00    0.2313009667567756E-03
    0.1823032737598566E+01    0.1771265193528794E+01    0.1836203008615533E-03
    0.2806311152168623E+01    0.1358629373584938E+01    0.1943492277461378E-03
    0.1891860875938377E+01   -0.8481310365723637E+00    0.1670645539069149E-03
    0.2268769200168568E+01    0.7723691817875740E-01    0.2072307851107569E-03
    0.5000000000000000E+01    0.2504941971164942E+01    0.1250000000000000E+01
    0.5000000000000000E+01    0.2504941971164942E+01    0.2500000000000000E+01
    0.5000000000000000E+01    0.2504941971164942E+01    0.3750000000000000E+01
    0.5000000000000000E+01    0.2504941971164942E+01    0.5000000000000000E+01
    0.3750000000000000E+01    0.2504941971164942E+01    0.5000000000000000E+01
    0.2500000000000000E+01    0.2504941971164942E+01    0.5000000000000000E+01
    0.1250000000000000E+01    0.2504941971164942E+01    0.5000000000000000E+01
    0.0000000000000000E+00    0.2504941971164942E+01    0.5000000000000000E+01
    0.0000000000000000E+00    0.2504941971164942E+01    0.3750000000000000E+01
    0.0000000000000000E+00    0.2504941971164942E+01    0.2500000000000000E+01
    0.0000000000000000E+00    0.2504941971164942E+01    0.1250000000000000E+01
    0.9588956434885912E+00    0.2504941971164942E+01    0.9696525519612400E+00
    0.3981953078951662E+01    0.2504941971164942E+01    0.4070563854752572E+01
    0.4036122187250703E+01    0.2504941971164942E+01    0.1017567520104999E+01
    0.9637572773150577E+00    0.2504941971164942E+01    0.3973598203143470E+01
    0.1546540136992009E+01    0.2504941971164942E+01    0.2931570169319381E+01
    0.6973799521240369E+00    0.2504941971164942E+01    0.3070319952455877E+01
    0.8903742148357056E+00    0.2504941971164942E+01    0.2056562238191877E+01
    0.2183041995145804E+01    0.2504941971164942E+01    0.3960694449830124E+01
    0.3855844872710128E+01    0.2504941971164942E+01    0.2933250588122099E+01
    0.3152611367438090E+01    0.2504941971164942E+01    0.3637668388418907E+01
    0.3103307385241952E+01    0.2504941971164942E+01    0.4332607813101073E+01
    0.3266711045517642E+01    0.2504941971164942E+01    0.1889656617471646E+01
    0.4232537554484983E+01    0.2504941971164942E+01    0.1918626969806651E+01
    0.1905522374037473E+01    0.2504941971164942E+01    0.7226290832243493E+00
    0.2879767723644874E+01    0.2504941971164942E+01    0.9080945892309473E+00
    0.2012711365064098E+01    0.2504941971164942E+01    0.1767082390985820E+01
    0.2669681472994406E+01    0.2504941971164942E+01    0.2853394335015870E+01
    0.5000000000000000E+01    0.1250000000000000E+01    0.5000000000000000E+01
    0.5000000000000000E+01    0.0000000000000000E+00    0.5000000000000000E+01
    0.5000000000000000E+01   -0.1250000000000000E+01    0.5000000000000000E+01
    0.5000000000000000E+01   -0.2496589036643189E+01    0.5000000000000000E+01
    0.5000000000000000E+01   -0.2496589036643189E+01    0.3750000000000000E+01
    0.5000000000000000E+01   -0.2496589036643189E+01    0.2500000000000000E+01
    0.5000000000000000E+01   -0.2496589036643189E+01    0.1250000000000000E+01
    0.5000000000000000E+01    0.1578994732800803E+01    0.9058375365086910E+00
    0.5000000000000000E+01   -0.1583989954232354E+01    0.3982050490726493E+01
    0.5000000000000000E+01    0.1453322699199022E+01    0.4033849428301197E+01
    0.5000000000000000E+01   -0.1479596339503735E+01    0.1040505887381675E+01
    0.5000000000000000E+01   -0.3227322616384110E+00    0.1099454400140349E+01
    0.5000000000000000E+01    0.6593508822075582E+00    0.7354504170366591E+00
    0.5000000000000000E+01    0.8256214013940779E+00    0.1622302608453282E+01
    0.5000000000000000E+01   -0.1650070333782557E+01    0.2145871574390382E+01
    0.5000000000000000E+01   -0.4612828702537229E+00    0.4086422318222992E+01
    0.5000000000000000E+01   -0.8579242121530853E+00    0.2979540174134984E+01
    0.5000000000000000E+01   -0.1836846154397680E+01    0.3045064261640043E+01
    0.5000000000000000E+01    0.3508002863614053E+00    0.3428197553792836E+01
    0.5000000000000000E+01    0.5185680230613409E+00    0.4309693860063405E+01
    0.5000000000000000E+01    0.1738996113203182E+01    0.1827272193562204E+01
    0.5000000000000000E+01    0.1325493893339706E+01    0.2808563282768077E+01
    0.5000000000000000E+01   -0.8731419609589618E+00    0.1895995683864404E+01
    0.5000000000000000E+01    0.4906150219227333E-01    0.2273179336307740E+01
    0.0000000000000000E+00    0.1250000000000000E+01    0.5000000000000000E+01
    0.0000000000000000E+00    0.0000000000000000E+00    0.5000000000000000E+01
    0.0000000000000000E+00   -0.1250000000000000E+01    0.5000000000000000E+01
    0.0000000000000000E+00   -0.2496589036643189E+01    0.5000000000000000E+01
    0.1250000000000000E+01   -0.2496589036643189E+01    0.5000000000000000E+01
    0.2500000000000000E+01   -0.2496589036643189E+01    0.5000000000000000E+01
    0.3750000000000000E+01   -0.2496589036643189E+01    0.5000000000000000E+01
    0.4042003247744892E+01    0.1558308132739014E+01    0.5000000000000000E+01
    0.9304122287900499E+00   -0.1548001304379777E+01    0.5000000000000000E+01
    0.1037243024609388E+01    0.1462892710085612E+01    0.5000000000000000E+01
    0.3946240828834967E+01   -0.1445243809615570E+01    0.5000000000000000E+01
    0.4092527262848217E+01   -0.3455338993778935E+00    0.5000000000000000E+01
    0.4293103109154542E+01    0.6277660831404320E+00    0.5000000000000000E+01
    0.3241512314643519E+01    0.7429886854239611E+00    0.5000000000000000E+01
    0.2844289952419609E+01   -0.1588117879734118E+01    0.5000000000000000E+01
    0.7159905765450471E+00   -0.6002320124191652E+00    0.5000000000000000E+01
    0.1754341919796891E+01   -0.7398147869923652E+00    0.5000000000000000E+01
    0.1870296826774691E+01   -0.1788622905643739E+01    0.5000000000000000E+01
    0.9220614901912976E+00    0.3083720183248586E+00    0.5000000000000000E+01
    0.3101523624086016E+01    0.1777901774806180E+01    0.5000000000000000E+01
    0.2192512063922564E+01    0.1576861561598471E+01    0.5000000000000000E+01
    0.2024793420196460E+01    0.4773861992750707E+00    0.5000000000000000E+01
    0.2990627757741975E+01   -0.4878110785814084E+00    0.5000000000000000E+01
    0.0000000000000000E+00   -0.2496589036643189E+01    0.1250000000000000E+01
    0.0000000000000000E+00   -0.2496589036643189E+01    0.2500000000000000E+01
    0.0000000000000000E+00   -0.2496589036643189E+01    0.3750000000000000E+01
    0.0000000000000000E+00    0.1558308132739014E+01    0.4042003247744892E+01
    0.0000000000000000E+00   -0.1548001304379777E+01    0.9304122287900499E+00
    0.0000000000000000E+00    0.1462892710085612E+01    0.1037243024609388E+01
    0.0000000000000000E+00   -0.1445243809615570E+01    0.3946240828834967E+01
    0.0000000000000000E+00   -0.3455338993778935E+00    0.4092527262848217E+01
    0.0000000000000000E+00    0.6277660831404320E+00    0.4293103109154542E+01
    0.0000000000000000E+00    0.7429886854239611E+00    0.3241512314643519E+01
    0.0000000000000000E+00   -0.1588117879734118E+01    0.2844289952419609E+01
    0.0000000000000000E+00   -0.6002320124191652E+00    0.7159905765450471E+00
    0.0000000000000000E+00   -0.7398147869923652E+00    0.1754341919796891E+01
    0.0000000000000000E+00   -0.1788622905643739E+01    0.1870296826774691E+01
    0.0000000000000000E+00    0.3083720183248586E+00    0.9220614901912976E+00
    0.0000000000000000E+00    0.1777901774806180E+01    0.3101523624086016E+01
    0.0000000000000000E+00    0.1576861561598471E+01    0.2192512063922564E+01
[...]
POINT_DATA 213
SCALARS rho double 1
LOOKUP_TABLE default
   0.1346108317738225E+01
   0.9572040003142805E+00
   0.9461172181521001E+00
   0.9421724428214271E+00
   0.8436076760233421E+00
   0.7742023696851562E+00
   0.7627583550837812E+00
   0.7661562019562214E+00
   0.8310489481890405E+00
   0.9353548247720861E+00
   0.9343897292011386E+00
   0.9616167928998264E+00
   0.1448475455181442E+01
   0.1495420695015982E+01
   0.1646729697059635E+01
   0.1426611752212103E+01
   0.1009807295399259E+01
   0.9511451604162590E+00
   0.9438202818446998E+00
   0.9574649710476123E+00
   0.9414971313583744E+00
   0.1037119051147073E+01
   0.9258166087193478E+00
   0.9322402500312549E+00
   0.9538058258524897E+00
   0.9520452721647983E+00
   0.9351035437803200E+00
   0.9565496454893674E+00
   0.9378638722693620E+00
   0.9303460523734925E+00
   0.9446467738431268E+00
   0.8862352683388998E+00
   0.9424046355576019E+00
   0.9637013743528979E+00
   0.1008356272045756E+01
   0.1006712429704522E+01
   0.1001958930227456E+01
   0.1003217522149588E+01
   0.1004120116011910E+01
   0.1005208064935948E+01
   0.1004249961631008E+01
   0.1008268330146684E+01
   0.1023869441090105E+01
   0.1063755461308578E+01
   0.1019394088407150E+01
   0.1001777911866235E+01
   0.9645774234017080E+00
   0.1005263328310890E+01
   0.1000745736304673E+01
   0.1008696549340339E+01
   0.1008037948487186E+01
   0.1002353862084454E+01
   0.9980195530533823E+00
   0.1000592769379005E+01
   0.1001620641895112E+01
   0.9828039327165925E+00
   0.9843899727425847E+00
   0.9834136050984325E+00
   0.9790327234721529E+00
   0.9904757376588823E+00
   0.9935193469110833E+00
   0.1002008894366575E+01
   0.1002132240762957E+01
   0.1002273087538984E+01
   0.1001793578319838E+01
   0.1009816088028523E+01
   0.1006507955581123E+01
   0.9561125618525336E+00
   0.9252807409649307E+00
   0.1007053966729601E+01
   0.1004490981237122E+01
   0.9145128353669321E+00
   0.9091570309160494E+00
   0.8752463083349517E+00
   0.9767979598294027E+00
   0.1000541360254249E+01
   0.1005826549293301E+01
   0.1012896701639435E+01
   0.1011680292154008E+01
   0.1010415973610207E+01
   0.1005456587398212E+01
   0.9909167515881780E+00
   0.1005149610904593E+01
   0.9860895085696468E+00
   0.1005593206424983E+01
   0.1004239922260033E+01
   0.1002885969238329E+01
   0.1003350063102757E+01
   0.1003997944153162E+01
   0.1005115344780281E+01
   0.1003223209728848E+01
   0.1002669123792532E+01
   0.1002589508090172E+01
   0.1004069040402231E+01
   0.1004304991216346E+01
   0.1001643157121913E+01
   0.1002279136473808E+01
   0.1002546782052664E+01
   0.1003472000635322E+01
   0.1003380240410096E+01
   0.1003233137321498E+01
   0.1004429899256085E+01
   0.1004324039449640E+01
   0.1003653018161348E+01
   0.1003718560723214E+01
   0.1004319243078277E+01
   0.1004462563088165E+01
   0.1003629396249658E+01
   0.1064485256971443E+01
   0.1028442061877995E+01
   0.1009605873481378E+01
   0.1006626987316209E+01
   0.1163967546632893E+01
   0.1086026686867705E+01
   0.1007907087234613E+01
   0.1007251825971415E+01
   0.1006796456348204E+01
   0.1013053883357716E+01
   0.1019340792162152E+01
   0.1235123173793355E+01
   0.1032535565226790E+01
   0.1046565481045993E+01
   0.1201701822456579E+01
   0.1014672138200917E+01
   0.1032297498407718E+01
   0.1028222183458625E+01
   0.1014640520488337E+01
   0.1028986927174817E+01
   0.1002003667388753E+01
   0.9608147833382620E+00
   0.1006858072276388E+01
   0.1001324898710284E+01
   0.1010798261883183E+01
   0.1012231336389738E+01
   0.1000939569622912E+01
   0.9979357843593644E+00
   0.9980690509530198E+00
   0.1001192040858155E+01
   0.9842100791005107E+00
   0.9815228436589514E+00
   0.9648740511483895E+00
   0.9680944439840772E+00
   0.9914084286962107E+00
   0.9910913083218964E+00
   0.9925587124691316E+00
   0.1001727549537413E+01
   0.9993245747491302E+00
   0.9941434371402713E+00
   0.1006982475142194E+01
   0.1022613019645578E+01
   0.1001120639188601E+01
   0.1008783935630119E+01
   0.1004774772961424E+01
   0.1009030410979802E+01
   0.9967211494038579E+00
   0.1005570715703330E+01
   0.1003324760150953E+01
   0.9949845985052898E+00
   0.9833501663347261E+00
   0.9944494689189798E+00
   0.9973474193119068E+00
   0.9932503760545813E+00
   0.1001311884937933E+01
   0.1003000708411506E+01
   0.1002188291623117E+01
   0.9947120026310325E+00
   0.9937832198134688E+00
   0.1004861704710563E+01
   0.1020101282092277E+01
   0.1005337230032874E+01
   0.9817045977917904E+00
   0.1004974596098726E+01
   0.1012374662704069E+01
   0.9873720330966754E+00
   0.9551284415334378E+00
   0.9865253757251792E+00
   0.9865916535137954E+00
   0.9920067170068311E+00
   0.9934435621227607E+00
   0.9960682556240453E+00
   0.1037400105971178E+01
   0.1033161102369923E+01
   0.1001442942606702E+01
   0.1001928635210308E+01
   0.9912313107693370E+00
   0.9911145323014491E+00
   0.9649433997965485E+00
   0.9933790317030065E+00
   0.1006090796374821E+01
   0.1001963018638443E+01
   0.9908628976641463E+00
   0.9742169956408128E+00
   0.9420656175256462E+00
   0.9821543956284479E+00
   0.9794783302487792E+00
   0.9704368617888400E+00
   0.9720887191163764E+00
   0.9557898415929438E+00
   0.9498086708348545E+00
   0.9529904619488353E+00
   0.1002635788534134E+01
   0.1002475631496509E+01
   0.1000513073337407E+01
   0.1001674838573973E+01
   0.9610035235084844E+00
   0.9492443250684919E+00
   0.9586632962697769E+00
   0.1001121360710837E+01
   0.1000501199869848E+01
   0.1001159801548930E+01
   0.9807420385041946E+00
   0.9805568736648708E+00
   0.9629217555051687E+00
SCALARS u double 1
LOOKUP_TABLE default
   0.0000000000000000E+00
   0.0000000000000000E+00
   0.0000000000000000E+00
   0.0000000000000000E+00
   0.0000000000000000E+00
   0.0000000000000000E+00
   0.0000000000000000E+00
   0.0000000000000000E+00
   0.0000000000000000E+00
   0.0000000000000000E+00
   0.0000000000000000E+00
   0.0000000000000000E+00
   0.0000000000000000E+00
   0.0000000000000000E+00
   0.0000000000000000E+00
   0.0000000000000000E+00
   0.0000000000000000E+00
   0.0000000000000000E+00
   0.0000000000000000E+00
   0.0000000000000000E+00
   0.0000000000000000E+00
   0.0000000000000000E+00
   0.0000000000000000E+00
   0.0000000000000000E+00
   0.0000000000000000E+00
   0.0000000000000000E+00
   0.0000000000000000E+00
   0.0000000000000000E+00
   0.0000000000000000E+00
   0.0000000000000000E+00
   0.0000000000000000E+00
   0.0000000000000000E+00
   0.0000000000000000E+00
   0.4945973676716036E+00
   0.5336248050998385E+00
   0.5182740405026197E+00
   0.4930714246727447E+00
   0.4847754204671246E+00
   0.4868132652840541E+00
   0.4891430743794430E+00
   0.4958009013711061E+00
   0.4899007394367317E+00
   0.4718072595516364E+00
   0.4448872821218926E+00
   0.4844369959599372E+00
   0.5097703333328578E+00
   0.4401859473730496E+00
   0.4949587096808829E+00
   0.5223003573063292E+00
   0.4962747030339628E+00
   0.5223832221767818E+00
   0.5038168244457629E+00
   0.5644336964124737E+00
   0.5245894641955288E+00
   0.4990985097449433E+00
   0.5729201586789279E+00
   0.5693592828344514E+00
   0.3752192378085826E+00
   0.4003638955228569E+00
   0.5599389981566327E+00
   0.5562259014290216E+00
   0.4942640825346868E+00
   0.4948651959008233E+00
   0.4925619071435179E+00
   0.4913967782798158E+00
   0.5162597182597004E+00
   0.5363670730796147E+00
   0.4951374105350912E+00
   0.4520512887831560E+00
   0.5129007653019945E+00
   0.5117699763793544E+00
   0.4786317416690314E+00
   0.4931122295778939E+00
   0.4600270408089777E+00
   0.5242595706488701E+00
   0.5299947205934813E+00
   0.5129700678064157E+00
   0.5328928661431375E+00
   0.5309782654865360E+00
   0.5309767612124126E+00
   0.5063651340812798E+00
   0.5279536185099154E+00
   0.5409238855682443E+00
   0.5363719066560982E+00
   0.5374201320427359E+00
   0.4965358978849210E+00
   0.4975364856667506E+00
   0.4963815196793396E+00
   0.4955155009542786E+00
   0.4904172548008763E+00
   0.4902500217278749E+00
   0.4861611309349534E+00
   0.4854067563846435E+00
   0.4931955989241613E+00
   0.4910329667501642E+00
   0.4831677513280001E+00
   0.4872468806205938E+00
   0.4880024273557933E+00
   0.4872312392410191E+00
   0.4882163845414934E+00
   0.4952576816819253E+00
   0.4900721163870280E+00
   0.4903599278514292E+00
   0.4944353025708347E+00
   0.4868191758227234E+00
   0.4892735511625131E+00
   0.4881467930175693E+00
   0.4878252395582689E+00
   0.4449106779399593E+00
   0.4700132874380320E+00
   0.4891774917037090E+00
   0.4885974634253702E+00
   0.4510294626413921E+00
   0.4681803399039245E+00
   0.4876666906711926E+00
   0.4868262749639823E+00
   0.4909268403770295E+00
   0.4793945542751956E+00
   0.4657906776422509E+00
   0.3794391072435042E+00
   0.4903637343643585E+00
   0.4487969160862258E+00
   0.4432386723495773E+00
   0.4845716406866097E+00
   0.4621867850207930E+00
   0.4663606658385112E+00
   0.4747787028775152E+00
   0.4893811124871872E+00
   0.5085638676831562E+00
   0.4305372589996977E+00
   0.4927298036217519E+00
   0.5320327256134491E+00
   0.4913855405923971E+00
   0.5209473688206865E+00
   0.5061309364748949E+00
   0.5690650994137624E+00
   0.5274990552058291E+00
   0.5015024129322205E+00
   0.5821782454351195E+00
   0.5691769249773024E+00
   0.3403300368068736E+00
   0.3786151438879334E+00
   0.5753346481991896E+00
   0.5668543263748630E+00
   0.5703059562608939E+00
   0.5291879205908301E+00
   0.5449837175722191E+00
   0.5719102639674840E+00
   0.5385667386504398E+00
   0.5475905556008176E+00
   0.5821515963614188E+00
   0.4925318968184110E+00
   0.5041571115630379E+00
   0.4961293264619778E+00
   0.5562736233515825E+00
   0.4757837007206056E+00
   0.4950183184105460E+00
   0.5496188055893129E+00
   0.5889517159110697E+00
   0.5839552612846964E+00
   0.5468175663690765E+00
   0.5803880219295987E+00
   0.5106065646390971E+00
   0.5029552652726573E+00
   0.5033112976690256E+00
   0.5676222186631409E+00
   0.5564619505362965E+00
   0.4947144958962392E+00
   0.5506785366044032E+00
   0.5513581031486788E+00
   0.5658250452770157E+00
   0.4919965129117215E+00
   0.4927864167846643E+00
   0.3865373443010128E+00
   0.3687905803018829E+00
   0.5574396398628817E+00
   0.5761715377274207E+00
   0.4194266699498737E+00
   0.5822960129555285E+00
   0.4268170192266821E+00
   0.5397379314474627E+00
   0.5016136015876366E+00
   0.5119237866560008E+00
   0.5048466767132853E+00
   0.5752734470960326E+00
   0.5878359740237684E+00
   0.5382541024060844E+00
   0.5679685703739475E+00
   0.5351985017003066E+00
   0.5338430667077749E+00
   0.5582271984932258E+00
   0.5511430282724755E+00
   0.4256686664763006E+00
   0.5272843689872722E+00
   0.5796789075550741E+00
   0.3318300656974811E+00
   0.4761646063300077E+00
   0.5446507502830554E+00
   0.4800729074137361E+00
   0.3006193626694172E+00
   0.5031625583208826E+00
   0.5017187251077663E+00
   0.5129125397540280E+00
   0.5414131226886664E+00
   0.3435098576660393E+00
   0.3397971776305729E+00
   0.3190373712282067E+00
   0.5066176552769236E+00
   0.5123823894993204E+00
   0.5329091200082597E+00
   0.5881345096612801E+00
   0.4645017929032543E+00
   0.3529492324448159E+00
SCALARS v double 1
LOOKUP_TABLE default
   0.0000000000000000E+00
   0.0000000000000000E+00
   0.0000000000000000E+00
   0.0000000000000000E+00
   0.0000000000000000E+00
   0.0000000000000000E+00
   0.0000000000000000E+00
   0.0000000000000000E+00
   0.0000000000000000E+00
   0.0000000000000000E+00
   0.0000000000000000E+00
   0.0000000000000000E+00
   0.0000000000000000E+00
   0.0000000000000000E+00
   0.0000000000000000E+00
   0.0000000000000000E+00
   0.0000000000000000E+00
   0.0000000000000000E+00
   0.0000000000000000E+00
   0.0000000000000000E+00
   0.0000000000000000E+00
   0.0000000000000000E+00
   0.0000000000000000E+00
   0.0000000000000000E+00
   0.0000000000000000E+00
   0.0000000000000000E+00
   0.0000000000000000E+00
   0.0000000000000000E+00
   0.0000000000000000E+00
   0.0000000000000000E+00
   0.0000000000000000E+00
   0.0000000000000000E+00
   0.0000000000000000E+00
   0.0000000000000000E+00
   0.0000000000000000E+00
   0.0000000000000000E+00
   0.0000000000000000E+00
   0.0000000000000000E+00
   0.0000000000000000E+00
   0.0000000000000000E+00
   0.0000000000000000E+00
   0.0000000000000000E+00
   0.0000000000000000E+00
   0.0000000000000000E+00
   0.0000000000000000E+00
   0.0000000000000000E+00
   0.0000000000000000E+00
   0.0000000000000000E+00
   0.0000000000000000E+00
   0.0000000000000000E+00
   0.0000000000000000E+00
   0.0000000000000000E+00
   0.0000000000000000E+00
   0.0000000000000000E+00
   0.0000000000000000E+00
   0.0000000000000000E+00
   0.0000000000000000E+00
   0.0000000000000000E+00
   0.0000000000000000E+00
   0.0000000000000000E+00
   0.0000000000000000E+00
   0.8508087604868430E-03
  -0.1263768294276715E-02
  -0.1294462290885401E-02
   0.0000000000000000E+00
   0.0000000000000000E+00
   0.0000000000000000E+00
   0.0000000000000000E+00
  -0.1933168872953914E-01
   0.5037574427274119E-03
   0.2213187668047496E-02
   0.1420877728615254E-01
  -0.6733052057313988E-02
  -0.8155351496680131E-02
  -0.1324509408387833E-01
   0.5002686646644023E-02
   0.7354203600792342E-03
   0.3481250992181280E-02
   0.1949284095459481E-02
   0.3168726343599119E-02
   0.1754938852911489E-02
  -0.7289644564103114E-02
  -0.6647994825128919E-04
   0.4565692456503224E-02
  -0.4086285584701824E-03
  -0.6653961586014085E-04
  -0.2024326678681524E-03
   0.8053625868900472E-03
   0.0000000000000000E+00
   0.0000000000000000E+00
   0.0000000000000000E+00
   0.0000000000000000E+00
   0.4740180262355501E-03
   0.1623476417752429E-02
  -0.1273520598877011E-02
  -0.9988440165362746E-03
  -0.2077605635858655E-02
  -0.9970531558825535E-03
  -0.7512717498607096E-03
  -0.7430899932711187E-03
   0.6013924854525645E-04
  -0.5976419970136686E-03
   0.8032999053629988E-03
  -0.1730546608718767E-02
   0.3140946093266788E-03
  -0.5786514600390477E-04
  -0.8901903974876423E-03
  -0.1053196722449135E-02
   0.0000000000000000E+00
   0.0000000000000000E+00
   0.0000000000000000E+00
  -0.1035474866288650E-02
  -0.7791748257854592E-02
   0.1821117417087416E-01
  -0.2907384274864331E-04
  -0.1376998538590338E-02
  -0.2028315738963700E-02
  -0.5613334377086645E-02
  -0.1620479268185341E-02
  -0.6358834941024744E-02
  -0.4327530179220901E-02
   0.1516524993654625E-02
   0.3300085349050018E-01
   0.4396952115137689E-04
  -0.2766675156456695E-02
   0.3629410520469261E-02
   0.3917477236419672E-03
   0.0000000000000000E+00
   0.0000000000000000E+00
   0.0000000000000000E+00
   0.0000000000000000E+00
   0.0000000000000000E+00
   0.0000000000000000E+00
   0.0000000000000000E+00
   0.0000000000000000E+00
   0.0000000000000000E+00
   0.0000000000000000E+00
   0.0000000000000000E+00
   0.0000000000000000E+00
   0.0000000000000000E+00
   0.0000000000000000E+00
   0.0000000000000000E+00
   0.0000000000000000E+00
   0.0000000000000000E+00
   0.4996969354094454E-02
   0.3210188378069794E-02
   0.8121798595540681E-02
   0.6089628333894492E-02
   0.1117053119174499E-01
   0.1403199633745106E-01
  -0.3288482447585059E-03
   0.5160327340188374E-02
   0.2928869149489178E-02
   0.3376787782571312E-02
   0.3724195894351308E-02
  -0.1469861437882695E-01
  -0.6149046213781358E-03
   0.6636946600335807E-02
   0.1453262937657344E-02
   0.1957691682544701E-02
   0.4261442254930326E-02
  -0.2811582278591836E-02
   0.1265485697172754E-02
   0.2850417348590381E-02
   0.1533833266962163E-02
   0.2562440539188657E-02
   0.2009329366219528E-02
   0.2152902068931823E-02
   0.8578465507056420E-02
  -0.3835719321246055E-02
   0.6146233401911064E-02
   0.4620498927155635E-04
  -0.4247815512410047E-03
  -0.1674691926739220E-01
  -0.5005037472664528E-02
  -0.4835525900066436E-02
   0.3396938395843459E-02
  -0.6079343632594113E-02
   0.2524450623213604E-04
  -0.3285396797178639E-01
  -0.3188821258564241E-02
   0.4573348449076377E-02
   0.9670300374663448E-03
   0.2132610577462132E-02
   0.4531867220286081E-02
   0.2691321830458191E-02
   0.3250785501421341E-02
   0.5226686425360663E-02
   0.1957689409138999E-02
   0.7476519510990819E-03
  -0.6133215900488965E-04
  -0.5321966060690285E-02
  -0.6966496776922099E-02
  -0.9690391660413968E-03
   0.1057798355417450E-02
  -0.2117730114353721E-02
  -0.3224071934250898E-02
  -0.2538194500385352E-02
  -0.4117268302874645E-02
  -0.7559175667633164E-02
  -0.2014246466387427E-02
   0.6495753169339882E-03
  -0.1932165713852480E-03
   0.1227181404638933E-02
  -0.3503804189765058E-02
   0.4855576304230347E-02
  -0.8634991366116259E-02
   0.3164857331611125E-04
  -0.3337155755640468E-03
   0.2557975988398826E-02
   0.1609327707564019E-02
   0.2028246842013736E-02
  -0.5642904980172725E-02
SCALARS w double 1
LOOKUP_TABLE default
   0.0000000000000000E+00
   0.0000000000000000E+00
   0.0000000000000000E+00
   0.0000000000000000E+00
   0.0000000000000000E+00
   0.0000000000000000E+00
   0.0000000000000000E+00
   0.0000000000000000E+00
   0.0000000000000000E+00
   0.0000000000000000E+00
   0.0000000000000000E+00
   0.0000000000000000E+00
   0.0000000000000000E+00
   0.0000000000000000E+00
   0.0000000000000000E+00
   0.0000000000000000E+00
   0.0000000000000000E+00
   0.0000000000000000E+00
   0.0000000000000000E+00
   0.0000000000000000E+00
   0.0000000000000000E+00
   0.0000000000000000E+00
   0.0000000000000000E+00
   0.0000000000000000E+00
   0.0000000000000000E+00
   0.0000000000000000E+00
   0.0000000000000000E+00
   0.0000000000000000E+00
   0.0000000000000000E+00
   0.0000000000000000E+00
   0.0000000000000000E+00
   0.0000000000000000E+00
   0.0000000000000000E+00
  -0.1007323206334262E+00
  -0.4246422743873172E-01
   0.7113320562340040E-03
   0.5703905395207420E-02
   0.5677984598346287E-03
   0.1606453625675791E-02
   0.3372458896288493E-02
   0.2364336475023622E-02
   0.4714530235848694E-03
   0.3527024651847429E-02
   0.4532836890362877E-01
   0.6564276742144365E-01
   0.8375653662555411E-03
  -0.2265941550176117E-01
   0.4272680481588487E-02
   0.1342684434708911E-01
   0.1030062653910548E-01
   0.4871552730933143E-01
   0.2383979216013144E-02
  -0.6536040957544863E-02
  -0.7361231610156057E-03
   0.3059840397588034E-03
   0.3852877309394678E-02
  -0.3894170027802923E-01
   0.1818957303568389E-01
   0.1121939650201374E-01
   0.3396112627052466E-01
   0.8384113707889485E-02
   0.4924001849370755E-02
   0.4973334923077367E-02
   0.4900458220778500E-02
   0.6056655325867794E-02
   0.2699566746220129E-02
  -0.4126443334665428E-01
  -0.9925923043250447E-01
  -0.1120358547766607E+00
   0.5146227443717979E-02
   0.4213980525455324E-02
  -0.1002565010533613E+00
  -0.9892853588563726E-01
  -0.9835938895046435E-01
  -0.9444625150030475E-01
  -0.6789772304763488E-01
   0.5197107829505198E-02
  -0.1927012262399826E-01
  -0.1562810138385316E-01
  -0.5965351575748309E-02
   0.6821897455010704E-02
  -0.8000746105810286E-01
  -0.2776956709676389E-01
  -0.8085905782173264E-01
  -0.5863342928299348E-01
   0.3074015587562198E-02
   0.2684910269542710E-02
   0.2644248502684395E-02
   0.3456850596260564E-02
   0.3997736863600447E-02
   0.1199155293301903E-02
  -0.1356231974787000E-03
   0.2028500893708045E-02
   0.4893507167120215E-02
   0.3864262951551102E-02
   0.1125880532465634E-02
   0.1187840805031992E-02
   0.1459880931700475E-02
  -0.2249855862803369E-04
   0.9081791317194628E-04
   0.4386512858233747E-02
   0.2712007712674534E-02
   0.2316481470784333E-02
   0.5006621856789509E-02
   0.1069270609235937E-02
   0.2706708949540937E-02
   0.2010204622486650E-02
   0.3345964966358148E-04
   0.8386120783467728E-01
   0.2833933065415319E-02
  -0.8465892569613715E-03
  -0.1275297262301508E-03
   0.1410969289595513E+00
   0.1236587232025742E+00
  -0.1228603560336106E-02
  -0.4383029020729481E-02
  -0.2803887822385778E-03
  -0.6478051313471270E-02
  -0.1893638403341120E-02
   0.1559600015007541E+00
   0.7528209910234079E-01
   0.2567699421195023E-01
   0.1661258222177816E+00