# vtk DataFile Version 2.0
FUN3D:global_image_vtk
ASCII
DATASET UNSTRUCTURED_GRID
POINTS 213 double
   -0.5474738059814573E-02    0.2504941999961241E+01    0.8055552252944249E-04
    0.1245419063214639E+01    0.2504941999961241E+01    0.1041110933536214E-03
    0.2497696076328681E+01    0.2504941999961241E+01    0.1102916391567035E-03
    0.3750590986573696E+01    0.2504941999961241E+01    0.1358046458109079E-03
    0.5003221380247292E+01    0.2504941999961241E+01    0.9683524956763884E-04
    0.5004676745409915E+01    0.1281291377271859E+01    0.1639128452451252E-03
    0.5004772723164555E+01    0.2775094235730515E-01    0.1904167478574631E-03
    0.5003581213732781E+01   -0.1225853394966530E+01    0.1608071357239655E-03
    0.5001952545687839E+01   -0.2496589021166688E+01    0.1082184657589819E-03
    0.3750348114451832E+01   -0.2496589021166688E+01    0.1458710021484695E-03
    0.2498611455860602E+01   -0.2496589021166688E+01    0.1008914025395523E-03
    0.1247175253528957E+01   -0.2496589021166688E+01    0.1108597687284839E-03
   -0.3383978115987665E-02   -0.2496589021166688E+01    0.8107707279819669E-04
   -0.4257799575457328E-02   -0.1225734704380387E+01    0.3420054903192391E-04
   -0.5251637157327664E-02    0.2619498345418061E-01    0.1039613591413071E-03
   -0.5676113931663033E-02    0.1278221711770098E+01    0.8237743850019631E-04
    0.9003209086379105E+00    0.1608979275731564E+01    0.8718013111840760E-04
    0.3983172220880845E+01   -0.1561211796857578E+01    0.1757351975756374E-03
    0.4035602066124953E+01    0.1486760229512320E+01    0.1714506798026081E-03
    0.1036613696945591E+01   -0.1455626319024962E+01    0.1047539008211527E-03
    0.1094353438944581E+01   -0.2964620713759355E+00    0.1261326966666094E-03
    0.7298399754950853E+00    0.6874686188430814E+00    0.1045682121943931E-03
    0.1617018610904168E+01    0.8553209657934031E+00    0.1530917919451080E-03
    0.2143199645120036E+01   -0.1627128401292016E+01    0.1606433286594494E-03
    0.4088840470379608E+01   -0.4351046471420297E+00    0.2720522856801650E-03
    0.2977916500432445E+01   -0.8334990271293102E+00    0.2246093009973833E-03
    0.3044093236197464E+01   -0.1814361118271332E+01    0.1617179488680439E-03
    0.3427866617085014E+01    0.3813906574448751E+00    0.2937830792294396E-03
    0.4313225396319749E+01    0.5489135083240932E+00    0.2313893566150837E-03
    0.1823032699632521E+01    0.1771265381754236E+01    0.1837610921701544E-03
    0.2806311135978053E+01    0.1358629571502628E+01    0.1944713420106577E-03
    0.1891860844560728E+01   -0.8481309128940719E+00    0.1671170254151601E-03
    0.2268769163417262E+01    0.7723707075584338E-01    0.2073128285387988E-03
    0.5000000000000000E+01    0.2504941999961241E+01    0.1250000000000000E+01
    0.5000000000000000E+01    0.2504941999961241E+01    0.2500000000000000E+01
    0.5000000000000000E+01    0.2504941999961241E+01    0.3750000000000000E+01
    0.5000000000000000E+01    0.2504941999961241E+01    0.5000000000000000E+01
    0.3750000000000000E+01    0.2504941999961241E+01    0.5000000000000000E+01
    0.2500000000000000E+01    0.2504941999961241E+01    0.5000000000000000E+01
    0.1250000000000000E+01    0.2504941999961241E+01    0.5000000000000000E+01
    0.0000000000000000E+00    0.2504941999961241E+01    0.5000000000000000E+01
    0.0000000000000000E+00    0.2504941999961241E+01    0.3750000000000000E+01
    0.0000000000000000E+00    0.2504941999961241E+01    0.2500000000000000E+01
    0.0000000000000000E+00    0.2504941999961241E+01    0.1250000000000000E+01
    0.9588956144353836E+00    0.2504941999961241E+01    0.9696527279300705E+00
    0.3981953084978739E+01    0.2504941999961241E+01    0.4070563876502035E+01
    0.4036122198869929E+01    0.2504941999961241E+01    0.1017567671864840E+01
    0.9637572703687632E+00    0.2504941999961241E+01    0.3973598229043872E+01
    0.1546540123351727E+01    0.2504941999961241E+01    0.2931570247923717E+01
    0.6973799367131026E+00    0.2504941999961241E+01    0.3070319998909597E+01
    0.8903741869755933E+00    0.2504941999961241E+01    0.2056562332034833E+01
    0.2183041992443445E+01    0.2504941999961241E+01    0.3960694489257252E+01
    0.3855844883881952E+01    0.2504941999961241E+01    0.2933250643809123E+01
    0.3152611372008802E+01    0.2504941999961241E+01    0.3637668435339631E+01
    0.3103307388029244E+01    0.2504941999961241E+01    0.4332607836745955E+01
    0.3266711050822067E+01    0.2504941999961241E+01    0.1889656733426760E+01
    0.4232537571806084E+01    0.2504941999961241E+01    0.1918627039923648E+01
    0.1905522344841790E+01    0.2504941999961241E+01    0.7226292666294636E+00
    0.2879767720432539E+01    0.2504941999961241E+01    0.9080947550105486E+00
    0.2012711351532597E+01    0.2504941999961241E+01    0.1767082528598291E+01
    0.2669681472765195E+01    0.2504941999961241E+01    0.2853394418104077E+01
    0.5000000000000000E+01    0.1250000000000000E+01    0.5000000000000000E+01
    0.5000000000000000E+01    0.0000000000000000E+00    0.5000000000000000E+01
    0.5000000000000000E+01   -0.1250000000000000E+01    0.5000000000000000E+01
    0.5000000000000000E+01   -0.2496589021166688E+01    0.5000000000000000E+01
    0.5000000000000000E+01   -0.2496589021166688E+01    0.3750000000000000E+01
    0.5000000000000000E+01   -0.2496589021166688E+01    0.2500000000000000E+01
    0.5000000000000000E+01   -0.2496589021166688E+01    0.1250000000000000E+01
    0.5000000000000000E+01    0.1578994732800803E+01    0.9058375365086910E+00
    0.5000000000000000E+01   -0.1583989954232354E+01    0.3982050490726493E+01
    0.5000000000000000E+01    0.1453322699199022E+01    0.4033849428301197E+01
    0.5000000000000000E+01   -0.1479596339503735E+01    0.1040505887381675E+01
    0.5000000000000000E+01   -0.3227322616384110E+00    0.1099454400140349E+01
    0.5000000000000000E+01    0.6593508822075582E+00    0.7354504170366591E+00
    0.5000000000000000E+01    0.8256214013940779E+00    0.1622302608453282E+01
    0.5000000000000000E+01   -0.1650070333782557E+01    0.2145871574390382E+01
    0.5000000000000000E+01   -0.4612828702537229E+00    0.4086422318222992E+01
    0.5000000000000000E+01   -0.8579242121530853E+00    0.2979540174134984E+01
    0.5000000000000000E+01   -0.1836846154397680E+01    0.3045064261640043E+01
    0.5000000000000000E+01    0.3508002863614053E+00    0.3428197553792836E+01
    0.5000000000000000E+01    0.5185680230613409E+00    0.4309693860063405E+01
    0.5000000000000000E+01    0.1738996113203182E+01    0.1827272193562204E+01
    0.5000000000000000E+01    0.1325493893339706E+01    0.2808563282768077E+01
    0.5000000000000000E+01   -0.8731419609589618E+00    0.1895995683864404E+01
    0.5000000000000000E+01    0.4906150219227333E-01    0.2273179336307740E+01
    0.0000000000000000E+00    0.1250000000000000E+01    0.5000000000000000E+01
    0.0000000000000000E+00    0.0000000000000000E+00    0.5000000000000000E+01
    0.0000000000000000E+00   -0.1250000000000000E+01    0.5000000000000000E+01
    0.0000000000000000E+00   -0.2496589021166688E+01    0.5000000000000000E+01
    0.1250000000000000E+01   -0.2496589021166688E+01    0.5000000000000000E+01
    0.2500000000000000E+01   -0.2496589021166688E+01    0.5000000000000000E+01
    0.3750000000000000E+01   -0.2496589021166688E+01    0.5000000000000000E+01
    0.4042003247744892E+01    0.1558308132739014E+01    0.5000000000000000E+01
    0.9304122287900499E+00   -0.1548001304379777E+01    0.5000000000000000E+01
    0.1037243024609388E+01    0.1462892710085612E+01    0.5000000000000000E+01
    0.3946240828834967E+01   -0.1445243809615570E+01    0.5000000000000000E+01
    0.4092527262848217E+01   -0.3455338993778935E+00    0.5000000000000000E+01
    0.4293103109154542E+01    0.6277660831404320E+00    0.5000000000000000E+01
    0.3241512314643519E+01    0.7429886854239611E+00    0.5000000000000000E+01
    0.2844289952419609E+01   -0.1588117879734118E+01    0.5000000000000000E+01
    0.7159905765450471E+00   -0.6002320124191652E+00    0.5000000000000000E+01
    0.1754341919796891E+01   -0.7398147869923652E+00    0.5000000000000000E+01
    0.1870296826774691E+01   -0.1788622905643739E+01    0.5000000000000000E+01
    0.9220614901912976E+00    0.3083720183248586E+00    0.5000000000000000E+01
    0.3101523624086016E+01    0.1777901774806180E+01    0.5000000000000000E+01
    0.2192512063922564E+01    0.1576861561598471E+01    0.5000000000000000E+01
    0.2024793420196460E+01    0.4773861992750707E+00    0.5000000000000000E+01
    0.2990627757741975E+01   -0.4878110785814084E+00    0.5000000000000000E+01
    0.0000000000000000E+00   -0.2496589021166688E+01    0.1250000000000000E+01
    0.0000000000000000E+00   -0.2496589021166688E+01    0.2500000000000000E+01
    0.0000000000000000E+00   -0.2496589021166688E+01    0.3750000000000000E+01
    0.0000000000000000E+00    0.1558308132739014E+01    0.4042003247744892E+01
    0.0000000000000000E+00   -0.1548001304379777E+01    0.9304122287900499E+00
    0.0000000000000000E+00    0.1462892710085612E+01    0.1037243024609388E+01
    0.0000000000000000E+00   -0.1445243809615570E+01    0.3946240828834967E+01
    0.0000000000000000E+00   -0.3455338993778935E+00    0.4092527262848217E+01
    0.0000000000000000E+00    0.6277660831404320E+00    0.4293103109154542E+01
    0.0000000000000000E+00    0.7429886854239611E+00    0.3241512314643519E+01
    0.0000000000000000E+00   -0.1588117879734118E+01    0.2844289952419609E+01
    0.0000000000000000E+00   -0.6002320124191652E+00    0.7159905765450471E+00
    0.0000000000000000E+00   -0.7398147869923652E+00    0.1754341919796891E+01
    0.0000000000000000E+00   -0.1788622905643739E+01    0.1870296826774691E+01
    0.0000000000000000E+00    0.3083720183248586E+00    0.9220614901912976E+00
    0.0000000000000000E+00    0.1777901774806180E+01    0.3101523624086016E+01
    0.0000000000000000E+00    0.1576861561598471E+01    0.2192512063922564E+01
[...]
POINT_DATA 213
SCALARS rho double 1
LOOKUP_TABLE default
   0.1219599913914860E+01
   0.9221793805033430E+00
   0.9104476757886579E+00
   0.8966768132566141E+00
   0.7819489337066020E+00
   0.7116571335984708E+00
   0.6990709593803607E+00
   0.7029546817275547E+00
   0.7687355958832418E+00
   0.8895232849358508E+00
   0.8987463982750143E+00
   0.9249601763511496E+00
   0.1300246737171696E+01
   0.1348040882165480E+01
   0.1456338074771397E+01
   0.1286719690234533E+01
   0.9619642127447507E+00
   0.9047653966622126E+00
   0.8972301302902853E+00
   0.9249192810378805E+00
   0.9126331809147364E+00
   0.9866008197572232E+00
   0.8974308614694255E+00
   0.8999717873607220E+00
   0.9067475664546994E+00
   0.9112478407173856E+00
   0.8943866358396434E+00
   0.9125851137586463E+00
   0.8902529598756936E+00
   0.9018652686501307E+00
   0.9063596843613622E+00
   0.8623950825279729E+00
   0.9078064535851278E+00
   0.9506824182691791E+00
   0.1008490941700164E+01
   0.1006976775961453E+01
   0.1000145878420847E+01
   0.1000492862160642E+01
   0.1001010371916896E+01
   0.1002467261505320E+01
   0.1001944761361016E+01
   0.1004886094381457E+01
   0.1016625219186050E+01
   0.1058313548912718E+01
   0.1005436788387310E+01
   0.1000007387635854E+01
   0.9457703600489555E+00
   0.1002042268482381E+01
   0.9982829440728336E+00
   0.1004492517677327E+01
   0.1005371616572376E+01
   0.9993111937741822E+00
   0.9978002486809326E+00
   0.9988040114591062E+00
   0.9987211917948126E+00
   0.9780928732106569E+00
   0.9796706370589964E+00
   0.9639504733505813E+00
   0.9601302215430189E+00
   0.9867991580287917E+00
   0.9922400494687632E+00
   0.1000342900892770E+01
   0.1000541349392127E+01
   0.1000671032233475E+01
   0.9998283373450395E+00
   0.1009782327341540E+01
   0.1007174209178620E+01
   0.9448363674255909E+00
   0.9034577577561939E+00
   0.1007039899811497E+01
   0.1004193147733525E+01
   0.8965165807289787E+00
   0.8926680525872825E+00
   0.8470449479699131E+00
   0.9708428762160082E+00
   0.1000202415174338E+01
   0.1006091589550256E+01
   0.1015639764766756E+01
   0.1012987270294472E+01
   0.1012861712673212E+01
   0.1005118624487528E+01
   0.9863622330063292E+00
   0.1006593468925664E+01
   0.9849764601514432E+00
   0.1008140565315027E+01
   0.1001902604372648E+01
   0.1000777964429579E+01
   0.1001300675824475E+01
   0.1001842930883352E+01
   0.1002348926030883E+01
   0.1000286884949798E+01
   0.1000192878885718E+01
   0.9997755191442589E+00
   0.1001746397636796E+01
   0.1001907941349180E+01
   0.9986523477778027E+00
   0.9995364033713068E+00
   0.9999231250158531E+00
   0.1000198743815273E+01
   0.1000442939989177E+01
   0.1001058840947114E+01
   0.1001457793244500E+01
   0.1001331335972697E+01
   0.1001525818416695E+01
   0.1000861186013326E+01
   0.1001344299246913E+01
   0.1001108531600565E+01
   0.1000543842694172E+01
   0.1060180626021781E+01
   0.1020434844997812E+01
   0.1005937365410129E+01
   0.1003463830462550E+01
   0.1142067377851482E+01
   0.1083370518964949E+01
   0.1004378515581218E+01
   0.1003909102379654E+01
   0.1003789602967746E+01
   0.1006675428143559E+01
   0.1012240629113947E+01
   0.1193114846619431E+01
   0.1028000795211329E+01
   0.1034785369787339E+01
   0.1169417162859302E+01
   0.1009874382415479E+01
   0.1023546141757286E+01
   0.1017121962680614E+01
   0.1007875012928546E+01
   0.1013904354584122E+01
   0.1000120446713415E+01
   0.9442368067676469E+00
   0.1003512211332391E+01
   0.9988676252784318E+00
   0.1006433372063616E+01
   0.1009136818380874E+01
   0.9979418399140124E+00
   0.9977846717734937E+00
   0.9961676153332555E+00
   0.9984778123180171E+00
   0.9810175344869940E+00
   0.9780877570211381E+00
   0.9479693870660805E+00
   0.9505424181779587E+00
   0.9877990076049705E+00
   0.9899199112662788E+00
   0.9925444324914594E+00
   0.9998150129358169E+00
   0.9986044217959651E+00
   0.9946495902897323E+00
   0.1006783290333345E+01
   0.1021195772126293E+01
   0.9979991526722012E+00
   0.1004785934125545E+01
   0.1001443250616456E+01
   0.1004870011992565E+01
   0.9952898765866470E+00
   0.9853957094291528E+00
   0.1000226008917773E+01
   0.9938930106453787E+00
   0.9819631334062343E+00
   0.9943515136757638E+00
   0.9968775124021649E+00
   0.9937161172091363E+00
   0.9987031067111689E+00
   0.1000033244697494E+01
   0.9996686222056521E+00
   0.9958480403495980E+00
   0.9933618025886815E+00
   0.1001379813235458E+01
   0.1018342563152569E+01
   0.1002761163245333E+01
   0.9806466625170274E+00
   0.1001874255417492E+01
   0.1008205814416605E+01
   0.9702346031759970E+00
   0.9431323721755199E+00
   0.9846786327430173E+00
   0.9843645607057808E+00
   0.9754696620632084E+00
   0.9908380427486637E+00
   0.9779133541330749E+00
   0.1033958402646004E+01
   0.1021656791969653E+01
   0.1000033016609682E+01
   0.9991734212832029E+00
   0.9919055215497835E+00
   0.9907248430665228E+00
   0.9574014471345844E+00
   0.9930506752694613E+00
   0.1006289130972909E+01
   0.1002044041477376E+01
   0.9896477840680418E+00
   0.9652799661129801E+00
   0.9203407139987584E+00
   0.9724368596096988E+00
   0.9781836914412511E+00
   0.9559726741981140E+00
   0.9617645701086472E+00
   0.9490309837587529E+00
   0.9366912371681535E+00
   0.9303104710325715E+00
   0.9992919087933909E+00
   0.9994619470496302E+00
   0.9988025114934846E+00
   0.1002017075422278E+01
   0.9391477855133711E+00
   0.9239055176216037E+00
   0.9359217577823368E+00
   0.9984138019609529E+00
   0.9983444596044669E+00
   0.1000450514433700E+01
   0.9793848489218683E+00
   0.9713545782280403E+00
   0.9447096679468925E+00
SCALARS u double 1
LOOKUP_TABLE default
   0.0000000000000000E+00
   0.0000000000000000E+00
   0.0000000000000000E+00
   0.0000000000000000E+00
   0.0000000000000000E+00
   0.0000000000000000E+00
   0.0000000000000000E+00
   0.0000000000000000E+00
   0.0000000000000000E+00
   0.0000000000000000E+00
   0.0000000000000000E+00
   0.0000000000000000E+00
   0.0000000000000000E+00
   0.0000000000000000E+00
   0.0000000000000000E+00
   0.0000000000000000E+00
   0.0000000000000000E+00
   0.0000000000000000E+00
   0.0000000000000000E+00
   0.0000000000000000E+00
   0.0000000000000000E+00
   0.0000000000000000E+00
   0.0000000000000000E+00
   0.0000000000000000E+00
   0.0000000000000000E+00
   0.0000000000000000E+00
   0.0000000000000000E+00
   0.0000000000000000E+00
   0.0000000000000000E+00
   0.0000000000000000E+00
   0.0000000000000000E+00
   0.0000000000000000E+00
   0.0000000000000000E+00
   0.5044654625718565E+00
   0.5290125233327594E+00
   0.5144832502366583E+00
   0.4932265900108851E+00
   0.4881036290400982E+00
   0.4912133188534122E+00
   0.4932012409253971E+00
   0.4982359542402780E+00
   0.4935755509583284E+00
   0.4788817948941982E+00
   0.4518340542426005E+00
   0.4750761890175216E+00
   0.5097784689047409E+00
   0.4511935122608772E+00
   0.4980813301956356E+00
   0.5232695279891602E+00
   0.4995198888257754E+00
   0.5239976640288004E+00
   0.5062462185845925E+00
   0.5621719958609420E+00
   0.5246973277983336E+00
   0.5014415678468562E+00
   0.5724415147885621E+00
   0.5707004488214734E+00
   0.3697808193600019E+00
   0.4030358898403011E+00
   0.5559039238816408E+00
   0.5550071849245267E+00
   0.4941867155248797E+00
   0.4946225384709730E+00
   0.4922550758943425E+00
   0.4916952855812793E+00
   0.5126203984600827E+00
   0.5320037798270457E+00
   0.5051851501962551E+00
   0.4700273683304570E+00
   0.5096958574190730E+00
   0.5089633533915267E+00
   0.4955096647343282E+00
   0.5091189196865848E+00
   0.4859971982874502E+00
   0.5290197485493497E+00
   0.5276939363541753E+00
   0.5095384383297984E+00
   0.5265023708455213E+00
   0.5255836953632552E+00
   0.5249264343055047E+00
   0.5039105686705815E+00
   0.5284460404385923E+00
   0.5353831139271971E+00
   0.5371547022390843E+00
   0.5324039403901299E+00
   0.4987533255815025E+00
   0.4995693413259048E+00
   0.4985678129626419E+00
   0.4978564096951279E+00
   0.4945363631534857E+00
   0.4946353886833413E+00
   0.4894931294386948E+00
   0.4881854974870758E+00
   0.4965709352480794E+00
   0.4946579566834260E+00
   0.4860621718005469E+00
   0.4896815203369071E+00
   0.4900400748682230E+00
   0.4911767049381175E+00
   0.4926165782064748E+00
   0.4981835070215769E+00
   0.4946289396220748E+00
   0.4948394705476281E+00
   0.4976378084991923E+00
   0.4907933910361312E+00
   0.4936012295296081E+00
   0.4927628555903713E+00
   0.4920514099708736E+00
   0.4513309067628229E+00
   0.4773809703631475E+00
   0.4929577614858403E+00
   0.4922016356734035E+00
   0.4645164957271078E+00
   0.4729120470482148E+00
   0.4915211016880964E+00
   0.4906741981695908E+00
   0.4940153651983316E+00
   0.4854929955171109E+00
   0.4731445631861245E+00
   0.4017685350830054E+00
   0.4925811040009726E+00
   0.4586089434233926E+00
   0.4595049275131978E+00
   0.4895104482664278E+00
   0.4701583369112907E+00
   0.4742235099559087E+00
   0.4816343275728012E+00
   0.4809631453916954E+00
   0.5081956923802349E+00
   0.4436620517744874E+00
   0.4960917003879852E+00
   0.5314783386190898E+00
   0.4949806898630809E+00
   0.5219301779986415E+00
   0.5081294153797163E+00
   0.5664001659383143E+00
   0.5269142650864397E+00
   0.5035387502418951E+00
   0.5834535142718886E+00
   0.5720240366500812E+00
   0.3408859876452088E+00
   0.3851958410637256E+00
   0.5717594897756055E+00
   0.5645095758053309E+00
   0.5689243719122201E+00
   0.5291696491747900E+00
   0.5449155806541630E+00
   0.5701879976966557E+00
   0.5404097352122824E+00
   0.5487779034909969E+00
   0.5790107888094366E+00
   0.4955235758713502E+00
   0.5064965492824581E+00
   0.4994484999208663E+00
   0.5533092746551227E+00
   0.4597902475751219E+00
   0.4983751433406005E+00
   0.5489762923088729E+00
   0.5894376431709921E+00
   0.5821700607189922E+00
   0.5457059970694019E+00
   0.5785146408542029E+00
   0.5122043952965313E+00
   0.5055088228155891E+00
   0.5048981065392856E+00
   0.5645297564592452E+00
   0.5552265687964479E+00
   0.4977583811616236E+00
   0.5488209309741491E+00
   0.5486892281158970E+00
   0.5643387455741774E+00
   0.4955121662773847E+00
   0.4958798482823150E+00
   0.3908413872106986E+00
   0.3725909698134574E+00
   0.5584900195438840E+00
   0.5739392686336243E+00
   0.4177438636821713E+00
   0.5813083025224057E+00
   0.4186000126579622E+00
   0.5391903843760538E+00
   0.4993239626855127E+00
   0.5113859120930404E+00
   0.5070195102677099E+00
   0.5732639789658708E+00
   0.5857709013962085E+00
   0.5448205763393392E+00
   0.5657062850845715E+00
   0.5320308822735370E+00
   0.5310303721259044E+00
   0.5561915701921727E+00
   0.5552162033240584E+00
   0.4401001911025771E+00
   0.5282987532947153E+00
   0.5807279724079821E+00
   0.3397137464343724E+00
   0.4812261129628364E+00
   0.5510167793146612E+00
   0.4924432382196767E+00
   0.3108743870345595E+00
   0.5051822206865991E+00
   0.5043571636619724E+00
   0.5129609129748275E+00
   0.5385848905374920E+00
   0.3519684934778435E+00
   0.3560462956934816E+00
   0.3308150017270994E+00
   0.5084554998176288E+00
   0.5125571942557826E+00
   0.5314307682472632E+00
   0.5857978731218664E+00
   0.4640825201010213E+00
   0.3627234823583372E+00
SCALARS v double 1
LOOKUP_TABLE default
   0.0000000000000000E+00
   0.0000000000000000E+00
   0.0000000000000000E+00
   0.0000000000000000E+00
   0.0000000000000000E+00
   0.0000000000000000E+00
   0.0000000000000000E+00
   0.0000000000000000E+00
   0.0000000000000000E+00
   0.0000000000000000E+00
   0.0000000000000000E+00
   0.0000000000000000E+00
   0.0000000000000000E+00
   0.0000000000000000E+00
   0.0000000000000000E+00
   0.0000000000000000E+00
   0.0000000000000000E+00
   0.0000000000000000E+00
   0.0000000000000000E+00
   0.0000000000000000E+00
   0.0000000000000000E+00
   0.0000000000000000E+00
   0.0000000000000000E+00
   0.0000000000000000E+00
   0.0000000000000000E+00
   0.0000000000000000E+00
   0.0000000000000000E+00
   0.0000000000000000E+00
   0.0000000000000000E+00
   0.0000000000000000E+00
   0.0000000000000000E+00
   0.0000000000000000E+00
   0.0000000000000000E+00
   0.0000000000000000E+00
   0.0000000000000000E+00
   0.0000000000000000E+00
   0.0000000000000000E+00
   0.0000000000000000E+00
   0.0000000000000000E+00
   0.0000000000000000E+00
   0.0000000000000000E+00
   0.0000000000000000E+00
   0.0000000000000000E+00
   0.0000000000000000E+00
   0.0000000000000000E+00
   0.0000000000000000E+00
   0.0000000000000000E+00
   0.0000000000000000E+00
   0.0000000000000000E+00
   0.0000000000000000E+00
   0.0000000000000000E+00
   0.0000000000000000E+00
   0.0000000000000000E+00
   0.0000000000000000E+00
   0.0000000000000000E+00
   0.0000000000000000E+00
   0.0000000000000000E+00
   0.0000000000000000E+00
   0.0000000000000000E+00
   0.0000000000000000E+00
   0.0000000000000000E+00
   0.6334639700943597E-03
  -0.1412025726360657E-02
  -0.1391630911830419E-02
   0.0000000000000000E+00
   0.0000000000000000E+00
   0.0000000000000000E+00
   0.0000000000000000E+00
  -0.1867986663801348E-01
   0.2777739753398261E-03
   0.2206628486879138E-02
   0.1490282249098997E-01
  -0.5368569530401920E-02
  -0.6642104080786982E-02
  -0.1142213469005272E-01
   0.4788839789512805E-02
   0.5372126946369469E-03
   0.3195629408665384E-02
   0.1530302373872614E-02
   0.3473828213064084E-02
   0.1704941200774325E-02
  -0.6356125610298517E-02
   0.7681805607278915E-03
   0.4869151890599007E-02
   0.6121853648594656E-03
   0.6958783724822021E-04
  -0.1767223938287762E-03
   0.6082877084071525E-03
   0.0000000000000000E+00
   0.0000000000000000E+00
   0.0000000000000000E+00
   0.0000000000000000E+00
   0.1212792390042155E-03
   0.1423645447881840E-02
  -0.1108793491628912E-02
  -0.9188580083668379E-03
  -0.2101444682671287E-02
  -0.1220443746083266E-02
  -0.8985907170360825E-03
  -0.6448263725292283E-03
  -0.2472735202519077E-04
  -0.5341830185698561E-03
   0.7240142662091807E-03
  -0.1570798697884953E-02
   0.1025895334351802E-03
  -0.1214559053890684E-03
  -0.8743118193968199E-03
  -0.8884862832527910E-03
   0.0000000000000000E+00
   0.0000000000000000E+00
   0.0000000000000000E+00
  -0.1091316540861496E-02
  -0.8502844537371773E-02
   0.1568987945976637E-01
   0.2148714591857101E-03
  -0.1053397400004156E-02
  -0.1673621712246082E-02
  -0.5281082309098573E-02
  -0.1235972814302935E-02
  -0.3701271714161566E-02
  -0.3032661434848288E-02
   0.2127151776540420E-02
   0.2880603910596697E-01
  -0.1724496514020405E-03
  -0.4260458674746065E-02
   0.2498526363828997E-02
   0.9551008182095700E-03
   0.0000000000000000E+00
   0.0000000000000000E+00
   0.0000000000000000E+00
   0.0000000000000000E+00
   0.0000000000000000E+00
   0.0000000000000000E+00
   0.0000000000000000E+00
   0.0000000000000000E+00
   0.0000000000000000E+00
   0.0000000000000000E+00
   0.0000000000000000E+00
   0.0000000000000000E+00
   0.0000000000000000E+00
   0.0000000000000000E+00
   0.0000000000000000E+00
   0.0000000000000000E+00
   0.0000000000000000E+00
   0.4670198251579650E-02
   0.2763278853759425E-02
   0.6893746890508752E-02
   0.5630441638759391E-02
   0.8687070630851768E-02
   0.1244114876037483E-01
   0.4866781367681874E-03
   0.4364183212807008E-02
   0.2406601916983915E-02
   0.2332213154624002E-02
   0.3176379267678484E-02
  -0.1059584406494037E-01
  -0.4893805993110485E-03
   0.6038351637229365E-02
   0.2600386566524297E-02
   0.2269787337596103E-02
   0.3837927217178242E-02
  -0.2020262604208875E-02
   0.9170021599999253E-03
   0.2371050555326520E-02
   0.1154935679143761E-02
   0.2686129574249492E-02
   0.1739851440287649E-02
   0.1798799010390233E-02
   0.8007121584343595E-02
  -0.3375979608907205E-02
   0.5470410361368580E-02
   0.6506714177993051E-04
  -0.3121155287367436E-04
  -0.1328424262963921E-01
  -0.3290580224337688E-02
  -0.3547656091443321E-02
   0.3675145657874399E-02
  -0.3988172371335121E-02
   0.8943823379437380E-03
  -0.2587599604459892E-01
  -0.3070966227489762E-02
   0.4167724059131464E-02
   0.7177327879536921E-03
   0.1825213666959061E-02
   0.4437740311442425E-02
   0.2300332250787185E-02
   0.3389539996161511E-02
   0.5068272526624644E-02
   0.1856652515048964E-02
   0.5820155735762843E-03
  -0.3347102034873147E-03
  -0.4621599879550771E-02
  -0.5498419374614687E-02
   0.4519084878159069E-03
   0.9429323142822970E-03
  -0.7332684983027548E-03
  -0.3869853810448455E-02
  -0.1215977499448851E-02
  -0.3656426781795758E-02
  -0.6898506950810198E-02
  -0.1708650720788456E-02
   0.5357581010326100E-03
  -0.3546458760913608E-03
   0.1111774606463771E-02
  -0.1832593381903037E-02
   0.6956122232232746E-02
  -0.9774610681037270E-02
  -0.1545700215287986E-04
  -0.4080231628440367E-03
   0.2409198603224657E-02
   0.1123359228294898E-02
   0.1298607639472568E-02
  -0.3828996648029884E-02
SCALARS w double 1
LOOKUP_TABLE default
   0.0000000000000000E+00
   0.0000000000000000E+00
   0.0000000000000000E+00
   0.0000000000000000E+00
   0.0000000000000000E+00
   0.0000000000000000E+00
   0.0000000000000000E+00
   0.0000000000000000E+00
   0.0000000000000000E+00
   0.0000000000000000E+00
   0.0000000000000000E+00
   0.0000000000000000E+00
   0.0000000000000000E+00
   0.0000000000000000E+00
   0.0000000000000000E+00
   0.0000000000000000E+00
   0.0000000000000000E+00
   0.0000000000000000E+00
   0.0000000000000000E+00
   0.0000000000000000E+00
   0.0000000000000000E+00
   0.0000000000000000E+00
   0.0000000000000000E+00
   0.0000000000000000E+00
   0.0000000000000000E+00
   0.0000000000000000E+00
   0.0000000000000000E+00
   0.0000000000000000E+00
   0.0000000000000000E+00
   0.0000000000000000E+00
   0.0000000000000000E+00
   0.0000000000000000E+00
   0.0000000000000000E+00
  -0.1144739521742340E+00
  -0.5028448389919601E-01
  -0.2218621772711751E-02
   0.5066078213561532E-02
  -0.6958296014324336E-03
  -0.6076344401562816E-03
   0.5805772627238549E-03
   0.1144805218242916E-02
   0.2440740732471745E-03
   0.3422552349156249E-02
   0.3884462973202607E-01
   0.5360740911212868E-01
  -0.1493566283934962E-02
  -0.2790729339942410E-01
   0.2079825622082174E-02
   0.1059655366007000E-01
   0.8042749544049741E-02
   0.4393891088362558E-01
  -0.4043476448983247E-03
  -0.1058030124027720E-01
  -0.3671487673711881E-02
  -0.2102247647814585E-02
   0.4819880024008605E-03
  -0.4609509593001439E-01
   0.1623618840222700E-01
   0.1240675254743076E-01
   0.2994628358293080E-01
   0.5073343570367709E-02
   0.4321199815738381E-02
   0.4383256413224386E-02
   0.4018299805034527E-02
   0.5466056200714681E-02
  -0.1704600724769552E-03
  -0.4834023186239984E-01
  -0.1122168216928368E+00
  -0.1279822806773461E+00
   0.2784459606555193E-02
   0.1930977493058835E-02
  -0.1150881217672217E+00
  -0.1133079819587424E+00
  -0.1132666916080794E+00
  -0.1072901758192767E+00
  -0.7748706005407804E-01
   0.3027782703067606E-02
  -0.2451873916872276E-01
  -0.2041361204157949E-01
  -0.9927787069821666E-02
   0.5241384214259482E-02
  -0.9129638041490483E-01
  -0.3406071320872942E-01
  -0.9180580437968032E-01
  -0.6776876302798078E-01
   0.1807790295100935E-02
   0.1559382867085301E-02
   0.1426791095057260E-02
   0.2118635059982354E-02
   0.1358287982153370E-02
  -0.1241614062909758E-02
  -0.1475191993708702E-02
   0.1114760211706480E-02
   0.2218151915793182E-02
   0.1202562152166917E-02
  -0.7062842656522290E-04
   0.1918631388371819E-03
   0.8214442794852852E-03
  -0.1576168783895388E-02
  -0.1943036402480719E-02
   0.1965357474967453E-02
  -0.4390488814032962E-04
  -0.4390492169008959E-03
   0.2228744409361833E-02
  -0.1071768370012338E-02
  -0.2024391162567970E-03
  -0.4923181192803953E-03
  -0.1804034647710483E-02
   0.6879531639144190E-01
   0.2330699047268087E-02
  -0.1105209552524212E-02
  -0.7920399241757901E-03
   0.1156184639204413E+00
   0.1039170532243929E+00
  -0.1771011956521627E-02
  -0.4421122460977538E-02
  -0.7493472675141177E-03
  -0.7086037245732037E-02
  -0.2645565172920275E-02
   0.1269925478091217E+00
   0.6360352962868752E-01
   0.2237139658018582E-01
   0.1353419736563261E+00