# vtk DataFile Version 2.0
FUN3D:global_image_vtk
ASCII
DATASET UNSTRUCTURED_GRID
POINTS 213 double
   -0.5474685439965210E-02    0.2504941971164942E+01    0.8038139960958573E-04
    0.1245419105184686E+01    0.2504941971164942E+01    0.1039425201702080E-03
    0.2497696093128755E+01    0.2504941971164942E+01    0.1101298317049970E-03
    0.3750590968914216E+01    0.2504941971164942E+01    0.1356499165603986E-03
    0.5003221331739129E+01    0.2504941971164942E+01    0.9668874725743404E-04
    0.5004676687975742E+01    0.1281291202152741E+01    0.1638053143207530E-03
    0.5004772673775125E+01    0.2775079905233800E-01    0.1903478087817976E-03
    0.5003581183339178E+01   -0.1225853508894243E+01    0.1607765240893011E-03
    0.5001952533741209E+01   -0.2496589036643189E+01    0.1082258885553022E-03
    0.3750348111606281E+01   -0.2496589036643189E+01    0.1458753688603487E-03
    0.2498611462995454E+01   -0.2496589036643189E+01    0.1008933252991118E-03
    0.1247175269334494E+01   -0.2496589036643189E+01    0.1108587603892430E-03
   -0.3383959864258212E-02   -0.2496589036643189E+01    0.8107259423056894E-04
   -0.4257768978007448E-02   -0.1225734811654061E+01    0.3415458924127535E-04
   -0.5251592446427367E-02    0.2619486023170361E-01    0.1038724443567201E-03
   -0.5676060310338293E-02    0.1278221569052081E+01    0.8224602661344171E-04
    0.9003209617971899E+00    0.1608979112265720E+01    0.8704141841042734E-04
    0.3983172210691512E+01   -0.1561211904850504E+01    0.1757116742180942E-03
    0.4035602039222561E+01    0.1486760030399887E+01    0.1713312987615676E-03
    0.1036613723304496E+01   -0.1455626429928028E+01    0.1047189316801811E-03
    0.1094353480632864E+01   -0.2964622010795518E+00    0.1260590288131851E-03
    0.7298400267501686E+00    0.6874684746584809E+00    0.1044598721227086E-03
    0.1617018659310913E+01    0.8553208024797971E+00    0.1529810995186676E-03
    0.2143199662876846E+01   -0.1627128509227246E+01    0.1606170439217847E-03
    0.4088840445399218E+01   -0.4351047826055321E+00    0.2719933352877679E-03
    0.2977916511249375E+01   -0.8334991483205951E+00    0.2245596973365904E-03
    0.3044093241383677E+01   -0.1814361225118786E+01    0.1617000123376189E-03
    0.3427866614804713E+01    0.3813904839830199E+00    0.2936955566598121E-03
    0.4313225355349219E+01    0.5489133376202764E+00    0.2313009667567753E-03
    0.1823032737598566E+01    0.1771265193528794E+01    0.1836203008615533E-03
    0.2806311152168623E+01    0.1358629373584938E+01    0.1943492277461378E-03
    0.1891860875938377E+01   -0.8481310365723637E+00    0.1670645539069149E-03
    0.2268769200168568E+01    0.7723691817875740E-01    0.2072307851107566E-03
    0.5000000000000000E+01    0.2504941971164942E+01    0.1250000000000000E+01
    0.5000000000000000E+01    0.2504941971164942E+01    0.2500000000000000E+01
    0.5000000000000000E+01    0.2504941971164942E+01    0.3750000000000000E+01
    0.5000000000000000E+01    0.2504941971164942E+01    0.5000000000000000E+01
    0.3750000000000000E+01    0.2504941971164942E+01    0.5000000000000000E+01
    0.2500000000000000E+01    0.2504941971164942E+01    0.5000000000000000E+01
    0.1250000000000000E+01    0.2504941971164942E+01    0.5000000000000000E+01
    0.0000000000000000E+00    0.2504941971164942E+01    0.5000000000000000E+01
    0.0000000000000000E+00    0.2504941971164942E+01    0.3750000000000000E+01
    0.0000000000000000E+00    0.2504941971164942E+01    0.2500000000000000E+01
    0.0000000000000000E+00    0.2504941971164942E+01    0.1250000000000000E+01
    0.9588956434885912E+00    0.2504941971164942E+01    0.9696525519612400E+00
    0.3981953078951662E+01    0.2504941971164942E+01    0.4070563854752572E+01
    0.4036122187250703E+01    0.2504941971164942E+01    0.1017567520104999E+01
    0.9637572773150577E+00    0.2504941971164942E+01    0.3973598203143470E+01
    0.1546540136992009E+01    0.2504941971164942E+01    0.2931570169319381E+01
    0.6973799521240369E+00    0.2504941971164942E+01    0.3070319952455877E+01
    0.8903742148357054E+00    0.2504941971164942E+01    0.2056562238191877E+01
    0.2183041995145804E+01    0.2504941971164942E+01    0.3960694449830124E+01
    0.3855844872710128E+01    0.2504941971164942E+01    0.2933250588122099E+01
    0.3152611367438090E+01    0.2504941971164942E+01    0.3637668388418907E+01
    0.3103307385241952E+01    0.2504941971164942E+01    0.4332607813101073E+01
    0.3266711045517642E+01    0.2504941971164942E+01    0.1889656617471646E+01
    0.4232537554484983E+01    0.2504941971164942E+01    0.1918626969806651E+01
    0.1905522374037473E+01    0.2504941971164942E+01    0.7226290832243493E+00
    0.2879767723644874E+01    0.2504941971164942E+01    0.9080945892309473E+00
    0.2012711365064098E+01    0.2504941971164942E+01    0.1767082390985820E+01
    0.2669681472994406E+01    0.2504941971164942E+01    0.2853394335015871E+01
    0.5000000000000000E+01    0.1250000000000000E+01    0.5000000000000000E+01
    0.5000000000000000E+01    0.0000000000000000E+00    0.5000000000000000E+01
    0.5000000000000000E+01   -0.1250000000000000E+01    0.5000000000000000E+01
    0.5000000000000000E+01   -0.2496589036643189E+01    0.5000000000000000E+01
    0.5000000000000000E+01   -0.2496589036643189E+01    0.3750000000000000E+01
    0.5000000000000000E+01   -0.2496589036643189E+01    0.2500000000000000E+01
    0.5000000000000000E+01   -0.2496589036643189E+01    0.1250000000000000E+01
    0.5000000000000000E+01    0.1578994732800803E+01    0.9058375365086910E+00
    0.5000000000000000E+01   -0.1583989954232354E+01    0.3982050490726493E+01
    0.5000000000000000E+01    0.1453322699199022E+01    0.4033849428301197E+01
    0.5000000000000000E+01   -0.1479596339503735E+01    0.1040505887381675E+01
    0.5000000000000000E+01   -0.3227322616384110E+00    0.1099454400140349E+01
    0.5000000000000000E+01    0.6593508822075582E+00    0.7354504170366591E+00
    0.5000000000000000E+01    0.8256214013940779E+00    0.1622302608453282E+01
    0.5000000000000000E+01   -0.1650070333782557E+01    0.2145871574390382E+01
    0.5000000000000000E+01   -0.4612828702537229E+00    0.4086422318222992E+01
    0.5000000000000000E+01   -0.8579242121530853E+00    0.2979540174134984E+01
    0.5000000000000000E+01   -0.1836846154397680E+01    0.3045064261640043E+01
    0.5000000000000000E+01    0.3508002863614053E+00    0.3428197553792836E+01
    0.5000000000000000E+01    0.5185680230613409E+00    0.4309693860063405E+01
    0.5000000000000000E+01    0.1738996113203182E+01    0.1827272193562204E+01
    0.5000000000000000E+01    0.1325493893339706E+01    0.2808563282768077E+01
    0.5000000000000000E+01   -0.8731419609589618E+00    0.1895995683864404E+01
    0.5000000000000000E+01    0.4906150219227333E-01    0.2273179336307740E+01
    0.0000000000000000E+00    0.1250000000000000E+01    0.5000000000000000E+01
    0.0000000000000000E+00    0.0000000000000000E+00    0.5000000000000000E+01
    0.0000000000000000E+00   -0.1250000000000000E+01    0.5000000000000000E+01
    0.0000000000000000E+00   -0.2496589036643189E+01    0.5000000000000000E+01
    0.1250000000000000E+01   -0.2496589036643189E+01    0.5000000000000000E+01
    0.2500000000000000E+01   -0.2496589036643189E+01    0.5000000000000000E+01
    0.3750000000000000E+01   -0.2496589036643189E+01    0.5000000000000000E+01
    0.4042003247744892E+01    0.1558308132739014E+01    0.5000000000000000E+01
    0.9304122287900499E+00   -0.1548001304379777E+01    0.5000000000000000E+01
    0.1037243024609388E+01    0.1462892710085612E+01    0.5000000000000000E+01
    0.3946240828834967E+01   -0.1445243809615570E+01    0.5000000000000000E+01
    0.4092527262848217E+01   -0.3455338993778935E+00    0.5000000000000000E+01
    0.4293103109154542E+01    0.6277660831404320E+00    0.5000000000000000E+01
    0.3241512314643519E+01    0.7429886854239611E+00    0.5000000000000000E+01
    0.2844289952419609E+01   -0.1588117879734118E+01    0.5000000000000000E+01
    0.7159905765450471E+00   -0.6002320124191652E+00    0.5000000000000000E+01
    0.1754341919796891E+01   -0.7398147869923652E+00    0.5000000000000000E+01
    0.1870296826774691E+01   -0.1788622905643739E+01    0.5000000000000000E+01
    0.9220614901912976E+00    0.3083720183248586E+00    0.5000000000000000E+01
    0.3101523624086016E+01    0.1777901774806180E+01    0.5000000000000000E+01
    0.2192512063922564E+01    0.1576861561598471E+01    0.5000000000000000E+01
    0.2024793420196460E+01    0.4773861992750707E+00    0.5000000000000000E+01
    0.2990627757741975E+01   -0.4878110785814084E+00    0.5000000000000000E+01
    0.0000000000000000E+00   -0.2496589036643189E+01    0.1250000000000000E+01
    0.0000000000000000E+00   -0.2496589036643189E+01    0.2500000000000000E+01
    0.0000000000000000E+00   -0.2496589036643189E+01    0.3750000000000000E+01
    0.0000000000000000E+00    0.1558308132739014E+01    0.4042003247744892E+01
    0.0000000000000000E+00   -0.1548001304379777E+01    0.9304122287900499E+00
    0.0000000000000000E+00    0.1462892710085612E+01    0.1037243024609388E+01
    0.0000000000000000E+00   -0.1445243809615570E+01    0.3946240828834967E+01
    0.0000000000000000E+00   -0.3455338993778935E+00    0.4092527262848217E+01
    0.0000000000000000E+00    0.6277660831404320E+00    0.4293103109154542E+01
    0.0000000000000000E+00    0.7429886854239611E+00    0.3241512314643519E+01
    0.0000000000000000E+00   -0.1588117879734118E+01    0.2844289952419609E+01
    0.0000000000000000E+00   -0.6002320124191652E+00    0.7159905765450471E+00
    0.0000000000000000E+00   -0.7398147869923652E+00    0.1754341919796891E+01
    0.0000000000000000E+00   -0.1788622905643739E+01    0.1870296826774691E+01
    0.0000000000000000E+00    0.3083720183248586E+00    0.9220614901912976E+00
    0.0000000000000000E+00    0.1777901774806180E+01    0.3101523624086016E+01
    0.0000000000000000E+00    0.1576861561598471E+01    0.2192512063922564E+01
[...]
POINT_DATA 213
SCALARS rho double 1
LOOKUP_TABLE default
   0.1346108317738220E+01
   0.9572040003142785E+00
   0.9461172181521187E+00
   0.9421724428215030E+00
   0.8436076760234371E+00
   0.7742023696851601E+00
   0.7627583550837818E+00
   0.7661562019562275E+00
   0.8310489481890415E+00
   0.9353548247720886E+00
   0.9343897292011415E+00
   0.9616167928998353E+00
   0.1448475455181453E+01
   0.1495420695015984E+01
   0.1646729697059640E+01
   0.1426611752212100E+01
   0.1009807295399259E+01
   0.9511451604162594E+00
   0.9438202818447523E+00
   0.9574649710476223E+00
   0.9414971313583756E+00
   0.1037119051147073E+01
   0.9258166087193515E+00
   0.9322402500312577E+00
   0.9538058258524883E+00
   0.9520452721647998E+00
   0.9351035437803231E+00
   0.9565496454893728E+00
   0.9378638722693523E+00
   0.9303460523734962E+00
   0.9446467738431547E+00
   0.8862352683389024E+00
   0.9424046355576021E+00
   0.9637013743530840E+00
   0.1008356272045756E+01
   0.1006712429704515E+01
   0.1001958930227444E+01
   0.1003217522149597E+01
   0.1004120116011921E+01
   0.1005208064935950E+01
   0.1004249961631005E+01
   0.1008268330146685E+01
   0.1023869441090107E+01
   0.1063755461308582E+01
   0.1019394088407147E+01
   0.1001777911866221E+01
   0.9645774234019873E+00
   0.1005263328310892E+01
   0.1000745736304677E+01
   0.1008696549340339E+01
   0.1008037948487187E+01
   0.1002353862084462E+01
   0.9980195530533914E+00
   0.1000592769379007E+01
   0.1001620641895119E+01
   0.9828039327165788E+00
   0.9843899727426023E+00
   0.9834136050984306E+00
   0.9790327234720848E+00
   0.9904757376588901E+00
   0.9935193469110906E+00
   0.1002008894366595E+01
   0.1002132240762990E+01
   0.1002273087538989E+01
   0.1001793578319836E+01
   0.1009816088028520E+01
   0.1006507955581136E+01
   0.9561125618525675E+00
   0.9252807409649583E+00
   0.1007053966729593E+01
   0.1004490981237099E+01
   0.9145128353669052E+00
   0.9091570309160454E+00
   0.8752463083349123E+00
   0.9767979598293888E+00
   0.1000541360254255E+01
   0.1005826549293280E+01
   0.1012896701639434E+01
   0.1011680292154013E+01
   0.1010415973610195E+01
   0.1005456587398177E+01
   0.9909167515881220E+00
   0.1005149610904611E+01
   0.9860895085696419E+00
   0.1005593206425008E+01
   0.1004239922260029E+01
   0.1002885969238331E+01
   0.1003350063102758E+01
   0.1003997944153159E+01
   0.1005115344780284E+01
   0.1003223209728852E+01
   0.1002669123792539E+01
   0.1002589508090195E+01
   0.1004069040402233E+01
   0.1004304991216351E+01
   0.1001643157121923E+01
   0.1002279136473844E+01
   0.1002546782052733E+01
   0.1003472000635352E+01
   0.1003380240410107E+01
   0.1003233137321502E+01
   0.1004429899256096E+01
   0.1004324039449644E+01
   0.1003653018161350E+01
   0.1003718560723212E+01
   0.1004319243078284E+01
   0.1004462563088170E+01
   0.1003629396249664E+01
   0.1064485256971468E+01
   0.1028442061877993E+01
   0.1009605873481381E+01
   0.1006626987316213E+01
   0.1163967546632878E+01
   0.1086026686867705E+01
   0.1007907087234617E+01
   0.1007251825971419E+01
   0.1006796456348206E+01
   0.1013053883357719E+01
   0.1019340792162152E+01
   0.1235123173793358E+01
   0.1032535565226797E+01
   0.1046565481045992E+01
   0.1201701822456585E+01
   0.1014672138200919E+01
   0.1032297498407722E+01
   0.1028222183458627E+01
   0.1014640520488338E+01
   0.1028986927174821E+01
   0.1002003667388749E+01
   0.9608147833382895E+00
   0.1006858072276392E+01
   0.1001324898710291E+01
   0.1010798261883184E+01
   0.1012231336389743E+01
   0.1000939569622915E+01
   0.9979357843593710E+00
   0.9980690509530232E+00
   0.1001192040858157E+01
   0.9842100791005199E+00
   0.9815228436589686E+00
   0.9648740511484004E+00
   0.9680944439840938E+00
   0.9914084286962132E+00
   0.9910913083218996E+00
   0.9925587124691343E+00
   0.1001727549537417E+01
   0.9993245747491341E+00
   0.9941434371402760E+00
   0.1006982475142196E+01
   0.1022613019645581E+01
   0.1001120639188601E+01
   0.1008783935630121E+01
   0.1004774772961428E+01
   0.1009030410979804E+01
   0.9967211494038585E+00
   0.1005570715703327E+01
   0.1003324760150958E+01
   0.9949845985052923E+00
   0.9833501663347480E+00
   0.9944494689190065E+00
   0.9973474193119111E+00
   0.9932503760545940E+00
   0.1001311884937940E+01
   0.1003000708411513E+01
   0.1002188291623123E+01
   0.9947120026310344E+00
   0.9937832198134720E+00
   0.1004861704710565E+01
   0.1020101282092280E+01
   0.1005337230032877E+01
   0.9817045977917902E+00
   0.1004974596098729E+01
   0.1012374662704073E+01
   0.9873720330966783E+00
   0.9551284415334392E+00
   0.9865253757251831E+00
   0.9865916535138014E+00
   0.9920067170068323E+00
   0.9934435621227647E+00
   0.9960682556240452E+00
   0.1037400105971177E+01
   0.1033161102369922E+01
   0.1001442942606686E+01
   0.1001928635210311E+01
   0.9912313107693395E+00
   0.9911145323014531E+00
   0.9649433997965466E+00
   0.9933790317030107E+00
   0.1006090796374819E+01
   0.1001963018638441E+01
   0.9908628976641497E+00
   0.9742169956407505E+00
   0.9420656175256480E+00
   0.9821543956284885E+00
   0.9794783302487796E+00
   0.9704368617888348E+00
   0.9720887191163808E+00
   0.9557898415929598E+00
   0.9498086708348420E+00
   0.9529904619488193E+00
   0.1002635788534133E+01
   0.1002475631496512E+01
   0.1000513073337406E+01
   0.1001674838573977E+01
   0.9610035235084951E+00
   0.9492443250684816E+00
   0.9586632962697476E+00
   0.1001121360710842E+01
   0.1000501199869851E+01
   0.1001159801548939E+01
   0.9807420385041955E+00
   0.9805568736648675E+00
   0.9629217555051564E+00
SCALARS u double 1
LOOKUP_TABLE default
   0.0000000000000000E+00
   0.0000000000000000E+00
   0.0000000000000000E+00
   0.0000000000000000E+00
   0.0000000000000000E+00
   0.0000000000000000E+00
   0.0000000000000000E+00
   0.0000000000000000E+00
   0.0000000000000000E+00
   0.0000000000000000E+00
   0.0000000000000000E+00
   0.0000000000000000E+00
   0.0000000000000000E+00
   0.0000000000000000E+00
   0.0000000000000000E+00
   0.0000000000000000E+00
   0.0000000000000000E+00
   0.0000000000000000E+00
   0.0000000000000000E+00
   0.0000000000000000E+00
   0.0000000000000000E+00
   0.0000000000000000E+00
   0.0000000000000000E+00
   0.0000000000000000E+00
   0.0000000000000000E+00
   0.0000000000000000E+00
   0.0000000000000000E+00
   0.0000000000000000E+00
   0.0000000000000000E+00
   0.0000000000000000E+00
   0.0000000000000000E+00
   0.0000000000000000E+00
   0.0000000000000000E+00
   0.4945973676714625E+00
   0.5336248050998467E+00
   0.5182740405026283E+00
   0.4930714246727048E+00
   0.4847754204670207E+00
   0.4868132652840337E+00
   0.4891430743794438E+00
   0.4958009013711159E+00
   0.4899007394367318E+00
   0.4718072595516350E+00
   0.4448872821218882E+00
   0.4844369959599389E+00
   0.5097703333328362E+00
   0.4401859473732342E+00
   0.4949587096808795E+00
   0.5223003573063233E+00
   0.4962747030339608E+00
   0.5223832221767805E+00
   0.5038168244457588E+00
   0.5644336964124504E+00
   0.5245894641955196E+00
   0.4990985097449299E+00
   0.5729201586789242E+00
   0.5693592828344595E+00
   0.3752192378086043E+00
   0.4003638955230004E+00
   0.5599389981566292E+00
   0.5562259014290035E+00
   0.4942640825346413E+00
   0.4948651959007904E+00
   0.4925619071434940E+00
   0.4913967782797985E+00
   0.5162597182597078E+00
   0.5363670730796083E+00
   0.4951374105350574E+00
   0.4520512887831664E+00
   0.5129007653019994E+00
   0.5117699763793789E+00
   0.4786317416690679E+00
   0.4931122295778978E+00
   0.4600270408090163E+00
   0.5242595706488764E+00
   0.5299947205934824E+00
   0.5129700678064267E+00
   0.5328928661431446E+00
   0.5309782654865391E+00
   0.5309767612124254E+00
   0.5063651340812999E+00
   0.5279536185100056E+00
   0.5409238855682276E+00
   0.5363719066561093E+00
   0.5374201320427066E+00
   0.4965358978849256E+00
   0.4975364856667504E+00
   0.4963815196793395E+00
   0.4955155009542830E+00
   0.4904172548008727E+00
   0.4902500217278671E+00
   0.4861611309349237E+00
   0.4854067563845458E+00
   0.4931955989241559E+00
   0.4910329667501604E+00
   0.4831677513279566E+00
   0.4872468806205409E+00
   0.4880024273557534E+00
   0.4872312392409690E+00
   0.4882163845414655E+00
   0.4952576816819211E+00
   0.4900721163870106E+00
   0.4903599278514206E+00
   0.4944353025708231E+00
   0.4868191758226692E+00
   0.4892735511624937E+00
   0.4881467930175477E+00
   0.4878252395582296E+00
   0.4449106779399097E+00
   0.4700132874380355E+00
   0.4891774917037054E+00
   0.4885974634253667E+00
   0.4510294626414235E+00
   0.4681803399039314E+00
   0.4876666906711897E+00
   0.4868262749639877E+00
   0.4909268403770326E+00
   0.4793945542751912E+00
   0.4657906776422551E+00
   0.3794391072435013E+00
   0.4903637343643480E+00
   0.4487969160862263E+00
   0.4432386723495653E+00
   0.4845716406866090E+00
   0.4621867850207868E+00
   0.4663606658385087E+00
   0.4747787028775123E+00
   0.4893811124871839E+00
   0.5085638676831524E+00
   0.4305372589997010E+00
   0.4927298036217481E+00
   0.5320327256134444E+00
   0.4913855405923964E+00
   0.5209473688206778E+00
   0.5061309364748909E+00
   0.5690650994137624E+00
   0.5274990552058253E+00
   0.5015024129322121E+00
   0.5821782454351131E+00
   0.5691769249772982E+00
   0.3403300368068790E+00
   0.3786151438879369E+00
   0.5753346481991799E+00
   0.5668543263748558E+00
   0.5703059562608933E+00
   0.5291879205908291E+00
   0.5449837175722160E+00
   0.5719102639674818E+00
   0.5385667386504385E+00
   0.5475905556008137E+00
   0.5821515963614157E+00
   0.4925318968184105E+00
   0.5041571115630341E+00
   0.4961293264619743E+00
   0.5562736233515814E+00
   0.4757837007206072E+00
   0.4950183184105371E+00
   0.5496188055893042E+00
   0.5889517159110496E+00
   0.5839552612846746E+00
   0.5468175663690740E+00
   0.5803880219295730E+00
   0.5106065646390836E+00
   0.5029552652726469E+00
   0.5033112976689975E+00
   0.5676222186631507E+00
   0.5564619505362955E+00
   0.4947144958962371E+00
   0.5506785366043999E+00
   0.5513581031486747E+00
   0.5658250452770156E+00
   0.4919965129117186E+00
   0.4927864167846641E+00
   0.3865373443009921E+00
   0.3687905803018772E+00
   0.5574396398628793E+00
   0.5761715377274093E+00
   0.4194266699498811E+00
   0.5822960129555198E+00
   0.4268170192266766E+00
   0.5397379314474634E+00
   0.5016136015876382E+00
   0.5119237866559714E+00
   0.5048466767132793E+00
   0.5752734470960371E+00
   0.5878359740237723E+00
   0.5382541024060884E+00
   0.5679685703739523E+00
   0.5351985017003100E+00
   0.5338430667077724E+00
   0.5582271984932292E+00
   0.5511430282724838E+00
   0.4256686664762938E+00
   0.5272843689872651E+00
   0.5796789075550801E+00
   0.3318300656974746E+00
   0.4761646063300076E+00
   0.5446507502830386E+00
   0.4800729074137432E+00
   0.3006193626694194E+00
   0.5031625583208804E+00
   0.5017187251077585E+00
   0.5129125397540037E+00
   0.5414131226886639E+00
   0.3435098576660084E+00
   0.3397971776305605E+00
   0.3190373712282092E+00
   0.5066176552769118E+00
   0.5123823894993135E+00
   0.5329091200082663E+00
   0.5881345096612777E+00
   0.4645017929032558E+00
   0.3529492324447988E+00
SCALARS v double 1
LOOKUP_TABLE default
   0.0000000000000000E+00
   0.0000000000000000E+00
   0.0000000000000000E+00
   0.0000000000000000E+00
   0.0000000000000000E+00
   0.0000000000000000E+00
   0.0000000000000000E+00
   0.0000000000000000E+00
   0.0000000000000000E+00
   0.0000000000000000E+00
   0.0000000000000000E+00
   0.0000000000000000E+00
   0.0000000000000000E+00
   0.0000000000000000E+00
   0.0000000000000000E+00
   0.0000000000000000E+00
   0.0000000000000000E+00
   0.0000000000000000E+00
   0.0000000000000000E+00
   0.0000000000000000E+00
   0.0000000000000000E+00
   0.0000000000000000E+00
   0.0000000000000000E+00
   0.0000000000000000E+00
   0.0000000000000000E+00
   0.0000000000000000E+00
   0.0000000000000000E+00
   0.0000000000000000E+00
   0.0000000000000000E+00
   0.0000000000000000E+00
   0.0000000000000000E+00
   0.0000000000000000E+00
   0.0000000000000000E+00
   0.0000000000000000E+00
   0.0000000000000000E+00
   0.0000000000000000E+00
   0.0000000000000000E+00
   0.0000000000000000E+00
   0.0000000000000000E+00
   0.0000000000000000E+00
   0.0000000000000000E+00
   0.0000000000000000E+00
   0.0000000000000000E+00
   0.0000000000000000E+00
   0.0000000000000000E+00
   0.0000000000000000E+00
   0.0000000000000000E+00
   0.0000000000000000E+00
   0.0000000000000000E+00
   0.0000000000000000E+00
   0.0000000000000000E+00
   0.0000000000000000E+00
   0.0000000000000000E+00
   0.0000000000000000E+00
   0.0000000000000000E+00
   0.0000000000000000E+00
   0.0000000000000000E+00
   0.0000000000000000E+00
   0.0000000000000000E+00
   0.0000000000000000E+00
   0.0000000000000000E+00
   0.8508087605588600E-03
  -0.1263768294279610E-02
  -0.1294462290911395E-02
   0.0000000000000000E+00
   0.0000000000000000E+00
   0.0000000000000000E+00
   0.0000000000000000E+00
  -0.1933168872966346E-01
   0.5037574427175694E-03
   0.2213187668049058E-02
   0.1420877728616637E-01
  -0.6733052057323194E-02
  -0.8155351496756188E-02
  -0.1324509408390132E-01
   0.5002686646655457E-02
   0.7354203600584105E-03
   0.3481250992180434E-02
   0.1949284095458040E-02
   0.3168726343595563E-02
   0.1754938852909900E-02
  -0.7289644564143851E-02
  -0.6647994824341896E-04
   0.4565692456507076E-02
  -0.4086285584570567E-03
  -0.6653961586022995E-04
  -0.2024326678674153E-03
   0.8053625868892940E-03
   0.0000000000000000E+00
   0.0000000000000000E+00
   0.0000000000000000E+00
   0.0000000000000000E+00
   0.4740180263004625E-03
   0.1623476417748504E-02
  -0.1273520598876688E-02
  -0.9988440165391585E-03
  -0.2077605635868238E-02
  -0.9970531558435799E-03
  -0.7512717498417009E-03
  -0.7430899932757241E-03
   0.6013924854387582E-04
  -0.5976419970148641E-03
   0.8032999053527448E-03
  -0.1730546608715305E-02
   0.3140946093384632E-03
  -0.5786514599663593E-04
  -0.8901903974795507E-03
  -0.1053196722438519E-02
   0.0000000000000000E+00
   0.0000000000000000E+00
   0.0000000000000000E+00
  -0.1035474866290348E-02
  -0.7791748257847808E-02
   0.1821117417087142E-01
  -0.2907384274653136E-04
  -0.1376998538590566E-02
  -0.2028315738966124E-02
  -0.5613334377087188E-02
  -0.1620479268189330E-02
  -0.6358834941027521E-02
  -0.4327530179224810E-02
   0.1516524993654901E-02
   0.3300085349050032E-01
   0.4396952115185381E-04
  -0.2766675156458193E-02
   0.3629410520468917E-02
   0.3917477236424328E-03
   0.0000000000000000E+00
   0.0000000000000000E+00
   0.0000000000000000E+00
   0.0000000000000000E+00
   0.0000000000000000E+00
   0.0000000000000000E+00
   0.0000000000000000E+00
   0.0000000000000000E+00
   0.0000000000000000E+00
   0.0000000000000000E+00
   0.0000000000000000E+00
   0.0000000000000000E+00
   0.0000000000000000E+00
   0.0000000000000000E+00
   0.0000000000000000E+00
   0.0000000000000000E+00
   0.0000000000000000E+00
   0.4996969354092821E-02
   0.3210188378069865E-02
   0.8121798595540689E-02
   0.6089628333895507E-02
   0.1117053119174503E-01
   0.1403199633745191E-01
  -0.3288482447579218E-03
   0.5160327340189317E-02
   0.2928869149490167E-02
   0.3376787782571965E-02
   0.3724195894353870E-02
  -0.1469861437882152E-01
  -0.6149046213815697E-03
   0.6636946600335017E-02
   0.1453262937673191E-02
   0.1957691682553241E-02
   0.4261442254926064E-02
  -0.2811582278565037E-02
   0.1265485697171021E-02
   0.2850417348592912E-02
   0.1533833266969796E-02
   0.2562440539191184E-02
   0.2009329366215848E-02
   0.2152902068933273E-02
   0.8578465507056196E-02
  -0.3835719321247575E-02
   0.6146233401912346E-02
   0.4620498927153803E-04
  -0.4247815512411942E-03
  -0.1674691926737317E-01
  -0.5005037472660754E-02
  -0.4835525900065574E-02
   0.3396938395852096E-02
  -0.6079343632574163E-02
   0.2524450624294532E-04
  -0.3285396797178410E-01
  -0.3188821258565987E-02
   0.4573348449078104E-02
   0.9670300374619817E-03
   0.2132610577462834E-02
   0.4531867220290781E-02
   0.2691321830458187E-02
   0.3250785501426413E-02
   0.5226686425362903E-02
   0.1957689409131185E-02
   0.7476519510884574E-03
  -0.6133215900442271E-04
  -0.5321966060682127E-02
  -0.6966496776977822E-02
  -0.9690391660052387E-03
   0.1057798355418412E-02
  -0.2117730114349513E-02
  -0.3224071934249690E-02
  -0.2538194500378700E-02
  -0.4117268302874985E-02
  -0.7559175667637524E-02
  -0.2014246466388322E-02
   0.6495753169319646E-03
  -0.1932165714013403E-03
   0.1227181404633107E-02
  -0.3503804189766951E-02
   0.4855576304219192E-02
  -0.8634991366116491E-02
   0.3164857330832369E-04
  -0.3337155755687145E-03
   0.2557975988398205E-02
   0.1609327707563886E-02
   0.2028246842013935E-02
  -0.5642904980178201E-02
SCALARS w double 1
LOOKUP_TABLE default
   0.0000000000000000E+00
   0.0000000000000000E+00
   0.0000000000000000E+00
   0.0000000000000000E+00
   0.0000000000000000E+00
   0.0000000000000000E+00
   0.0000000000000000E+00
   0.0000000000000000E+00
   0.0000000000000000E+00
   0.0000000000000000E+00
   0.0000000000000000E+00
   0.0000000000000000E+00
   0.0000000000000000E+00
   0.0000000000000000E+00
   0.0000000000000000E+00
   0.0000000000000000E+00
   0.0000000000000000E+00
   0.0000000000000000E+00
   0.0000000000000000E+00
   0.0000000000000000E+00
   0.0000000000000000E+00
   0.0000000000000000E+00
   0.0000000000000000E+00
   0.0000000000000000E+00
   0.0000000000000000E+00
   0.0000000000000000E+00
   0.0000000000000000E+00
   0.0000000000000000E+00
   0.0000000000000000E+00
   0.0000000000000000E+00
   0.0000000000000000E+00
   0.0000000000000000E+00
   0.0000000000000000E+00
  -0.1007323206333467E+00
  -0.4246422743869911E-01
   0.7113320562366349E-03
   0.5703905395196317E-02
   0.5677984598714302E-03
   0.1606453625692156E-02
   0.3372458896295791E-02
   0.2364336475023913E-02
   0.4714530235860040E-03
   0.3527024651846203E-02
   0.4532836890362531E-01
   0.6564276742144172E-01
   0.8375653662539153E-03
  -0.2265941550179730E-01
   0.4272680481590427E-02
   0.1342684434709125E-01
   0.1030062653910639E-01
   0.4871552730933165E-01
   0.2383979216014747E-02
  -0.6536040957550789E-02
  -0.7361231610216578E-03
   0.3059840397518784E-03
   0.3852877309369399E-02
  -0.3894170027802064E-01
   0.1818957303568216E-01
   0.1121939650197522E-01
   0.3396112627049862E-01
   0.8384113707883910E-02
   0.4924001849298842E-02
   0.4973334922987404E-02
   0.4900458220758817E-02
   0.6056655325866450E-02
   0.2699566746220275E-02
  -0.4126443334665737E-01
  -0.9925923043251379E-01
  -0.1120358547766366E+00
   0.5146227443707262E-02
   0.4213980525433157E-02
  -0.1002565010533698E+00
  -0.9892853588564211E-01
  -0.9835938895046271E-01
  -0.9444625150029352E-01
  -0.6789772304764373E-01
   0.5197107829478463E-02
  -0.1927012262400427E-01
  -0.1562810138385693E-01
  -0.5965351575753562E-02
   0.6821897454954655E-02
  -0.8000746105806092E-01
  -0.2776956709676131E-01
  -0.8085905782174151E-01
  -0.5863342928299530E-01
   0.3074015587567022E-02
   0.2684910269543020E-02
   0.2644248502684819E-02
   0.3456850596267228E-02
   0.3997736863608840E-02
   0.1199155293318742E-02
  -0.1356231974729287E-03
   0.2028500893698995E-02
   0.4893507167125523E-02
   0.3864262951554862E-02
   0.1125880532467233E-02
   0.1187840804994174E-02
   0.1459880931605029E-02
  -0.2249855863828162E-04
   0.9081791317893024E-04
   0.4386512858235713E-02
   0.2712007712674897E-02
   0.2316481470795262E-02
   0.5006621856796458E-02
   0.1069270609280735E-02
   0.2706708949551827E-02
   0.2010204622496417E-02
   0.3345964967524076E-04
   0.8386120783465319E-01
   0.2833933065414422E-02
  -0.8465892569599971E-03
  -0.1275297262287489E-03
   0.1410969289595519E+00
   0.1236587232025783E+00
  -0.1228603560337073E-02
  -0.4383029020734444E-02
  -0.2803887822400555E-03
  -0.6478051313471206E-02
  -0.1893638403337993E-02
   0.1559600015007548E+00
   0.7528209910234292E-01
   0.2567699421195059E-01
   0.1661258222177824E+00