title="tecplot geometry and solution file"
variables = x y z rho u v w p mach temperature
zone t="boundary 1 bc-1", solutiontime= 0.5000000E+02, strandid=1001, i=32, j=46, f=feblock
 -0.547473805982E-02  0.000000000000E+00 -0.567611393166E-02  0.000000000000E+00  0.000000000000E+00  0.000000000000E+00 -0.525163715733E-02
 -0.425779957546E-02  0.000000000000E+00  0.000000000000E+00  0.000000000000E+00  0.000000000000E+00  0.000000000000E+00  0.000000000000E+00
  0.000000000000E+00  0.000000000000E+00 -0.338397811599E-02  0.000000000000E+00  0.000000000000E+00  0.000000000000E+00  0.000000000000E+00
  0.000000000000E+00  0.000000000000E+00  0.000000000000E+00  0.000000000000E+00  0.000000000000E+00  0.000000000000E+00  0.000000000000E+00
  0.000000000000E+00  0.000000000000E+00  0.000000000000E+00  0.000000000000E+00
  0.250494199996E+01  0.250494199996E+01  0.127822171177E+01  0.146289271009E+01  0.157686156160E+01  0.308372018325E+00  0.261949834542E-01
 -0.122573470438E+01 -0.600232012419E+00  0.250494199996E+01  0.477386199275E+00  0.742988685424E+00 -0.739814786992E+00  0.177790177481E+01
  0.155830813274E+01  0.250494199996E+01 -0.249658902117E+01 -0.154800130438E+01 -0.487811078581E+00  0.250494199996E+01  0.627766083140E+00
 -0.345533899378E+00 -0.178862290564E+01 -0.158811787973E+01  0.125000000000E+01 -0.249658902117E+01 -0.144524380962E+01  0.000000000000E+00
 -0.125000000000E+01 -0.249658902117E+01 -0.249658902117E+01 -0.249658902117E+01
  0.805555225540E-04  0.125000000000E+01  0.823774385178E-04  0.103724302461E+01  0.219251206392E+01  0.922061490191E+00  0.103961359152E-03
  0.342005490352E-04  0.715990576545E+00  0.250000000000E+01  0.202479342020E+01  0.324151231464E+01  0.175434191980E+01  0.310152362409E+01
  0.404200324774E+01  0.375000000000E+01  0.810770727947E-04  0.930412228790E+00  0.299062775774E+01  0.500000000000E+01  0.429310310915E+01
  0.409252726285E+01  0.187029682677E+01  0.284428995242E+01  0.500000000000E+01  0.125000000000E+01  0.394624082883E+01  0.500000000000E+01
  0.500000000000E+01  0.250000000000E+01  0.375000000000E+01  0.500000000000E+01
  0.121959991357E+01  0.105831355419E+01  0.128671969226E+01  0.108337052699E+01  0.102354614334E+01  0.116941715982E+01  0.145633807576E+01
  0.134804088518E+01  0.119311484636E+01  0.101662522207E+01  0.101712196603E+01  0.100667543035E+01  0.102800079156E+01  0.100987438528E+01
  0.100346383386E+01  0.100488609828E+01  0.130024673304E+01  0.114206739374E+01  0.100787501758E+01  0.100194476543E+01  0.100378960216E+01
  0.100390910336E+01  0.103478537573E+01  0.101224063571E+01  0.100190260690E+01  0.106018060644E+01  0.100437851781E+01  0.100077796276E+01
  0.100130067800E+01  0.102043485126E+01  0.100593736724E+01  0.100184292359E+01
  0.000000000000E+00  0.451834048898E+00  0.000000000000E+00  0.472912039962E+00  0.470158335200E+00  0.459504932188E+00  0.000000000000E+00
  0.000000000000E+00  0.401768535210E+00  0.478881792966E+00  0.474223503616E+00  0.485492993080E+00  0.492581112375E+00  0.489510444515E+00
  0.492201643106E+00  0.493575540389E+00  0.000000000000E+00  0.464516463495E+00  0.481634321974E+00  0.498235961717E+00  0.494015370038E+00
  0.490674194314E+00  0.458608937873E+00  0.473144550925E+00  0.498753316274E+00  0.451330946892E+00  0.491521103115E+00  0.499569338134E+00
  0.498567814201E+00  0.477380962062E+00  0.492957759332E+00  0.497856402122E+00
  0.000000000000E+00  0.000000000000E+00  0.000000000000E+00  0.156898758279E-01 -0.426045984615E-02  0.288060393812E-01  0.000000000000E+00
  0.000000000000E+00 -0.370126857517E-02  0.000000000000E+00  0.249852572726E-02 -0.528108445513E-02 -0.303265803825E-02 -0.172451043194E-03
 -0.109131075100E-02  0.000000000000E+00  0.000000000000E+00 -0.850284723322E-02  0.955100461728E-03  0.000000000000E+00 -0.167361544180E-02
 -0.105339313727E-02  0.212715063968E-02 -0.123596930508E-02  0.695900261600E-04  0.000000000000E+00  0.214869425477E-03 -0.176723401313E-03
  0.608284616419E-03  0.000000000000E+00  0.000000000000E+00  0.000000000000E+00
  0.000000000000E+00  0.388446290011E-01  0.000000000000E+00  0.103917054385E+00  0.224193223868E-01  0.135341972860E+00  0.000000000000E+00
  0.000000000000E+00  0.126992547994E+00  0.342255362599E-02  0.213553912817E-01 -0.708603648766E-02  0.636035309702E-01  0.292766279525E-02
 -0.792043181788E-03  0.244076064929E-03  0.000000000000E+00  0.115618465160E+00 -0.829814475397E-02  0.114480785990E-02 -0.749346056875E-03
 -0.442111722477E-02  0.223713946785E-01 -0.264556741032E-02  0.180779095390E-02  0.687953315932E-01 -0.177101578690E-02  0.155938630803E-02
  0.142678821553E-02  0.233069978915E-02 -0.110520696783E-02  0.211864588261E-02
  0.908102254091E+00  0.774899680615E+00  0.958078989608E+00  0.800622211443E+00  0.737949071270E+00  0.857914891851E+00  0.108437519108E+01
  0.100373815446E+01  0.887196042362E+00  0.730580345734E+00  0.733315358733E+00  0.720299335055E+00  0.748106703242E+00  0.724222065698E+00
  0.717576386022E+00  0.719224738115E+00  0.968151092837E+00  0.840784336951E+00  0.722225754199E+00  0.716319888024E+00  0.717948117954E+00
  0.717912572575E+00  0.749167992022E+00  0.726422696420E+00  0.716249845608E+00  0.782033718543E+00  0.718602110936E+00  0.715132538027E+00
  0.715579064597E+00  0.734165582657E+00  0.720297842751E+00  0.716213118366E+00
  0.000000000000E+00  0.447917893166E+00  0.000000000000E+00  0.476275931922E+00  0.468523764168E+00  0.473519703365E+00  0.000000000000E+00
  0.000000000000E+00  0.412988885521E+00  0.477443348042E+00  0.472504673144E+00  0.485153442315E+00  0.492070550057E+00  0.488543839146E+00
  0.491923380058E+00  0.493078170186E+00  0.000000000000E+00  0.471586655529E+00  0.480934095764E+00  0.498012891770E+00  0.493689909440E+00
  0.490409919483E+00  0.456073457142E+00  0.472047038164E+00  0.498545864677E+00  0.449257987558E+00  0.491117573646E+00  0.499470103021E+00
  0.498443301968E+00  0.475665753151E+00  0.492352552859E+00  0.497648492237E+00
  0.104242640687E+01  0.102508330217E+01  0.104242640687E+01  0.103461472146E+01  0.100936211475E+01  0.102707647011E+01  0.104242640687E+01
  0.104242640687E+01  0.104103512172E+01  0.100608607953E+01  0.100935928681E+01  0.100173207637E+01  0.101882157401E+01  0.100399703840E+01
  0.100113916071E+01  0.100201867165E+01  0.104242640687E+01  0.103067303925E+01  0.100321571449E+01  0.100090132494E+01  0.100133271252E+01
  0.100116394825E+01  0.101357751417E+01  0.100469368558E+01  0.100084556817E+01  0.103269876784E+01  0.100165718150E+01  0.100040727363E+01
  0.100050934994E+01  0.100724883558E+01  0.100246497714E+01  0.100085386850E+01
        12        19        11        11
        11         5        12        12
        10        14         5         5
        19        13        11        11
        19        24        13        13
        30        23        24        24
        19        12        22        22
        28        22        21        21
        11        13         6         6
         7         6         9         9
        15        12        14        14
        18        13        23        23
        15        25        21        21
        27        19        22        22
        18         8         9         9
        27        31        24        24
         4        11         6         6
         5        14        12        12
         4         2         5         5
        21        12        15        15
        14        16        15        15
        24        19        27        27
        22        29        27        27
        23        26        18        18
        17         8        18        18
         5        11         4         4
         6         3         4         4
        26        23        30        30
         5         2        10        10
        16        14        10        10
         3         6         7         7
        21        25        28        28
        29        22        28        28
         6        13         9         9
         2         4         1         1
        31        27        32        32
        25        15        20        20
        24        23        13        13
         8         7         9         9
        13        18         9         9
        31        30        24        24
        12        21        22        22
        29        32        27        27
         3         1         4         4
        26        17        18        18
        16        20        15        15
zone t="boundary 2 bc-2", solutiontime= 0.5000000E+02, strandid=1002, i=33, j=48, f=feblock
  0.500195254569E+01  0.375034811445E+01  0.249861145586E+01  0.288036674135E+01  0.124717525353E+01  0.190856697906E+01  0.326577190006E+01
  0.201394855912E+01 -0.338397811599E-02  0.962374243892E+00  0.500000000000E+01  0.403430189815E+01  0.423029563516E+01  0.500000000000E+01
  0.385439188840E+01  0.500000000000E+01  0.398133433219E+01  0.315200081383E+01  0.266958028789E+01  0.154798029748E+01  0.218327860401E+01
  0.893688440127E+00  0.000000000000E+00  0.699009761219E+00  0.964460898510E+00  0.310303671661E+01  0.000000000000E+00  0.000000000000E+00
  0.125000000000E+01  0.500000000000E+01  0.375000000000E+01  0.250000000000E+01  0.000000000000E+00
 -0.249658902117E+01 -0.249658902117E+01 -0.249658902117E+01 -0.249658902117E+01 -0.249658902117E+01 -0.249658902117E+01 -0.249658902117E+01
 -0.249658902117E+01 -0.249658902117E+01 -0.249658902117E+01 -0.249658902117E+01 -0.249658902117E+01 -0.249658902117E+01 -0.249658902117E+01
 -0.249658902117E+01 -0.249658902117E+01 -0.249658902117E+01 -0.249658902117E+01 -0.249658902117E+01 -0.249658902117E+01 -0.249658902117E+01
 -0.249658902117E+01 -0.249658902117E+01 -0.249658902117E+01 -0.249658902117E+01 -0.249658902117E+01 -0.249658902117E+01 -0.249658902117E+01
 -0.249658902117E+01 -0.249658902117E+01 -0.249658902117E+01 -0.249658902117E+01 -0.249658902117E+01
  0.108218465758E-03  0.145871002147E-03  0.100891402538E-03  0.901663364691E+00  0.110859768726E-03  0.714928312396E+00  0.188140647111E+01
  0.175892165294E+01  0.810770727947E-04  0.957504290554E+00  0.125000000000E+01  0.100596696999E+01  0.191313518634E+01  0.250000000000E+01
  0.292898096729E+01  0.375000000000E+01  0.406883369623E+01  0.363389290091E+01  0.284756861229E+01  0.292582308304E+01  0.395754055152E+01
  0.205027257041E+01  0.125000000000E+01  0.306703272778E+01  0.397155766783E+01  0.433068622257E+01  0.250000000000E+01  0.375000000000E+01
  0.500000000000E+01  0.500000000000E+01  0.500000000000E+01  0.500000000000E+01  0.500000000000E+01
  0.768735588383E+00  0.889523282318E+00  0.898746401872E+00  0.950542415929E+00  0.924960177040E+00  0.947969380800E+00  0.981017533266E+00
  0.987799005757E+00  0.130024673304E+01  0.101390435683E+01  0.944836352690E+00  0.944236777851E+00  0.978087755533E+00  0.100717422370E+01
  0.997784679647E+00  0.100978229796E+01  0.100012042069E+01  0.996167621530E+00  0.989919908610E+00  0.998867626654E+00  0.997941841323E+00
  0.100913681851E+01  0.106018060644E+01  0.100643337728E+01  0.100351221396E+01  0.998477815926E+00  0.102043485126E+01  0.100593736724E+01
  0.100234892667E+01  0.999828411512E+00  0.100019291355E+01  0.100028687175E+01  0.100184292359E+01
  0.000000000000E+00  0.000000000000E+00  0.000000000000E+00  0.385195835537E+00  0.000000000000E+00  0.340885979113E+00  0.583453519728E+00
  0.571759492890E+00  0.000000000000E+00  0.480963143892E+00  0.505185172199E+00  0.443662042565E+00  0.572024053889E+00  0.532003774925E+00
  0.566400166988E+00  0.512620362040E+00  0.508195588093E+00  0.526914231050E+00  0.564509578952E+00  0.531478335073E+00  0.508129388162E+00
  0.521930182114E+00  0.451330946892E+00  0.494980683502E+00  0.496091695927E+00  0.503538724157E+00  0.477380962062E+00  0.492957759332E+00
  0.494536380664E+00  0.491695275921E+00  0.489493216182E+00  0.494635423117E+00  0.497856402122E+00
  0.000000000000E+00  0.000000000000E+00  0.000000000000E+00  0.000000000000E+00  0.000000000000E+00  0.000000000000E+00  0.000000000000E+00
  0.000000000000E+00  0.000000000000E+00  0.000000000000E+00  0.000000000000E+00  0.000000000000E+00  0.000000000000E+00  0.000000000000E+00
  0.000000000000E+00  0.000000000000E+00  0.000000000000E+00  0.000000000000E+00  0.000000000000E+00  0.000000000000E+00  0.000000000000E+00
  0.000000000000E+00  0.000000000000E+00  0.000000000000E+00  0.000000000000E+00  0.000000000000E+00  0.000000000000E+00  0.000000000000E+00
  0.000000000000E+00  0.000000000000E+00  0.000000000000E+00  0.000000000000E+00  0.000000000000E+00
  0.000000000000E+00  0.000000000000E+00  0.000000000000E+00 -0.142934219334E-02  0.000000000000E+00  0.168978586877E-01  0.875996651172E-02
  0.403964088591E-01  0.000000000000E+00  0.730722625566E-01 -0.112216829067E+00 -0.262898949029E-01 -0.368284024489E-01 -0.483402254977E-01
 -0.588593102291E-02 -0.170492037365E-03 -0.195986643487E-02 -0.317074543373E-02  0.106422558227E-01  0.235146899796E-01  0.228804443547E-02
  0.486674894696E-01  0.687953315932E-01  0.868228688228E-02  0.441101872918E-02 -0.351502513120E-02  0.233069978915E-02 -0.110520696783E-02
  0.135829394821E-02  0.546603265609E-02 -0.147515959491E-02 -0.124162008357E-02  0.211864588261E-02
  0.572393055166E+00  0.662330399297E+00  0.669197844566E+00  0.681370847048E+00  0.688716367037E+00  0.681181056445E+00  0.693024442372E+00
  0.700085128964E+00  0.968151092837E+00  0.722087328744E+00  0.666760581931E+00  0.671480411608E+00  0.691232267099E+00  0.720038375878E+00
  0.710709996736E+00  0.723770718902E+00  0.714752639289E+00  0.710894215545E+00  0.704007881894E+00  0.714159227561E+00  0.712429496449E+00
  0.725804163080E+00  0.782033718543E+00  0.720438337937E+00  0.717728355501E+00  0.712837429161E+00  0.734165582657E+00  0.720297842751E+00
  0.716518299740E+00  0.714353111862E+00  0.714323977289E+00  0.714486133823E+00  0.716213118366E+00
  0.000000000000E+00  0.000000000000E+00  0.000000000000E+00  0.384516102694E+00  0.000000000000E+00  0.340285873482E+00  0.586752972916E+00
  0.575426018598E+00  0.000000000000E+00  0.487199378427E+00  0.520641038968E+00  0.445423556534E+00  0.576269221152E+00  0.533962376995E+00
  0.567224533897E+00  0.511735129199E+00  0.508063932851E+00  0.527166123562E+00  0.565842714057E+00  0.531744059322E+00  0.508272213821E+00
  0.522388437004E+00  0.449257987558E+00  0.494521458485E+00  0.495788427780E+00  0.503678486116E+00  0.475665753151E+00  0.492352552859E+00
  0.494346755155E+00  0.491660272934E+00  0.489529540422E+00  0.494638535264E+00  0.497648492237E+00
  0.104242640687E+01  0.104242640687E+01  0.104242640687E+01  0.100355246634E+01  0.104242640687E+01  0.100599607787E+01  0.989008031375E+00
  0.992225315916E+00  0.104242640687E+01  0.997058798917E+00  0.987964542267E+00  0.995589875656E+00  0.989405263960E+00  0.100087323772E+01
  0.997203119798E+00  0.100346283403E+01  0.100053321011E+01  0.999080757348E+00  0.995647249923E+00  0.100095637491E+01  0.999458338882E+00
  0.100692573066E+01  0.103269876784E+01  0.100216635883E+01  0.100130290765E+01  0.999493814392E+00  0.100724883558E+01  0.100246497714E+01
  0.100077487285E+01  0.100026599074E+01  0.999860681535E+00  0.999993717406E+00  0.100085386850E+01
        15         7        19        19
         8        20        19        19
        18        19        21        21
         7         4         8         8
         3         6         4         4
        19         7         8         8
        19        18        15        15
        14        13        15        15
         8        22        20        20
        27        24        22        22
        19        20        21        21
        32        26        21        21
        17        18        26        26
        17        16        15        15
        25        29        21        21
        12         7        13        13
        10         8         6         6
        25        20        24        24
         4         6         8         8
        12         2         4         4
        10        23        22        22
        26        31        17        17
        30        16        17        17
         4         7        12        12
        13        11        12        12
        21        20        25        25
        24        28        25        25
        22         8        10        10
         6         5        10        10
        31        26        32        32
         4         2         3         3
         5         6         3         3
        11        13        14        14
        22        23        27        27
        28        24        27        27
        15        13         7         7
         2        12         1         1
        29        25        33        33
        23        10         9         9
        21        26        18        18
        16        14        15        15
        18        17        15        15
        29        32        21        21
        22        24        20        20
        28        33        25        25
        11         1        12        12
        31        30        17        17
         5         9        10        10
zone t="boundary 3 bc-3", solutiontime= 0.5000000E+02, strandid=1003, i=33, j=48, f=feblock
  0.375059098657E+01  0.249769607633E+01  0.500322138025E+01  0.403612219887E+01  0.287976772043E+01  0.124541906321E+01  0.190552234484E+01
  0.500000000000E+01  0.326671105082E+01  0.423253757181E+01  0.201271135153E+01 -0.547473805982E-02  0.958895614435E+00  0.500000000000E+01
  0.266968147277E+01  0.385584488388E+01  0.890374186976E+00  0.154654012335E+01  0.000000000000E+00  0.500000000000E+01  0.315261137201E+01
  0.218304199244E+01  0.398195308498E+01  0.000000000000E+00  0.697379936713E+00  0.963757270369E+00  0.125000000000E+01  0.000000000000E+00
  0.500000000000E+01  0.310330738803E+01  0.250000000000E+01  0.375000000000E+01  0.000000000000E+00
  0.250494199996E+01  0.250494199996E+01  0.250494199996E+01  0.250494199996E+01  0.250494199996E+01  0.250494199996E+01  0.250494199996E+01
  0.250494199996E+01  0.250494199996E+01  0.250494199996E+01  0.250494199996E+01  0.250494199996E+01  0.250494199996E+01  0.250494199996E+01
  0.250494199996E+01  0.250494199996E+01  0.250494199996E+01  0.250494199996E+01  0.250494199996E+01  0.250494199996E+01  0.250494199996E+01
  0.250494199996E+01  0.250494199996E+01  0.250494199996E+01  0.250494199996E+01  0.250494199996E+01  0.250494199996E+01  0.250494199996E+01
  0.250494199996E+01  0.250494199996E+01  0.250494199996E+01  0.250494199996E+01  0.250494199996E+01
  0.135804645841E-03  0.110291639185E-03  0.968352495991E-04  0.101756767186E+01  0.908094755011E+00  0.104111093380E-03  0.722629266629E+00
  0.125000000000E+01  0.188965673343E+01  0.191862703992E+01  0.176708252860E+01  0.805555225540E-04  0.969652727930E+00  0.250000000000E+01
  0.285339441810E+01  0.293325064381E+01  0.205656233203E+01  0.293157024792E+01  0.125000000000E+01  0.375000000000E+01  0.363766843534E+01
  0.396069448926E+01  0.407056387650E+01  0.250000000000E+01  0.307031999891E+01  0.397359822904E+01  0.500000000000E+01  0.375000000000E+01
  0.500000000000E+01  0.433260783675E+01  0.500000000000E+01  0.500000000000E+01  0.500000000000E+01
  0.896676798736E+00  0.910447681337E+00  0.781948888666E+00  0.945770061853E+00  0.960130133831E+00  0.922179383835E+00  0.963950485902E+00
  0.950682207058E+00  0.978092891137E+00  0.979670615374E+00  0.986799172432E+00  0.121959991357E+01  0.100543678808E+01  0.100849097929E+01
  0.992240051408E+00  0.997800266503E+00  0.100537161787E+01  0.998282947647E+00  0.105831355419E+01  0.100697675824E+01  0.998804017389E+00
  0.999311197837E+00  0.100000736950E+01  0.101662522207E+01  0.100449252127E+01  0.100204227194E+01  0.100246725817E+01  0.100488609828E+01
  0.100014591007E+01  0.998721196765E+00  0.100101037031E+01  0.100049287078E+01  0.100194476543E+01
  0.000000000000E+00  0.000000000000E+00  0.000000000000E+00  0.451193539143E+00  0.403035879545E+00  0.000000000000E+00  0.369780815608E+00
  0.504465705787E+00  0.572441517288E+00  0.570700486344E+00  0.555903917151E+00  0.000000000000E+00  0.475076185599E+00  0.529012501077E+00
  0.555007182632E+00  0.562172008619E+00  0.523997661186E+00  0.523269527454E+00  0.451834048898E+00  0.514483256323E+00  0.524697318070E+00
  0.506246213252E+00  0.509778399927E+00  0.478881792966E+00  0.499519883684E+00  0.498081333985E+00  0.493201210717E+00  0.493575540389E+00
  0.493226503262E+00  0.501441535298E+00  0.491213267728E+00  0.488103501112E+00  0.498235961717E+00
  0.000000000000E+00  0.000000000000E+00  0.000000000000E+00  0.000000000000E+00  0.000000000000E+00  0.000000000000E+00  0.000000000000E+00
  0.000000000000E+00  0.000000000000E+00  0.000000000000E+00  0.000000000000E+00  0.000000000000E+00  0.000000000000E+00  0.000000000000E+00
  0.000000000000E+00  0.000000000000E+00  0.000000000000E+00  0.000000000000E+00  0.000000000000E+00  0.000000000000E+00  0.000000000000E+00
  0.000000000000E+00  0.000000000000E+00  0.000000000000E+00  0.000000000000E+00  0.000000000000E+00  0.000000000000E+00  0.000000000000E+00
  0.000000000000E+00  0.000000000000E+00  0.000000000000E+00  0.000000000000E+00  0.000000000000E+00
  0.000000000000E+00  0.000000000000E+00  0.000000000000E+00 -0.279072733297E-01  0.124067606783E-01  0.000000000000E+00  0.162361884122E-01
 -0.114474016390E+00  0.481986781905E-03 -0.460951182242E-01  0.299462834997E-01  0.000000000000E+00  0.536074079873E-01 -0.502845151544E-01
  0.507333855672E-02 -0.105803080090E-01  0.439389104451E-01  0.105965528430E-01  0.388446290011E-01 -0.221863383139E-02 -0.367150377083E-02
 -0.404342510034E-03 -0.149356856122E-02  0.342255362599E-02  0.804274931090E-02  0.207982632092E-02  0.580599199047E-03  0.244076064929E-03
  0.506601503806E-02 -0.210226082267E-02 -0.607638593108E-03 -0.695777125560E-03  0.114480785990E-02
  0.667656838165E+00  0.677910503643E+00  0.582231550264E+00  0.670520849278E+00  0.688130598025E+00  0.686645815416E+00  0.690430241699E+00
  0.670645823057E+00  0.691903440117E+00  0.692624433005E+00  0.700947322976E+00  0.908102254091E+00  0.717683208837E+00  0.721491979381E+00
  0.706702649976E+00  0.711393849599E+00  0.721305341474E+00  0.713317611376E+00  0.774899680615E+00  0.721207796596E+00  0.713532247623E+00
  0.713575104574E+00  0.714554240693E+00  0.730580345734E+00  0.718615628705E+00  0.716241100607E+00  0.716741920188E+00  0.719224738115E+00
  0.714565183586E+00  0.713128386600E+00  0.715136920437E+00  0.714653007335E+00  0.716319888024E+00
  0.000000000000E+00  0.000000000000E+00  0.000000000000E+00  0.453747916577E+00  0.402545504669E+00  0.000000000000E+00  0.369629009775E+00
  0.520525429516E+00  0.575220779839E+00  0.575502696270E+00  0.558260174229E+00  0.000000000000E+00  0.478252962525E+00  0.530976530900E+00
  0.555830976227E+00  0.562793219148E+00  0.524675235810E+00  0.523282018136E+00  0.447917893166E+00  0.513796075342E+00  0.524673096965E+00
  0.506323914651E+00  0.509686670262E+00  0.477443348042E+00  0.499194823632E+00  0.497912967336E+00  0.492962760171E+00  0.493078170186E+00
  0.493192030491E+00  0.501531684424E+00  0.491169161537E+00  0.488098791719E+00  0.498012891770E+00
  0.104242640687E+01  0.104242640687E+01  0.104242640687E+01  0.992555407335E+00  0.100338777348E+01  0.104242640687E+01  0.100275102561E+01
  0.987610944340E+00  0.990360757083E+00  0.989796152901E+00  0.994453866178E+00  0.104242640687E+01  0.999323382913E+00  0.100158433926E+01
  0.997121320151E+00  0.998147046932E+00  0.100443205290E+01  0.100036233042E+01  0.102508330217E+01  0.100269535217E+01  0.100014129827E+01
  0.999693737612E+00  0.100036856475E+01  0.100608607953E+01  0.100156234007E+01  0.100069385188E+01  0.100096903922E+01  0.100201867165E+01
  0.100024531116E+01  0.999658107261E+00  0.100018113529E+01  0.100002132898E+01  0.100090132494E+01
        15         9        16        16
        15        18        11        11
        22        15        21        21
        11         5         9         9
         5         7         2         2
        11         9        15        15
        16        21        15        15
        16        10        14        14
        18        17        11        11
        17        25        24        24
        22        18        15        15
        22        30        31        31
        30        21        23        23
        16        20        23        23
        22        27        26        26
        10         9         4         4
         7        11        13        13
        25        18        26        26
        11         7         5         5
         5         1         4         4
        17        19        13        13
        23        32        30        30
        23        20        29        29
         4         9         5         5
         4         8        10        10
        26        18        22        22
        26        28        25        25
        13        11        17        17
        13         6         7         7
        31        30        32        32
         2         1         5         5
         2         7         6         6
        14        10         8         8
        24        19        17        17
        24        25        28        28
         9        10        16        16
         3         4         1         1
        33        26        27        27
        12        13        19        19
        21        30        22        22
        16        14        20        20
        16        23        21        21
        22        31        27        27
        18        25        17        17
        26        33        28        28
         4         3         8         8
        23        29        32        32
        13        12         6         6
zone t="boundary 4 bc-4", solutiontime= 0.5000000E+02, strandid=1004, i=32, j=46, f=feblock
  0.125000000000E+01  0.219251206392E+01  0.103724302461E+01  0.500000000000E+01  0.250000000000E+01  0.375000000000E+01  0.404200324774E+01
  0.500000000000E+01  0.000000000000E+00  0.310152362409E+01  0.202479342020E+01  0.324151231464E+01  0.922061490191E+00  0.000000000000E+00
  0.299062775774E+01  0.394624082883E+01  0.500000000000E+01  0.409252726285E+01  0.500000000000E+01  0.429310310915E+01  0.175434191980E+01
  0.284428995242E+01  0.000000000000E+00  0.000000000000E+00  0.715990576545E+00  0.930412228790E+00  0.125000000000E+01  0.187029682677E+01
  0.500000000000E+01  0.375000000000E+01  0.250000000000E+01  0.000000000000E+00
  0.250494199996E+01  0.157686156160E+01  0.146289271009E+01  0.250494199996E+01  0.250494199996E+01  0.250494199996E+01  0.155830813274E+01
  0.125000000000E+01  0.250494199996E+01  0.177790177481E+01  0.477386199275E+00  0.742988685424E+00  0.308372018325E+00  0.125000000000E+01
 -0.487811078581E+00 -0.144524380962E+01 -0.125000000000E+01 -0.345533899378E+00  0.000000000000E+00  0.627766083140E+00 -0.739814786992E+00
 -0.158811787973E+01  0.000000000000E+00 -0.125000000000E+01 -0.600232012419E+00 -0.154800130438E+01 -0.249658902117E+01 -0.178862290564E+01
 -0.249658902117E+01 -0.249658902117E+01 -0.249658902117E+01 -0.249658902117E+01
  0.500000000000E+01  0.500000000000E+01  0.500000000000E+01  0.500000000000E+01  0.500000000000E+01  0.500000000000E+01  0.500000000000E+01
  0.500000000000E+01  0.500000000000E+01  0.500000000000E+01  0.500000000000E+01  0.500000000000E+01  0.500000000000E+01  0.500000000000E+01
  0.500000000000E+01  0.500000000000E+01  0.500000000000E+01  0.500000000000E+01  0.500000000000E+01  0.500000000000E+01  0.500000000000E+01
  0.500000000000E+01  0.500000000000E+01  0.500000000000E+01  0.500000000000E+01  0.500000000000E+01  0.500000000000E+01  0.500000000000E+01
  0.500000000000E+01  0.500000000000E+01  0.500000000000E+01  0.500000000000E+01
  0.100246725817E+01  0.100134430602E+01  0.100190794468E+01  0.100014591007E+01  0.100101037031E+01  0.100049287078E+01  0.999775593304E+00
  0.100034297680E+01  0.100194476543E+01  0.100086117823E+01  0.100110853633E+01  0.100019876712E+01  0.100152581845E+01  0.100190260690E+01
  0.100054385433E+01  0.998652396311E+00  0.100067113059E+01  0.999536489001E+00  0.100054144815E+01  0.999923232380E+00  0.100145779277E+01
  0.100044294161E+01  0.100077796276E+01  0.100130067800E+01  0.100105884141E+01  0.100174639477E+01  0.100234892667E+01  0.100133132904E+01
  0.999828411512E+00  0.100019291355E+01  0.100028687175E+01  0.100184292359E+01
  0.493201210717E+00  0.493601212101E+00  0.494657946942E+00  0.493226503262E+00  0.491213267728E+00  0.488103501112E+00  0.488185419719E+00
  0.494186667164E+00  0.498235961717E+00  0.490793316765E+00  0.492762890721E+00  0.491176772730E+00  0.497637808670E+00  0.498753316274E+00
  0.492051493725E+00  0.486062290523E+00  0.492255088282E+00  0.489681611016E+00  0.494622557642E+00  0.490040123549E+00  0.494628963668E+00
  0.492616660343E+00  0.499569338134E+00  0.498567814201E+00  0.498183508466E+00  0.496570936557E+00  0.494536380664E+00  0.494839497935E+00
  0.491695275921E+00  0.489493216182E+00  0.494635423117E+00  0.497856402122E+00
  0.000000000000E+00 -0.121469419927E-03 -0.110879960205E-02  0.000000000000E+00  0.000000000000E+00  0.000000000000E+00  0.121294472747E-03
  0.633470943757E-03  0.000000000000E+00  0.102567167597E-03 -0.874326322912E-03 -0.898643012618E-03 -0.157079972292E-02  0.695900261600E-04
 -0.888525205411E-03 -0.918891884851E-03 -0.139168099543E-02 -0.210154090618E-02 -0.141209600274E-02 -0.122049432004E-02 -0.534198343855E-03
 -0.644840443009E-03 -0.176723401313E-03  0.608284616419E-03 -0.247269617304E-04  0.142363543217E-02  0.000000000000E+00  0.724012426611E-03
  0.000000000000E+00  0.000000000000E+00  0.000000000000E+00  0.000000000000E+00