title="tecplot geometry and solution file"
variables = x y z rho u v w p mach temperature
zone t="boundary 1 bc-1", solutiontime= 0.8000000E+02, strandid=1001, i=32, j=46, f=feblock
 -0.547468543997E-02  0.000000000000E+00 -0.567606031034E-02  0.000000000000E+00  0.000000000000E+00  0.000000000000E+00 -0.525159244643E-02
 -0.425776897801E-02  0.000000000000E+00  0.000000000000E+00  0.000000000000E+00  0.000000000000E+00  0.000000000000E+00  0.000000000000E+00
  0.000000000000E+00  0.000000000000E+00 -0.338395986426E-02  0.000000000000E+00  0.000000000000E+00  0.000000000000E+00  0.000000000000E+00
  0.000000000000E+00  0.000000000000E+00  0.000000000000E+00  0.000000000000E+00  0.000000000000E+00  0.000000000000E+00  0.000000000000E+00
  0.000000000000E+00  0.000000000000E+00  0.000000000000E+00  0.000000000000E+00
  0.250494197116E+01  0.250494197116E+01  0.127822156905E+01  0.146289271009E+01  0.157686156160E+01  0.308372018325E+00  0.261948602317E-01
 -0.122573481165E+01 -0.600232012419E+00  0.250494197116E+01  0.477386199275E+00  0.742988685424E+00 -0.739814786992E+00  0.177790177481E+01
  0.155830813274E+01  0.250494197116E+01 -0.249658903664E+01 -0.154800130438E+01 -0.487811078581E+00  0.250494197116E+01  0.627766083140E+00
 -0.345533899378E+00 -0.178862290564E+01 -0.158811787973E+01  0.125000000000E+01 -0.249658903664E+01 -0.144524380962E+01  0.000000000000E+00
 -0.125000000000E+01 -0.249658903664E+01 -0.249658903664E+01 -0.249658903664E+01
  0.803813996096E-04  0.125000000000E+01  0.822460266134E-04  0.103724302461E+01  0.219251206392E+01  0.922061490191E+00  0.103872444357E-03
  0.341545892413E-04  0.715990576545E+00  0.250000000000E+01  0.202479342020E+01  0.324151231464E+01  0.175434191980E+01  0.310152362409E+01
  0.404200324774E+01  0.375000000000E+01  0.810725942306E-04  0.930412228790E+00  0.299062775774E+01  0.500000000000E+01  0.429310310915E+01
  0.409252726285E+01  0.187029682677E+01  0.284428995242E+01  0.500000000000E+01  0.125000000000E+01  0.394624082883E+01  0.500000000000E+01
  0.500000000000E+01  0.250000000000E+01  0.375000000000E+01  0.500000000000E+01
  0.134610831774E+01  0.106375546131E+01  0.142661175221E+01  0.108602668687E+01  0.103229749841E+01  0.120170182246E+01  0.164672969706E+01
  0.149542069502E+01  0.123512317379E+01  0.102386944109E+01  0.102822218346E+01  0.101305388336E+01  0.103253556523E+01  0.101467213820E+01
  0.100662698732E+01  0.100826833015E+01  0.144847545518E+01  0.116396754663E+01  0.101464052049E+01  0.100424996163E+01  0.100679645635E+01
  0.100725182597E+01  0.104656548105E+01  0.101934079216E+01  0.100423992226E+01  0.106448525697E+01  0.100790708723E+01  0.100288596924E+01
  0.100335006310E+01  0.102844206188E+01  0.100960587348E+01  0.100399794415E+01
  0.000000000000E+00  0.444887282122E+00  0.000000000000E+00  0.468180339904E+00  0.462186785021E+00  0.443238672350E+00  0.000000000000E+00
  0.000000000000E+00  0.379439107244E+00  0.471807259552E+00  0.466360665839E+00  0.479394554275E+00  0.490363734364E+00  0.484571640687E+00
  0.488597463425E+00  0.489900739437E+00  0.000000000000E+00  0.451029462641E+00  0.474778702878E+00  0.495800901371E+00  0.490926840377E+00
  0.486826274964E+00  0.448796916086E+00  0.465790677642E+00  0.496535897885E+00  0.444910677940E+00  0.487666690671E+00  0.497536485667E+00
  0.496381519679E+00  0.470013287438E+00  0.489177491704E+00  0.495515500954E+00
  0.000000000000E+00  0.000000000000E+00  0.000000000000E+00  0.182111741709E-01 -0.276667515646E-02  0.330008534905E-01  0.000000000000E+00
  0.000000000000E+00 -0.635883494103E-02  0.000000000000E+00  0.362941052047E-02 -0.561333437709E-02 -0.432753017922E-02  0.439695211519E-04
 -0.103547486629E-02  0.000000000000E+00  0.000000000000E+00 -0.779174825785E-02  0.391747723642E-03  0.000000000000E+00 -0.202831573897E-02
 -0.137699853859E-02  0.151652499365E-02 -0.162047926819E-02 -0.665396158602E-04  0.000000000000E+00 -0.290738427465E-04 -0.202432667867E-03
  0.805362586889E-03  0.000000000000E+00  0.000000000000E+00  0.000000000000E+00
  0.000000000000E+00  0.453283689036E-01  0.000000000000E+00  0.123658723203E+00  0.245692488421E-01  0.166125822218E+00  0.000000000000E+00
  0.000000000000E+00  0.155960001501E+00  0.352702465185E-02  0.259078649862E-01 -0.647805131347E-02  0.752820991023E-01  0.371569826315E-02
 -0.127529726229E-03  0.471453023586E-03  0.000000000000E+00  0.141096928960E+00 -0.806995808760E-02  0.236433647502E-02 -0.280388782240E-03
 -0.438302902073E-02  0.256769942120E-01 -0.189363840334E-02  0.307401558757E-02  0.838612078347E-01 -0.122860356034E-02  0.268491026954E-02
  0.264424850268E-02  0.283393306541E-02 -0.846589256960E-03  0.345685059627E-02
  0.961496614503E+00  0.782491126567E+00  0.101899898096E+01  0.808635919283E+00  0.746113331823E+00  0.879959781203E+00  0.117622540589E+01
  0.106814927628E+01  0.916484223513E+00  0.737375270913E+00  0.743650981409E+00  0.725792793994E+00  0.757479367091E+00  0.729144504250E+00
  0.720777570547E+00  0.722747151269E+00  0.103461779694E+01  0.858092897792E+00  0.728072575539E+00  0.718602764830E+00  0.721012357596E+00
  0.721154301282E+00  0.759934141520E+00  0.732618494849E+00  0.718521956565E+00  0.790948760612E+00  0.722118117569E+00  0.717197480051E+00
  0.717641997079E+00  0.741773499351E+00  0.724071788748E+00  0.718406370641E+00
  0.000000000000E+00  0.440666214012E+00  0.000000000000E+00  0.474617251418E+00  0.460123126262E+00  0.468636774919E+00  0.000000000000E+00
  0.000000000000E+00  0.402549872127E+00  0.469884091806E+00  0.464193478104E+00  0.478749614864E+00  0.489549465311E+00  0.483128668990E+00
  0.488002259863E+00  0.489034104275E+00  0.000000000000E+00  0.465240564265E+00  0.473760502742E+00  0.495364297259E+00  0.490293371189E+00
  0.486277598006E+00  0.445854520499E+00  0.464358879480E+00  0.496127933493E+00  0.443900347022E+00  0.486930056433E+00  0.497248722515E+00
  0.496055921430E+00  0.467744048646E+00  0.488189258117E+00  0.495091099947E+00
  0.999990299864E+00  0.102983027306E+01  0.999990762124E+00  0.104241479577E+01  0.101187755096E+01  0.102516586949E+01  0.999991420080E+00
  0.999992170618E+00  0.103882587595E+01  0.100825880513E+01  0.101253541377E+01  0.100301664925E+01  0.102705528956E+01  0.100604152565E+01
  0.100244540578E+01  0.100354834276E+01  0.999992723757E+00  0.103209927148E+01  0.100459382922E+01  0.100178631735E+01  0.100260315208E+01
  0.100234717452E+01  0.101657069471E+01  0.100620508928E+01  0.100168367827E+01  0.104024762918E+01  0.100303428501E+01  0.100118707697E+01
  0.100134422955E+01  0.100976315301E+01  0.100405567249E+01  0.100176392268E+01
        12        19        11        11
        11         5        12        12
        10        14         5         5
        19        13        11        11
        19        24        13        13
        30        23        24        24
        19        12        22        22
        28        22        21        21
        11        13         6         6
         7         6         9         9
        15        12        14        14
        18        13        23        23
        15        25        21        21
        27        19        22        22
        18         8         9         9
        27        31        24        24
         4        11         6         6
         5        14        12        12
         4         2         5         5
        21        12        15        15
        14        16        15        15
        24        19        27        27
        22        29        27        27
        23        26        18        18
        17         8        18        18
         5        11         4         4
         6         3         4         4
        26        23        30        30
         5         2        10        10
        16        14        10        10
         3         6         7         7
        21        25        28        28
        29        22        28        28
         6        13         9         9
         2         4         1         1
        31        27        32        32
        25        15        20        20
        24        23        13        13
         8         7         9         9
        13        18         9         9
        31        30        24        24
        12        21        22        22
        29        32        27        27
         3         1         4         4
        26        17        18        18
        16        20        15        15
zone t="boundary 2 bc-2", solutiontime= 0.8000000E+02, strandid=1002, i=33, j=48, f=feblock
  0.500195253374E+01  0.375034811161E+01  0.249861146300E+01  0.288036674177E+01  0.124717526933E+01  0.190856698521E+01  0.326577190273E+01
  0.201394856120E+01 -0.338395986426E-02  0.962374249381E+00  0.500000000000E+01  0.403430190009E+01  0.423029563807E+01  0.500000000000E+01
  0.385439188940E+01  0.500000000000E+01  0.398133433177E+01  0.315200081417E+01  0.266958028869E+01  0.154798029824E+01  0.218327860466E+01
  0.893688440337E+00  0.000000000000E+00  0.699009761767E+00  0.964460899052E+00  0.310303671659E+01  0.000000000000E+00  0.000000000000E+00
  0.125000000000E+01  0.500000000000E+01  0.375000000000E+01  0.250000000000E+01  0.000000000000E+00
 -0.249658903664E+01 -0.249658903664E+01 -0.249658903664E+01 -0.249658903664E+01 -0.249658903664E+01 -0.249658903664E+01 -0.249658903664E+01
 -0.249658903664E+01 -0.249658903664E+01 -0.249658903664E+01 -0.249658903664E+01 -0.249658903664E+01 -0.249658903664E+01 -0.249658903664E+01
 -0.249658903664E+01 -0.249658903664E+01 -0.249658903664E+01 -0.249658903664E+01 -0.249658903664E+01 -0.249658903664E+01 -0.249658903664E+01
 -0.249658903664E+01 -0.249658903664E+01 -0.249658903664E+01 -0.249658903664E+01 -0.249658903664E+01 -0.249658903664E+01 -0.249658903664E+01
 -0.249658903664E+01 -0.249658903664E+01 -0.249658903664E+01 -0.249658903664E+01 -0.249658903664E+01
  0.108225888555E-03  0.145875368860E-03  0.100893325299E-03  0.901663374397E+00  0.110858760389E-03  0.714928318829E+00  0.188140648011E+01
  0.175892165504E+01  0.810725942306E-04  0.957504300332E+00  0.125000000000E+01  0.100596698996E+01  0.191313519090E+01  0.250000000000E+01
  0.292898096716E+01  0.375000000000E+01  0.406883369524E+01  0.363389289944E+01  0.284756860985E+01  0.292582308120E+01  0.395754054931E+01
  0.205027256979E+01  0.125000000000E+01  0.306703272692E+01  0.397155766662E+01  0.433068622168E+01  0.250000000000E+01  0.375000000000E+01
  0.500000000000E+01  0.500000000000E+01  0.500000000000E+01  0.500000000000E+01  0.500000000000E+01
  0.831048948189E+00  0.935354824772E+00  0.934389729201E+00  0.968094443984E+00  0.961616792900E+00  0.964874051148E+00  0.984210079101E+00
  0.991408428696E+00  0.144847545518E+01  0.102898692717E+01  0.956112561853E+00  0.960814783338E+00  0.981522843659E+00  0.100650795558E+01
  0.997935784359E+00  0.100981608803E+01  0.100200366739E+01  0.998069050953E+00  0.991091308322E+00  0.100132489871E+01  0.100093956962E+01
  0.101223133639E+01  0.106448525697E+01  0.101079826188E+01  0.100685807228E+01  0.100119204086E+01  0.102844206188E+01  0.100960587348E+01
  0.100511534478E+01  0.100179357832E+01  0.100266912379E+01  0.100322320973E+01  0.100399794415E+01
  0.000000000000E+00  0.000000000000E+00  0.000000000000E+00  0.378615143888E+00  0.000000000000E+00  0.340330036807E+00  0.582178245435E+00
  0.575334648199E+00  0.000000000000E+00  0.489381112487E+00  0.495137410535E+00  0.430537259000E+00  0.569176924977E+00  0.536367073080E+00
  0.569065099414E+00  0.516259718260E+00  0.508563867683E+00  0.527499055206E+00  0.566854326375E+00  0.532032725613E+00  0.506130936475E+00
  0.520947368821E+00  0.444910677940E+00  0.491385540592E+00  0.492729803622E+00  0.501502412932E+00  0.470013287438E+00  0.489177491704E+00
  0.490417254801E+00  0.491396778280E+00  0.486161130935E+00  0.490250021728E+00  0.495515500954E+00
  0.000000000000E+00  0.000000000000E+00  0.000000000000E+00  0.000000000000E+00  0.000000000000E+00  0.000000000000E+00  0.000000000000E+00
  0.000000000000E+00  0.000000000000E+00  0.000000000000E+00  0.000000000000E+00  0.000000000000E+00  0.000000000000E+00  0.000000000000E+00
  0.000000000000E+00  0.000000000000E+00  0.000000000000E+00  0.000000000000E+00  0.000000000000E+00  0.000000000000E+00  0.000000000000E+00
  0.000000000000E+00  0.000000000000E+00  0.000000000000E+00  0.000000000000E+00  0.000000000000E+00  0.000000000000E+00  0.000000000000E+00
  0.000000000000E+00  0.000000000000E+00  0.000000000000E+00  0.000000000000E+00  0.000000000000E+00
  0.000000000000E+00  0.000000000000E+00  0.000000000000E+00 -0.232905753121E-02  0.000000000000E+00  0.182353599494E-01  0.121236132246E-01
  0.453891498353E-01  0.000000000000E+00  0.867493107285E-01 -0.992592304325E-01 -0.210121301220E-01 -0.304697135313E-01 -0.412644333467E-01
 -0.132004572406E-02  0.269956674622E-02  0.637123401903E-03  0.535256070538E-03  0.151134138707E-01  0.283971490942E-01  0.565020081718E-02
  0.553958400387E-01  0.838612078347E-01  0.110560461806E-01  0.679114916906E-02 -0.740732311909E-03  0.283393306541E-02 -0.846589256960E-03
  0.399773686361E-02  0.605665532587E-02 -0.135623197473E-03  0.119915529332E-02  0.345685059627E-02
  0.593602526047E+00  0.668106373707E+00  0.667416926161E+00  0.684291429168E+00  0.686864424925E+00  0.679258574299E+00  0.695864189104E+00
  0.702291799869E+00  0.103461779694E+01  0.723389828215E+00  0.672789507336E+00  0.675870605614E+00  0.694123989071E+00  0.721038067027E+00
  0.712711428995E+00  0.724812421403E+00  0.716595370010E+00  0.713312884627E+00  0.706427915750E+00  0.717741416858E+00  0.715380857937E+00
  0.730906771651E+00  0.790948760612E+00  0.724365793642E+00  0.721017449168E+00  0.715471812548E+00  0.741773499351E+00  0.724071788748E+00
  0.719322140392E+00  0.715894733726E+00  0.716614384222E+00  0.717376654978E+00  0.718406370641E+00
  0.000000000000E+00  0.000000000000E+00  0.000000000000E+00  0.380610262096E+00  0.000000000000E+00  0.343302163927E+00  0.585285498539E+00
  0.579523873751E+00  0.000000000000E+00  0.500979747459E+00  0.508782813875E+00  0.434361560619E+00  0.572843977162E+00  0.537166654030E+00
  0.569106490046E+00  0.515013352209E+00  0.508252450096E+00  0.527349030421E+00  0.567655252737E+00  0.531857855072E+00  0.506012444311E+00
  0.521051129076E+00  0.443900347022E+00  0.490706184851E+00  0.492149786330E+00  0.501385664763E+00  0.467744048646E+00  0.488189258117E+00
  0.489961991082E+00  0.491321546658E+00  0.486017931548E+00  0.489981935206E+00  0.495091099947E+00
  0.999993488081E+00  0.999993690541E+00  0.999993543833E+00  0.989581137241E+00  0.999993138634E+00  0.985581488990E+00  0.989839349781E+00
  0.991729030496E+00  0.999992723757E+00  0.984216351788E+00  0.985140607761E+00  0.984808793815E+00  0.990067211351E+00  0.100292629407E+01
  0.999859927092E+00  0.100487346359E+01  0.100122739134E+01  0.100057008834E+01  0.997888967188E+00  0.100350843657E+01  0.100059307425E+01
  0.101090476408E+01  0.104024762918E+01  0.100327844768E+01  0.100254887618E+01  0.100046793891E+01  0.100976315301E+01  0.100405567249E+01
  0.100192580063E+01  0.100045822703E+01  0.100058944083E+01  0.100110055990E+01  0.100176392268E+01
        15         7        19        19
         8        20        19        19
        18        19        21        21
         7         4         8         8
         3         6         4         4
        19         7         8         8
        19        18        15        15
        14        13        15        15
         8        22        20        20
        27        24        22        22
        19        20        21        21
        32        26        21        21
        17        18        26        26
        17        16        15        15
        25        29        21        21
        12         7        13        13
        10         8         6         6
        25        20        24        24
         4         6         8         8
        12         2         4         4
        10        23        22        22
        26        31        17        17
        30        16        17        17
         4         7        12        12
        13        11        12        12
        21        20        25        25
        24        28        25        25
        22         8        10        10
         6         5        10        10
        31        26        32        32
         4         2         3         3
         5         6         3         3
        11        13        14        14
        22        23        27        27
        28        24        27        27
        15        13         7         7
         2        12         1         1
        29        25        33        33
        23        10         9         9
        21        26        18        18
        16        14        15        15
        18        17        15        15
        29        32        21        21
        22        24        20        20
        28        33        25        25
        11         1        12        12
        31        30        17        17
         5         9        10        10
zone t="boundary 3 bc-3", solutiontime= 0.8000000E+02, strandid=1003, i=33, j=48, f=feblock
  0.375059096891E+01  0.249769609313E+01  0.500322133174E+01  0.403612218725E+01  0.287976772364E+01  0.124541910518E+01  0.190552237404E+01
  0.500000000000E+01  0.326671104552E+01  0.423253755448E+01  0.201271136506E+01 -0.547468543997E-02  0.958895643489E+00  0.500000000000E+01
  0.266968147299E+01  0.385584487271E+01  0.890374214836E+00  0.154654013699E+01  0.000000000000E+00  0.500000000000E+01  0.315261136744E+01
  0.218304199515E+01  0.398195307895E+01  0.000000000000E+00  0.697379952124E+00  0.963757277315E+00  0.125000000000E+01  0.000000000000E+00
  0.500000000000E+01  0.310330738524E+01  0.250000000000E+01  0.375000000000E+01  0.000000000000E+00
  0.250494197116E+01  0.250494197116E+01  0.250494197116E+01  0.250494197116E+01  0.250494197116E+01  0.250494197116E+01  0.250494197116E+01
  0.250494197116E+01  0.250494197116E+01  0.250494197116E+01  0.250494197116E+01  0.250494197116E+01  0.250494197116E+01  0.250494197116E+01
  0.250494197116E+01  0.250494197116E+01  0.250494197116E+01  0.250494197116E+01  0.250494197116E+01  0.250494197116E+01  0.250494197116E+01
  0.250494197116E+01  0.250494197116E+01  0.250494197116E+01  0.250494197116E+01  0.250494197116E+01  0.250494197116E+01  0.250494197116E+01
  0.250494197116E+01  0.250494197116E+01  0.250494197116E+01  0.250494197116E+01  0.250494197116E+01
  0.135649916560E-03  0.110129831705E-03  0.966887472574E-04  0.101756752010E+01  0.908094589231E+00  0.103942520170E-03  0.722629083224E+00
  0.125000000000E+01  0.188965661747E+01  0.191862696981E+01  0.176708239099E+01  0.803813996096E-04  0.969652551961E+00  0.250000000000E+01
  0.285339433502E+01  0.293325058812E+01  0.205656223819E+01  0.293157016932E+01  0.125000000000E+01  0.375000000000E+01  0.363766838842E+01
  0.396069444983E+01  0.407056385475E+01  0.250000000000E+01  0.307031995246E+01  0.397359820314E+01  0.500000000000E+01  0.375000000000E+01
  0.500000000000E+01  0.433260781310E+01  0.500000000000E+01  0.500000000000E+01  0.500000000000E+01
  0.942172442822E+00  0.946117218152E+00  0.843607676023E+00  0.964577423402E+00  0.979032723472E+00  0.957204000314E+00  0.983413605098E+00
  0.963701374353E+00  0.982803932717E+00  0.984389972743E+00  0.990475737659E+00  0.134610831774E+01  0.101939408841E+01  0.100835627205E+01
  0.993519346911E+00  0.998019553053E+00  0.100803794849E+01  0.100074573630E+01  0.106375546131E+01  0.100671242970E+01  0.100059276938E+01
  0.100235386208E+01  0.100177791187E+01  0.102386944109E+01  0.100869654934E+01  0.100526332831E+01  0.100520806494E+01  0.100826833015E+01
  0.100195893023E+01  0.100162064190E+01  0.100412011601E+01  0.100321752215E+01  0.100424996163E+01
  0.000000000000E+00  0.000000000000E+00  0.000000000000E+00  0.440185947373E+00  0.400363895523E+00  0.000000000000E+00  0.375219237809E+00
  0.494597367671E+00  0.572920158679E+00  0.569359282834E+00  0.559938998157E+00  0.000000000000E+00  0.484436995960E+00  0.533624805100E+00
  0.556225901429E+00  0.564433696412E+00  0.522383222177E+00  0.522300357306E+00  0.444887282122E+00  0.518274040503E+00  0.524589464196E+00
  0.503816824446E+00  0.509770333333E+00  0.471807259552E+00  0.496274703034E+00  0.494958709681E+00  0.489143074379E+00  0.489900739437E+00
  0.493071424673E+00  0.499098509745E+00  0.486813265284E+00  0.484775420467E+00  0.495800901371E+00
  0.000000000000E+00  0.000000000000E+00  0.000000000000E+00  0.000000000000E+00  0.000000000000E+00  0.000000000000E+00  0.000000000000E+00
  0.000000000000E+00  0.000000000000E+00  0.000000000000E+00  0.000000000000E+00  0.000000000000E+00  0.000000000000E+00  0.000000000000E+00
  0.000000000000E+00  0.000000000000E+00  0.000000000000E+00  0.000000000000E+00  0.000000000000E+00  0.000000000000E+00  0.000000000000E+00
  0.000000000000E+00  0.000000000000E+00  0.000000000000E+00  0.000000000000E+00  0.000000000000E+00  0.000000000000E+00  0.000000000000E+00
  0.000000000000E+00  0.000000000000E+00  0.000000000000E+00  0.000000000000E+00  0.000000000000E+00
  0.000000000000E+00  0.000000000000E+00  0.000000000000E+00 -0.226594155018E-01  0.112193965020E-01  0.000000000000E+00  0.181895730357E-01
 -0.100732320633E+00  0.385287730937E-02 -0.389417002780E-01  0.339611262705E-01  0.000000000000E+00  0.656427674214E-01 -0.424642274387E-01
  0.838411370788E-02 -0.653604095755E-02  0.487155273093E-01  0.134268443471E-01  0.453283689036E-01  0.711332056237E-03 -0.736123161022E-03
  0.238397921601E-02  0.837565366254E-03  0.352702465185E-02  0.103006265391E-01  0.427268048159E-02  0.337245889630E-02  0.471453023586E-03
  0.570390539520E-02  0.305984039752E-03  0.160645362569E-02  0.567798459871E-03  0.236433647502E-02
  0.672973145723E+00  0.675790859214E+00  0.602570663974E+00  0.676155665357E+00  0.691393387920E+00  0.683710191332E+00  0.689988520071E+00
  0.677395950788E+00  0.695267863928E+00  0.696328683637E+00  0.703514407125E+00  0.961496614503E+00  0.719946046532E+00  0.722885124548E+00
  0.709495721026E+00  0.713707851657E+00  0.726005214577E+00  0.716614514139E+00  0.782491126567E+00  0.722258495288E+00  0.716132750871E+00
  0.716553864296E+00  0.716542446646E+00  0.737375270913E+00  0.722640584751E+00  0.719421881492E+00  0.719547980136E+00  0.722747151269E+00
  0.716025294301E+00  0.715847810846E+00  0.718137414084E+00  0.717062208245E+00  0.718602764830E+00
  0.000000000000E+00  0.000000000000E+00  0.000000000000E+00  0.444930326557E+00  0.402807304819E+00  0.000000000000E+00  0.379033816301E+00
  0.508818739837E+00  0.575701380319E+00  0.573472074560E+00  0.562547829795E+00  0.000000000000E+00  0.491637802967E+00  0.534336813577E+00
  0.556352181578E+00  0.564140551440E+00  0.522485305882E+00  0.521817734709E+00  0.440666214012E+00  0.517132977454E+00  0.524068294224E+00
  0.503616120402E+00  0.509419881726E+00  0.469884091806E+00  0.495645014377E+00  0.494503343489E+00  0.488630212168E+00  0.489034104275E+00
  0.492987209121E+00  0.498957573899E+00  0.486507800210E+00  0.484614058932E+00  0.495364297259E+00
  0.999989345041E+00  0.999989414364E+00  0.999989632077E+00  0.981380974231E+00  0.988680684396E+00  0.999989832419E+00  0.982276351569E+00
  0.984074897413E+00  0.990406099422E+00  0.990319064685E+00  0.994391010832E+00  0.999990299864E+00  0.988748587624E+00  0.100365238202E+01
  0.999773192666E+00  0.100117376384E+01  0.100830261592E+01  0.100251270967E+01  0.102983027306E+01  0.100441979613E+01  0.100199190110E+01
  0.100081961866E+01  0.100137906159E+01  0.100825880513E+01  0.100297440228E+01  0.100191721485E+01  0.100214792074E+01  0.100354834276E+01
  0.100047555022E+01  0.100056537702E+01  0.100126704334E+01  0.100066742195E+01  0.100178631735E+01
        15         9        16        16
        15        18        11        11
        22        15        21        21
        11         5         9         9
         5         7         2         2
        11         9        15        15
        16        21        15        15
        16        10        14        14
        18        17        11        11
        17        25        24        24
        22        18        15        15
        22        30        31        31
        30        21        23        23
        16        20        23        23
        22        27        26        26
        10         9         4         4
         7        11        13        13
        25        18        26        26
        11         7         5         5
         5         1         4         4
        17        19        13        13
        23        32        30        30
        23        20        29        29
         4         9         5         5
         4         8        10        10
        26        18        22        22
        26        28        25        25
        13        11        17        17
        13         6         7         7
        31        30        32        32
         2         1         5         5
         2         7         6         6
        14        10         8         8
        24        19        17        17
        24        25        28        28
         9        10        16        16
         3         4         1         1
        33        26        27        27
        12        13        19        19
        21        30        22        22
        16        14        20        20
        16        23        21        21
        22        31        27        27
        18        25        17        17
        26        33        28        28
         4         3         8         8
        23        29        32        32
        13        12         6         6
zone t="boundary 4 bc-4", solutiontime= 0.8000000E+02, strandid=1004, i=32, j=46, f=feblock
  0.125000000000E+01  0.219251206392E+01  0.103724302461E+01  0.500000000000E+01  0.250000000000E+01  0.375000000000E+01  0.404200324774E+01
  0.500000000000E+01  0.000000000000E+00  0.310152362409E+01  0.202479342020E+01  0.324151231464E+01  0.922061490191E+00  0.000000000000E+00
  0.299062775774E+01  0.394624082883E+01  0.500000000000E+01  0.409252726285E+01  0.500000000000E+01  0.429310310915E+01  0.175434191980E+01
  0.284428995242E+01  0.000000000000E+00  0.000000000000E+00  0.715990576545E+00  0.930412228790E+00  0.125000000000E+01  0.187029682677E+01
  0.500000000000E+01  0.375000000000E+01  0.250000000000E+01  0.000000000000E+00
  0.250494197116E+01  0.157686156160E+01  0.146289271009E+01  0.250494197116E+01  0.250494197116E+01  0.250494197116E+01  0.155830813274E+01
  0.125000000000E+01  0.250494197116E+01  0.177790177481E+01  0.477386199275E+00  0.742988685424E+00  0.308372018325E+00  0.125000000000E+01
 -0.487811078581E+00 -0.144524380962E+01 -0.125000000000E+01 -0.345533899378E+00  0.000000000000E+00  0.627766083140E+00 -0.739814786992E+00
 -0.158811787973E+01  0.000000000000E+00 -0.125000000000E+01 -0.600232012419E+00 -0.154800130438E+01 -0.249658903664E+01 -0.178862290564E+01
 -0.249658903664E+01 -0.249658903664E+01 -0.249658903664E+01 -0.249658903664E+01
  0.500000000000E+01  0.500000000000E+01  0.500000000000E+01  0.500000000000E+01  0.500000000000E+01  0.500000000000E+01  0.500000000000E+01
  0.500000000000E+01  0.500000000000E+01  0.500000000000E+01  0.500000000000E+01  0.500000000000E+01  0.500000000000E+01  0.500000000000E+01
  0.500000000000E+01  0.500000000000E+01  0.500000000000E+01  0.500000000000E+01  0.500000000000E+01  0.500000000000E+01  0.500000000000E+01
  0.500000000000E+01  0.500000000000E+01  0.500000000000E+01  0.500000000000E+01  0.500000000000E+01  0.500000000000E+01  0.500000000000E+01
  0.500000000000E+01  0.500000000000E+01  0.500000000000E+01  0.500000000000E+01
  0.100520806494E+01  0.100431924308E+01  0.100430499122E+01  0.100195893023E+01  0.100412011601E+01  0.100321752215E+01  0.100258950809E+01
  0.100200889437E+01  0.100424996163E+01  0.100371856072E+01  0.100446256309E+01  0.100347200064E+01  0.100365301816E+01  0.100423992226E+01
  0.100362939625E+01  0.100164315712E+01  0.100227308754E+01  0.100227913647E+01  0.100213224076E+01  0.100254678205E+01  0.100442989926E+01
  0.100338024041E+01  0.100288596924E+01  0.100335006310E+01  0.100323313732E+01  0.100406904040E+01  0.100511534478E+01  0.100432403945E+01
  0.100179357832E+01  0.100266912379E+01  0.100322320973E+01  0.100399794415E+01
  0.489143074379E+00  0.489273551162E+00  0.491032966750E+00  0.493071424673E+00  0.486813265284E+00  0.484775420467E+00  0.485406756385E+00
  0.494264082535E+00  0.495800901371E+00  0.486819175823E+00  0.488146793018E+00  0.487231239241E+00  0.494435302571E+00  0.496535897885E+00
  0.487825239558E+00  0.483167751328E+00  0.492561907143E+00  0.487246880621E+00  0.494865195901E+00  0.488002427356E+00  0.490072116387E+00
  0.488216384541E+00  0.497536485667E+00  0.496381519679E+00  0.495257681682E+00  0.493195598924E+00  0.490417254801E+00  0.490359927851E+00
  0.491396778280E+00  0.486161130935E+00  0.490250021728E+00  0.495515500954E+00
  0.000000000000E+00 -0.578651459966E-04 -0.127352059888E-02  0.000000000000E+00  0.000000000000E+00  0.000000000000E+00  0.474018026300E-03
  0.850808760559E-03  0.000000000000E+00  0.314094609338E-03 -0.890190397480E-03 -0.751271749842E-03 -0.173054660872E-02 -0.665396158602E-04
 -0.105319672244E-02 -0.998844016539E-03 -0.129446229091E-02 -0.207760563587E-02 -0.126376829428E-02 -0.997053155844E-03 -0.597641997015E-03
 -0.743089993276E-03 -0.202432667867E-03  0.805362586889E-03  0.601392485439E-04  0.162347641775E-02  0.000000000000E+00  0.803299905353E-03
  0.000000000000E+00  0.000000000000E+00  0.000000000000E+00  0.000000000000E+00