# vtk DataFile Version 2.0
FUN3D:global_image_vtk
ASCII
DATASET UNSTRUCTURED_GRID
POINTS 213 double
   -0.5474683999070690E-02    0.2504941970845243E+01    0.8036153286133852E-04
    0.1245419106412722E+01    0.2504941970845243E+01    0.1039225040402972E-03
    0.2497696093855495E+01    0.2504941970845243E+01    0.1101096741215820E-03
    0.3750590968944872E+01    0.2504941970845243E+01    0.1356296770775645E-03
    0.5003221331136833E+01    0.2504941970845243E+01    0.9666851988903341E-04
    0.5004676687066260E+01    0.1281291200150177E+01    0.1637904157936576E-03
    0.5004772672909242E+01    0.2775079769758345E-01    0.1903381783074110E-03
    0.5003581182776991E+01   -0.1225853509652227E+01    0.1607720541317505E-03
    0.5001952533498530E+01   -0.2496589036704959E+01    0.1082264558073914E-03
    0.3750348111564973E+01   -0.2496589036704959E+01    0.1458759314345636E-03
    0.2498611463166655E+01   -0.2496589036704959E+01    0.1008939283934095E-03
    0.1247175269687750E+01   -0.2496589036704959E+01    0.1108594416281930E-03
   -0.3383959454546392E-02   -0.2496589036704959E+01    0.8107339962153455E-04
   -0.4257768252942104E-02   -0.1225734812006229E+01    0.3415032920883026E-04
   -0.5251591356244307E-02    0.2619485958141907E-01    0.1038630469285488E-03
   -0.5676058951348034E-02    0.1278221568035301E+01    0.8223142609259058E-04
    0.9003209631728168E+00    0.1608979110784669E+01    0.8702535292630733E-04
    0.3983172210537003E+01   -0.1561211905446582E+01    0.1757085581949588E-03
    0.4035602038960389E+01    0.1486760028003325E+01    0.1713155271444666E-03
    0.1036613723930592E+01   -0.1455626430422793E+01    0.1047155311470015E-03
    0.1094353481640568E+01   -0.2964622019334006E+00    0.1260508947442835E-03
    0.7298400280164539E+00    0.6874684735565368E+00    0.1044476816842995E-03
    0.1617018660533932E+01    0.8553208009451808E+00    0.1529681373207683E-03
    0.2143199663307764E+01   -0.1627128509738273E+01    0.1606142501009650E-03
    0.4088840445006570E+01   -0.4351047837415100E+00    0.2719856241290419E-03
    0.2977916511571740E+01   -0.8334991491300778E+00    0.2245536652343229E-03
    0.3044093241542120E+01   -0.1814361225654856E+01    0.1616979344098765E-03
    0.3427866614948210E+01    0.3813904821393453E+00    0.2936844825969837E-03
    0.4313225354705971E+01    0.5489133357670972E+00    0.2312891578729658E-03
    0.1823032738682448E+01    0.1771265191495963E+01    0.1836034459428050E-03
    0.2806311152777841E+01    0.1358629371304083E+01    0.1943340485292704E-03
    0.1891860876697250E+01   -0.8481310373640638E+00    0.1670586274279295E-03
    0.2268769201097843E+01    0.7723691680569209E-01    0.2072210249514182E-03
    0.5000000000000000E+01    0.2504941970845243E+01    0.1250000000000000E+01
    0.5000000000000000E+01    0.2504941970845243E+01    0.2500000000000000E+01
    0.5000000000000000E+01    0.2504941970845243E+01    0.3750000000000000E+01
    0.5000000000000000E+01    0.2504941970845243E+01    0.5000000000000000E+01
    0.3750000000000000E+01    0.2504941970845243E+01    0.5000000000000000E+01
    0.2500000000000000E+01    0.2504941970845243E+01    0.5000000000000000E+01
    0.1250000000000000E+01    0.2504941970845243E+01    0.5000000000000000E+01
    0.0000000000000000E+00    0.2504941970845243E+01    0.5000000000000000E+01
    0.0000000000000000E+00    0.2504941970845243E+01    0.3750000000000000E+01
    0.0000000000000000E+00    0.2504941970845243E+01    0.2500000000000000E+01
    0.0000000000000000E+00    0.2504941970845243E+01    0.1250000000000000E+01
    0.9588956439659053E+00    0.2504941970845243E+01    0.9696525361913779E+00
    0.3981953078379247E+01    0.2504941970845243E+01    0.4070563852497649E+01
    0.4036122187609572E+01    0.2504941970845243E+01    0.1017567503736550E+01
    0.9637572779670432E+00    0.2504941970845243E+01    0.3973598200672562E+01
    0.1546540138039668E+01    0.2504941970845243E+01    0.2931570161807533E+01
    0.6973799533270882E+00    0.2504941970845243E+01    0.3070319948105269E+01
    0.8903742164843472E+00    0.2504941970845243E+01    0.2056562229488528E+01
    0.2183041995433930E+01    0.2504941970845243E+01    0.3960694445915931E+01
    0.3855844871786374E+01    0.2504941970845243E+01    0.2933250582277650E+01
    0.3152611367069448E+01    0.2504941970845243E+01    0.3637668383621897E+01
    0.3103307384994251E+01    0.2504941970845243E+01    0.4332607810698041E+01
    0.3266711045261121E+01    0.2504941970845243E+01    0.1889656604898021E+01
    0.4232537553222396E+01    0.2504941970845243E+01    0.1918626962522351E+01
    0.1905522374840677E+01    0.2504941970845243E+01    0.7226290644717444E+00
    0.2879767724249113E+01    0.2504941970845243E+01    0.9080945703992016E+00
    0.2012711365980290E+01    0.2504941970845243E+01    0.1767082376927636E+01
    0.2669681473084256E+01    0.2504941970845243E+01    0.2853394326354457E+01
    0.5000000000000000E+01    0.1250000000000000E+01    0.5000000000000000E+01
    0.5000000000000000E+01    0.0000000000000000E+00    0.5000000000000000E+01
    0.5000000000000000E+01   -0.1250000000000000E+01    0.5000000000000000E+01
    0.5000000000000000E+01   -0.2496589036704959E+01    0.5000000000000000E+01
    0.5000000000000000E+01   -0.2496589036704959E+01    0.3750000000000000E+01
    0.5000000000000000E+01   -0.2496589036704959E+01    0.2500000000000000E+01
    0.5000000000000000E+01   -0.2496589036704959E+01    0.1250000000000000E+01
    0.5000000000000000E+01    0.1578994732800803E+01    0.9058375365086910E+00
    0.5000000000000000E+01   -0.1583989954232354E+01    0.3982050490726493E+01
    0.5000000000000000E+01    0.1453322699199022E+01    0.4033849428301197E+01
    0.5000000000000000E+01   -0.1479596339503735E+01    0.1040505887381675E+01
    0.5000000000000000E+01   -0.3227322616384110E+00    0.1099454400140349E+01
    0.5000000000000000E+01    0.6593508822075582E+00    0.7354504170366591E+00
    0.5000000000000000E+01    0.8256214013940779E+00    0.1622302608453282E+01
    0.5000000000000000E+01   -0.1650070333782557E+01    0.2145871574390382E+01
    0.5000000000000000E+01   -0.4612828702537229E+00    0.4086422318222992E+01
    0.5000000000000000E+01   -0.8579242121530853E+00    0.2979540174134984E+01
    0.5000000000000000E+01   -0.1836846154397680E+01    0.3045064261640043E+01
    0.5000000000000000E+01    0.3508002863614053E+00    0.3428197553792836E+01
    0.5000000000000000E+01    0.5185680230613409E+00    0.4309693860063405E+01
    0.5000000000000000E+01    0.1738996113203182E+01    0.1827272193562204E+01
    0.5000000000000000E+01    0.1325493893339706E+01    0.2808563282768077E+01
    0.5000000000000000E+01   -0.8731419609589618E+00    0.1895995683864404E+01
    0.5000000000000000E+01    0.4906150219227333E-01    0.2273179336307740E+01
    0.0000000000000000E+00    0.1250000000000000E+01    0.5000000000000000E+01
    0.0000000000000000E+00    0.0000000000000000E+00    0.5000000000000000E+01
    0.0000000000000000E+00   -0.1250000000000000E+01    0.5000000000000000E+01
    0.0000000000000000E+00   -0.2496589036704959E+01    0.5000000000000000E+01
    0.1250000000000000E+01   -0.2496589036704959E+01    0.5000000000000000E+01
    0.2500000000000000E+01   -0.2496589036704959E+01    0.5000000000000000E+01
    0.3750000000000000E+01   -0.2496589036704959E+01    0.5000000000000000E+01
    0.4042003247744892E+01    0.1558308132739014E+01    0.5000000000000000E+01
    0.9304122287900499E+00   -0.1548001304379777E+01    0.5000000000000000E+01
    0.1037243024609388E+01    0.1462892710085612E+01    0.5000000000000000E+01
    0.3946240828834967E+01   -0.1445243809615570E+01    0.5000000000000000E+01
    0.4092527262848217E+01   -0.3455338993778935E+00    0.5000000000000000E+01
    0.4293103109154542E+01    0.6277660831404320E+00    0.5000000000000000E+01
    0.3241512314643519E+01    0.7429886854239611E+00    0.5000000000000000E+01
    0.2844289952419609E+01   -0.1588117879734118E+01    0.5000000000000000E+01
    0.7159905765450471E+00   -0.6002320124191652E+00    0.5000000000000000E+01
    0.1754341919796891E+01   -0.7398147869923652E+00    0.5000000000000000E+01
    0.1870296826774691E+01   -0.1788622905643739E+01    0.5000000000000000E+01
    0.9220614901912976E+00    0.3083720183248586E+00    0.5000000000000000E+01
    0.3101523624086016E+01    0.1777901774806180E+01    0.5000000000000000E+01
    0.2192512063922564E+01    0.1576861561598471E+01    0.5000000000000000E+01
    0.2024793420196460E+01    0.4773861992750707E+00    0.5000000000000000E+01
    0.2990627757741975E+01   -0.4878110785814084E+00    0.5000000000000000E+01
    0.0000000000000000E+00   -0.2496589036704959E+01    0.1250000000000000E+01
    0.0000000000000000E+00   -0.2496589036704959E+01    0.2500000000000000E+01
    0.0000000000000000E+00   -0.2496589036704959E+01    0.3750000000000000E+01
    0.0000000000000000E+00    0.1558308132739014E+01    0.4042003247744892E+01
    0.0000000000000000E+00   -0.1548001304379777E+01    0.9304122287900499E+00
    0.0000000000000000E+00    0.1462892710085612E+01    0.1037243024609388E+01
    0.0000000000000000E+00   -0.1445243809615570E+01    0.3946240828834967E+01
    0.0000000000000000E+00   -0.3455338993778935E+00    0.4092527262848217E+01
    0.0000000000000000E+00    0.6277660831404320E+00    0.4293103109154542E+01
    0.0000000000000000E+00    0.7429886854239611E+00    0.3241512314643519E+01
    0.0000000000000000E+00   -0.1588117879734118E+01    0.2844289952419609E+01
    0.0000000000000000E+00   -0.6002320124191652E+00    0.7159905765450471E+00
    0.0000000000000000E+00   -0.7398147869923652E+00    0.1754341919796891E+01
    0.0000000000000000E+00   -0.1788622905643739E+01    0.1870296826774691E+01
    0.0000000000000000E+00    0.3083720183248586E+00    0.9220614901912976E+00
    0.0000000000000000E+00    0.1777901774806180E+01    0.3101523624086016E+01
    0.0000000000000000E+00    0.1576861561598471E+01    0.2192512063922564E+01
[...]
POINT_DATA 213
SCALARS rho double 1
LOOKUP_TABLE default
   0.1345830620018838E+01
   0.9579778061077273E+00
   0.9476311883234230E+00
   0.9441774501087926E+00
   0.8440429803523610E+00
   0.7738144777634318E+00
   0.7628598590726783E+00
   0.7654161428737357E+00
   0.8320473205710607E+00
   0.9371519300499531E+00
   0.9357110998595610E+00
   0.9614536598918166E+00
   0.1446938772180004E+01
   0.1493700338382564E+01
   0.1644940289734768E+01
   0.1426495476946625E+01
   0.1010232238547941E+01
   0.9526588583492259E+00
   0.9454085758587034E+00
   0.9571321519685743E+00
   0.9405407116199286E+00
   0.1036292865856404E+01
   0.9263210826556550E+00
   0.9336260716263075E+00
   0.9554049524545541E+00
   0.9539866391277080E+00
   0.9364204538795661E+00
   0.9581148852387645E+00
   0.9389590936819533E+00
   0.9315703239214492E+00
   0.9462850825620598E+00
   0.8866660778617081E+00
   0.9439274661780069E+00
   0.9643456319819164E+00
   0.1007402224777911E+01
   0.1006191453451083E+01
   0.1004567035950354E+01
   0.1005762524880161E+01
   0.1004624540626723E+01
   0.1005295989145783E+01
   0.1003026780438569E+01
   0.1008149299397255E+01
   0.1023763294619143E+01
   0.1063131969772202E+01
   0.1019369444894503E+01
   0.1001855108923821E+01
   0.9661682685584080E+00
   0.1005424463284276E+01
   0.1000841774583911E+01
   0.1008821145393914E+01
   0.1007921300697726E+01
   0.1002534914110579E+01
   0.9976793764658334E+00
   0.1000643211328262E+01
   0.1001897985638024E+01
   0.9830138797285405E+00
   0.9842870816084590E+00
   0.9842798917584453E+00
   0.9804814575475658E+00
   0.9908251013414348E+00
   0.9936103566248987E+00
   0.1004765415738041E+01
   0.1004711222904368E+01
   0.1004938274042493E+01
   0.1004631050079927E+01
   0.1009763261289546E+01
   0.1004879359875489E+01
   0.9562617760124510E+00
   0.9260846998047820E+00
   0.1007945633341122E+01
   0.1004505058700358E+01
   0.9153609602416639E+00
   0.9098761289526364E+00
   0.8764049791331501E+00
   0.9758811358236575E+00
   0.9988792801949583E+00
   0.1006358565773847E+01
   0.1010949257191934E+01
   0.1010343203091565E+01
   0.1009108898547505E+01
   0.1005928833882756E+01
   0.9902083749539243E+00
   0.1003887670585132E+01
   0.9847435312331169E+00
   0.1002889452599223E+01
   0.1003902869241194E+01
   0.1003239922288645E+01
   0.1003460069907716E+01
   0.1003775202999485E+01
   0.1005319937146728E+01
   0.1003267966114739E+01
   0.1004378189955290E+01
   0.1005204939710355E+01
   0.1004097798858166E+01
   0.1004563287766451E+01
   0.1003281317621040E+01
   0.1004403912562602E+01
   0.1005765992413266E+01
   0.1004698495804890E+01
   0.1003910595498827E+01
   0.1003164263401629E+01
   0.1004437401989373E+01
   0.1004240195005092E+01
   0.1003559374677521E+01
   0.1005324510948183E+01
   0.1004831004836361E+01
   0.1004766413704497E+01
   0.1004632170692949E+01
   0.1065059741993291E+01
   0.1028658231028719E+01
   0.1009598158758132E+01
   0.1006545541885477E+01
   0.1163462881476036E+01
   0.1086036380179226E+01
   0.1007871627597144E+01
   0.1007345986723786E+01
   0.1006746501706682E+01
   0.1013060587844676E+01
   0.1019265622500014E+01
   0.1234880085832043E+01
   0.1033032887293807E+01
   0.1046520047281867E+01
   0.1201258455667476E+01
   0.1014497520625830E+01
   0.1031935840379569E+01
   0.1028537394732971E+01
   0.1014901561679603E+01
   0.1028900244269281E+01
   0.1002379046674243E+01
   0.9623824986900305E+00
   0.1006852230875381E+01
   0.1001609024538016E+01
   0.1010627282349124E+01
   0.1012289729836896E+01
   0.1001100539705099E+01
   0.9975119981864801E+00
   0.9979891469349629E+00
   0.1001181268039856E+01
   0.9840021878872122E+00
   0.9810061177651407E+00
   0.9654539957678412E+00
   0.9689813604313050E+00
   0.9914545250629074E+00
   0.9914095494969948E+00
   0.9925228934726921E+00
   0.1002001071575125E+01
   0.9995282333262813E+00
   0.9941173815286021E+00
   0.1006979992390431E+01
   0.1022351678475758E+01
   0.1000842747086653E+01
   0.1008945428963734E+01
   0.1004989211709981E+01
   0.1009112660542385E+01
   0.9968493632723802E+00
   0.1005613813339777E+01
   0.1003587957497204E+01
   0.9950722295134109E+00
   0.9829492514348580E+00
   0.9941096364200247E+00
   0.9971227147961109E+00
   0.9920148503787449E+00
   0.1001294033585856E+01
   0.1003230679297050E+01
   0.1002209021000980E+01
   0.9937261494324211E+00
   0.9938065009088296E+00
   0.1005161455501261E+01
   0.1019888023647802E+01
   0.1005455861790408E+01
   0.9817720585520823E+00
   0.1005186043104301E+01
   0.1012405474237778E+01
   0.9875264602258224E+00
   0.9550665950347613E+00
   0.9861593506935477E+00
   0.9867976427900135E+00
   0.9927018454647238E+00
   0.9932890769320244E+00
   0.9955843176385817E+00
   0.1037411525201661E+01
   0.1032697466955213E+01
   0.1001488018829698E+01
   0.1002041237099649E+01
   0.9899409165992223E+00
   0.9909055042629750E+00
   0.9648550494299499E+00
   0.9923046497359034E+00
   0.1005774435950814E+01
   0.1001761798242254E+01
   0.9911417589705022E+00
   0.9743076056521909E+00
   0.9426389930168748E+00
   0.9822910949172444E+00
   0.9792626769775141E+00
   0.9714813404121719E+00
   0.9721805264110948E+00
   0.9555716559696162E+00
   0.9504833613111534E+00
   0.9547920755072395E+00
   0.1002969075055078E+01
   0.1002618017594054E+01
   0.1000680550241503E+01
   0.1001155128231852E+01
   0.9619288390872353E+00
   0.9513904594601231E+00
   0.9606021086279199E+00
   0.1001017036228174E+01
   0.1000589944300983E+01
   0.1000952234492976E+01
   0.9810349968464351E+00
   0.9805464312484069E+00
   0.9642393366098172E+00
SCALARS u double 1
LOOKUP_TABLE default
   0.0000000000000000E+00
   0.0000000000000000E+00
   0.0000000000000000E+00
   0.0000000000000000E+00
   0.0000000000000000E+00
   0.0000000000000000E+00
   0.0000000000000000E+00
   0.0000000000000000E+00
   0.0000000000000000E+00
   0.0000000000000000E+00
   0.0000000000000000E+00
   0.0000000000000000E+00
   0.0000000000000000E+00
   0.0000000000000000E+00
   0.0000000000000000E+00
   0.0000000000000000E+00
   0.0000000000000000E+00
   0.0000000000000000E+00
   0.0000000000000000E+00
   0.0000000000000000E+00
   0.0000000000000000E+00
   0.0000000000000000E+00
   0.0000000000000000E+00
   0.0000000000000000E+00
   0.0000000000000000E+00
   0.0000000000000000E+00
   0.0000000000000000E+00
   0.0000000000000000E+00
   0.0000000000000000E+00
   0.0000000000000000E+00
   0.0000000000000000E+00
   0.0000000000000000E+00
   0.0000000000000000E+00
   0.4951805224516228E+00
   0.5333983652319872E+00
   0.5183883611494459E+00
   0.4933064302329251E+00
   0.4841612164473218E+00
   0.4837104465456560E+00
   0.4864228920253481E+00
   0.4963000924622476E+00
   0.4896976336890226E+00
   0.4720936730799126E+00
   0.4457252546097748E+00
   0.4837760696173903E+00
   0.5088387180322156E+00
   0.4417726631064680E+00
   0.4943859626480603E+00
   0.5226608963368745E+00
   0.4961980724091486E+00
   0.5224509635068322E+00
   0.5030918019467759E+00
   0.5637643783694650E+00
   0.5250441700991125E+00
   0.4979324975582902E+00
   0.5717757404099227E+00
   0.5685305982376430E+00
   0.3743614347442012E+00
   0.4010925473770163E+00
   0.5587563579184548E+00
   0.5561776578661830E+00
   0.4946030814898102E+00
   0.4954021885876373E+00
   0.4938050499675758E+00
   0.4919282996911989E+00
   0.5164181101485514E+00
   0.5360842355821424E+00
   0.4961160872673707E+00
   0.4527421274935318E+00
   0.5124262770994251E+00
   0.5107138577245139E+00
   0.4792887190973793E+00
   0.4943778603537195E+00
   0.4612080313880782E+00
   0.5255321770983832E+00
   0.5301127731514204E+00
   0.5123693106949918E+00
   0.5330392513932899E+00
   0.5309971828374583E+00
   0.5300452926077275E+00
   0.5056203060317547E+00
   0.5282412555497640E+00
   0.5402171634659250E+00
   0.5370256804764594E+00
   0.5377791228193188E+00
   0.4974606263955453E+00
   0.4980861356810850E+00
   0.4967517599209574E+00
   0.4956929551155289E+00
   0.4877984185683588E+00
   0.4875581871894238E+00
   0.4856493418879931E+00
   0.4864066678280322E+00
   0.4916283200597250E+00
   0.4891694740243075E+00
   0.4852565241318025E+00
   0.4886441829276200E+00
   0.4891450506540874E+00
   0.4864456105584972E+00
   0.4864695032007531E+00
   0.4945318991231220E+00
   0.4872264726086018E+00
   0.4875112745508082E+00
   0.4930065315790675E+00
   0.4847151808540240E+00
   0.4867435309544406E+00
   0.4860441151870812E+00
   0.4863568861265828E+00
   0.4454728640589634E+00
   0.4698131110152582E+00
   0.4890920765999057E+00
   0.4880580790765716E+00
   0.4511998375674256E+00
   0.4669875155632824E+00
   0.4874854522318832E+00
   0.4867356059100653E+00
   0.4909948987748595E+00
   0.4794262411080511E+00
   0.4667401545407243E+00
   0.3795506925048031E+00
   0.4898264917528704E+00
   0.4494356298228618E+00
   0.4437212097371070E+00
   0.4845264453338600E+00
   0.4634382351009678E+00
   0.4668185065122777E+00
   0.4747408004866973E+00
   0.4892478764225008E+00
   0.5085619165977472E+00
   0.4329694581659120E+00
   0.4925916635885503E+00
   0.5331062725122812E+00
   0.4918376607524181E+00
   0.5209137133342164E+00
   0.5064535671260953E+00
   0.5670384900777864E+00
   0.5282287380061813E+00
   0.5013221947206069E+00
   0.5801687842374205E+00
   0.5679169762985589E+00
   0.3410372369208329E+00
   0.3795206624776492E+00
   0.5738011441027552E+00
   0.5665061235607797E+00
   0.5691595154488681E+00
   0.5290230388313668E+00
   0.5445358486003291E+00
   0.5714127531018504E+00
   0.5384350106997482E+00
   0.5474777367837237E+00
   0.5818968174996098E+00
   0.4926519311598030E+00
   0.5037043167346920E+00
   0.4962852269003545E+00
   0.5557633790082823E+00
   0.4757926135950289E+00
   0.4944001849995209E+00
   0.5489488627941501E+00
   0.5871245413271144E+00
   0.5824479171415617E+00
   0.5457647546003743E+00
   0.5777849259276278E+00
   0.5100958424993116E+00
   0.5023424966820070E+00
   0.5027358031388904E+00
   0.5661378882973790E+00
   0.5558776869417384E+00
   0.4944245752090640E+00
   0.5502210670707358E+00
   0.5510066928729561E+00
   0.5651816733830554E+00
   0.4913096877538038E+00
   0.4931028341902252E+00
   0.3887643442573683E+00
   0.3712327239125598E+00
   0.5568620260836036E+00
   0.5751355395882317E+00
   0.4190073701098541E+00
   0.5812513321491921E+00
   0.4284603888952990E+00
   0.5394677121822106E+00
   0.5021821784395938E+00
   0.5109540666196799E+00
   0.5041039587470547E+00
   0.5729117566900308E+00
   0.5854795018060684E+00
   0.5378819444137658E+00
   0.5659180734246303E+00
   0.5352695096601693E+00
   0.5337633227439410E+00
   0.5573747379823086E+00
   0.5503285715189207E+00
   0.4273355627981294E+00
   0.5262631345195564E+00
   0.5780353251069870E+00
   0.3348183977622305E+00
   0.4756687278849542E+00
   0.5449887944840945E+00
   0.4814566487056407E+00
   0.3029024041891258E+00
   0.5042148701380490E+00
   0.5010158325775352E+00
   0.5126949368793412E+00
   0.5401603801355298E+00
   0.3459909761833422E+00
   0.3437719211195838E+00
   0.3212001475879345E+00
   0.5063631731491759E+00
   0.5130307244316340E+00
   0.5327023362607783E+00
   0.5867935595470567E+00
   0.4641578361304729E+00
   0.3570734370912348E+00
SCALARS v double 1
LOOKUP_TABLE default
   0.0000000000000000E+00
   0.0000000000000000E+00
   0.0000000000000000E+00
   0.0000000000000000E+00
   0.0000000000000000E+00
   0.0000000000000000E+00
   0.0000000000000000E+00
   0.0000000000000000E+00
   0.0000000000000000E+00
   0.0000000000000000E+00
   0.0000000000000000E+00
   0.0000000000000000E+00
   0.0000000000000000E+00
   0.0000000000000000E+00
   0.0000000000000000E+00
   0.0000000000000000E+00
   0.0000000000000000E+00
   0.0000000000000000E+00
   0.0000000000000000E+00
   0.0000000000000000E+00
   0.0000000000000000E+00
   0.0000000000000000E+00
   0.0000000000000000E+00
   0.0000000000000000E+00
   0.0000000000000000E+00
   0.0000000000000000E+00
   0.0000000000000000E+00
   0.0000000000000000E+00
   0.0000000000000000E+00
   0.0000000000000000E+00
   0.0000000000000000E+00
   0.0000000000000000E+00
   0.0000000000000000E+00
   0.0000000000000000E+00
   0.0000000000000000E+00
   0.0000000000000000E+00
   0.0000000000000000E+00
   0.0000000000000000E+00
   0.0000000000000000E+00
   0.0000000000000000E+00
   0.0000000000000000E+00
   0.0000000000000000E+00
   0.0000000000000000E+00
   0.0000000000000000E+00
   0.0000000000000000E+00
   0.0000000000000000E+00
   0.0000000000000000E+00
   0.0000000000000000E+00
   0.0000000000000000E+00
   0.0000000000000000E+00
   0.0000000000000000E+00
   0.0000000000000000E+00
   0.0000000000000000E+00
   0.0000000000000000E+00
   0.0000000000000000E+00
   0.0000000000000000E+00
   0.0000000000000000E+00
   0.0000000000000000E+00
   0.0000000000000000E+00
   0.0000000000000000E+00
   0.0000000000000000E+00
   0.1157717350198066E-02
   0.1218585858288212E-03
  -0.1734126420362998E-03
   0.0000000000000000E+00
   0.0000000000000000E+00
   0.0000000000000000E+00
   0.0000000000000000E+00
  -0.1831281458708545E-01
   0.5902604422829044E-03
   0.1922021584513422E-02
   0.1413228566969425E-01
  -0.6690588320801230E-02
  -0.6665749797531066E-02
  -0.1269536569677498E-01
   0.4490800719573069E-02
   0.9877138508430090E-03
   0.3054098906696059E-02
   0.1760623102868411E-02
   0.2494180491859222E-02
   0.1874549594963388E-02
  -0.7172445520428943E-02
  -0.7488675312405309E-03
   0.3996840367856291E-02
  -0.1001741253583964E-02
  -0.4373369798077846E-03
  -0.4222918544743065E-03
   0.8243825070794149E-03
   0.0000000000000000E+00
   0.0000000000000000E+00
   0.0000000000000000E+00
   0.0000000000000000E+00
   0.8217210757574696E-03
   0.1462927755299230E-02
  -0.1396817352247779E-02
  -0.1536568361674086E-03
  -0.6305048099363654E-03
   0.3679523268690260E-04
   0.2366776687773176E-03
  -0.7572094611224930E-04
  -0.1797927729311132E-03
  -0.5300968990308497E-03
   0.8443732870874535E-03
  -0.1981011271016653E-02
   0.7036383937894488E-03
   0.3066943257855208E-03
  -0.3388645769574877E-03
  -0.3657361926599921E-03
   0.0000000000000000E+00
   0.0000000000000000E+00
   0.0000000000000000E+00
  -0.7926358310008246E-03
  -0.8003370556687105E-02
   0.1716030846788731E-01
  -0.2243635503472121E-03
  -0.1375637238163999E-02
  -0.2116505366719810E-02
  -0.5168112346246965E-02
  -0.1896227157037425E-02
  -0.6934255602265680E-02
  -0.4246004298766768E-02
   0.1594465820663978E-02
   0.3250710423923571E-01
   0.5016712247476099E-04
  -0.2139832202655948E-02
   0.4178814634093379E-02
   0.4369906030727117E-03
   0.0000000000000000E+00
   0.0000000000000000E+00
   0.0000000000000000E+00
   0.0000000000000000E+00
   0.0000000000000000E+00
   0.0000000000000000E+00
   0.0000000000000000E+00
   0.0000000000000000E+00
   0.0000000000000000E+00
   0.0000000000000000E+00
   0.0000000000000000E+00
   0.0000000000000000E+00
   0.0000000000000000E+00
   0.0000000000000000E+00
   0.0000000000000000E+00
   0.0000000000000000E+00
   0.0000000000000000E+00
   0.4598937311678533E-02
   0.3351452476020085E-02
   0.8096021133978257E-02
   0.5688866913917097E-02
   0.1127240906458359E-01
   0.1355730183207316E-01
  -0.1252348362534580E-02
   0.5524877836672696E-02
   0.3101407440933963E-02
   0.3709124877230477E-02
   0.3531520715820121E-02
  -0.1542976310997660E-01
  -0.5952048623364694E-03
   0.6598206950248787E-02
   0.1181294099557842E-02
   0.2055353761002203E-02
   0.4153954337993059E-02
  -0.2914993600174958E-02
   0.1623823259054743E-02
   0.3189868899551784E-02
   0.1897198780039815E-02
   0.2062077221138491E-02
   0.1936388921068325E-02
   0.2389790820710272E-02
   0.8730747600821032E-02
  -0.3696244744336132E-02
   0.6091538080571414E-02
   0.9930684885020502E-05
  -0.5528955492081281E-03
  -0.1692406761604438E-01
  -0.5345266176540078E-02
  -0.5483168391288477E-02
   0.3347997276878636E-02
  -0.6399298605590228E-02
  -0.3075313674827453E-03
  -0.3416339549162453E-01
  -0.2943870857157097E-02
   0.4675703806876258E-02
   0.1249435546255364E-02
   0.2443497356434672E-02
   0.3892842663565212E-02
   0.2519575114233153E-02
   0.2858405660219947E-02
   0.4706649345132304E-02
   0.1902553434328067E-02
   0.7057414249016378E-03
   0.9602499154421417E-04
  -0.4934711347631023E-02
  -0.6081877327242640E-02
  -0.7324422037405155E-03
   0.7592817101144682E-03
  -0.1644989185125592E-02
  -0.3323357817088379E-02
  -0.2622125654955642E-02
  -0.4587511900991191E-02
  -0.7799830372420276E-02
  -0.2005168200817324E-02
   0.8008771252326971E-03
   0.9850931858705566E-04
   0.8541454310286570E-03
  -0.3040070807475095E-02
   0.5387038151805400E-02
  -0.8741886078149604E-02
   0.1814627886811118E-03
  -0.2725887997713303E-03
   0.2413903361403936E-02
   0.1725649964740831E-02
   0.2224081460136955E-02
  -0.5449677214011733E-02
SCALARS w double 1
LOOKUP_TABLE default
   0.0000000000000000E+00
   0.0000000000000000E+00
   0.0000000000000000E+00
   0.0000000000000000E+00
   0.0000000000000000E+00
   0.0000000000000000E+00
   0.0000000000000000E+00
   0.0000000000000000E+00
   0.0000000000000000E+00
   0.0000000000000000E+00
   0.0000000000000000E+00
   0.0000000000000000E+00
   0.0000000000000000E+00
   0.0000000000000000E+00
   0.0000000000000000E+00
   0.0000000000000000E+00
   0.0000000000000000E+00
   0.0000000000000000E+00
   0.0000000000000000E+00
   0.0000000000000000E+00
   0.0000000000000000E+00
   0.0000000000000000E+00
   0.0000000000000000E+00
   0.0000000000000000E+00
   0.0000000000000000E+00
   0.0000000000000000E+00
   0.0000000000000000E+00
   0.0000000000000000E+00
   0.0000000000000000E+00
   0.0000000000000000E+00
   0.0000000000000000E+00
   0.0000000000000000E+00
   0.0000000000000000E+00
  -0.9791433829649857E-01
  -0.4153874563703125E-01
  -0.2406208912718430E-03
   0.4795886053221470E-02
   0.2350670773587970E-02
   0.2091367859638659E-02
   0.3723693659548462E-02
   0.4511517578004417E-02
   0.8991875213844881E-03
   0.3719973451620857E-02
   0.4566232327526613E-01
   0.6495199474962081E-01
   0.1430253325259869E-02
  -0.2251652469173072E-01
   0.4353616252913568E-02
   0.1292181435251898E-01
   0.1005922969672857E-01
   0.4808016730217864E-01
   0.2010294503587281E-02
  -0.5970598511357285E-02
  -0.3753453655058418E-03
   0.6829633587887429E-03
   0.3687597767302640E-02
  -0.3771661129275870E-01
   0.1792462626715851E-01
   0.1083952451871849E-01
   0.3301270747222865E-01
   0.8269787262212006E-02
   0.4283536681476911E-02
   0.4588513277564495E-02
   0.4440014852237940E-02
   0.5177039634502230E-02
   0.1374857720707558E-02
  -0.4059642872762348E-01
  -0.9673578213392607E-01
  -0.1095500303220261E+00
   0.3810502934318798E-02
   0.2902428862114488E-02
  -0.9721353018613320E-01
  -0.9620271554640931E-01
  -0.9578992341401714E-01
  -0.9208719011795725E-01
  -0.6626919293849060E-01
   0.3851732767578448E-02
  -0.1975380492418363E-01
  -0.1637035058947069E-01
  -0.7375454137845070E-02
   0.5407700795194977E-02
  -0.7790518964820242E-01
  -0.2806349138949264E-01
  -0.7854644574855868E-01
  -0.5792688227485553E-01
   0.4488962018478383E-02
   0.3202384909555849E-02
   0.3204346221412228E-02
   0.4475363852205655E-02
   0.3734101036245684E-02
   0.9375109427363337E-03
   0.8285330944533886E-03
   0.3512645322810940E-02
   0.5446641041722973E-02
   0.4230669676581229E-02
   0.1205045622046759E-02
   0.1379406089304517E-02
   0.3863772510597042E-02
   0.1342396020800903E-02
   0.3839842061833575E-03
   0.5495419271851303E-02
   0.2832790762865947E-02
   0.2582146873701634E-02
   0.5878281546488785E-02
   0.1799052888486746E-02
   0.2335164895097527E-02
   0.2043619939388676E-02
   0.8631763314566293E-03
   0.8451111691113852E-01
   0.2736196176179451E-02
  -0.8617164669307448E-03
   0.3284991176123620E-03
   0.1408391105591436E+00
   0.1225515241159161E+00
  -0.1097022440247993E-02
  -0.4210726936137822E-02
   0.2311480489077742E-03
  -0.6038708110918911E-02
  -0.1332574014901673E-02
   0.1564188309185385E+00
   0.7570341952899254E-01
   0.2597355412978982E-01
   0.1660275543015951E+00