title="tecplot geometry and solution file"
variables = x y z rho u v w p mach temperature
zone t="boundary 1 bc-1", solutiontime= 0.6000000E+02, strandid=1001, i=32, j=46, f=feblock
 -0.547473805981E-02  0.000000000000E+00 -0.567611393167E-02  0.000000000000E+00  0.000000000000E+00  0.000000000000E+00 -0.525163715732E-02
 -0.425779957546E-02  0.000000000000E+00  0.000000000000E+00  0.000000000000E+00  0.000000000000E+00  0.000000000000E+00  0.000000000000E+00
  0.000000000000E+00  0.000000000000E+00 -0.338397811599E-02  0.000000000000E+00  0.000000000000E+00  0.000000000000E+00  0.000000000000E+00
  0.000000000000E+00  0.000000000000E+00  0.000000000000E+00  0.000000000000E+00  0.000000000000E+00  0.000000000000E+00  0.000000000000E+00
  0.000000000000E+00  0.000000000000E+00  0.000000000000E+00  0.000000000000E+00
  0.250494199996E+01  0.250494199996E+01  0.127822171177E+01  0.146289271009E+01  0.157686156160E+01  0.308372018325E+00  0.261949834542E-01
 -0.122573470438E+01 -0.600232012419E+00  0.250494199996E+01  0.477386199275E+00  0.742988685424E+00 -0.739814786992E+00  0.177790177481E+01
  0.155830813274E+01  0.250494199996E+01 -0.249658902117E+01 -0.154800130438E+01 -0.487811078581E+00  0.250494199996E+01  0.627766083140E+00
 -0.345533899378E+00 -0.178862290564E+01 -0.158811787973E+01  0.125000000000E+01 -0.249658902117E+01 -0.144524380962E+01  0.000000000000E+00
 -0.125000000000E+01 -0.249658902117E+01 -0.249658902117E+01 -0.249658902117E+01
  0.805555225580E-04  0.125000000000E+01  0.823774385207E-04  0.103724302461E+01  0.219251206392E+01  0.922061490191E+00  0.103961359153E-03
  0.342005490361E-04  0.715990576545E+00  0.250000000000E+01  0.202479342020E+01  0.324151231464E+01  0.175434191980E+01  0.310152362409E+01
  0.404200324774E+01  0.375000000000E+01  0.810770727949E-04  0.930412228790E+00  0.299062775774E+01  0.500000000000E+01  0.429310310915E+01
  0.409252726285E+01  0.187029682677E+01  0.284428995242E+01  0.500000000000E+01  0.125000000000E+01  0.394624082883E+01  0.500000000000E+01
  0.500000000000E+01  0.250000000000E+01  0.375000000000E+01  0.500000000000E+01
  0.121959991361E+01  0.105831355426E+01  0.128671969233E+01  0.108337052727E+01  0.102354614334E+01  0.116941715959E+01  0.145633807568E+01
  0.134804088521E+01  0.119311484630E+01  0.101662522214E+01  0.101712196603E+01  0.100667543035E+01  0.102800079137E+01  0.100987438536E+01
  0.100346383392E+01  0.100488609832E+01  0.130024673279E+01  0.114206739433E+01  0.100787501766E+01  0.100194476555E+01  0.100378960218E+01
  0.100390910342E+01  0.103478537586E+01  0.101224063587E+01  0.100190260687E+01  0.106018060564E+01  0.100437851786E+01  0.100077796276E+01
  0.100130067811E+01  0.102043485144E+01  0.100593736725E+01  0.100184292344E+01
  0.000000000000E+00  0.451834048840E+00  0.000000000000E+00  0.472912039559E+00  0.470158335295E+00  0.459504932573E+00  0.000000000000E+00
  0.000000000000E+00  0.401768535268E+00  0.478881792930E+00  0.474223503521E+00  0.485492993072E+00  0.492581112727E+00  0.489510444438E+00
  0.492201643181E+00  0.493575540150E+00  0.000000000000E+00  0.464516462314E+00  0.481634321842E+00  0.498235962181E+00  0.494015370189E+00
  0.490674194290E+00  0.458608937757E+00  0.473144550528E+00  0.498753316149E+00  0.451330948567E+00  0.491521103274E+00  0.499569338079E+00
  0.498567814230E+00  0.477380961798E+00  0.492957759322E+00  0.497856401905E+00
  0.000000000000E+00  0.000000000000E+00  0.000000000000E+00  0.156898757607E-01 -0.426045982888E-02  0.288060393648E-01  0.000000000000E+00
  0.000000000000E+00 -0.370126843990E-02  0.000000000000E+00  0.249852567439E-02 -0.528108452185E-02 -0.303265793980E-02 -0.172451049484E-03
 -0.109131070906E-02  0.000000000000E+00  0.000000000000E+00 -0.850284737284E-02  0.955100429206E-03  0.000000000000E+00 -0.167361529046E-02
 -0.105339298855E-02  0.212715061963E-02 -0.123596919147E-02  0.695900802216E-04  0.000000000000E+00  0.214869438425E-03 -0.176723373137E-03
  0.608284569749E-03  0.000000000000E+00  0.000000000000E+00  0.000000000000E+00
  0.000000000000E+00  0.388446290237E-01  0.000000000000E+00  0.103917054347E+00  0.224193225180E-01  0.135341972810E+00  0.000000000000E+00
  0.000000000000E+00  0.126992547996E+00  0.342255365536E-02  0.213553913038E-01 -0.708603651123E-02  0.636035309989E-01  0.292766280805E-02
 -0.792043338039E-03  0.244076144286E-03  0.000000000000E+00  0.115618465148E+00 -0.829814470405E-02  0.114480769367E-02 -0.749346027042E-03
 -0.442111710062E-02  0.223713946285E-01 -0.264556745238E-02  0.180779103994E-02  0.687953322786E-01 -0.177101593749E-02  0.155938637034E-02
  0.142678801582E-02  0.233069983076E-02 -0.110520688323E-02  0.211864608146E-02
  0.908102254120E+00  0.774899680689E+00  0.958078989663E+00  0.800622211504E+00  0.737949071319E+00  0.857914891833E+00  0.108437519102E+01
  0.100373815449E+01  0.887196042337E+00  0.730580345787E+00  0.733315358735E+00  0.720299335088E+00  0.748106703237E+00  0.724222065762E+00
  0.717576386091E+00  0.719224738149E+00  0.968151092650E+00  0.840784337057E+00  0.722225754261E+00  0.716319888134E+00  0.717948118000E+00
  0.717912572624E+00  0.749167992108E+00  0.726422696479E+00  0.716249845595E+00  0.782033718427E+00  0.718602111011E+00  0.715132538051E+00
  0.715579064664E+00  0.734165582784E+00  0.720297842780E+00  0.716213118251E+00
  0.000000000000E+00  0.447917893104E+00  0.000000000000E+00  0.476275931569E+00  0.468523764254E+00  0.473519703672E+00  0.000000000000E+00
  0.000000000000E+00  0.412988885569E+00  0.477443348004E+00  0.472504673049E+00  0.485153442296E+00  0.492070550362E+00  0.488543839066E+00
  0.491923380125E+00  0.493078169945E+00  0.000000000000E+00  0.471586654491E+00  0.480934095630E+00  0.498012892226E+00  0.493689909579E+00
  0.490409919456E+00  0.456073457027E+00  0.472047037786E+00  0.498545864549E+00  0.449257989152E+00  0.491117573792E+00  0.499470102957E+00
  0.498443302003E+00  0.475665752889E+00  0.492352552841E+00  0.497648492023E+00
  0.104242640687E+01  0.102508330220E+01  0.104242640687E+01  0.103461472127E+01  0.100936211481E+01  0.102707647029E+01  0.104242640687E+01
  0.104242640687E+01  0.104103512175E+01  0.100608607954E+01  0.100935928681E+01  0.100173207642E+01  0.101882157419E+01  0.100399703841E+01
  0.100113916075E+01  0.100201867166E+01  0.104242640687E+01  0.103067303885E+01  0.100321571449E+01  0.100090132497E+01  0.100133271257E+01
  0.100116394826E+01  0.101357751416E+01  0.100469368551E+01  0.100084556818E+01  0.103269876847E+01  0.100165718156E+01  0.100040727367E+01
  0.100050934991E+01  0.100724883558E+01  0.100246497717E+01  0.100085386850E+01
        12        19        11        11
        11         5        12        12
        10        14         5         5
        19        13        11        11
        19        24        13        13
        30        23        24        24
        19        12        22        22
        28        22        21        21
        11        13         6         6
         7         6         9         9
        15        12        14        14
        18        13        23        23
        15        25        21        21
        27        19        22        22
        18         8         9         9
        27        31        24        24
         4        11         6         6
         5        14        12        12
         4         2         5         5
        21        12        15        15
        14        16        15        15
        24        19        27        27
        22        29        27        27
        23        26        18        18
        17         8        18        18
         5        11         4         4
         6         3         4         4
        26        23        30        30
         5         2        10        10
        16        14        10        10
         3         6         7         7
        21        25        28        28
        29        22        28        28
         6        13         9         9
         2         4         1         1
        31        27        32        32
        25        15        20        20
        24        23        13        13
         8         7         9         9
        13        18         9         9
        31        30        24        24
        12        21        22        22
        29        32        27        27
         3         1         4         4
        26        17        18        18
        16        20        15        15
zone t="boundary 2 bc-2", solutiontime= 0.6000000E+02, strandid=1002, i=33, j=48, f=feblock
  0.500195254569E+01  0.375034811445E+01  0.249861145586E+01  0.288036674135E+01  0.124717525353E+01  0.190856697906E+01  0.326577190006E+01
  0.201394855912E+01 -0.338397811599E-02  0.962374243892E+00  0.500000000000E+01  0.403430189815E+01  0.423029563516E+01  0.500000000000E+01
  0.385439188840E+01  0.500000000000E+01  0.398133433219E+01  0.315200081383E+01  0.266958028789E+01  0.154798029748E+01  0.218327860401E+01
  0.893688440127E+00  0.000000000000E+00  0.699009761219E+00  0.964460898510E+00  0.310303671661E+01  0.000000000000E+00  0.000000000000E+00
  0.125000000000E+01  0.500000000000E+01  0.375000000000E+01  0.250000000000E+01  0.000000000000E+00
 -0.249658902117E+01 -0.249658902117E+01 -0.249658902117E+01 -0.249658902117E+01 -0.249658902117E+01 -0.249658902117E+01 -0.249658902117E+01
 -0.249658902117E+01 -0.249658902117E+01 -0.249658902117E+01 -0.249658902117E+01 -0.249658902117E+01 -0.249658902117E+01 -0.249658902117E+01
 -0.249658902117E+01 -0.249658902117E+01 -0.249658902117E+01 -0.249658902117E+01 -0.249658902117E+01 -0.249658902117E+01 -0.249658902117E+01
 -0.249658902117E+01 -0.249658902117E+01 -0.249658902117E+01 -0.249658902117E+01 -0.249658902117E+01 -0.249658902117E+01 -0.249658902117E+01
 -0.249658902117E+01 -0.249658902117E+01 -0.249658902117E+01 -0.249658902117E+01 -0.249658902117E+01
  0.108218465758E-03  0.145871002147E-03  0.100891402538E-03  0.901663364691E+00  0.110859768726E-03  0.714928312396E+00  0.188140647111E+01
  0.175892165294E+01  0.810770727949E-04  0.957504290554E+00  0.125000000000E+01  0.100596696999E+01  0.191313518634E+01  0.250000000000E+01
  0.292898096729E+01  0.375000000000E+01  0.406883369623E+01  0.363389290091E+01  0.284756861229E+01  0.292582308304E+01  0.395754055152E+01
  0.205027257041E+01  0.125000000000E+01  0.306703272778E+01  0.397155766783E+01  0.433068622257E+01  0.250000000000E+01  0.375000000000E+01
  0.500000000000E+01  0.500000000000E+01  0.500000000000E+01  0.500000000000E+01  0.500000000000E+01
  0.768735588165E+00  0.889523282234E+00  0.898746401910E+00  0.950542415682E+00  0.924960176921E+00  0.947969380427E+00  0.981017533142E+00
  0.987799005657E+00  0.130024673279E+01  0.101390435683E+01  0.944836351815E+00  0.944236776722E+00  0.978087755290E+00  0.100717422404E+01
  0.997784679815E+00  0.100978229714E+01  0.100012041999E+01  0.996167621697E+00  0.989919908479E+00  0.998867626619E+00  0.997941841342E+00
  0.100913681845E+01  0.106018060564E+01  0.100643337741E+01  0.100351221401E+01  0.998477816064E+00  0.102043485144E+01  0.100593736725E+01
  0.100234892667E+01  0.999828413454E+00  0.100019291464E+01  0.100028687140E+01  0.100184292344E+01
  0.000000000000E+00  0.000000000000E+00  0.000000000000E+00  0.385195835289E+00  0.000000000000E+00  0.340885978808E+00  0.583453519896E+00
  0.571759493132E+00  0.000000000000E+00  0.480963143911E+00  0.505185173245E+00  0.443662042111E+00  0.572024054294E+00  0.532003774825E+00
  0.566400167076E+00  0.512620361230E+00  0.508195585368E+00  0.526914230037E+00  0.564509579034E+00  0.531478334916E+00  0.508129387292E+00
  0.521930182346E+00  0.451330948567E+00  0.494980683303E+00  0.496091695840E+00  0.503538723388E+00  0.477380961798E+00  0.492957759322E+00
  0.494536381044E+00  0.491695275718E+00  0.489493218602E+00  0.494635424051E+00  0.497856401905E+00
  0.000000000000E+00  0.000000000000E+00  0.000000000000E+00  0.000000000000E+00  0.000000000000E+00  0.000000000000E+00  0.000000000000E+00
  0.000000000000E+00  0.000000000000E+00  0.000000000000E+00  0.000000000000E+00  0.000000000000E+00  0.000000000000E+00  0.000000000000E+00
  0.000000000000E+00  0.000000000000E+00  0.000000000000E+00  0.000000000000E+00  0.000000000000E+00  0.000000000000E+00  0.000000000000E+00
  0.000000000000E+00  0.000000000000E+00  0.000000000000E+00  0.000000000000E+00  0.000000000000E+00  0.000000000000E+00  0.000000000000E+00
  0.000000000000E+00  0.000000000000E+00  0.000000000000E+00  0.000000000000E+00  0.000000000000E+00
  0.000000000000E+00  0.000000000000E+00  0.000000000000E+00 -0.142934220591E-02  0.000000000000E+00  0.168978586214E-01  0.875996655449E-02
  0.403964089052E-01  0.000000000000E+00  0.730722626521E-01 -0.112216829360E+00 -0.262898946739E-01 -0.368284025764E-01 -0.483402254832E-01
 -0.588593122034E-02 -0.170493026160E-03 -0.195986696071E-02 -0.317074568209E-02  0.106422556194E-01  0.235146897863E-01  0.228804434833E-02
  0.486674895428E-01  0.687953322786E-01  0.868228681523E-02  0.441101870057E-02 -0.351502515516E-02  0.233069983076E-02 -0.110520688323E-02
  0.135829415978E-02  0.546603184946E-02 -0.147515864619E-02 -0.124162027926E-02  0.211864608146E-02
  0.572393055003E+00  0.662330399234E+00  0.669197844594E+00  0.681370847069E+00  0.688716366948E+00  0.681181056517E+00  0.693024442360E+00
  0.700085128987E+00  0.968151092650E+00  0.722087328728E+00  0.666760581525E+00  0.671480411653E+00  0.691232267115E+00  0.720038376063E+00
  0.710709996766E+00  0.723770718462E+00  0.714752639261E+00  0.710894215714E+00  0.704007881873E+00  0.714159227593E+00  0.712429496473E+00
  0.725804163157E+00  0.782033718427E+00  0.720438337990E+00  0.717728355582E+00  0.712837429310E+00  0.734165582784E+00  0.720297842780E+00
  0.716518299707E+00  0.714353113618E+00  0.714323978072E+00  0.714486133615E+00  0.716213118251E+00
  0.000000000000E+00  0.000000000000E+00  0.000000000000E+00  0.384516102391E+00  0.000000000000E+00  0.340285873090E+00  0.586752973053E+00
  0.575426018804E+00  0.000000000000E+00  0.487199378465E+00  0.520641039976E+00  0.445423555784E+00  0.576269221489E+00  0.533962376913E+00
  0.567224534022E+00  0.511735128337E+00  0.508063929962E+00  0.527166122532E+00  0.565842714107E+00  0.531744059136E+00  0.508272212947E+00
  0.522388437197E+00  0.449257989152E+00  0.494521458300E+00  0.495788427677E+00  0.503678485328E+00  0.475665752889E+00  0.492352552841E+00
  0.494346755548E+00  0.491660272596E+00  0.489529542839E+00  0.494638536184E+00  0.497648492023E+00
  0.104242640687E+01  0.104242640687E+01  0.104242640687E+01  0.100355246663E+01  0.104242640687E+01  0.100599607837E+01  0.989008031484E+00
  0.992225316051E+00  0.104242640687E+01  0.997058798899E+00  0.987964542582E+00  0.995589876914E+00  0.989405264228E+00  0.100087323765E+01
  0.997203119671E+00  0.100346283424E+01  0.100053321076E+01  0.999080757417E+00  0.995647250024E+00  0.100095637498E+01  0.999458338896E+00
  0.100692573083E+01  0.103269876847E+01  0.100216635877E+01  0.100130290772E+01  0.999493814463E+00  0.100724883558E+01  0.100246497717E+01
  0.100077487280E+01  0.100026599125E+01  0.999860681535E+00  0.999993717465E+00  0.100085386850E+01
        15         7        19        19
         8        20        19        19
        18        19        21        21
         7         4         8         8
         3         6         4         4
        19         7         8         8
        19        18        15        15
        14        13        15        15
         8        22        20        20
        27        24        22        22
        19        20        21        21
        32        26        21        21
        17        18        26        26
        17        16        15        15
        25        29        21        21
        12         7        13        13
        10         8         6         6
        25        20        24        24
         4         6         8         8
        12         2         4         4
        10        23        22        22
        26        31        17        17
        30        16        17        17
         4         7        12        12
        13        11        12        12
        21        20        25        25
        24        28        25        25
        22         8        10        10
         6         5        10        10
        31        26        32        32
         4         2         3         3
         5         6         3         3
        11        13        14        14
        22        23        27        27
        28        24        27        27
        15        13         7         7
         2        12         1         1
        29        25        33        33
        23        10         9         9
        21        26        18        18
        16        14        15        15
        18        17        15        15
        29        32        21        21
        22        24        20        20
        28        33        25        25
        11         1        12        12
        31        30        17        17
         5         9        10        10
zone t="boundary 3 bc-3", solutiontime= 0.6000000E+02, strandid=1003, i=33, j=48, f=feblock
  0.375059098657E+01  0.249769607633E+01  0.500322138025E+01  0.403612219887E+01  0.287976772043E+01  0.124541906321E+01  0.190552234484E+01
  0.500000000000E+01  0.326671105082E+01  0.423253757181E+01  0.201271135153E+01 -0.547473805981E-02  0.958895614435E+00  0.500000000000E+01
  0.266968147277E+01  0.385584488388E+01  0.890374186976E+00  0.154654012335E+01  0.000000000000E+00  0.500000000000E+01  0.315261137201E+01
  0.218304199244E+01  0.398195308498E+01  0.000000000000E+00  0.697379936713E+00  0.963757270369E+00  0.125000000000E+01  0.000000000000E+00
  0.500000000000E+01  0.310330738803E+01  0.250000000000E+01  0.375000000000E+01  0.000000000000E+00
  0.250494199996E+01  0.250494199996E+01  0.250494199996E+01  0.250494199996E+01  0.250494199996E+01  0.250494199996E+01  0.250494199996E+01
  0.250494199996E+01  0.250494199996E+01  0.250494199996E+01  0.250494199996E+01  0.250494199996E+01  0.250494199996E+01  0.250494199996E+01
  0.250494199996E+01  0.250494199996E+01  0.250494199996E+01  0.250494199996E+01  0.250494199996E+01  0.250494199996E+01  0.250494199996E+01
  0.250494199996E+01  0.250494199996E+01  0.250494199996E+01  0.250494199996E+01  0.250494199996E+01  0.250494199996E+01  0.250494199996E+01
  0.250494199996E+01  0.250494199996E+01  0.250494199996E+01  0.250494199996E+01  0.250494199996E+01
  0.135804645845E-03  0.110291639189E-03  0.968352496025E-04  0.101756767186E+01  0.908094755011E+00  0.104111093384E-03  0.722629266629E+00
  0.125000000000E+01  0.188965673343E+01  0.191862703992E+01  0.176708252860E+01  0.805555225580E-04  0.969652727930E+00  0.250000000000E+01
  0.285339441810E+01  0.293325064381E+01  0.205656233203E+01  0.293157024792E+01  0.125000000000E+01  0.375000000000E+01  0.363766843534E+01
  0.396069448926E+01  0.407056387650E+01  0.250000000000E+01  0.307031999891E+01  0.397359822904E+01  0.500000000000E+01  0.375000000000E+01
  0.500000000000E+01  0.433260783675E+01  0.500000000000E+01  0.500000000000E+01  0.500000000000E+01
  0.896676797714E+00  0.910447681302E+00  0.781948886485E+00  0.945770049501E+00  0.960130131118E+00  0.922179383886E+00  0.963950486337E+00
  0.950682198403E+00  0.978092891816E+00  0.979670614257E+00  0.986799172795E+00  0.121959991361E+01  0.100543678805E+01  0.100849098018E+01
  0.992240051325E+00  0.997800266765E+00  0.100537161784E+01  0.998282947632E+00  0.105831355426E+01  0.100697675847E+01  0.998804017261E+00
  0.999311197818E+00  0.100000736953E+01  0.101662522214E+01  0.100449252131E+01  0.100204227195E+01  0.100246725813E+01  0.100488609832E+01
  0.100014590871E+01  0.998721197262E+00  0.100101037064E+01  0.100049287002E+01  0.100194476555E+01
  0.000000000000E+00  0.000000000000E+00  0.000000000000E+00  0.451193538695E+00  0.403035877968E+00  0.000000000000E+00  0.369780815332E+00
  0.504465715022E+00  0.572441517334E+00  0.570700487183E+00  0.555903917051E+00  0.000000000000E+00  0.475076185524E+00  0.529012500153E+00
  0.555007182809E+00  0.562172009026E+00  0.523997661215E+00  0.523269527526E+00  0.451834048840E+00  0.514483257133E+00  0.524697318323E+00
  0.506246213352E+00  0.509778400932E+00  0.478881792930E+00  0.499519883592E+00  0.498081334085E+00  0.493201210428E+00  0.493575540150E+00
  0.493226500765E+00  0.501441535544E+00  0.491213266530E+00  0.488103495551E+00  0.498235962181E+00
  0.000000000000E+00  0.000000000000E+00  0.000000000000E+00  0.000000000000E+00  0.000000000000E+00  0.000000000000E+00  0.000000000000E+00
  0.000000000000E+00  0.000000000000E+00  0.000000000000E+00  0.000000000000E+00  0.000000000000E+00  0.000000000000E+00  0.000000000000E+00
  0.000000000000E+00  0.000000000000E+00  0.000000000000E+00  0.000000000000E+00  0.000000000000E+00  0.000000000000E+00  0.000000000000E+00
  0.000000000000E+00  0.000000000000E+00  0.000000000000E+00  0.000000000000E+00  0.000000000000E+00  0.000000000000E+00  0.000000000000E+00
  0.000000000000E+00  0.000000000000E+00  0.000000000000E+00  0.000000000000E+00  0.000000000000E+00
  0.000000000000E+00  0.000000000000E+00  0.000000000000E+00 -0.279072725331E-01  0.124067613067E-01  0.000000000000E+00  0.162361884560E-01
 -0.114474019444E+00  0.481986909234E-03 -0.460951194387E-01  0.299462837719E-01  0.000000000000E+00  0.536074079852E-01 -0.502845168703E-01
  0.507333857256E-02 -0.105803083844E-01  0.439389104476E-01  0.105965528508E-01  0.388446290237E-01 -0.221863356471E-02 -0.367150393803E-02
 -0.404342447206E-03 -0.149356891671E-02  0.342255365536E-02  0.804274932894E-02  0.207982630467E-02  0.580599484414E-03  0.244076144286E-03
  0.506601528108E-02 -0.210226116364E-02 -0.607638365673E-03 -0.695778514068E-03  0.114480769367E-02
  0.667656837404E+00  0.677910503617E+00  0.582231548640E+00  0.670520849171E+00  0.688130597959E+00  0.686645815454E+00  0.690430241793E+00
  0.670645819462E+00  0.691903439834E+00  0.692624432450E+00  0.700947322912E+00  0.908102254120E+00  0.717683208795E+00  0.721491979816E+00
  0.706702649963E+00  0.711393849603E+00  0.721305341472E+00  0.713317611425E+00  0.774899680689E+00  0.721207796771E+00  0.713532247601E+00
  0.713575104561E+00  0.714554240712E+00  0.730580345787E+00  0.718615628730E+00  0.716241100600E+00  0.716741920204E+00  0.719224738149E+00
  0.714565182514E+00  0.713128386858E+00  0.715136920679E+00  0.714653007266E+00  0.716319888134E+00
  0.000000000000E+00  0.000000000000E+00  0.000000000000E+00  0.453747913152E+00  0.402545502565E+00  0.000000000000E+00  0.369629009560E+00
  0.520525438284E+00  0.575220780203E+00  0.575502697112E+00  0.558260174272E+00  0.000000000000E+00  0.478252962457E+00  0.530976530219E+00
  0.555830976385E+00  0.562793219635E+00  0.524675235833E+00  0.523282018186E+00  0.447917893104E+00  0.513796076144E+00  0.524673097193E+00
  0.506323914750E+00  0.509686671267E+00  0.477443348004E+00  0.499194823541E+00  0.497912967442E+00  0.492962759865E+00  0.493078169945E+00
  0.493192028032E+00  0.501531684706E+00  0.491169160338E+00  0.488098786000E+00  0.498012892226E+00
  0.104242640687E+01  0.104242640687E+01  0.104242640687E+01  0.992555420142E+00  0.100338777622E+01  0.104242640687E+01  0.100275102530E+01
  0.987610948037E+00  0.990360755990E+00  0.989796153235E+00  0.994453865721E+00  0.104242640687E+01  0.999323382887E+00  0.100158433897E+01
  0.997121320216E+00  0.998147046676E+00  0.100443205292E+01  0.100036233050E+01  0.102508330220E+01  0.100269535219E+01  0.100014129837E+01
  0.999693737613E+00  0.100036856476E+01  0.100608607954E+01  0.100156234007E+01  0.100069385186E+01  0.100096903929E+01  0.100201867166E+01
  0.100024531101E+01  0.999658107126E+00  0.100018113529E+01  0.100002132964E+01  0.100090132497E+01
        15         9        16        16
        15        18        11        11
        22        15        21        21
        11         5         9         9
         5         7         2         2
        11         9        15        15
        16        21        15        15
        16        10        14        14
        18        17        11        11
        17        25        24        24
        22        18        15        15
        22        30        31        31
        30        21        23        23
        16        20        23        23
        22        27        26        26
        10         9         4         4
         7        11        13        13
        25        18        26        26
        11         7         5         5
         5         1         4         4
        17        19        13        13
        23        32        30        30
        23        20        29        29
         4         9         5         5
         4         8        10        10
        26        18        22        22
        26        28        25        25
        13        11        17        17
        13         6         7         7
        31        30        32        32
         2         1         5         5
         2         7         6         6
        14        10         8         8
        24        19        17        17
        24        25        28        28
         9        10        16        16
         3         4         1         1
        33        26        27        27
        12        13        19        19
        21        30        22        22
        16        14        20        20
        16        23        21        21
        22        31        27        27
        18        25        17        17
        26        33        28        28
         4         3         8         8
        23        29        32        32
        13        12         6         6
zone t="boundary 4 bc-4", solutiontime= 0.6000000E+02, strandid=1004, i=32, j=46, f=feblock
  0.125000000000E+01  0.219251206392E+01  0.103724302461E+01  0.500000000000E+01  0.250000000000E+01  0.375000000000E+01  0.404200324774E+01
  0.500000000000E+01  0.000000000000E+00  0.310152362409E+01  0.202479342020E+01  0.324151231464E+01  0.922061490191E+00  0.000000000000E+00
  0.299062775774E+01  0.394624082883E+01  0.500000000000E+01  0.409252726285E+01  0.500000000000E+01  0.429310310915E+01  0.175434191980E+01
  0.284428995242E+01  0.000000000000E+00  0.000000000000E+00  0.715990576545E+00  0.930412228790E+00  0.125000000000E+01  0.187029682677E+01
  0.500000000000E+01  0.375000000000E+01  0.250000000000E+01  0.000000000000E+00
  0.250494199996E+01  0.157686156160E+01  0.146289271009E+01  0.250494199996E+01  0.250494199996E+01  0.250494199996E+01  0.155830813274E+01
  0.125000000000E+01  0.250494199996E+01  0.177790177481E+01  0.477386199275E+00  0.742988685424E+00  0.308372018325E+00  0.125000000000E+01
 -0.487811078581E+00 -0.144524380962E+01 -0.125000000000E+01 -0.345533899378E+00  0.000000000000E+00  0.627766083140E+00 -0.739814786992E+00
 -0.158811787973E+01  0.000000000000E+00 -0.125000000000E+01 -0.600232012419E+00 -0.154800130438E+01 -0.249658902117E+01 -0.178862290564E+01
 -0.249658902117E+01 -0.249658902117E+01 -0.249658902117E+01 -0.249658902117E+01
  0.500000000000E+01  0.500000000000E+01  0.500000000000E+01  0.500000000000E+01  0.500000000000E+01  0.500000000000E+01  0.500000000000E+01
  0.500000000000E+01  0.500000000000E+01  0.500000000000E+01  0.500000000000E+01  0.500000000000E+01  0.500000000000E+01  0.500000000000E+01
  0.500000000000E+01  0.500000000000E+01  0.500000000000E+01  0.500000000000E+01  0.500000000000E+01  0.500000000000E+01  0.500000000000E+01
  0.500000000000E+01  0.500000000000E+01  0.500000000000E+01  0.500000000000E+01  0.500000000000E+01  0.500000000000E+01  0.500000000000E+01
  0.500000000000E+01  0.500000000000E+01  0.500000000000E+01  0.500000000000E+01
  0.100246725813E+01  0.100134430622E+01  0.100190794478E+01  0.100014590871E+01  0.100101037064E+01  0.100049287002E+01  0.999775593339E+00
  0.100034297724E+01  0.100194476555E+01  0.100086117797E+01  0.100110853627E+01  0.100019876797E+01  0.100152581835E+01  0.100190260687E+01
  0.100054385454E+01  0.998652397731E+00  0.100067113301E+01  0.999536491172E+00  0.100054145077E+01  0.999923235460E+00  0.100145779292E+01
  0.100044294167E+01  0.100077796276E+01  0.100130067811E+01  0.100105884136E+01  0.100174639469E+01  0.100234892667E+01  0.100133132886E+01
  0.999828413454E+00  0.100019291464E+01  0.100028687140E+01  0.100184292344E+01
  0.493201210428E+00  0.493601211491E+00  0.494657946748E+00  0.493226500765E+00  0.491213266530E+00  0.488103495551E+00  0.488185415042E+00
  0.494186664955E+00  0.498235962181E+00  0.490793314296E+00  0.492762891260E+00  0.491176774168E+00  0.497637808615E+00  0.498753316149E+00
  0.492051495167E+00  0.486062293029E+00  0.492255088086E+00  0.489681611798E+00  0.494622557191E+00  0.490040123702E+00  0.494628964377E+00
  0.492616662633E+00  0.499569338079E+00  0.498567814230E+00  0.498183508519E+00  0.496570936575E+00  0.494536381044E+00  0.494839498606E+00
  0.491695275718E+00  0.489493218602E+00  0.494635424051E+00  0.497856401905E+00
  0.000000000000E+00 -0.121469912824E-03 -0.110879987034E-02  0.000000000000E+00  0.000000000000E+00  0.000000000000E+00  0.121294825411E-03
  0.633472627766E-03  0.000000000000E+00  0.102565539834E-03 -0.874326554085E-03 -0.898644889579E-03 -0.157079977598E-02  0.695900802216E-04
 -0.888526219099E-03 -0.918893110093E-03 -0.139168332226E-02 -0.210154481909E-02 -0.141209924164E-02 -0.122049611004E-02 -0.534198994292E-03
 -0.644841176433E-03 -0.176723373137E-03  0.608284569749E-03 -0.247269292292E-04  0.142363516677E-02  0.000000000000E+00  0.724012184052E-03
  0.000000000000E+00  0.000000000000E+00  0.000000000000E+00  0.000000000000E+00