title="tecplot geometry and solution file"
variables = x y z rho u v w p mach temperature
zone t="boundary 1 bc-1", solutiontime= 0.2000000E+02, strandid=1001, i=32, j=46, f=feblock
 -0.547468535302E-02  0.000000000000E+00 -0.567606022452E-02  0.000000000000E+00  0.000000000000E+00  0.000000000000E+00 -0.525159237563E-02
 -0.425776892947E-02  0.000000000000E+00  0.000000000000E+00  0.000000000000E+00  0.000000000000E+00  0.000000000000E+00  0.000000000000E+00
  0.000000000000E+00  0.000000000000E+00 -0.338395983497E-02  0.000000000000E+00  0.000000000000E+00  0.000000000000E+00  0.000000000000E+00
  0.000000000000E+00  0.000000000000E+00  0.000000000000E+00  0.000000000000E+00  0.000000000000E+00  0.000000000000E+00  0.000000000000E+00
  0.000000000000E+00  0.000000000000E+00  0.000000000000E+00  0.000000000000E+00
  0.250494197112E+01  0.250494197112E+01  0.127822156881E+01  0.146289271009E+01  0.157686156160E+01  0.308372018325E+00  0.261948600199E-01
 -0.122573481184E+01 -0.600232012419E+00  0.250494197112E+01  0.477386199275E+00  0.742988685424E+00 -0.739814786992E+00  0.177790177481E+01
  0.155830813274E+01  0.250494197112E+01 -0.249658903667E+01 -0.154800130438E+01 -0.487811078581E+00  0.250494197112E+01  0.627766083140E+00
 -0.345533899378E+00 -0.178862290564E+01 -0.158811787973E+01  0.125000000000E+01 -0.249658903667E+01 -0.144524380962E+01  0.000000000000E+00
 -0.125000000000E+01 -0.249658903667E+01 -0.249658903667E+01 -0.249658903667E+01
  0.803815338401E-04  0.125000000000E+01  0.822461276940E-04  0.103724302461E+01  0.219251206392E+01  0.922061490191E+00  0.103872511718E-03
  0.341546240792E-04  0.715990576545E+00  0.250000000000E+01  0.202479342020E+01  0.324151231464E+01  0.175434191980E+01  0.310152362409E+01
  0.404200324774E+01  0.375000000000E+01  0.810725965641E-04  0.930412228790E+00  0.299062775774E+01  0.500000000000E+01  0.429310310915E+01
  0.409252726285E+01  0.187029682677E+01  0.284428995242E+01  0.500000000000E+01  0.125000000000E+01  0.394624082883E+01  0.500000000000E+01
  0.500000000000E+01  0.250000000000E+01  0.375000000000E+01  0.500000000000E+01
  0.134610419929E+01  0.106373897329E+01  0.142661317951E+01  0.108602760087E+01  0.103228163082E+01  0.120168949046E+01  0.164672041066E+01
  0.149541237265E+01  0.123511659232E+01  0.102385863652E+01  0.102820715869E+01  0.101304355246E+01  0.103253134242E+01  0.101466428164E+01
  0.100661848829E+01  0.100825278650E+01  0.144847636786E+01  0.116394805430E+01  0.101462671371E+01  0.100424861089E+01  0.100678796787E+01
  0.100723542063E+01  0.104654784094E+01  0.101932575027E+01  0.100423402581E+01  0.106447862021E+01  0.100788917180E+01  0.100286726291E+01
  0.100333205644E+01  0.102843171460E+01  0.100958973493E+01  0.100399164348E+01
  0.000000000000E+00  0.444907560616E+00  0.000000000000E+00  0.468165238668E+00  0.462219797924E+00  0.443255765571E+00  0.000000000000E+00
  0.000000000000E+00  0.379448003352E+00  0.471820136289E+00  0.466385057191E+00  0.479407482464E+00  0.490365945872E+00  0.484580857673E+00
  0.488580594478E+00  0.489903957302E+00  0.000000000000E+00  0.451057844553E+00  0.474795770934E+00  0.495854274593E+00  0.490934538997E+00
  0.486828830713E+00  0.448814585402E+00  0.465812826009E+00  0.496552678383E+00  0.444917689566E+00  0.487673337139E+00  0.497548867489E+00
  0.496389740714E+00  0.470023851989E+00  0.489191803904E+00  0.495532879642E+00
  0.000000000000E+00  0.000000000000E+00  0.000000000000E+00  0.182116296448E-01 -0.276738554419E-02  0.330017095929E-01  0.000000000000E+00
  0.000000000000E+00 -0.636169434230E-02  0.000000000000E+00  0.362670455419E-02 -0.562407456014E-02 -0.433197452694E-02  0.406143424353E-04
 -0.103615146520E-02  0.000000000000E+00  0.000000000000E+00 -0.779394491863E-02  0.382806861050E-03  0.000000000000E+00 -0.203664272941E-02
 -0.138616585458E-02  0.151677542312E-02 -0.162874849704E-02 -0.691214446868E-04  0.000000000000E+00 -0.291170016608E-04 -0.201963308775E-03
  0.816870600786E-03  0.000000000000E+00  0.000000000000E+00  0.000000000000E+00
  0.000000000000E+00  0.453373911226E-01  0.000000000000E+00  0.123641158504E+00  0.245721628416E-01  0.166121681784E+00  0.000000000000E+00
  0.000000000000E+00  0.155961335793E+00  0.352437315911E-02  0.259093024499E-01 -0.648174171873E-02  0.752741164793E-01  0.370928080465E-02
 -0.139767842193E-03  0.461732039194E-03  0.000000000000E+00  0.141091567415E+00 -0.807321546948E-02  0.233579535921E-02 -0.292990453740E-03
 -0.438388145138E-02  0.256686684893E-01 -0.190143623076E-02  0.305251174061E-02  0.838531191030E-01 -0.120817882536E-02  0.269066712862E-02
  0.265767766093E-02  0.282329392863E-02 -0.850600223107E-03  0.345396430049E-02
  0.961493659472E+00  0.782479156362E+00  0.101899998702E+01  0.808625440742E+00  0.746100058600E+00  0.879950447424E+00  0.117621875839E+01
  0.106814331981E+01  0.916475566728E+00  0.737362573669E+00  0.743638068754E+00  0.725781891156E+00  0.757469134130E+00  0.729134471510E+00
  0.720762917412E+00  0.722734716696E+00  0.103461843806E+01  0.858081943372E+00  0.728059872210E+00  0.718594853822E+00  0.720998664258E+00
  0.721138876535E+00  0.759919736701E+00  0.732604154857E+00  0.718512425591E+00  0.790938792848E+00  0.722101236734E+00  0.717180494571E+00
  0.717628162027E+00  0.741761005788E+00  0.724056145039E+00  0.718399995081E+00
  0.000000000000E+00  0.440686950390E+00  0.000000000000E+00  0.474601862619E+00  0.460156612473E+00  0.468651252933E+00  0.000000000000E+00
  0.000000000000E+00  0.402559313903E+00  0.469898461993E+00  0.464218376957E+00  0.478763851837E+00  0.489552770947E+00  0.483139262135E+00
  0.487988316598E+00  0.489037744512E+00  0.000000000000E+00  0.465264757869E+00  0.473778486977E+00  0.495419880962E+00  0.490303690509E+00
  0.486281424760E+00  0.445872013970E+00  0.464382138062E+00  0.496146401422E+00  0.443907047124E+00  0.486938005797E+00  0.497262378501E+00
  0.496064557649E+00  0.467756084204E+00  0.488204920231E+00  0.495109086196E+00
  0.999990286020E+00  0.102983048136E+01  0.999990748939E+00  0.104240041057E+01  0.101187510351E+01  0.102516551586E+01  0.999991407822E+00
  0.999992159413E+00  0.103882159902E+01  0.100825208317E+01  0.101253262775E+01  0.100301181045E+01  0.102704561520E+01  0.100603547260E+01
  0.100243349006E+01  0.100354654797E+01  0.999992713327E+00  0.103210337977E+01  0.100458997119E+01  0.100177663623E+01  0.100259256385E+01
  0.100234206072E+01  0.101656855975E+01  0.100620024219E+01  0.100167627264E+01  0.104024100528E+01  0.100302866596E+01  0.100118204026E+01
  0.100134289580E+01  0.100975630503E+01  0.100405002941E+01  0.100176131907E+01
        12        19        11        11
        11         5        12        12
        10        14         5         5
        19        13        11        11
        19        24        13        13
        30        23        24        24
        19        12        22        22
        28        22        21        21
        11        13         6         6
         7         6         9         9
        15        12        14        14
        18        13        23        23
        15        25        21        21
        27        19        22        22
        18         8         9         9
        27        31        24        24
         4        11         6         6
         5        14        12        12
         4         2         5         5
        21        12        15        15
        14        16        15        15
        24        19        27        27
        22        29        27        27
        23        26        18        18
        17         8        18        18
         5        11         4         4
         6         3         4         4
        26        23        30        30
         5         2        10        10
        16        14        10        10
         3         6         7         7
        21        25        28        28
        29        22        28        28
         6        13         9         9
         2         4         1         1
        31        27        32        32
        25        15        20        20
        24        23        13        13
         8         7         9         9
        13        18         9         9
        31        30        24        24
        12        21        22        22
        29        32        27        27
         3         1         4         4
        26        17        18        18
        16        20        15        15
zone t="boundary 2 bc-2", solutiontime= 0.2000000E+02, strandid=1002, i=33, j=48, f=feblock
  0.500195253373E+01  0.375034811160E+01  0.249861146301E+01  0.288036674178E+01  0.124717526936E+01  0.190856698522E+01  0.326577190274E+01
  0.201394856120E+01 -0.338395983497E-02  0.962374249387E+00  0.500000000000E+01  0.403430190010E+01  0.423029563808E+01  0.500000000000E+01
  0.385439188941E+01  0.500000000000E+01  0.398133433177E+01  0.315200081418E+01  0.266958028869E+01  0.154798029824E+01  0.218327860466E+01
  0.893688440331E+00  0.000000000000E+00  0.699009761761E+00  0.964460899048E+00  0.310303671659E+01  0.000000000000E+00  0.000000000000E+00
  0.125000000000E+01  0.500000000000E+01  0.375000000000E+01  0.250000000000E+01  0.000000000000E+00
 -0.249658903667E+01 -0.249658903667E+01 -0.249658903667E+01 -0.249658903667E+01 -0.249658903667E+01 -0.249658903667E+01 -0.249658903667E+01
 -0.249658903667E+01 -0.249658903667E+01 -0.249658903667E+01 -0.249658903667E+01 -0.249658903667E+01 -0.249658903667E+01 -0.249658903667E+01
 -0.249658903667E+01 -0.249658903667E+01 -0.249658903667E+01 -0.249658903667E+01 -0.249658903667E+01 -0.249658903667E+01 -0.249658903667E+01
 -0.249658903667E+01 -0.249658903667E+01 -0.249658903667E+01 -0.249658903667E+01 -0.249658903667E+01 -0.249658903667E+01 -0.249658903667E+01
 -0.249658903667E+01 -0.249658903667E+01 -0.249658903667E+01 -0.249658903667E+01 -0.249658903667E+01
  0.108225882759E-03  0.145875364869E-03  0.100893323280E-03  0.901663374427E+00  0.110858760161E-03  0.714928318849E+00  0.188140648017E+01
  0.175892165509E+01  0.810725965641E-04  0.957504300369E+00  0.125000000000E+01  0.100596699002E+01  0.191313519093E+01  0.250000000000E+01
  0.292898096719E+01  0.375000000000E+01  0.406883369525E+01  0.363389289947E+01  0.284756860989E+01  0.292582308123E+01  0.395754054933E+01
  0.205027256982E+01  0.125000000000E+01  0.306703272694E+01  0.397155766663E+01  0.433068622169E+01  0.250000000000E+01  0.375000000000E+01
  0.500000000000E+01  0.500000000000E+01  0.500000000000E+01  0.500000000000E+01  0.500000000000E+01
  0.831041406553E+00  0.935348909927E+00  0.934365033886E+00  0.968084032143E+00  0.961603897664E+00  0.964872860159E+00  0.984181334301E+00
  0.991405240247E+00  0.144847636786E+01  0.102897893932E+01  0.956084377616E+00  0.960824345846E+00  0.981496171865E+00  0.100649968636E+01
  0.997928197817E+00  0.100983390866E+01  0.100199661159E+01  0.998061459425E+00  0.991078411250E+00  0.100130787659E+01  0.100092799639E+01
  0.101222172868E+01  0.106447862021E+01  0.101078344268E+01  0.100684496497E+01  0.100117654856E+01  0.102843171460E+01  0.100958973493E+01
  0.100510104219E+01  0.100173048174E+01  0.100263755082E+01  0.100321223312E+01  0.100399164348E+01
  0.000000000000E+00  0.000000000000E+00  0.000000000000E+00  0.378594365720E+00  0.000000000000E+00  0.340338486805E+00  0.582141971946E+00
  0.575333072970E+00  0.000000000000E+00  0.489396355260E+00  0.495116944328E+00  0.430516985996E+00  0.569146251943E+00  0.536366167567E+00
  0.569120298527E+00  0.516318776338E+00  0.508668480761E+00  0.527583795609E+00  0.566869695576E+00  0.532048520350E+00  0.506201684025E+00
  0.520958059895E+00  0.444917689566E+00  0.491395352720E+00  0.492743672712E+00  0.501554506666E+00  0.470023851989E+00  0.489191803904E+00
  0.490411026217E+00  0.491356701245E+00  0.485989869987E+00  0.490194996047E+00  0.495532879642E+00
  0.000000000000E+00  0.000000000000E+00  0.000000000000E+00  0.000000000000E+00  0.000000000000E+00  0.000000000000E+00  0.000000000000E+00
  0.000000000000E+00  0.000000000000E+00  0.000000000000E+00  0.000000000000E+00  0.000000000000E+00  0.000000000000E+00  0.000000000000E+00
  0.000000000000E+00  0.000000000000E+00  0.000000000000E+00  0.000000000000E+00  0.000000000000E+00  0.000000000000E+00  0.000000000000E+00
  0.000000000000E+00  0.000000000000E+00  0.000000000000E+00  0.000000000000E+00  0.000000000000E+00  0.000000000000E+00  0.000000000000E+00
  0.000000000000E+00  0.000000000000E+00  0.000000000000E+00  0.000000000000E+00  0.000000000000E+00
  0.000000000000E+00  0.000000000000E+00  0.000000000000E+00 -0.231875148065E-02  0.000000000000E+00  0.182430296375E-01  0.121482089030E-01
  0.454146840349E-01  0.000000000000E+00  0.867503126945E-01 -0.992647629842E-01 -0.210331131545E-01 -0.304852239564E-01 -0.412937512878E-01
 -0.133112105876E-02  0.271643098015E-02  0.620177182587E-03  0.530842065883E-03  0.151482948493E-01  0.284354116928E-01  0.565490350844E-02
  0.553963147223E-01  0.838531191030E-01  0.110678829636E-01  0.680754905277E-02 -0.768002007719E-03  0.282329392863E-02 -0.850600223107E-03
  0.399030892382E-02  0.610294473719E-02 -0.134761532755E-03  0.119985046822E-02  0.345396430049E-02
  0.593597133582E+00  0.668102142732E+00  0.667399280542E+00  0.684281506070E+00  0.686855207332E+00  0.679247647968E+00  0.695852012489E+00
  0.702279984672E+00  0.103461843806E+01  0.723383489979E+00  0.672769923795E+00  0.675858591715E+00  0.694112656706E+00  0.721034434305E+00
  0.712702740415E+00  0.724826949310E+00  0.716589963877E+00  0.713298998719E+00  0.706418123494E+00  0.717728874429E+00  0.715366592689E+00
  0.730895741214E+00  0.790938792848E+00  0.724351378924E+00  0.721003679754E+00  0.715449072365E+00  0.741761005788E+00  0.724056145039E+00
  0.719312511118E+00  0.715843228905E+00  0.716591066532E+00  0.717373771863E+00  0.718399995081E+00
  0.000000000000E+00  0.000000000000E+00  0.000000000000E+00  0.380590024544E+00  0.000000000000E+00  0.343313626093E+00  0.585246136567E+00
  0.579528257038E+00  0.000000000000E+00  0.500995302659E+00  0.508763597749E+00  0.434348209181E+00  0.572810921334E+00  0.537167145445E+00
  0.569163024530E+00  0.515071737216E+00  0.508357105748E+00  0.527436870062E+00  0.567671805294E+00  0.531875763252E+00  0.506085339101E+00
  0.521063211587E+00  0.443907047124E+00  0.490717529841E+00  0.492165358456E+00  0.501441876507E+00  0.467756084204E+00  0.488204920231E+00
  0.489955501690E+00  0.491284255791E+00  0.485846975840E+00  0.489925245906E+00  0.495109086196E+00
  0.999993478619E+00  0.999993681392E+00  0.999993534511E+00  0.989577429944E+00  0.999993128772E+00  0.985566851781E+00  0.989850938574E+00
  0.991715535310E+00  0.999992713327E+00  0.984215368524E+00  0.985140972245E+00  0.984781487368E+00  0.990077951645E+00  0.100292948096E+01
  0.999855339054E+00  0.100487587150E+01  0.100122688821E+01  0.100055822092E+01  0.997888120319E+00  0.100350795963E+01  0.100058469079E+01
  0.101089910314E+01  0.104024100528E+01  0.100327319154E+01  0.100254278144E+01  0.100045162139E+01  0.100975630503E+01  0.100405002941E+01
  0.100192664547E+01  0.100044926129E+01  0.100058839041E+01  0.100110748997E+01  0.100176131907E+01
        15         7        19        19
         8        20        19        19
        18        19        21        21
         7         4         8         8
         3         6         4         4
        19         7         8         8
        19        18        15        15
        14        13        15        15
         8        22        20        20
        27        24        22        22
        19        20        21        21
        32        26        21        21
        17        18        26        26
        17        16        15        15
        25        29        21        21
        12         7        13        13
        10         8         6         6
        25        20        24        24
         4         6         8         8
        12         2         4         4
        10        23        22        22
        26        31        17        17
        30        16        17        17
         4         7        12        12
        13        11        12        12
        21        20        25        25
        24        28        25        25
        22         8        10        10
         6         5        10        10
        31        26        32        32
         4         2         3         3
         5         6         3         3
        11        13        14        14
        22        23        27        27
        28        24        27        27
        15        13         7         7
         2        12         1         1
        29        25        33        33
        23        10         9         9
        21        26        18        18
        16        14        15        15
        18        17        15        15
        29        32        21        21
        22        24        20        20
        28        33        25        25
        11         1        12        12
        31        30        17        17
         5         9        10        10
zone t="boundary 3 bc-3", solutiontime= 0.2000000E+02, strandid=1003, i=33, j=48, f=feblock
  0.375059096890E+01  0.249769609317E+01  0.500322133168E+01  0.403612218724E+01  0.287976772366E+01  0.124541910526E+01  0.190552237410E+01
  0.500000000000E+01  0.326671104553E+01  0.423253755449E+01  0.201271136509E+01 -0.547468535302E-02  0.958895643551E+00  0.500000000000E+01
  0.266968147300E+01  0.385584487271E+01  0.890374214860E+00  0.154654013700E+01  0.000000000000E+00  0.500000000000E+01  0.315261136744E+01
  0.218304199515E+01  0.398195307895E+01  0.000000000000E+00  0.697379952130E+00  0.963757277316E+00  0.125000000000E+01  0.000000000000E+00
  0.500000000000E+01  0.310330738524E+01  0.250000000000E+01  0.375000000000E+01  0.000000000000E+00
  0.250494197112E+01  0.250494197112E+01  0.250494197112E+01  0.250494197112E+01  0.250494197112E+01  0.250494197112E+01  0.250494197112E+01
  0.250494197112E+01  0.250494197112E+01  0.250494197112E+01  0.250494197112E+01  0.250494197112E+01  0.250494197112E+01  0.250494197112E+01
  0.250494197112E+01  0.250494197112E+01  0.250494197112E+01  0.250494197112E+01  0.250494197112E+01  0.250494197112E+01  0.250494197112E+01
  0.250494197112E+01  0.250494197112E+01  0.250494197112E+01  0.250494197112E+01  0.250494197112E+01  0.250494197112E+01  0.250494197112E+01
  0.250494197112E+01  0.250494197112E+01  0.250494197112E+01  0.250494197112E+01  0.250494197112E+01
  0.135650036923E-03  0.110129957609E-03  0.966888632815E-04  0.101756752015E+01  0.908094589315E+00  0.103942650375E-03  0.722629083290E+00
  0.125000000000E+01  0.188965661752E+01  0.191862696982E+01  0.176708239103E+01  0.803815338401E-04  0.969652551989E+00  0.250000000000E+01
  0.285339433504E+01  0.293325058814E+01  0.205656223821E+01  0.293157016934E+01  0.125000000000E+01  0.375000000000E+01  0.363766838843E+01
  0.396069444984E+01  0.407056385476E+01  0.250000000000E+01  0.307031995246E+01  0.397359820315E+01  0.500000000000E+01  0.375000000000E+01
  0.500000000000E+01  0.433260781311E+01  0.500000000000E+01  0.500000000000E+01  0.500000000000E+01
  0.942178539245E+00  0.946103843642E+00  0.843604541187E+00  0.964645781383E+00  0.979065872139E+00  0.957190405021E+00  0.983404321429E+00
  0.963737871306E+00  0.982786725380E+00  0.984379858081E+00  0.990461405923E+00  0.134610419929E+01  0.101938516726E+01  0.100836580665E+01
  0.993505142062E+00  0.998020937293E+00  0.100802067532E+01  0.100072468980E+01  0.106373897329E+01  0.100674612067E+01  0.100058934669E+01
  0.100234013788E+01  0.100176868750E+01  0.102385863652E+01  0.100867868954E+01  0.100524483301E+01  0.100520219491E+01  0.100825278650E+01
  0.100185253126E+01  0.100160365128E+01  0.100408173368E+01  0.100312277001E+01  0.100424861089E+01
  0.000000000000E+00  0.000000000000E+00  0.000000000000E+00  0.440133439572E+00  0.400303678093E+00  0.000000000000E+00  0.375206676148E+00
  0.494506932381E+00  0.572896196871E+00  0.569318078038E+00  0.559942270929E+00  0.000000000000E+00  0.484443238903E+00  0.533614038893E+00
  0.556267487780E+00  0.564509828421E+00  0.522402260996E+00  0.522323899955E+00  0.444907560616E+00  0.518328077473E+00  0.524681639817E+00
  0.503881586181E+00  0.509875845414E+00  0.471820136289E+00  0.496286646397E+00  0.494981791081E+00  0.489196212581E+00  0.489903957302E+00
  0.493009730101E+00  0.499180116084E+00  0.486782102300E+00  0.484553755266E+00  0.495854274593E+00
  0.000000000000E+00  0.000000000000E+00  0.000000000000E+00  0.000000000000E+00  0.000000000000E+00  0.000000000000E+00  0.000000000000E+00
  0.000000000000E+00  0.000000000000E+00  0.000000000000E+00  0.000000000000E+00  0.000000000000E+00  0.000000000000E+00  0.000000000000E+00
  0.000000000000E+00  0.000000000000E+00  0.000000000000E+00  0.000000000000E+00  0.000000000000E+00  0.000000000000E+00  0.000000000000E+00
  0.000000000000E+00  0.000000000000E+00  0.000000000000E+00  0.000000000000E+00  0.000000000000E+00  0.000000000000E+00  0.000000000000E+00
  0.000000000000E+00  0.000000000000E+00  0.000000000000E+00  0.000000000000E+00  0.000000000000E+00
  0.000000000000E+00  0.000000000000E+00  0.000000000000E+00 -0.226873398737E-01  0.112237192271E-01  0.000000000000E+00  0.181904299273E-01
 -0.100739543824E+00  0.385716483094E-02 -0.389662924560E-01  0.339725835668E-01  0.000000000000E+00  0.656390332529E-01 -0.424723780917E-01
  0.840177435991E-02 -0.653192320990E-02  0.487201611771E-01  0.134497814357E-01  0.453373911226E-01  0.774790010905E-03 -0.730960225266E-03
  0.238658319332E-02  0.895379232461E-03  0.352437315911E-02  0.103017898902E-01  0.426804024508E-02  0.333701621501E-02  0.461732039194E-03
  0.581652067087E-02  0.305480719986E-03  0.163303861915E-02  0.682259851880E-03  0.233579535921E-02
  0.672977489991E+00  0.675781295869E+00  0.602568415853E+00  0.676148775118E+00  0.691376657538E+00  0.683700470584E+00  0.689981105210E+00
  0.677403699742E+00  0.695255924026E+00  0.696318107578E+00  0.703500444313E+00  0.961493659472E+00  0.719930208370E+00  0.722890515341E+00
  0.709483339157E+00  0.713700376927E+00  0.725988740663E+00  0.716599018114E+00  0.782479156362E+00  0.722279294836E+00  0.716117424055E+00
  0.716530314733E+00  0.716531041661E+00  0.737362573669E+00  0.722623128357E+00  0.719398583443E+00  0.719541002988E+00  0.722734716696E+00
  0.715953386361E+00  0.715824076659E+00  0.718123658646E+00  0.717024361476E+00  0.718594853822E+00
  0.000000000000E+00  0.000000000000E+00  0.000000000000E+00  0.444896873726E+00  0.402758580430E+00  0.000000000000E+00  0.379021446076E+00
  0.508737586713E+00  0.575677235749E+00  0.573433861010E+00  0.562553314099E+00  0.000000000000E+00  0.491646776868E+00  0.534327280159E+00
  0.556394911873E+00  0.564219931929E+00  0.522506064227E+00  0.521841984018E+00  0.440686950390E+00  0.517188193304E+00  0.524165083564E+00
  0.503685695895E+00  0.509527128316E+00  0.469898461993E+00  0.495658560228E+00  0.494529820251E+00  0.488683991768E+00  0.489037744512E+00
  0.492925427849E+00  0.499043197251E+00  0.486472106732E+00  0.484382522956E+00  0.495419880962E+00
  0.999989329774E+00  0.999989399234E+00  0.999989617181E+00  0.981301430468E+00  0.988623286846E+00  0.999989817906E+00  0.982275068600E+00
  0.984048887021E+00  0.990406431528E+00  0.990314198941E+00  0.994385663235E+00  0.999990286020E+00  0.988735488887E+00  0.100365037648E+01
  0.999770039196E+00  0.100116188986E+01  0.100829701395E+01  0.100251211506E+01  0.102983048136E+01  0.100441510726E+01  0.100197388368E+01
  0.100080042964E+01  0.100137234358E+01  0.100825208317E+01  0.100296793240E+01  0.100190320183E+01  0.100214405548E+01  0.100354654797E+01
  0.100048131799E+01  0.100054917536E+01  0.100128613875E+01  0.100070912163E+01  0.100177663623E+01
        15         9        16        16
        15        18        11        11
        22        15        21        21
        11         5         9         9
         5         7         2         2
        11         9        15        15
        16        21        15        15
        16        10        14        14
        18        17        11        11
        17        25        24        24
        22        18        15        15
        22        30        31        31
        30        21        23        23
        16        20        23        23
        22        27        26        26
        10         9         4         4
         7        11        13        13
        25        18        26        26
        11         7         5         5
         5         1         4         4
        17        19        13        13
        23        32        30        30
        23        20        29        29
         4         9         5         5
         4         8        10        10
        26        18        22        22
        26        28        25        25
        13        11        17        17
        13         6         7         7
        31        30        32        32
         2         1         5         5
         2         7         6         6
        14        10         8         8
        24        19        17        17
        24        25        28        28
         9        10        16        16
         3         4         1         1
        33        26        27        27
        12        13        19        19
        21        30        22        22
        16        14        20        20
        16        23        21        21
        22        31        27        27
        18        25        17        17
        26        33        28        28
         4         3         8         8
        23        29        32        32
        13        12         6         6
zone t="boundary 4 bc-4", solutiontime= 0.2000000E+02, strandid=1004, i=32, j=46, f=feblock
  0.125000000000E+01  0.219251206392E+01  0.103724302461E+01  0.500000000000E+01  0.250000000000E+01  0.375000000000E+01  0.404200324774E+01
  0.500000000000E+01  0.000000000000E+00  0.310152362409E+01  0.202479342020E+01  0.324151231464E+01  0.922061490191E+00  0.000000000000E+00
  0.299062775774E+01  0.394624082883E+01  0.500000000000E+01  0.409252726285E+01  0.500000000000E+01  0.429310310915E+01  0.175434191980E+01
  0.284428995242E+01  0.000000000000E+00  0.000000000000E+00  0.715990576545E+00  0.930412228790E+00  0.125000000000E+01  0.187029682677E+01
  0.500000000000E+01  0.375000000000E+01  0.250000000000E+01  0.000000000000E+00
  0.250494197112E+01  0.157686156160E+01  0.146289271009E+01  0.250494197112E+01  0.250494197112E+01  0.250494197112E+01  0.155830813274E+01
  0.125000000000E+01  0.250494197112E+01  0.177790177481E+01  0.477386199275E+00  0.742988685424E+00  0.308372018325E+00  0.125000000000E+01
 -0.487811078581E+00 -0.144524380962E+01 -0.125000000000E+01 -0.345533899378E+00  0.000000000000E+00  0.627766083140E+00 -0.739814786992E+00
 -0.158811787973E+01  0.000000000000E+00 -0.125000000000E+01 -0.600232012419E+00 -0.154800130438E+01 -0.249658903667E+01 -0.178862290564E+01
 -0.249658903667E+01 -0.249658903667E+01 -0.249658903667E+01 -0.249658903667E+01
  0.500000000000E+01  0.500000000000E+01  0.500000000000E+01  0.500000000000E+01  0.500000000000E+01  0.500000000000E+01  0.500000000000E+01
  0.500000000000E+01  0.500000000000E+01  0.500000000000E+01  0.500000000000E+01  0.500000000000E+01  0.500000000000E+01  0.500000000000E+01
  0.500000000000E+01  0.500000000000E+01  0.500000000000E+01  0.500000000000E+01  0.500000000000E+01  0.500000000000E+01  0.500000000000E+01
  0.500000000000E+01  0.500000000000E+01  0.500000000000E+01  0.500000000000E+01  0.500000000000E+01  0.500000000000E+01  0.500000000000E+01
  0.500000000000E+01  0.500000000000E+01  0.500000000000E+01  0.500000000000E+01
  0.100520219491E+01  0.100429347065E+01  0.100428276736E+01  0.100185253126E+01  0.100408173368E+01  0.100312277001E+01  0.100250277522E+01
  0.100192430925E+01  0.100424861089E+01  0.100365578777E+01  0.100444402301E+01  0.100343927250E+01  0.100364263318E+01  0.100423402581E+01
  0.100359785280E+01  0.100160991334E+01  0.100222856790E+01  0.100221783018E+01  0.100205714476E+01  0.100246840433E+01  0.100442314896E+01
  0.100337066863E+01  0.100286726291E+01  0.100333205644E+01  0.100322110761E+01  0.100405739022E+01  0.100510104219E+01  0.100431850528E+01
  0.100173048174E+01  0.100263755082E+01  0.100321223312E+01  0.100399164348E+01
  0.489196212581E+00  0.489268665996E+00  0.491057600696E+00  0.493009730101E+00  0.486782102300E+00  0.484553755266E+00  0.485193542312E+00
  0.494182436205E+00  0.495854274593E+00  0.486706302055E+00  0.488145751441E+00  0.487142408496E+00  0.494455566476E+00  0.496552678383E+00
  0.487744666093E+00  0.483035442896E+00  0.492497453176E+00  0.487103464980E+00  0.494805167206E+00  0.487838609905E+00  0.490069497345E+00
  0.488106179176E+00  0.497548867489E+00  0.496389740714E+00  0.495266173681E+00  0.493204030255E+00  0.490411026217E+00  0.490339482792E+00
  0.491356701245E+00  0.485989869987E+00  0.490194996047E+00  0.495532879642E+00
  0.000000000000E+00 -0.718283497335E-04 -0.128722452290E-02  0.000000000000E+00  0.000000000000E+00  0.000000000000E+00  0.515463564065E-03
  0.901944498332E-03  0.000000000000E+00  0.307019314197E-03 -0.895725866816E-03 -0.764921234724E-03 -0.173050693883E-02 -0.691214446868E-04
 -0.105897320272E-02 -0.101393638742E-02 -0.130343828898E-02 -0.210006205272E-02 -0.123874465914E-02 -0.984823181598E-03 -0.567193378852E-03
 -0.730519520027E-03 -0.201963308775E-03  0.816870600786E-03  0.739513635413E-04  0.164659116206E-02  0.000000000000E+00  0.816813271596E-03
  0.000000000000E+00  0.000000000000E+00  0.000000000000E+00  0.000000000000E+00