title="tecplot geometry and solution file"
variables = x y z rho u v w p mach temperature
zone t="boundary 1 bc-1", solutiontime= 0.1000000E+02, strandid=1001, i=32, j=46, f=feblock
 -0.547473798443E-02  0.000000000000E+00 -0.567611385769E-02  0.000000000000E+00  0.000000000000E+00  0.000000000000E+00 -0.525163708921E-02
 -0.425779951787E-02  0.000000000000E+00  0.000000000000E+00  0.000000000000E+00  0.000000000000E+00  0.000000000000E+00  0.000000000000E+00
  0.000000000000E+00  0.000000000000E+00 -0.338397806658E-02  0.000000000000E+00  0.000000000000E+00  0.000000000000E+00  0.000000000000E+00
  0.000000000000E+00  0.000000000000E+00  0.000000000000E+00  0.000000000000E+00  0.000000000000E+00  0.000000000000E+00  0.000000000000E+00
  0.000000000000E+00  0.000000000000E+00  0.000000000000E+00  0.000000000000E+00
  0.250494200017E+01  0.250494200017E+01  0.127822171313E+01  0.146289271009E+01  0.157686156160E+01  0.308372018325E+00  0.261949848025E-01
 -0.122573470304E+01 -0.600232012419E+00  0.250494200017E+01  0.477386199275E+00  0.742988685424E+00 -0.739814786992E+00  0.177790177481E+01
  0.155830813274E+01  0.250494200017E+01 -0.249658902097E+01 -0.154800130438E+01 -0.487811078581E+00  0.250494200017E+01  0.627766083140E+00
 -0.345533899378E+00 -0.178862290564E+01 -0.158811787973E+01  0.125000000000E+01 -0.249658902097E+01 -0.144524380962E+01  0.000000000000E+00
 -0.125000000000E+01 -0.249658902097E+01 -0.249658902097E+01 -0.249658902097E+01
  0.805428871043E-04  0.125000000000E+01  0.823682219680E-04  0.103724302461E+01  0.219251206392E+01  0.922061490191E+00  0.103955513112E-03
  0.341980144390E-04  0.715990576545E+00  0.250000000000E+01  0.202479342020E+01  0.324151231464E+01  0.175434191980E+01  0.310152362409E+01
  0.404200324774E+01  0.375000000000E+01  0.810778189433E-04  0.930412228790E+00  0.299062775774E+01  0.500000000000E+01  0.429310310915E+01
  0.409252726285E+01  0.187029682677E+01  0.284428995242E+01  0.500000000000E+01  0.125000000000E+01  0.394624082883E+01  0.500000000000E+01
  0.500000000000E+01  0.250000000000E+01  0.375000000000E+01  0.500000000000E+01
  0.121913492087E+01  0.105779316012E+01  0.128635823215E+01  0.108328818909E+01  0.102321984741E+01  0.116886239584E+01  0.145480315791E+01
  0.134672440828E+01  0.119271539866E+01  0.101649876686E+01  0.101719562119E+01  0.100659099560E+01  0.102828273565E+01  0.100980404689E+01
  0.100337060595E+01  0.100488285861E+01  0.129900962396E+01  0.114135213575E+01  0.100787879282E+01  0.100154227422E+01  0.100370094579E+01
  0.100379593649E+01  0.103449168862E+01  0.101210023794E+01  0.100176570589E+01  0.106065418771E+01  0.100432701047E+01  0.100091617377E+01
  0.100128196519E+01  0.102033404214E+01  0.100594953964E+01  0.100183273028E+01
  0.000000000000E+00  0.452532415595E+00  0.000000000000E+00  0.472174764382E+00  0.471166372537E+00  0.460023820955E+00  0.000000000000E+00
  0.000000000000E+00  0.402141883298E+00  0.479175627079E+00  0.474632616702E+00  0.485600127759E+00  0.492224944316E+00  0.489447461577E+00
  0.491928072639E+00  0.493334827573E+00  0.000000000000E+00  0.465114101990E+00  0.481746750088E+00  0.498429643743E+00  0.494141130935E+00
  0.490749050518E+00  0.459294765685E+00  0.473895185087E+00  0.499374648739E+00  0.451817810445E+00  0.491461044432E+00  0.499978429174E+00
  0.498779065022E+00  0.477459910740E+00  0.492875822190E+00  0.497927225702E+00
  0.000000000000E+00  0.000000000000E+00  0.000000000000E+00  0.149134276433E-01 -0.385102378377E-02  0.284843717921E-01  0.000000000000E+00
  0.000000000000E+00 -0.411579007102E-02  0.000000000000E+00  0.289301580340E-02 -0.501578360702E-02 -0.302969028176E-02 -0.223090438866E-03
 -0.103677596959E-02  0.000000000000E+00  0.000000000000E+00 -0.864270441872E-02  0.989197259500E-03  0.000000000000E+00 -0.179751729157E-02
 -0.104748271108E-02  0.220549647642E-02 -0.143796632848E-02 -0.307246507317E-03  0.000000000000E+00  0.130840688466E-03 -0.403053985333E-03
  0.618026913688E-03  0.000000000000E+00  0.000000000000E+00  0.000000000000E+00
  0.000000000000E+00  0.391541814055E-01  0.000000000000E+00  0.103093113598E+00  0.226094330255E-01  0.135135818560E+00  0.000000000000E+00
  0.000000000000E+00  0.127190160084E+00  0.363142833853E-02  0.221804042653E-01 -0.673452055680E-02  0.639382911343E-01  0.309162425671E-02
 -0.831674943846E-03  0.413523829715E-03  0.000000000000E+00  0.115315388891E+00 -0.789922775136E-02  0.187431386988E-02 -0.773078853527E-03
 -0.451944523381E-02  0.226163583680E-01 -0.202022403770E-02  0.235962608212E-02  0.692836227987E-01 -0.179852612291E-02  0.177683100685E-02
  0.168265780104E-02  0.233302819938E-02 -0.108577994667E-02  0.251396774018E-02
  0.907756025036E+00  0.774479341895E+00  0.957809849918E+00  0.800126886259E+00  0.737742444503E+00  0.857522004774E+00  0.108323230615E+01
  0.100275791855E+01  0.886719786016E+00  0.730430110278E+00  0.733281624679E+00  0.720269612411E+00  0.747996938894E+00  0.724146341334E+00
  0.717478818936E+00  0.719177478121E+00  0.967229953424E+00  0.840269967319E+00  0.722217841137E+00  0.716117370697E+00  0.717907937573E+00
  0.717844102700E+00  0.748950499794E+00  0.726359225509E+00  0.716191140250E+00  0.782057639883E+00  0.718577057067E+00  0.715264638542E+00
  0.715595409998E+00  0.734023643400E+00  0.720276664087E+00  0.716285358646E+00
  0.000000000000E+00  0.448642767012E+00  0.000000000000E+00  0.475499915420E+00  0.469522357172E+00  0.473929886648E+00  0.000000000000E+00
  0.000000000000E+00  0.413441691892E+00  0.477757229322E+00  0.472979319860E+00  0.485242320632E+00  0.491866711461E+00  0.488490536452E+00
  0.491660500684E+00  0.492853211246E+00  0.000000000000E+00  0.472084955885E+00  0.481043237052E+00  0.498179044054E+00  0.493808067685E+00
  0.490481355391E+00  0.456767613672E+00  0.472781265622E+00  0.499155673460E+00  0.449897767466E+00  0.491053604087E+00  0.499868315561E+00
  0.498644952690E+00  0.475766920779E+00  0.492280889195E+00  0.497693491996E+00
  0.104242640687E+01  0.102503128166E+01  0.104242640687E+01  0.103405322059E+01  0.100940127864E+01  0.102709336100E+01  0.104242640687E+01
  0.104242640687E+01  0.104082474480E+01  0.100600432359E+01  0.100923976978E+01  0.100177476431E+01  0.101839278065E+01  0.100396198747E+01
  0.100109604622E+01  0.100195605959E+01  0.104242640687E+01  0.103068800364E+01  0.100320096503E+01  0.100102047091E+01  0.100136511459E+01
  0.100118132306E+01  0.101357092691E+01  0.100474525901E+01  0.100090030079E+01  0.103226924338E+01  0.100167362762E+01  0.100045390433E+01
  0.100055090257E+01  0.100715359707E+01  0.100242337213E+01  0.100096500323E+01
        12        19        11        11
        11         5        12        12
        10        14         5         5
        19        13        11        11
        19        24        13        13
        30        23        24        24
        19        12        22        22
        28        22        21        21
        11        13         6         6
         7         6         9         9
        15        12        14        14
        18        13        23        23
        15        25        21        21
        27        19        22        22
        18         8         9         9
        27        31        24        24
         4        11         6         6
         5        14        12        12
         4         2         5         5
        21        12        15        15
        14        16        15        15
        24        19        27        27
        22        29        27        27
        23        26        18        18
        17         8        18        18
         5        11         4         4
         6         3         4         4
        26        23        30        30
         5         2        10        10
        16        14        10        10
         3         6         7         7
        21        25        28        28
        29        22        28        28
         6        13         9         9
         2         4         1         1
        31        27        32        32
        25        15        20        20
        24        23        13        13
         8         7         9         9
        13        18         9         9
        31        30        24        24
        12        21        22        22
        29        32        27        27
         3         1         4         4
        26        17        18        18
        16        20        15        15
zone t="boundary 2 bc-2", solutiontime= 0.1000000E+02, strandid=1002, i=33, j=48, f=feblock
  0.500195254573E+01  0.375034811449E+01  0.249861145590E+01  0.288036674147E+01  0.124717525357E+01  0.190856697924E+01  0.326577189995E+01
  0.201394855934E+01 -0.338397806658E-02  0.962374244186E+00  0.500000000000E+01  0.403430189792E+01  0.423029563489E+01  0.500000000000E+01
  0.385439188810E+01  0.500000000000E+01  0.398133433199E+01  0.315200081370E+01  0.266958028789E+01  0.154798029774E+01  0.218327860411E+01
  0.893688440445E+00  0.000000000000E+00  0.699009761515E+00  0.964460898714E+00  0.310303671654E+01  0.000000000000E+00  0.000000000000E+00
  0.125000000000E+01  0.500000000000E+01  0.375000000000E+01  0.250000000000E+01  0.000000000000E+00
 -0.249658902097E+01 -0.249658902097E+01 -0.249658902097E+01 -0.249658902097E+01 -0.249658902097E+01 -0.249658902097E+01 -0.249658902097E+01
 -0.249658902097E+01 -0.249658902097E+01 -0.249658902097E+01 -0.249658902097E+01 -0.249658902097E+01 -0.249658902097E+01 -0.249658902097E+01
 -0.249658902097E+01 -0.249658902097E+01 -0.249658902097E+01 -0.249658902097E+01 -0.249658902097E+01 -0.249658902097E+01 -0.249658902097E+01
 -0.249658902097E+01 -0.249658902097E+01 -0.249658902097E+01 -0.249658902097E+01 -0.249658902097E+01 -0.249658902097E+01 -0.249658902097E+01
 -0.249658902097E+01 -0.249658902097E+01 -0.249658902097E+01 -0.249658902097E+01 -0.249658902097E+01
  0.108218780468E-03  0.145871375549E-03  0.100891857917E-03  0.901663364282E+00  0.110860345229E-03  0.714928312400E+00  0.188140646975E+01
  0.175892165177E+01  0.810778189433E-04  0.957504290295E+00  0.125000000000E+01  0.100596696882E+01  0.191313518544E+01  0.250000000000E+01
  0.292898096624E+01  0.375000000000E+01  0.406883369572E+01  0.363389289990E+01  0.284756861081E+01  0.292582308196E+01  0.395754055066E+01
  0.205027256965E+01  0.125000000000E+01  0.306703272724E+01  0.397155766736E+01  0.433068622204E+01  0.250000000000E+01  0.375000000000E+01
  0.500000000000E+01  0.500000000000E+01  0.500000000000E+01  0.500000000000E+01  0.500000000000E+01
  0.769847839770E+00  0.890969245410E+00  0.899715201701E+00  0.951071009671E+00  0.924828875260E+00  0.948250567106E+00  0.980875991585E+00
  0.987871563231E+00  0.129900962396E+01  0.101379327882E+01  0.945022076032E+00  0.945592245469E+00  0.977862991005E+00  0.100636357469E+01
  0.997604740336E+00  0.100997618137E+01  0.100031229086E+01  0.996097889467E+00  0.990213875580E+00  0.999019668554E+00  0.997942769050E+00
  0.100905763810E+01  0.106065418771E+01  0.100613741990E+01  0.100334397574E+01  0.998374252103E+00  0.102033404214E+01  0.100594953964E+01
  0.100241253861E+01  0.100093378008E+01  0.100032361876E+01  0.100001127334E+01  0.100183273028E+01
  0.000000000000E+00  0.000000000000E+00  0.000000000000E+00  0.386510548911E+00  0.000000000000E+00  0.341940105240E+00  0.581910764170E+00
  0.570493602919E+00  0.000000000000E+00  0.480969749548E+00  0.506475288148E+00  0.446260371069E+00  0.571043009192E+00  0.531247197522E+00
  0.564965198400E+00  0.512716951660E+00  0.508855185649E+00  0.528093252447E+00  0.564475860465E+00  0.532597089144E+00  0.509100026681E+00
  0.522003943273E+00  0.451817810445E+00  0.495441569318E+00  0.496287964957E+00  0.503901896625E+00  0.477459910740E+00  0.492875822190E+00
  0.493107737524E+00  0.492669567291E+00  0.489131199524E+00  0.493054306767E+00  0.497927225702E+00
  0.000000000000E+00  0.000000000000E+00  0.000000000000E+00  0.000000000000E+00  0.000000000000E+00  0.000000000000E+00  0.000000000000E+00
  0.000000000000E+00  0.000000000000E+00  0.000000000000E+00  0.000000000000E+00  0.000000000000E+00  0.000000000000E+00  0.000000000000E+00
  0.000000000000E+00  0.000000000000E+00  0.000000000000E+00  0.000000000000E+00  0.000000000000E+00  0.000000000000E+00  0.000000000000E+00
  0.000000000000E+00  0.000000000000E+00  0.000000000000E+00  0.000000000000E+00  0.000000000000E+00  0.000000000000E+00  0.000000000000E+00
  0.000000000000E+00  0.000000000000E+00  0.000000000000E+00  0.000000000000E+00  0.000000000000E+00
  0.000000000000E+00  0.000000000000E+00  0.000000000000E+00 -0.141636374304E-02  0.000000000000E+00  0.170443187177E-01  0.788361914146E-02
  0.397236501781E-01  0.000000000000E+00  0.726756484591E-01 -0.110103926092E+00 -0.269380709649E-01 -0.365850976522E-01 -0.476305650319E-01
 -0.510349588375E-02 -0.499234411321E-03 -0.439187193784E-03 -0.231337586372E-02  0.105344797540E-01  0.236694751723E-01  0.226769131243E-02
  0.486908482061E-01  0.692836227987E-01  0.878825548882E-02  0.398098068774E-02 -0.302649368860E-02  0.233302819938E-02 -0.108577994667E-02
  0.657593655173E-03  0.589145175600E-02 -0.131666538117E-02 -0.137091274795E-02  0.251396774018E-02
  0.573221226749E+00  0.663407049375E+00  0.669919203512E+00  0.681596062996E+00  0.688618601006E+00  0.681137047325E+00  0.693244973063E+00
  0.700150859638E+00  0.967229953424E+00  0.721924631516E+00  0.667129276963E+00  0.672235402082E+00  0.691349443440E+00  0.719503849490E+00
  0.710603320250E+00  0.723800630125E+00  0.714798816255E+00  0.710749705551E+00  0.704166785506E+00  0.714135950739E+00  0.712505907071E+00
  0.725684188193E+00  0.782057639883E+00  0.720250492967E+00  0.717620394703E+00  0.712787572992E+00  0.734023643400E+00  0.720276664087E+00
  0.716701844095E+00  0.715228328976E+00  0.714310417400E+00  0.714194471814E+00  0.716285358646E+00
  0.000000000000E+00  0.000000000000E+00  0.000000000000E+00  0.385871927887E+00  0.000000000000E+00  0.341404456478E+00  0.585053946252E+00
  0.574105170856E+00  0.000000000000E+00  0.487174618156E+00  0.521359597695E+00  0.448131396121E+00  0.575154438631E+00  0.533128746030E+00
  0.565771456037E+00  0.511870324252E+00  0.508752128016E+00  0.528376426494E+00  0.565827053506E+00  0.532917273006E+00  0.509215944232E+00
  0.522486475560E+00  0.449897767466E+00  0.494975390452E+00  0.495976654597E+00  0.504030055766E+00  0.475766920779E+00  0.492280889195E+00
  0.492869756540E+00  0.492609845227E+00  0.489203652226E+00  0.493090486390E+00  0.497693491996E+00
  0.104242640687E+01  0.104242640687E+01  0.104242640687E+01  0.100332622748E+01  0.104242640687E+01  0.100563279299E+01  0.989465509009E+00
  0.992245591407E+00  0.104242640687E+01  0.996943366308E+00  0.988316581629E+00  0.995280542352E+00  0.989800442105E+00  0.100093585919E+01
  0.997233281004E+00  0.100331166305E+01  0.100040592513E+01  0.998947591691E+00  0.995576333578E+00  0.100077141873E+01  0.999564605141E+00
  0.100683828664E+01  0.103226924338E+01  0.100219976934E+01  0.100132016225E+01  0.999527582054E+00  0.100715359707E+01  0.100242337213E+01
  0.100096770849E+01  0.100038552050E+01  0.999711059110E+00  0.999860988763E+00  0.100096500323E+01
        15         7        19        19
         8        20        19        19
        18        19        21        21
         7         4         8         8
         3         6         4         4
        19         7         8         8
        19        18        15        15
        14        13        15        15
         8        22        20        20
        27        24        22        22
        19        20        21        21
        32        26        21        21
        17        18        26        26
        17        16        15        15
        25        29        21        21
        12         7        13        13
        10         8         6         6
        25        20        24        24
         4         6         8         8
        12         2         4         4
        10        23        22        22
        26        31        17        17
        30        16        17        17
         4         7        12        12
        13        11        12        12
        21        20        25        25
        24        28        25        25
        22         8        10        10
         6         5        10        10
        31        26        32        32
         4         2         3         3
         5         6         3         3
        11        13        14        14
        22        23        27        27
        28        24        27        27
        15        13         7         7
         2        12         1         1
        29        25        33        33
        23        10         9         9
        21        26        18        18
        16        14        15        15
        18        17        15        15
        29        32        21        21
        22        24        20        20
        28        33        25        25
        11         1        12        12
        31        30        17        17
         5         9        10        10
zone t="boundary 3 bc-3", solutiontime= 0.1000000E+02, strandid=1003, i=33, j=48, f=feblock
  0.375059098664E+01  0.249769607640E+01  0.500322138031E+01  0.403612219921E+01  0.287976772068E+01  0.124541906329E+01  0.190552234483E+01
  0.500000000000E+01  0.326671105064E+01  0.423253757107E+01  0.201271135194E+01 -0.547473798443E-02  0.958895614229E+00  0.500000000000E+01
  0.266968147280E+01  0.385584488332E+01  0.890374187775E+00  0.154654012392E+01  0.000000000000E+00  0.500000000000E+01  0.315261137178E+01
  0.218304199262E+01  0.398195308462E+01  0.000000000000E+00  0.697379937388E+00  0.963757270760E+00  0.125000000000E+01  0.000000000000E+00
  0.500000000000E+01  0.310330738788E+01  0.250000000000E+01  0.375000000000E+01  0.000000000000E+00
  0.250494200017E+01  0.250494200017E+01  0.250494200017E+01  0.250494200017E+01  0.250494200017E+01  0.250494200017E+01  0.250494200017E+01
  0.250494200017E+01  0.250494200017E+01  0.250494200017E+01  0.250494200017E+01  0.250494200017E+01  0.250494200017E+01  0.250494200017E+01
  0.250494200017E+01  0.250494200017E+01  0.250494200017E+01  0.250494200017E+01  0.250494200017E+01  0.250494200017E+01  0.250494200017E+01
  0.250494200017E+01  0.250494200017E+01  0.250494200017E+01  0.250494200017E+01  0.250494200017E+01  0.250494200017E+01  0.250494200017E+01
  0.250494200017E+01  0.250494200017E+01  0.250494200017E+01  0.250494200017E+01  0.250494200017E+01
  0.135791312645E-03  0.110278518463E-03  0.968217591250E-04  0.101756766153E+01  0.908094742982E+00  0.104098224236E-03  0.722629254954E+00
  0.125000000000E+01  0.188965672548E+01  0.191862703536E+01  0.176708251985E+01  0.805428871043E-04  0.969652718452E+00  0.250000000000E+01
  0.285339441268E+01  0.293325064014E+01  0.205656232676E+01  0.293157024334E+01  0.125000000000E+01  0.375000000000E+01  0.363766843235E+01
  0.396069448684E+01  0.407056387509E+01  0.250000000000E+01  0.307031999627E+01  0.397359822754E+01  0.500000000000E+01  0.375000000000E+01
  0.500000000000E+01  0.433260783525E+01  0.500000000000E+01  0.500000000000E+01  0.500000000000E+01
  0.898749212624E+00  0.911639615628E+00  0.782684333119E+00  0.947450615866E+00  0.961653508470E+00  0.922631252354E+00  0.964352879299E+00
  0.951533954678E+00  0.978370186448E+00  0.980121209473E+00  0.987009309154E+00  0.121913492087E+01  0.100527455867E+01  0.100837893120E+01
  0.992357893630E+00  0.997918134550E+00  0.100516598668E+01  0.998205669695E+00  0.105779316012E+01  0.100699121427E+01  0.998841468461E+00
  0.999216185188E+00  0.100027543653E+01  0.101649876686E+01  0.100441296573E+01  0.100198946770E+01  0.100260456574E+01  0.100488285861E+01
  0.100085973553E+01  0.998720461122E+00  0.100112163299E+01  0.100088152722E+01  0.100154227422E+01
  0.000000000000E+00  0.000000000000E+00  0.000000000000E+00  0.453467500736E+00  0.404624181044E+00  0.000000000000E+00  0.369496464045E+00
  0.505603463799E+00  0.571631697869E+00  0.570024953924E+00  0.554927877597E+00  0.000000000000E+00  0.474652431561E+00  0.528160362219E+00
  0.555171619437E+00  0.561468317975E+00  0.524145933283E+00  0.523874532889E+00  0.452532415595E+00  0.514412104629E+00  0.525596272297E+00
  0.506309412793E+00  0.509697747986E+00  0.479175627079E+00  0.499613363020E+00  0.498028781039E+00  0.491675465706E+00  0.493334827573E+00
  0.494317487308E+00  0.501189759793E+00  0.489244933378E+00  0.488235524443E+00  0.498429643743E+00
  0.000000000000E+00  0.000000000000E+00  0.000000000000E+00  0.000000000000E+00  0.000000000000E+00  0.000000000000E+00  0.000000000000E+00
  0.000000000000E+00  0.000000000000E+00  0.000000000000E+00  0.000000000000E+00  0.000000000000E+00  0.000000000000E+00  0.000000000000E+00
  0.000000000000E+00  0.000000000000E+00  0.000000000000E+00  0.000000000000E+00  0.000000000000E+00  0.000000000000E+00  0.000000000000E+00
  0.000000000000E+00  0.000000000000E+00  0.000000000000E+00  0.000000000000E+00  0.000000000000E+00  0.000000000000E+00  0.000000000000E+00
  0.000000000000E+00  0.000000000000E+00  0.000000000000E+00  0.000000000000E+00  0.000000000000E+00
  0.000000000000E+00  0.000000000000E+00  0.000000000000E+00 -0.278903857640E-01  0.118843359428E-01  0.000000000000E+00  0.160337792803E-01
 -0.111968477681E+00 -0.499909170162E-04 -0.449259677504E-01  0.288305333790E-01  0.000000000000E+00  0.530204894828E-01 -0.494402065315E-01
  0.466158530774E-02 -0.989384389816E-02  0.434772684997E-01  0.101234726581E-01  0.391541814055E-01 -0.272292793575E-02 -0.340714719364E-02
 -0.988372838007E-03 -0.636950804112E-03  0.363142833853E-02  0.779408664781E-02  0.180016222279E-02  0.276678761433E-03  0.413523829715E-03
  0.501077323657E-02 -0.193101760106E-02 -0.747865882489E-03 -0.353214210690E-03  0.187431386988E-02
  0.669199937424E+00  0.678798006343E+00  0.582779155062E+00  0.671375658561E+00  0.688595070534E+00  0.686982272328E+00  0.690498172540E+00
  0.671388248189E+00  0.692058535109E+00  0.693019775889E+00  0.701039513535E+00  0.907756025036E+00  0.717368538760E+00  0.721424245049E+00
  0.706841599647E+00  0.711415238582E+00  0.721151359435E+00  0.713300094694E+00  0.774479341895E+00  0.721120189656E+00  0.713523771308E+00
  0.713542705191E+00  0.714760099647E+00  0.730430110278E+00  0.718495884705E+00  0.716202280272E+00  0.716924081225E+00  0.719177478121E+00
  0.715123851569E+00  0.713139881344E+00  0.715130560856E+00  0.714793047515E+00  0.716117370697E+00
  0.000000000000E+00  0.000000000000E+00  0.000000000000E+00  0.456139336122E+00  0.404298767478E+00  0.000000000000E+00  0.369395412345E+00
  0.521036101087E+00  0.574423868448E+00  0.574700534780E+00  0.557246348240E+00  0.000000000000E+00  0.477832425565E+00  0.530045034430E+00
  0.555970389229E+00  0.562101222283E+00  0.524786732553E+00  0.523863593059E+00  0.448642767012E+00  0.513762331347E+00  0.525583160813E+00
  0.506375349384E+00  0.509599141510E+00  0.477757229322E+00  0.499306110233E+00  0.497859718348E+00  0.491408702799E+00  0.492853211246E+00
  0.494265440963E+00  0.501274954372E+00  0.489230563200E+00  0.488277428537E+00  0.498179044054E+00
  0.104242640687E+01  0.104242640687E+01  0.104242640687E+01  0.992057956631E+00  0.100247447782E+01  0.104242640687E+01  0.100243122855E+01
  0.987819239496E+00  0.990301996702E+00  0.989905816615E+00  0.994372910009E+00  0.104242640687E+01  0.999046425280E+00  0.100160159224E+01
  0.997198939877E+00  0.998059158894E+00  0.100442306703E+01  0.100041520790E+01  0.102503128166E+01  0.100255915961E+01  0.100009191786E+01
  0.999743400953E+00  0.100038859594E+01  0.100600432359E+01  0.100147476477E+01  0.100069234728E+01  0.100108631858E+01  0.100195605959E+01
  0.100031338723E+01  0.999674956854E+00  0.100006108369E+01  0.999828890141E+00  0.100102047091E+01
        15         9        16        16
        15        18        11        11
        22        15        21        21
        11         5         9         9
         5         7         2         2
        11         9        15        15
        16        21        15        15
        16        10        14        14
        18        17        11        11
        17        25        24        24
        22        18        15        15
        22        30        31        31
        30        21        23        23
        16        20        23        23
        22        27        26        26
        10         9         4         4
         7        11        13        13
        25        18        26        26
        11         7         5         5
         5         1         4         4
        17        19        13        13
        23        32        30        30
        23        20        29        29
         4         9         5         5
         4         8        10        10
        26        18        22        22
        26        28        25        25
        13        11        17        17
        13         6         7         7
        31        30        32        32
         2         1         5         5
         2         7         6         6
        14        10         8         8
        24        19        17        17
        24        25        28        28
         9        10        16        16
         3         4         1         1
        33        26        27        27
        12        13        19        19
        21        30        22        22
        16        14        20        20
        16        23        21        21
        22        31        27        27
        18        25        17        17
        26        33        28        28
         4         3         8         8
        23        29        32        32
        13        12         6         6
zone t="boundary 4 bc-4", solutiontime= 0.1000000E+02, strandid=1004, i=32, j=46, f=feblock
  0.125000000000E+01  0.219251206392E+01  0.103724302461E+01  0.500000000000E+01  0.250000000000E+01  0.375000000000E+01  0.404200324774E+01
  0.500000000000E+01  0.000000000000E+00  0.310152362409E+01  0.202479342020E+01  0.324151231464E+01  0.922061490191E+00  0.000000000000E+00
  0.299062775774E+01  0.394624082883E+01  0.500000000000E+01  0.409252726285E+01  0.500000000000E+01  0.429310310915E+01  0.175434191980E+01
  0.284428995242E+01  0.000000000000E+00  0.000000000000E+00  0.715990576545E+00  0.930412228790E+00  0.125000000000E+01  0.187029682677E+01
  0.500000000000E+01  0.375000000000E+01  0.250000000000E+01  0.000000000000E+00
  0.250494200017E+01  0.157686156160E+01  0.146289271009E+01  0.250494200017E+01  0.250494200017E+01  0.250494200017E+01  0.155830813274E+01
  0.125000000000E+01  0.250494200017E+01  0.177790177481E+01  0.477386199275E+00  0.742988685424E+00  0.308372018325E+00  0.125000000000E+01
 -0.487811078581E+00 -0.144524380962E+01 -0.125000000000E+01 -0.345533899378E+00  0.000000000000E+00  0.627766083140E+00 -0.739814786992E+00
 -0.158811787973E+01  0.000000000000E+00 -0.125000000000E+01 -0.600232012419E+00 -0.154800130438E+01 -0.249658902097E+01 -0.178862290564E+01
 -0.249658902097E+01 -0.249658902097E+01 -0.249658902097E+01 -0.249658902097E+01
  0.500000000000E+01  0.500000000000E+01  0.500000000000E+01  0.500000000000E+01  0.500000000000E+01  0.500000000000E+01  0.500000000000E+01
  0.500000000000E+01  0.500000000000E+01  0.500000000000E+01  0.500000000000E+01  0.500000000000E+01  0.500000000000E+01  0.500000000000E+01
  0.500000000000E+01  0.500000000000E+01  0.500000000000E+01  0.500000000000E+01  0.500000000000E+01  0.500000000000E+01  0.500000000000E+01
  0.500000000000E+01  0.500000000000E+01  0.500000000000E+01  0.500000000000E+01  0.500000000000E+01  0.500000000000E+01  0.500000000000E+01
  0.500000000000E+01  0.500000000000E+01  0.500000000000E+01  0.500000000000E+01
  0.100260456574E+01  0.100137644014E+01  0.100200969484E+01  0.100085973553E+01  0.100112163299E+01  0.100088152722E+01  0.100033571988E+01
  0.100136900469E+01  0.100154227422E+01  0.100106538778E+01  0.100100782167E+01  0.100024146662E+01  0.100150132509E+01  0.100176570589E+01
  0.100037159155E+01  0.998949958729E+00  0.100192019880E+01  0.100021382616E+01  0.100166981304E+01  0.100083907877E+01  0.100141263363E+01
  0.100017763451E+01  0.100091617377E+01  0.100128196519E+01  0.100102365231E+01  0.100181151958E+01  0.100241253861E+01  0.100111332097E+01
  0.100093378008E+01  0.100032361876E+01  0.100001127334E+01  0.100183273028E+01
  0.491675465706E+00  0.492207775925E+00  0.493686834803E+00  0.494317487308E+00  0.489244933378E+00  0.488235524443E+00  0.489884696513E+00
  0.495118783522E+00  0.498429643743E+00  0.489637181095E+00  0.491726433408E+00  0.491126939412E+00  0.496804260639E+00  0.499374648739E+00
  0.491263891538E+00  0.488064583650E+00  0.493545351307E+00  0.491108012603E+00  0.495479580639E+00  0.491659172552E+00  0.492958902929E+00
  0.491563440637E+00  0.499978429174E+00  0.498779065022E+00  0.497874907781E+00  0.495771611630E+00  0.493107737524E+00  0.493294298769E+00
  0.492669567291E+00  0.489131199524E+00  0.493054306767E+00  0.497927225702E+00
  0.000000000000E+00  0.141967155220E-03 -0.121248154701E-02  0.000000000000E+00  0.000000000000E+00  0.000000000000E+00  0.432294359850E-03
  0.102473839902E-02  0.000000000000E+00  0.361464457785E-03 -0.410300344440E-03 -0.162830813891E-03 -0.176497650131E-02 -0.307246507317E-03
 -0.443968513967E-03 -0.345387725052E-03 -0.548329471100E-03 -0.970959952043E-03 -0.189484420374E-03 -0.292911122853E-03 -0.500815393008E-03
 -0.232338677243E-03 -0.403053985333E-03  0.618026913688E-03 -0.251219232380E-03  0.125231465810E-02  0.000000000000E+00  0.671085598957E-03
  0.000000000000E+00  0.000000000000E+00  0.000000000000E+00  0.000000000000E+00