title="tecplot geometry and solution file"
variables = x y z rho u v w p mach temperature
zone t="boundary 1 bc-1", solutiontime= 0.6000000E+02, strandid=1001, i=32, j=46, f=feblock
 -0.547468543997E-02  0.000000000000E+00 -0.567606031034E-02  0.000000000000E+00  0.000000000000E+00  0.000000000000E+00 -0.525159244643E-02
 -0.425776897801E-02  0.000000000000E+00  0.000000000000E+00  0.000000000000E+00  0.000000000000E+00  0.000000000000E+00  0.000000000000E+00
  0.000000000000E+00  0.000000000000E+00 -0.338395986425E-02  0.000000000000E+00  0.000000000000E+00  0.000000000000E+00  0.000000000000E+00
  0.000000000000E+00  0.000000000000E+00  0.000000000000E+00  0.000000000000E+00  0.000000000000E+00  0.000000000000E+00  0.000000000000E+00
  0.000000000000E+00  0.000000000000E+00  0.000000000000E+00  0.000000000000E+00
  0.250494197116E+01  0.250494197116E+01  0.127822156905E+01  0.146289271009E+01  0.157686156160E+01  0.308372018325E+00  0.261948602317E-01
 -0.122573481165E+01 -0.600232012419E+00  0.250494197116E+01  0.477386199275E+00  0.742988685424E+00 -0.739814786992E+00  0.177790177481E+01
  0.155830813274E+01  0.250494197116E+01 -0.249658903664E+01 -0.154800130438E+01 -0.487811078581E+00  0.250494197116E+01  0.627766083140E+00
 -0.345533899378E+00 -0.178862290564E+01 -0.158811787973E+01  0.125000000000E+01 -0.249658903664E+01 -0.144524380962E+01  0.000000000000E+00
 -0.125000000000E+01 -0.249658903664E+01 -0.249658903664E+01 -0.249658903664E+01
  0.803813996092E-04  0.125000000000E+01  0.822460266134E-04  0.103724302461E+01  0.219251206392E+01  0.922061490191E+00  0.103872444357E-03
  0.341545892413E-04  0.715990576545E+00  0.250000000000E+01  0.202479342020E+01  0.324151231464E+01  0.175434191980E+01  0.310152362409E+01
  0.404200324774E+01  0.375000000000E+01  0.810725942307E-04  0.930412228790E+00  0.299062775774E+01  0.500000000000E+01  0.429310310915E+01
  0.409252726285E+01  0.187029682677E+01  0.284428995242E+01  0.500000000000E+01  0.125000000000E+01  0.394624082883E+01  0.500000000000E+01
  0.500000000000E+01  0.250000000000E+01  0.375000000000E+01  0.500000000000E+01
  0.134610831774E+01  0.106375546131E+01  0.142661175221E+01  0.108602668686E+01  0.103229749841E+01  0.120170182246E+01  0.164672969707E+01
  0.149542069502E+01  0.123512317380E+01  0.102386944109E+01  0.102822218347E+01  0.101305388336E+01  0.103253556523E+01  0.101467213820E+01
  0.100662698732E+01  0.100826833015E+01  0.144847545519E+01  0.116396754663E+01  0.101464052049E+01  0.100424996163E+01  0.100679645635E+01
  0.100725182597E+01  0.104656548105E+01  0.101934079216E+01  0.100423992226E+01  0.106448525699E+01  0.100790708724E+01  0.100288596924E+01
  0.100335006310E+01  0.102844206188E+01  0.100960587349E+01  0.100399794416E+01
  0.000000000000E+00  0.444887282117E+00  0.000000000000E+00  0.468180339914E+00  0.462186785012E+00  0.443238672338E+00  0.000000000000E+00
  0.000000000000E+00  0.379439107239E+00  0.471807259547E+00  0.466360665832E+00  0.479394554270E+00  0.490363734354E+00  0.484571640683E+00
  0.488597463427E+00  0.489900739436E+00  0.000000000000E+00  0.451029462657E+00  0.474778702875E+00  0.495800901355E+00  0.490926840369E+00
  0.486826274959E+00  0.448796916084E+00  0.465790677644E+00  0.496535897879E+00  0.444910677906E+00  0.487666690664E+00  0.497536485660E+00
  0.496381519676E+00  0.470013287439E+00  0.489177491700E+00  0.495515500949E+00
  0.000000000000E+00  0.000000000000E+00  0.000000000000E+00  0.182111741741E-01 -0.276667515610E-02  0.330008534919E-01  0.000000000000E+00
  0.000000000000E+00 -0.635883494241E-02  0.000000000000E+00  0.362941052260E-02 -0.561333437577E-02 -0.432753018170E-02  0.439695217743E-04
 -0.103547486916E-02  0.000000000000E+00  0.000000000000E+00 -0.779174825352E-02  0.391747723970E-03  0.000000000000E+00 -0.202831574176E-02
 -0.137699853951E-02  0.151652499296E-02 -0.162047927180E-02 -0.665396174272E-04  0.000000000000E+00 -0.290738413547E-04 -0.202432668606E-03
  0.805362588509E-03  0.000000000000E+00  0.000000000000E+00  0.000000000000E+00
  0.000000000000E+00  0.453283689023E-01  0.000000000000E+00  0.123658723206E+00  0.245692488397E-01  0.166125822218E+00  0.000000000000E+00
  0.000000000000E+00  0.155960001501E+00  0.352702465203E-02  0.259078649835E-01 -0.647805131181E-02  0.752820991026E-01  0.371569826385E-02
 -0.127529723225E-03  0.471453024467E-03  0.000000000000E+00  0.141096928960E+00 -0.806995808705E-02  0.236433648017E-02 -0.280388779074E-03
 -0.438302901622E-02  0.256769942126E-01 -0.189363840277E-02  0.307401558867E-02  0.838612078198E-01 -0.122860355943E-02  0.268491027564E-02
  0.264424850781E-02  0.283393306502E-02 -0.846589256780E-03  0.345685059969E-02
  0.961496614506E+00  0.782491126570E+00  0.101899898096E+01  0.808635919285E+00  0.746113331827E+00  0.879959781206E+00  0.117622540590E+01
  0.106814927629E+01  0.916484223517E+00  0.737375270918E+00  0.743650981414E+00  0.725792793999E+00  0.757479367096E+00  0.729144504254E+00
  0.720777570551E+00  0.722747151274E+00  0.103461779695E+01  0.858092897794E+00  0.728072575542E+00  0.718602764829E+00  0.721012357598E+00
  0.721154301285E+00  0.759934141523E+00  0.732618494852E+00  0.718521956565E+00  0.790948760618E+00  0.722118117572E+00  0.717197480050E+00
  0.717641997081E+00  0.741773499353E+00  0.724071788752E+00  0.718406370644E+00
  0.000000000000E+00  0.440666214007E+00  0.000000000000E+00  0.474617251427E+00  0.460123126253E+00  0.468636774910E+00  0.000000000000E+00
  0.000000000000E+00  0.402549872123E+00  0.469884091801E+00  0.464193478097E+00  0.478749614858E+00  0.489549465302E+00  0.483128668986E+00
  0.488002259863E+00  0.489034104274E+00  0.000000000000E+00  0.465240564278E+00  0.473760502739E+00  0.495364297242E+00  0.490293371180E+00
  0.486277598000E+00  0.445854520496E+00  0.464358879482E+00  0.496127933488E+00  0.443900346989E+00  0.486930056425E+00  0.497248722509E+00
  0.496055921427E+00  0.467744048646E+00  0.488189258113E+00  0.495091099941E+00
  0.999990299864E+00  0.102983027306E+01  0.999990762124E+00  0.104241479578E+01  0.101187755096E+01  0.102516586949E+01  0.999991420080E+00
  0.999992170618E+00  0.103882587595E+01  0.100825880513E+01  0.101253541377E+01  0.100301664925E+01  0.102705528956E+01  0.100604152565E+01
  0.100244540578E+01  0.100354834276E+01  0.999992723757E+00  0.103209927149E+01  0.100459382922E+01  0.100178631735E+01  0.100260315208E+01
  0.100234717453E+01  0.101657069471E+01  0.100620508929E+01  0.100168367827E+01  0.104024762917E+01  0.100303428501E+01  0.100118707697E+01
  0.100134422956E+01  0.100976315301E+01  0.100405567249E+01  0.100176392268E+01
        12        19        11        11
        11         5        12        12
        10        14         5         5
        19        13        11        11
        19        24        13        13
        30        23        24        24
        19        12        22        22
        28        22        21        21
        11        13         6         6
         7         6         9         9
        15        12        14        14
        18        13        23        23
        15        25        21        21
        27        19        22        22
        18         8         9         9
        27        31        24        24
         4        11         6         6
         5        14        12        12
         4         2         5         5
        21        12        15        15
        14        16        15        15
        24        19        27        27
        22        29        27        27
        23        26        18        18
        17         8        18        18
         5        11         4         4
         6         3         4         4
        26        23        30        30
         5         2        10        10
        16        14        10        10
         3         6         7         7
        21        25        28        28
        29        22        28        28
         6        13         9         9
         2         4         1         1
        31        27        32        32
        25        15        20        20
        24        23        13        13
         8         7         9         9
        13        18         9         9
        31        30        24        24
        12        21        22        22
        29        32        27        27
         3         1         4         4
        26        17        18        18
        16        20        15        15
zone t="boundary 2 bc-2", solutiontime= 0.6000000E+02, strandid=1002, i=33, j=48, f=feblock
  0.500195253374E+01  0.375034811161E+01  0.249861146300E+01  0.288036674177E+01  0.124717526933E+01  0.190856698521E+01  0.326577190273E+01
  0.201394856120E+01 -0.338395986425E-02  0.962374249381E+00  0.500000000000E+01  0.403430190009E+01  0.423029563807E+01  0.500000000000E+01
  0.385439188940E+01  0.500000000000E+01  0.398133433177E+01  0.315200081417E+01  0.266958028869E+01  0.154798029824E+01  0.218327860466E+01
  0.893688440337E+00  0.000000000000E+00  0.699009761767E+00  0.964460899052E+00  0.310303671659E+01  0.000000000000E+00  0.000000000000E+00
  0.125000000000E+01  0.500000000000E+01  0.375000000000E+01  0.250000000000E+01  0.000000000000E+00
 -0.249658903664E+01 -0.249658903664E+01 -0.249658903664E+01 -0.249658903664E+01 -0.249658903664E+01 -0.249658903664E+01 -0.249658903664E+01
 -0.249658903664E+01 -0.249658903664E+01 -0.249658903664E+01 -0.249658903664E+01 -0.249658903664E+01 -0.249658903664E+01 -0.249658903664E+01
 -0.249658903664E+01 -0.249658903664E+01 -0.249658903664E+01 -0.249658903664E+01 -0.249658903664E+01 -0.249658903664E+01 -0.249658903664E+01
 -0.249658903664E+01 -0.249658903664E+01 -0.249658903664E+01 -0.249658903664E+01 -0.249658903664E+01 -0.249658903664E+01 -0.249658903664E+01
 -0.249658903664E+01 -0.249658903664E+01 -0.249658903664E+01 -0.249658903664E+01 -0.249658903664E+01
  0.108225888555E-03  0.145875368860E-03  0.100893325299E-03  0.901663374397E+00  0.110858760389E-03  0.714928318829E+00  0.188140648011E+01
  0.175892165504E+01  0.810725942307E-04  0.957504300332E+00  0.125000000000E+01  0.100596698996E+01  0.191313519090E+01  0.250000000000E+01
  0.292898096716E+01  0.375000000000E+01  0.406883369524E+01  0.363389289944E+01  0.284756860985E+01  0.292582308120E+01  0.395754054931E+01
  0.205027256979E+01  0.125000000000E+01  0.306703272692E+01  0.397155766662E+01  0.433068622168E+01  0.250000000000E+01  0.375000000000E+01
  0.500000000000E+01  0.500000000000E+01  0.500000000000E+01  0.500000000000E+01  0.500000000000E+01
  0.831048948191E+00  0.935354824779E+00  0.934389729207E+00  0.968094444000E+00  0.961616792908E+00  0.964874051161E+00  0.984210079109E+00
  0.991408428700E+00  0.144847545519E+01  0.102898692718E+01  0.956112561882E+00  0.960814783368E+00  0.981522843673E+00  0.100650795559E+01
  0.997935784364E+00  0.100981608805E+01  0.100200366740E+01  0.998069050949E+00  0.991091308326E+00  0.100132489872E+01  0.100093956962E+01
  0.101223133639E+01  0.106448525699E+01  0.101079826189E+01  0.100685807228E+01  0.100119204086E+01  0.102844206188E+01  0.100960587349E+01
  0.100511534478E+01  0.100179357833E+01  0.100266912378E+01  0.100322320973E+01  0.100399794416E+01
  0.000000000000E+00  0.000000000000E+00  0.000000000000E+00  0.378615143883E+00  0.000000000000E+00  0.340330036805E+00  0.582178245429E+00
  0.575334648191E+00  0.000000000000E+00  0.489381112482E+00  0.495137410504E+00  0.430537258996E+00  0.569176924971E+00  0.536367073080E+00
  0.569065099415E+00  0.516259718256E+00  0.508563867712E+00  0.527499055214E+00  0.566854326375E+00  0.532032725616E+00  0.506130936474E+00
  0.520947368813E+00  0.444910677906E+00  0.491385540592E+00  0.492729803617E+00  0.501502412944E+00  0.470013287439E+00  0.489177491700E+00
  0.490417254791E+00  0.491396778278E+00  0.486161130936E+00  0.490250021738E+00  0.495515500949E+00
  0.000000000000E+00  0.000000000000E+00  0.000000000000E+00  0.000000000000E+00  0.000000000000E+00  0.000000000000E+00  0.000000000000E+00
  0.000000000000E+00  0.000000000000E+00  0.000000000000E+00  0.000000000000E+00  0.000000000000E+00  0.000000000000E+00  0.000000000000E+00
  0.000000000000E+00  0.000000000000E+00  0.000000000000E+00  0.000000000000E+00  0.000000000000E+00  0.000000000000E+00  0.000000000000E+00
  0.000000000000E+00  0.000000000000E+00  0.000000000000E+00  0.000000000000E+00  0.000000000000E+00  0.000000000000E+00  0.000000000000E+00
  0.000000000000E+00  0.000000000000E+00  0.000000000000E+00  0.000000000000E+00  0.000000000000E+00
  0.000000000000E+00  0.000000000000E+00  0.000000000000E+00 -0.232905753144E-02  0.000000000000E+00  0.182353599496E-01  0.121236132246E-01
  0.453891498345E-01  0.000000000000E+00  0.867493107269E-01 -0.992592304292E-01 -0.210121301233E-01 -0.304697135285E-01 -0.412644333429E-01
 -0.132004571212E-02  0.269956676758E-02  0.637123435423E-03  0.535256081526E-03  0.151134138740E-01  0.283971490971E-01  0.565020082255E-02
  0.553958400373E-01  0.838612078198E-01  0.110560461799E-01  0.679114916957E-02 -0.740732303463E-03  0.283393306502E-02 -0.846589256780E-03
  0.399773686682E-02  0.605665535596E-02 -0.135623202113E-03  0.119915527775E-02  0.345685059969E-02
  0.593602526048E+00  0.668106373711E+00  0.667416926165E+00  0.684291429171E+00  0.686864424931E+00  0.679258574302E+00  0.695864189107E+00
  0.702291799874E+00  0.103461779695E+01  0.723389828220E+00  0.672789507351E+00  0.675870605614E+00  0.694123989074E+00  0.721038067030E+00
  0.712711428999E+00  0.724812421418E+00  0.716595370010E+00  0.713312884624E+00  0.706427915752E+00  0.717741416862E+00  0.715380857939E+00
  0.730906771654E+00  0.790948760618E+00  0.724365793646E+00  0.721017449171E+00  0.715471812547E+00  0.741773499353E+00  0.724071788752E+00
  0.719322140394E+00  0.715894733732E+00  0.716614384215E+00  0.717376654974E+00  0.718406370644E+00
  0.000000000000E+00  0.000000000000E+00  0.000000000000E+00  0.380610262094E+00  0.000000000000E+00  0.343302163926E+00  0.585285498534E+00
  0.579523873742E+00  0.000000000000E+00  0.500979747453E+00  0.508782813846E+00  0.434361560622E+00  0.572843977158E+00  0.537166654030E+00
  0.569106490047E+00  0.515013352205E+00  0.508252450128E+00  0.527349030429E+00  0.567655252738E+00  0.531857855075E+00  0.506012444309E+00
  0.521051129069E+00  0.443900346989E+00  0.490706184851E+00  0.492149786325E+00  0.501385664774E+00  0.467744048646E+00  0.488189258113E+00
  0.489961991072E+00  0.491321546656E+00  0.486017931550E+00  0.489981935218E+00  0.495091099941E+00
  0.999993488081E+00  0.999993690541E+00  0.999993543833E+00  0.989581137230E+00  0.999993138634E+00  0.985581488982E+00  0.989839349778E+00
  0.991729030499E+00  0.999992723757E+00  0.984216351789E+00  0.985140607752E+00  0.984808793786E+00  0.990067211341E+00  0.100292629407E+01
  0.999859927094E+00  0.100487346359E+01  0.100122739133E+01  0.100057008834E+01  0.997888967187E+00  0.100350843657E+01  0.100059307426E+01
  0.101090476408E+01  0.104024762917E+01  0.100327844768E+01  0.100254887618E+01  0.100046793891E+01  0.100976315301E+01  0.100405567249E+01
  0.100192580064E+01  0.100045822703E+01  0.100058944083E+01  0.100110055990E+01  0.100176392268E+01
        15         7        19        19
         8        20        19        19
        18        19        21        21
         7         4         8         8
         3         6         4         4
        19         7         8         8
        19        18        15        15
        14        13        15        15
         8        22        20        20
        27        24        22        22
        19        20        21        21
        32        26        21        21
        17        18        26        26
        17        16        15        15
        25        29        21        21
        12         7        13        13
        10         8         6         6
        25        20        24        24
         4         6         8         8
        12         2         4         4
        10        23        22        22
        26        31        17        17
        30        16        17        17
         4         7        12        12
        13        11        12        12
        21        20        25        25
        24        28        25        25
        22         8        10        10
         6         5        10        10
        31        26        32        32
         4         2         3         3
         5         6         3         3
        11        13        14        14
        22        23        27        27
        28        24        27        27
        15        13         7         7
         2        12         1         1
        29        25        33        33
        23        10         9         9
        21        26        18        18
        16        14        15        15
        18        17        15        15
        29        32        21        21
        22        24        20        20
        28        33        25        25
        11         1        12        12
        31        30        17        17
         5         9        10        10
zone t="boundary 3 bc-3", solutiontime= 0.6000000E+02, strandid=1003, i=33, j=48, f=feblock
  0.375059096891E+01  0.249769609313E+01  0.500322133174E+01  0.403612218725E+01  0.287976772364E+01  0.124541910518E+01  0.190552237404E+01
  0.500000000000E+01  0.326671104552E+01  0.423253755448E+01  0.201271136506E+01 -0.547468543997E-02  0.958895643489E+00  0.500000000000E+01
  0.266968147299E+01  0.385584487271E+01  0.890374214836E+00  0.154654013699E+01  0.000000000000E+00  0.500000000000E+01  0.315261136744E+01
  0.218304199515E+01  0.398195307895E+01  0.000000000000E+00  0.697379952124E+00  0.963757277315E+00  0.125000000000E+01  0.000000000000E+00
  0.500000000000E+01  0.310330738524E+01  0.250000000000E+01  0.375000000000E+01  0.000000000000E+00
  0.250494197116E+01  0.250494197116E+01  0.250494197116E+01  0.250494197116E+01  0.250494197116E+01  0.250494197116E+01  0.250494197116E+01
  0.250494197116E+01  0.250494197116E+01  0.250494197116E+01  0.250494197116E+01  0.250494197116E+01  0.250494197116E+01  0.250494197116E+01
  0.250494197116E+01  0.250494197116E+01  0.250494197116E+01  0.250494197116E+01  0.250494197116E+01  0.250494197116E+01  0.250494197116E+01
  0.250494197116E+01  0.250494197116E+01  0.250494197116E+01  0.250494197116E+01  0.250494197116E+01  0.250494197116E+01  0.250494197116E+01
  0.250494197116E+01  0.250494197116E+01  0.250494197116E+01  0.250494197116E+01  0.250494197116E+01
  0.135649916560E-03  0.110129831704E-03  0.966887472572E-04  0.101756752010E+01  0.908094589231E+00  0.103942520170E-03  0.722629083224E+00
  0.125000000000E+01  0.188965661747E+01  0.191862696981E+01  0.176708239099E+01  0.803813996092E-04  0.969652551961E+00  0.250000000000E+01
  0.285339433502E+01  0.293325058812E+01  0.205656223819E+01  0.293157016932E+01  0.125000000000E+01  0.375000000000E+01  0.363766838842E+01
  0.396069444983E+01  0.407056385475E+01  0.250000000000E+01  0.307031995246E+01  0.397359820314E+01  0.500000000000E+01  0.375000000000E+01
  0.500000000000E+01  0.433260781310E+01  0.500000000000E+01  0.500000000000E+01  0.500000000000E+01
  0.942172442871E+00  0.946117218165E+00  0.843607676111E+00  0.964577423858E+00  0.979032723526E+00  0.957204000319E+00  0.983413605093E+00
  0.963701374676E+00  0.982803932698E+00  0.984389972782E+00  0.990475737656E+00  0.134610831774E+01  0.101939408841E+01  0.100835627202E+01
  0.993519346921E+00  0.998019553050E+00  0.100803794849E+01  0.100074573631E+01  0.106375546131E+01  0.100671242969E+01  0.100059276939E+01
  0.100235386209E+01  0.100177791186E+01  0.102386944109E+01  0.100869654935E+01  0.100526332832E+01  0.100520806493E+01  0.100826833015E+01
  0.100195893028E+01  0.100162064190E+01  0.100412011603E+01  0.100321752218E+01  0.100424996163E+01
  0.000000000000E+00  0.000000000000E+00  0.000000000000E+00  0.440185947406E+00  0.400363895584E+00  0.000000000000E+00  0.375219237817E+00
  0.494597367330E+00  0.572920158671E+00  0.569359282805E+00  0.559938998157E+00  0.000000000000E+00  0.484436995958E+00  0.533624805136E+00
  0.556225901407E+00  0.564433696397E+00  0.522383222170E+00  0.522300357299E+00  0.444887282117E+00  0.518274040478E+00  0.524589464157E+00
  0.503816824422E+00  0.509770333235E+00  0.471807259547E+00  0.496274703029E+00  0.494958709672E+00  0.489143074366E+00  0.489900739436E+00
  0.493071424687E+00  0.499098509707E+00  0.486813265307E+00  0.484775420514E+00  0.495800901355E+00
  0.000000000000E+00  0.000000000000E+00  0.000000000000E+00  0.000000000000E+00  0.000000000000E+00  0.000000000000E+00  0.000000000000E+00
  0.000000000000E+00  0.000000000000E+00  0.000000000000E+00  0.000000000000E+00  0.000000000000E+00  0.000000000000E+00  0.000000000000E+00
  0.000000000000E+00  0.000000000000E+00  0.000000000000E+00  0.000000000000E+00  0.000000000000E+00  0.000000000000E+00  0.000000000000E+00
  0.000000000000E+00  0.000000000000E+00  0.000000000000E+00  0.000000000000E+00  0.000000000000E+00  0.000000000000E+00  0.000000000000E+00
  0.000000000000E+00  0.000000000000E+00  0.000000000000E+00  0.000000000000E+00  0.000000000000E+00
  0.000000000000E+00  0.000000000000E+00  0.000000000000E+00 -0.226594155363E-01  0.112193964775E-01  0.000000000000E+00  0.181895730342E-01
 -0.100732320522E+00  0.385287729743E-02 -0.389417002394E-01  0.339611262558E-01  0.000000000000E+00  0.656427674211E-01 -0.424642273773E-01
  0.838411370219E-02 -0.653604095262E-02  0.487155273082E-01  0.134268443431E-01  0.453283689023E-01  0.711332028938E-03 -0.736123169773E-03
  0.238397922063E-02  0.837565368454E-03  0.352702465203E-02  0.103006265386E-01  0.427268048739E-02  0.337245890814E-02  0.471453024467E-03
  0.570390534529E-02  0.305984036990E-03  0.160645361975E-02  0.567798467459E-03  0.236433648017E-02
  0.672973145758E+00  0.675790859223E+00  0.602570664037E+00  0.676155665362E+00  0.691393387930E+00  0.683710191336E+00  0.689988520072E+00
  0.677395950924E+00  0.695267863943E+00  0.696328683662E+00  0.703514407132E+00  0.961496614506E+00  0.719946046538E+00  0.722885124538E+00
  0.709495721034E+00  0.713707851663E+00  0.726005214583E+00  0.716614514144E+00  0.782491126570E+00  0.722258495280E+00  0.716132750883E+00
  0.716553864303E+00  0.716542446658E+00  0.737375270918E+00  0.722640584757E+00  0.719421881498E+00  0.719547980134E+00  0.722747151274E+00
  0.716025294341E+00  0.715847810854E+00  0.718137414091E+00  0.717062208262E+00  0.718602764829E+00
  0.000000000000E+00  0.000000000000E+00  0.000000000000E+00  0.444930326695E+00  0.402807304888E+00  0.000000000000E+00  0.379033816308E+00
  0.508818739511E+00  0.575701380299E+00  0.573472074529E+00  0.562547829791E+00  0.000000000000E+00  0.491637802964E+00  0.534336813605E+00
  0.556352181556E+00  0.564140551422E+00  0.522485305875E+00  0.521817734702E+00  0.440666214007E+00  0.517132977429E+00  0.524068294184E+00
  0.503616120377E+00  0.509419881622E+00  0.469884091801E+00  0.495645014372E+00  0.494503343480E+00  0.488630212155E+00  0.489034104274E+00
  0.492987209133E+00  0.498957573860E+00  0.486507800233E+00  0.484614058980E+00  0.495364297242E+00
  0.999989345041E+00  0.999989414364E+00  0.999989632077E+00  0.981380973774E+00  0.988680684356E+00  0.999989832419E+00  0.982276351576E+00
  0.984074897281E+00  0.990406099464E+00  0.990319064681E+00  0.994391010845E+00  0.999990299864E+00  0.988748587628E+00  0.100365238203E+01
  0.999773192666E+00  0.100117376385E+01  0.100830261592E+01  0.100251270967E+01  0.102983027306E+01  0.100441979613E+01  0.100199190111E+01
  0.100081961866E+01  0.100137906161E+01  0.100825880513E+01  0.100297440228E+01  0.100191721485E+01  0.100214792074E+01  0.100354834276E+01
  0.100047555023E+01  0.100056537702E+01  0.100126704334E+01  0.100066742195E+01  0.100178631735E+01
        15         9        16        16
        15        18        11        11
        22        15        21        21
        11         5         9         9
         5         7         2         2
        11         9        15        15
        16        21        15        15
        16        10        14        14
        18        17        11        11
        17        25        24        24
        22        18        15        15
        22        30        31        31
        30        21        23        23
        16        20        23        23
        22        27        26        26
        10         9         4         4
         7        11        13        13
        25        18        26        26
        11         7         5         5
         5         1         4         4
        17        19        13        13
        23        32        30        30
        23        20        29        29
         4         9         5         5
         4         8        10        10
        26        18        22        22
        26        28        25        25
        13        11        17        17
        13         6         7         7
        31        30        32        32
         2         1         5         5
         2         7         6         6
        14        10         8         8
        24        19        17        17
        24        25        28        28
         9        10        16        16
         3         4         1         1
        33        26        27        27
        12        13        19        19
        21        30        22        22
        16        14        20        20
        16        23        21        21
        22        31        27        27
        18        25        17        17
        26        33        28        28
         4         3         8         8
        23        29        32        32
        13        12         6         6
zone t="boundary 4 bc-4", solutiontime= 0.6000000E+02, strandid=1004, i=32, j=46, f=feblock
  0.125000000000E+01  0.219251206392E+01  0.103724302461E+01  0.500000000000E+01  0.250000000000E+01  0.375000000000E+01  0.404200324774E+01
  0.500000000000E+01  0.000000000000E+00  0.310152362409E+01  0.202479342020E+01  0.324151231464E+01  0.922061490191E+00  0.000000000000E+00
  0.299062775774E+01  0.394624082883E+01  0.500000000000E+01  0.409252726285E+01  0.500000000000E+01  0.429310310915E+01  0.175434191980E+01
  0.284428995242E+01  0.000000000000E+00  0.000000000000E+00  0.715990576545E+00  0.930412228790E+00  0.125000000000E+01  0.187029682677E+01
  0.500000000000E+01  0.375000000000E+01  0.250000000000E+01  0.000000000000E+00
  0.250494197116E+01  0.157686156160E+01  0.146289271009E+01  0.250494197116E+01  0.250494197116E+01  0.250494197116E+01  0.155830813274E+01
  0.125000000000E+01  0.250494197116E+01  0.177790177481E+01  0.477386199275E+00  0.742988685424E+00  0.308372018325E+00  0.125000000000E+01
 -0.487811078581E+00 -0.144524380962E+01 -0.125000000000E+01 -0.345533899378E+00  0.000000000000E+00  0.627766083140E+00 -0.739814786992E+00
 -0.158811787973E+01  0.000000000000E+00 -0.125000000000E+01 -0.600232012419E+00 -0.154800130438E+01 -0.249658903664E+01 -0.178862290564E+01
 -0.249658903664E+01 -0.249658903664E+01 -0.249658903664E+01 -0.249658903664E+01
  0.500000000000E+01  0.500000000000E+01  0.500000000000E+01  0.500000000000E+01  0.500000000000E+01  0.500000000000E+01  0.500000000000E+01
  0.500000000000E+01  0.500000000000E+01  0.500000000000E+01  0.500000000000E+01  0.500000000000E+01  0.500000000000E+01  0.500000000000E+01
  0.500000000000E+01  0.500000000000E+01  0.500000000000E+01  0.500000000000E+01  0.500000000000E+01  0.500000000000E+01  0.500000000000E+01
  0.500000000000E+01  0.500000000000E+01  0.500000000000E+01  0.500000000000E+01  0.500000000000E+01  0.500000000000E+01  0.500000000000E+01
  0.500000000000E+01  0.500000000000E+01  0.500000000000E+01  0.500000000000E+01
  0.100520806493E+01  0.100431924309E+01  0.100430499122E+01  0.100195893028E+01  0.100412011603E+01  0.100321752218E+01  0.100258950814E+01
  0.100200889444E+01  0.100424996163E+01  0.100371856073E+01  0.100446256309E+01  0.100347200065E+01  0.100365301817E+01  0.100423992226E+01
  0.100362939624E+01  0.100164315711E+01  0.100227308755E+01  0.100227913650E+01  0.100213224082E+01  0.100254678212E+01  0.100442989926E+01
  0.100338024041E+01  0.100288596924E+01  0.100335006310E+01  0.100323313733E+01  0.100406904041E+01  0.100511534478E+01  0.100432403945E+01
  0.100179357833E+01  0.100266912378E+01  0.100322320973E+01  0.100399794416E+01
  0.489143074366E+00  0.489273551187E+00  0.491032966755E+00  0.493071424687E+00  0.486813265307E+00  0.484775420514E+00  0.485406756484E+00
  0.494264082578E+00  0.495800901355E+00  0.486819175858E+00  0.488146793059E+00  0.487231239326E+00  0.494435302575E+00  0.496535897879E+00
  0.487825239610E+00  0.483167751357E+00  0.492561907161E+00  0.487246880730E+00  0.494865195961E+00  0.488002427509E+00  0.490072116391E+00
  0.488216384544E+00  0.497536485660E+00  0.496381519676E+00  0.495257681679E+00  0.493195598922E+00  0.490417254791E+00  0.490359927849E+00
  0.491396778278E+00  0.486161130936E+00  0.490250021738E+00  0.495515500949E+00
  0.000000000000E+00 -0.578651438466E-04 -0.127352059678E-02  0.000000000000E+00  0.000000000000E+00  0.000000000000E+00  0.474018062479E-03
  0.850808805644E-03  0.000000000000E+00  0.314094614245E-03 -0.890190394599E-03 -0.751271727567E-03 -0.173054660640E-02 -0.665396174272E-04
 -0.105319668287E-02 -0.998843975482E-03 -0.129446226102E-02 -0.207760558170E-02 -0.126376824516E-02 -0.997053100591E-03 -0.597641980570E-03
 -0.743089952845E-03 -0.202432668606E-03  0.805362588509E-03  0.601392506980E-04  0.162347641777E-02  0.000000000000E+00  0.803299905397E-03
  0.000000000000E+00  0.000000000000E+00  0.000000000000E+00  0.000000000000E+00