# vtk DataFile Version 2.0
FUN3D:global_image_vtk
ASCII
DATASET UNSTRUCTURED_GRID
POINTS 213 double
   -0.5474685439962265E-02    0.2504941971164942E+01    0.8038139960907850E-04
    0.1245419105184686E+01    0.2504941971164942E+01    0.1039425201707156E-03
    0.2497696093128755E+01    0.2504941971164942E+01    0.1101298317049970E-03
    0.3750590968914216E+01    0.2504941971164942E+01    0.1356499165603986E-03
    0.5003221331739129E+01    0.2504941971164942E+01    0.9668874725743404E-04
    0.5004676687975742E+01    0.1281291202152741E+01    0.1638053143207530E-03
    0.5004772673775125E+01    0.2775079905233740E-01    0.1903478087821658E-03
    0.5003581183339178E+01   -0.1225853508894243E+01    0.1607765240893011E-03
    0.5001952533741209E+01   -0.2496589036643189E+01    0.1082258885553022E-03
    0.3750348111606281E+01   -0.2496589036643189E+01    0.1458753688603487E-03
    0.2498611462995454E+01   -0.2496589036643189E+01    0.1008933252991118E-03
    0.1247175269334494E+01   -0.2496589036643189E+01    0.1108587603892430E-03
   -0.3383959864258212E-02   -0.2496589036643189E+01    0.8107259423070885E-04
   -0.4257768978007448E-02   -0.1225734811654061E+01    0.3415458924127535E-04
   -0.5251592446427367E-02    0.2619486023170364E-01    0.1038724443567219E-03
   -0.5676060310338293E-02    0.1278221569052081E+01    0.8224602661344171E-04
    0.9003209617971899E+00    0.1608979112265720E+01    0.8704141841042734E-04
    0.3983172210691512E+01   -0.1561211904850504E+01    0.1757116742180933E-03
    0.4035602039222561E+01    0.1486760030399887E+01    0.1713312987615678E-03
    0.1036613723304496E+01   -0.1455626429928028E+01    0.1047189316801811E-03
    0.1094353480632864E+01   -0.2964622010795518E+00    0.1260590288131855E-03
    0.7298400267501686E+00    0.6874684746584809E+00    0.1044598721227086E-03
    0.1617018659310913E+01    0.8553208024797971E+00    0.1529810995186676E-03
    0.2143199662876846E+01   -0.1627128509227246E+01    0.1606170439217847E-03
    0.4088840445399218E+01   -0.4351047826055321E+00    0.2719933352877679E-03
    0.2977916511249375E+01   -0.8334991483205951E+00    0.2245596973365904E-03
    0.3044093241383677E+01   -0.1814361225118786E+01    0.1617000123376180E-03
    0.3427866614804713E+01    0.3813904839830199E+00    0.2936955566598121E-03
    0.4313225355349219E+01    0.5489133376202757E+00    0.2313009667567756E-03
    0.1823032737598566E+01    0.1771265193528794E+01    0.1836203008615533E-03
    0.2806311152168623E+01    0.1358629373584938E+01    0.1943492277461378E-03
    0.1891860875938377E+01   -0.8481310365723637E+00    0.1670645539069149E-03
    0.2268769200168568E+01    0.7723691817875740E-01    0.2072307851107569E-03
    0.5000000000000000E+01    0.2504941971164942E+01    0.1250000000000000E+01
    0.5000000000000000E+01    0.2504941971164942E+01    0.2500000000000000E+01
    0.5000000000000000E+01    0.2504941971164942E+01    0.3750000000000000E+01
    0.5000000000000000E+01    0.2504941971164942E+01    0.5000000000000000E+01
    0.3750000000000000E+01    0.2504941971164942E+01    0.5000000000000000E+01
    0.2500000000000000E+01    0.2504941971164942E+01    0.5000000000000000E+01
    0.1250000000000000E+01    0.2504941971164942E+01    0.5000000000000000E+01
    0.0000000000000000E+00    0.2504941971164942E+01    0.5000000000000000E+01
    0.0000000000000000E+00    0.2504941971164942E+01    0.3750000000000000E+01
    0.0000000000000000E+00    0.2504941971164942E+01    0.2500000000000000E+01
    0.0000000000000000E+00    0.2504941971164942E+01    0.1250000000000000E+01
    0.9588956434885916E+00    0.2504941971164942E+01    0.9696525519612400E+00
    0.3981953078951663E+01    0.2504941971164942E+01    0.4070563854752572E+01
    0.4036122187250704E+01    0.2504941971164942E+01    0.1017567520104999E+01
    0.9637572773150583E+00    0.2504941971164942E+01    0.3973598203143470E+01
    0.1546540136992010E+01    0.2504941971164942E+01    0.2931570169319381E+01
    0.6973799521240376E+00    0.2504941971164942E+01    0.3070319952455877E+01
    0.8903742148357064E+00    0.2504941971164942E+01    0.2056562238191877E+01
    0.2183041995145805E+01    0.2504941971164942E+01    0.3960694449830124E+01
    0.3855844872710128E+01    0.2504941971164942E+01    0.2933250588122099E+01
    0.3152611367438092E+01    0.2504941971164942E+01    0.3637668388418906E+01
    0.3103307385241953E+01    0.2504941971164942E+01    0.4332607813101073E+01
    0.3266711045517644E+01    0.2504941971164942E+01    0.1889656617471646E+01
    0.4232537554484984E+01    0.2504941971164942E+01    0.1918626969806651E+01
    0.1905522374037473E+01    0.2504941971164942E+01    0.7226290832243494E+00
    0.2879767723644875E+01    0.2504941971164942E+01    0.9080945892309472E+00
    0.2012711365064099E+01    0.2504941971164942E+01    0.1767082390985820E+01
    0.2669681472994408E+01    0.2504941971164942E+01    0.2853394335015870E+01
    0.5000000000000000E+01    0.1250000000000000E+01    0.5000000000000000E+01
    0.5000000000000000E+01    0.0000000000000000E+00    0.5000000000000000E+01
    0.5000000000000000E+01   -0.1250000000000000E+01    0.5000000000000000E+01
    0.5000000000000000E+01   -0.2496589036643189E+01    0.5000000000000000E+01
    0.5000000000000000E+01   -0.2496589036643189E+01    0.3750000000000000E+01
    0.5000000000000000E+01   -0.2496589036643189E+01    0.2500000000000000E+01
    0.5000000000000000E+01   -0.2496589036643189E+01    0.1250000000000000E+01
    0.5000000000000000E+01    0.1578994732800803E+01    0.9058375365086910E+00
    0.5000000000000000E+01   -0.1583989954232354E+01    0.3982050490726493E+01
    0.5000000000000000E+01    0.1453322699199022E+01    0.4033849428301197E+01
    0.5000000000000000E+01   -0.1479596339503735E+01    0.1040505887381675E+01
    0.5000000000000000E+01   -0.3227322616384110E+00    0.1099454400140349E+01
    0.5000000000000000E+01    0.6593508822075582E+00    0.7354504170366591E+00
    0.5000000000000000E+01    0.8256214013940779E+00    0.1622302608453282E+01
    0.5000000000000000E+01   -0.1650070333782557E+01    0.2145871574390382E+01
    0.5000000000000000E+01   -0.4612828702537229E+00    0.4086422318222992E+01
    0.5000000000000000E+01   -0.8579242121530853E+00    0.2979540174134984E+01
    0.5000000000000000E+01   -0.1836846154397680E+01    0.3045064261640043E+01
    0.5000000000000000E+01    0.3508002863614053E+00    0.3428197553792836E+01
    0.5000000000000000E+01    0.5185680230613409E+00    0.4309693860063405E+01
    0.5000000000000000E+01    0.1738996113203182E+01    0.1827272193562204E+01
    0.5000000000000000E+01    0.1325493893339706E+01    0.2808563282768077E+01
    0.5000000000000000E+01   -0.8731419609589618E+00    0.1895995683864404E+01
    0.5000000000000000E+01    0.4906150219227333E-01    0.2273179336307740E+01
    0.0000000000000000E+00    0.1250000000000000E+01    0.5000000000000000E+01
    0.0000000000000000E+00    0.0000000000000000E+00    0.5000000000000000E+01
    0.0000000000000000E+00   -0.1250000000000000E+01    0.5000000000000000E+01
    0.0000000000000000E+00   -0.2496589036643189E+01    0.5000000000000000E+01
    0.1250000000000000E+01   -0.2496589036643189E+01    0.5000000000000000E+01
    0.2500000000000000E+01   -0.2496589036643189E+01    0.5000000000000000E+01
    0.3750000000000000E+01   -0.2496589036643189E+01    0.5000000000000000E+01
    0.4042003247744892E+01    0.1558308132739014E+01    0.5000000000000000E+01
    0.9304122287900499E+00   -0.1548001304379777E+01    0.5000000000000000E+01
    0.1037243024609388E+01    0.1462892710085612E+01    0.5000000000000000E+01
    0.3946240828834967E+01   -0.1445243809615570E+01    0.5000000000000000E+01
    0.4092527262848217E+01   -0.3455338993778935E+00    0.5000000000000000E+01
    0.4293103109154542E+01    0.6277660831404320E+00    0.5000000000000000E+01
    0.3241512314643519E+01    0.7429886854239611E+00    0.5000000000000000E+01
    0.2844289952419609E+01   -0.1588117879734118E+01    0.5000000000000000E+01
    0.7159905765450471E+00   -0.6002320124191652E+00    0.5000000000000000E+01
    0.1754341919796891E+01   -0.7398147869923652E+00    0.5000000000000000E+01
    0.1870296826774691E+01   -0.1788622905643739E+01    0.5000000000000000E+01
    0.9220614901912976E+00    0.3083720183248586E+00    0.5000000000000000E+01
    0.3101523624086016E+01    0.1777901774806180E+01    0.5000000000000000E+01
    0.2192512063922564E+01    0.1576861561598471E+01    0.5000000000000000E+01
    0.2024793420196460E+01    0.4773861992750707E+00    0.5000000000000000E+01
    0.2990627757741975E+01   -0.4878110785814084E+00    0.5000000000000000E+01
    0.0000000000000000E+00   -0.2496589036643189E+01    0.1250000000000000E+01
    0.0000000000000000E+00   -0.2496589036643189E+01    0.2500000000000000E+01
    0.0000000000000000E+00   -0.2496589036643189E+01    0.3750000000000000E+01
    0.0000000000000000E+00    0.1558308132739014E+01    0.4042003247744892E+01
    0.0000000000000000E+00   -0.1548001304379777E+01    0.9304122287900499E+00
    0.0000000000000000E+00    0.1462892710085612E+01    0.1037243024609388E+01
    0.0000000000000000E+00   -0.1445243809615570E+01    0.3946240828834967E+01
    0.0000000000000000E+00   -0.3455338993778935E+00    0.4092527262848217E+01
    0.0000000000000000E+00    0.6277660831404320E+00    0.4293103109154542E+01
    0.0000000000000000E+00    0.7429886854239611E+00    0.3241512314643519E+01
    0.0000000000000000E+00   -0.1588117879734118E+01    0.2844289952419609E+01
    0.0000000000000000E+00   -0.6002320124191652E+00    0.7159905765450471E+00
    0.0000000000000000E+00   -0.7398147869923652E+00    0.1754341919796891E+01
    0.0000000000000000E+00   -0.1788622905643739E+01    0.1870296826774691E+01
    0.0000000000000000E+00    0.3083720183248586E+00    0.9220614901912976E+00
    0.0000000000000000E+00    0.1777901774806180E+01    0.3101523624086016E+01
    0.0000000000000000E+00    0.1576861561598471E+01    0.2192512063922564E+01
[...]
POINT_DATA 213
SCALARS rho double 1
LOOKUP_TABLE default
   0.1346108317738226E+01
   0.9572040003142815E+00
   0.9461172181521000E+00
   0.9421724428214252E+00
   0.8436076760233406E+00
   0.7742023696851567E+00
   0.7627583550837815E+00
   0.7661562019562210E+00
   0.8310489481890406E+00
   0.9353548247720868E+00
   0.9343897292011389E+00
   0.9616167928998263E+00
   0.1448475455181441E+01
   0.1495420695015982E+01
   0.1646729697059634E+01
   0.1426611752212104E+01
   0.1009807295399260E+01
   0.9511451604162594E+00
   0.9438202818446987E+00
   0.9574649710476123E+00
   0.9414971313583749E+00
   0.1037119051147074E+01
   0.9258166087193480E+00
   0.9322402500312553E+00
   0.9538058258524905E+00
   0.9520452721647986E+00
   0.9351035437803205E+00
   0.9565496454893677E+00
   0.9378638722693626E+00
   0.9303460523734929E+00
   0.9446467738431262E+00
   0.8862352683389002E+00
   0.9424046355576022E+00
   0.9637013743528970E+00
   0.1008356272045757E+01
   0.1006712429704521E+01
   0.1001958930227458E+01
   0.1003217522149589E+01
   0.1004120116011909E+01
   0.1005208064935948E+01
   0.1004249961631009E+01
   0.1008268330146685E+01
   0.1023869441090104E+01
   0.1063755461308578E+01
   0.1019394088407150E+01
   0.1001777911866236E+01
   0.9645774234017066E+00
   0.1005263328310891E+01
   0.1000745736304673E+01
   0.1008696549340340E+01
   0.1008037948487187E+01
   0.1002353862084455E+01
   0.9980195530533822E+00
   0.1000592769379006E+01
   0.1001620641895112E+01
   0.9828039327165931E+00
   0.9843899727425848E+00
   0.9834136050984327E+00
   0.9790327234721582E+00
   0.9904757376588827E+00
   0.9935193469110832E+00
   0.1002008894366577E+01
   0.1002132240762959E+01
   0.1002273087538985E+01
   0.1001793578319839E+01
   0.1009816088028523E+01
   0.1006507955581122E+01
   0.9561125618525322E+00
   0.9252807409649321E+00
   0.1007053966729601E+01
   0.1004490981237123E+01
   0.9145128353669326E+00
   0.9091570309160488E+00
   0.8752463083349519E+00
   0.9767979598294031E+00
   0.1000541360254249E+01
   0.1005826549293302E+01
   0.1012896701639434E+01
   0.1011680292154008E+01
   0.1010415973610206E+01
   0.1005456587398212E+01
   0.9909167515881795E+00
   0.1005149610904592E+01
   0.9860895085696467E+00
   0.1005593206424982E+01
   0.1004239922260034E+01
   0.1002885969238330E+01
   0.1003350063102757E+01
   0.1003997944153161E+01
   0.1005115344780280E+01
   0.1003223209728849E+01
   0.1002669123792532E+01
   0.1002589508090174E+01
   0.1004069040402231E+01
   0.1004304991216346E+01
   0.1001643157121913E+01
   0.1002279136473809E+01
   0.1002546782052664E+01
   0.1003472000635322E+01
   0.1003380240410096E+01
   0.1003233137321498E+01
   0.1004429899256087E+01
   0.1004324039449640E+01
   0.1003653018161349E+01
   0.1003718560723215E+01
   0.1004319243078277E+01
   0.1004462563088166E+01
   0.1003629396249658E+01
   0.1064485256971442E+01
   0.1028442061877995E+01
   0.1009605873481379E+01
   0.1006626987316209E+01
   0.1163967546632894E+01
   0.1086026686867705E+01
   0.1007907087234614E+01
   0.1007251825971416E+01
   0.1006796456348205E+01
   0.1013053883357717E+01
   0.1019340792162153E+01
   0.1235123173793355E+01
   0.1032535565226790E+01
   0.1046565481045992E+01
   0.1201701822456579E+01
   0.1014672138200918E+01
   0.1032297498407717E+01
   0.1028222183458625E+01
   0.1014640520488338E+01
   0.1028986927174817E+01
   0.1002003667388754E+01
   0.9608147833382612E+00
   0.1006858072276388E+01
   0.1001324898710285E+01
   0.1010798261883183E+01
   0.1012231336389738E+01
   0.1000939569622913E+01
   0.9979357843593641E+00
   0.9980690509530201E+00
   0.1001192040858155E+01
   0.9842100791005105E+00
   0.9815228436589510E+00
   0.9648740511483893E+00
   0.9680944439840766E+00
   0.9914084286962106E+00
   0.9910913083218968E+00
   0.9925587124691316E+00
   0.1001727549537414E+01
   0.9993245747491301E+00
   0.9941434371402716E+00
   0.1006982475142194E+01
   0.1022613019645578E+01
   0.1001120639188601E+01
   0.1008783935630119E+01
   0.1004774772961425E+01
   0.1009030410979802E+01
   0.9967211494038584E+00
   0.1005570715703330E+01
   0.1003324760150954E+01
   0.9949845985052896E+00
   0.9833501663347256E+00
   0.9944494689189792E+00
   0.9973474193119075E+00
   0.9932503760545811E+00
   0.1001311884937933E+01
   0.1003000708411506E+01
   0.1002188291623117E+01
   0.9947120026310327E+00
   0.9937832198134685E+00
   0.1004861704710563E+01
   0.1020101282092277E+01
   0.1005337230032874E+01
   0.9817045977917908E+00
   0.1004974596098726E+01
   0.1012374662704070E+01
   0.9873720330966758E+00
   0.9551284415334382E+00
   0.9865253757251792E+00
   0.9865916535137959E+00
   0.9920067170068312E+00
   0.9934435621227609E+00
   0.9960682556240457E+00
   0.1037400105971179E+01
   0.1033161102369923E+01
   0.1001442942606703E+01
   0.1001928635210308E+01
   0.9912313107693369E+00
   0.9911145323014493E+00
   0.9649433997965485E+00
   0.9933790317030065E+00
   0.1006090796374822E+01
   0.1001963018638443E+01
   0.9908628976641465E+00
   0.9742169956408145E+00
   0.9420656175256465E+00
   0.9821543956284468E+00
   0.9794783302487793E+00
   0.9704368617888401E+00
   0.9720887191163762E+00
   0.9557898415929436E+00
   0.9498086708348549E+00
   0.9529904619488361E+00
   0.1002635788534134E+01
   0.1002475631496509E+01
   0.1000513073337407E+01
   0.1001674838573973E+01
   0.9610035235084841E+00
   0.9492443250684922E+00
   0.9586632962697784E+00
   0.1001121360710837E+01
   0.1000501199869849E+01
   0.1001159801548930E+01
   0.9807420385041951E+00
   0.9805568736648710E+00
   0.9629217555051693E+00
SCALARS u double 1
LOOKUP_TABLE default
   0.0000000000000000E+00
   0.0000000000000000E+00
   0.0000000000000000E+00
   0.0000000000000000E+00
   0.0000000000000000E+00
   0.0000000000000000E+00
   0.0000000000000000E+00
   0.0000000000000000E+00
   0.0000000000000000E+00
   0.0000000000000000E+00
   0.0000000000000000E+00
   0.0000000000000000E+00
   0.0000000000000000E+00
   0.0000000000000000E+00
   0.0000000000000000E+00
   0.0000000000000000E+00
   0.0000000000000000E+00
   0.0000000000000000E+00
   0.0000000000000000E+00
   0.0000000000000000E+00
   0.0000000000000000E+00
   0.0000000000000000E+00
   0.0000000000000000E+00
   0.0000000000000000E+00
   0.0000000000000000E+00
   0.0000000000000000E+00
   0.0000000000000000E+00
   0.0000000000000000E+00
   0.0000000000000000E+00
   0.0000000000000000E+00
   0.0000000000000000E+00
   0.0000000000000000E+00
   0.0000000000000000E+00
   0.4945973676716025E+00
   0.5336248050998391E+00
   0.5182740405026196E+00
   0.4930714246727446E+00
   0.4847754204671251E+00
   0.4868132652840526E+00
   0.4891430743794423E+00
   0.4958009013711044E+00
   0.4899007394367318E+00
   0.4718072595516379E+00
   0.4448872821218925E+00
   0.4844369959599367E+00
   0.5097703333328560E+00
   0.4401859473730420E+00
   0.4949587096808827E+00
   0.5223003573063291E+00
   0.4962747030339629E+00
   0.5223832221767816E+00
   0.5038168244457627E+00
   0.5644336964124747E+00
   0.5245894641955285E+00
   0.4990985097449417E+00
   0.5729201586789276E+00
   0.5693592828344501E+00
   0.3752192378085815E+00
   0.4003638955228515E+00
   0.5599389981566324E+00
   0.5562259014290217E+00
   0.4942640825346870E+00
   0.4948651959008247E+00
   0.4925619071435187E+00
   0.4913967782798160E+00
   0.5162597182597003E+00
   0.5363670730796153E+00
   0.4951374105350924E+00
   0.4520512887831546E+00
   0.5129007653019930E+00
   0.5117699763793521E+00
   0.4786317416690296E+00
   0.4931122295778935E+00
   0.4600270408089784E+00
   0.5242595706488705E+00
   0.5299947205934811E+00
   0.5129700678064140E+00
   0.5328928661431370E+00
   0.5309782654865355E+00
   0.5309767612124124E+00
   0.5063651340812788E+00
   0.5279536185099144E+00
   0.5409238855682450E+00
   0.5363719066560974E+00
   0.5374201320427374E+00
   0.4965358978849203E+00
   0.4975364856667497E+00
   0.4963815196793400E+00
   0.4955155009542789E+00
   0.4904172548008761E+00
   0.4902500217278746E+00
   0.4861611309349536E+00
   0.4854067563846459E+00
   0.4931955989241611E+00
   0.4910329667501637E+00
   0.4831677513280014E+00
   0.4872468806205971E+00
   0.4880024273557967E+00
   0.4872312392410211E+00
   0.4882163845414940E+00
   0.4952576816819249E+00
   0.4900721163870277E+00
   0.4903599278514294E+00
   0.4944353025708344E+00
   0.4868191758227227E+00
   0.4892735511625127E+00
   0.4881467930175694E+00
   0.4878252395582700E+00
   0.4449106779399609E+00
   0.4700132874380312E+00
   0.4891774917037085E+00
   0.4885974634253706E+00
   0.4510294626413903E+00
   0.4681803399039243E+00
   0.4876666906711923E+00
   0.4868262749639819E+00
   0.4909268403770299E+00
   0.4793945542751951E+00
   0.4657906776422506E+00
   0.3794391072435042E+00
   0.4903637343643583E+00
   0.4487969160862267E+00
   0.4432386723495782E+00
   0.4845716406866100E+00
   0.4621867850207927E+00
   0.4663606658385110E+00
   0.4747787028775152E+00
   0.4893811124871870E+00
   0.5085638676831552E+00
   0.4305372589996974E+00
   0.4927298036217515E+00
   0.5320327256134486E+00
   0.4913855405923968E+00
   0.5209473688206866E+00
   0.5061309364748944E+00
   0.5690650994137620E+00
   0.5274990552058286E+00
   0.5015024129322202E+00
   0.5821782454351192E+00
   0.5691769249773025E+00
   0.3403300368068730E+00
   0.3786151438879330E+00
   0.5753346481991896E+00
   0.5668543263748629E+00
   0.5703059562608936E+00
   0.5291879205908299E+00
   0.5449837175722190E+00
   0.5719102639674835E+00
   0.5385667386504394E+00
   0.5475905556008176E+00
   0.5821515963614188E+00
   0.4925318968184109E+00
   0.5041571115630379E+00
   0.4961293264619777E+00
   0.5562736233515823E+00
   0.4757837007206053E+00
   0.4950183184105457E+00
   0.5496188055893130E+00
   0.5889517159110703E+00
   0.5839552612846971E+00
   0.5468175663690761E+00
   0.5803880219295997E+00
   0.5106065646390968E+00
   0.5029552652726568E+00
   0.5033112976690247E+00
   0.5676222186631404E+00
   0.5564619505362961E+00
   0.4947144958962391E+00
   0.5506785366044030E+00
   0.5513581031486788E+00
   0.5658250452770157E+00
   0.4919965129117210E+00
   0.4927864167846639E+00
   0.3865373443010134E+00
   0.3687905803018831E+00
   0.5574396398628816E+00
   0.5761715377274206E+00
   0.4194266699498733E+00
   0.5822960129555284E+00
   0.4268170192266821E+00
   0.5397379314474622E+00
   0.5016136015876366E+00
   0.5119237866560001E+00
   0.5048466767132844E+00
   0.5752734470960323E+00
   0.5878359740237680E+00
   0.5382541024060843E+00
   0.5679685703739471E+00
   0.5351985017003060E+00
   0.5338430667077740E+00
   0.5582271984932258E+00
   0.5511430282724750E+00
   0.4256686664763003E+00
   0.5272843689872725E+00
   0.5796789075550736E+00
   0.3318300656974814E+00
   0.4761646063300073E+00
   0.5446507502830559E+00
   0.4800729074137358E+00
   0.3006193626694171E+00
   0.5031625583208823E+00
   0.5017187251077658E+00
   0.5129125397540272E+00
   0.5414131226886657E+00
   0.3435098576660404E+00
   0.3397971776305738E+00
   0.3190373712282064E+00
   0.5066176552769230E+00
   0.5123823894993201E+00
   0.5329091200082590E+00
   0.5881345096612799E+00
   0.4645017929032539E+00
   0.3529492324448166E+00
SCALARS v double 1
LOOKUP_TABLE default
   0.0000000000000000E+00
   0.0000000000000000E+00
   0.0000000000000000E+00
   0.0000000000000000E+00
   0.0000000000000000E+00
   0.0000000000000000E+00
   0.0000000000000000E+00
   0.0000000000000000E+00
   0.0000000000000000E+00
   0.0000000000000000E+00
   0.0000000000000000E+00
   0.0000000000000000E+00
   0.0000000000000000E+00
   0.0000000000000000E+00
   0.0000000000000000E+00
   0.0000000000000000E+00
   0.0000000000000000E+00
   0.0000000000000000E+00
   0.0000000000000000E+00
   0.0000000000000000E+00
   0.0000000000000000E+00
   0.0000000000000000E+00
   0.0000000000000000E+00
   0.0000000000000000E+00
   0.0000000000000000E+00
   0.0000000000000000E+00
   0.0000000000000000E+00
   0.0000000000000000E+00
   0.0000000000000000E+00
   0.0000000000000000E+00
   0.0000000000000000E+00
   0.0000000000000000E+00
   0.0000000000000000E+00
   0.0000000000000000E+00
   0.0000000000000000E+00
   0.0000000000000000E+00
   0.0000000000000000E+00
   0.0000000000000000E+00
   0.0000000000000000E+00
   0.0000000000000000E+00
   0.0000000000000000E+00
   0.0000000000000000E+00
   0.0000000000000000E+00
   0.0000000000000000E+00
   0.0000000000000000E+00
   0.0000000000000000E+00
   0.0000000000000000E+00
   0.0000000000000000E+00
   0.0000000000000000E+00
   0.0000000000000000E+00
   0.0000000000000000E+00
   0.0000000000000000E+00
   0.0000000000000000E+00
   0.0000000000000000E+00
   0.0000000000000000E+00
   0.0000000000000000E+00
   0.0000000000000000E+00
   0.0000000000000000E+00
   0.0000000000000000E+00
   0.0000000000000000E+00
   0.0000000000000000E+00
   0.8508087604840091E-03
  -0.1263768294277451E-02
  -0.1294462290884813E-02
   0.0000000000000000E+00
   0.0000000000000000E+00
   0.0000000000000000E+00
   0.0000000000000000E+00
  -0.1933168872953699E-01
   0.5037574427272902E-03
   0.2213187668047550E-02
   0.1420877728615185E-01
  -0.6733052057313716E-02
  -0.8155351496678835E-02
  -0.1324509408387814E-01
   0.5002686646643359E-02
   0.7354203600789058E-03
   0.3481250992180826E-02
   0.1949284095459109E-02
   0.3168726343598717E-02
   0.1754938852910683E-02
  -0.7289644564102784E-02
  -0.6647994825159987E-04
   0.4565692456503003E-02
  -0.4086285584706534E-03
  -0.6653961586026483E-04
  -0.2024326678681851E-03
   0.8053625868898092E-03
   0.0000000000000000E+00
   0.0000000000000000E+00
   0.0000000000000000E+00
   0.0000000000000000E+00
   0.4740180262334090E-03
   0.1623476417752036E-02
  -0.1273520598876783E-02
  -0.9988440165358706E-03
  -0.2077605635858355E-02
  -0.9970531558843667E-03
  -0.7512717498615178E-03
  -0.7430899932712165E-03
   0.6013924854497516E-04
  -0.5976419970141416E-03
   0.8032999053626583E-03
  -0.1730546608718585E-02
   0.3140946093263998E-03
  -0.5786514600373316E-04
  -0.8901903974875648E-03
  -0.1053196722449308E-02
   0.0000000000000000E+00
   0.0000000000000000E+00
   0.0000000000000000E+00
  -0.1035474866288817E-02
  -0.7791748257854783E-02
   0.1821117417087422E-01
  -0.2907384274877855E-04
  -0.1376998538590127E-02
  -0.2028315738963460E-02
  -0.5613334377086843E-02
  -0.1620479268185428E-02
  -0.6358834941024440E-02
  -0.4327530179220493E-02
   0.1516524993654491E-02
   0.3300085349050026E-01
   0.4396952115151175E-04
  -0.2766675156456639E-02
   0.3629410520469361E-02
   0.3917477236420125E-03
   0.0000000000000000E+00
   0.0000000000000000E+00
   0.0000000000000000E+00
   0.0000000000000000E+00
   0.0000000000000000E+00
   0.0000000000000000E+00
   0.0000000000000000E+00
   0.0000000000000000E+00
   0.0000000000000000E+00
   0.0000000000000000E+00
   0.0000000000000000E+00
   0.0000000000000000E+00
   0.0000000000000000E+00
   0.0000000000000000E+00
   0.0000000000000000E+00
   0.0000000000000000E+00
   0.0000000000000000E+00
   0.4996969354094358E-02
   0.3210188378069568E-02
   0.8121798595540620E-02
   0.6089628333894410E-02
   0.1117053119174495E-01
   0.1403199633745124E-01
  -0.3288482447584413E-03
   0.5160327340188263E-02
   0.2928869149489176E-02
   0.3376787782571244E-02
   0.3724195894351329E-02
  -0.1469861437882710E-01
  -0.6149046213783195E-03
   0.6636946600335823E-02
   0.1453262937656919E-02
   0.1957691682544502E-02
   0.4261442254930187E-02
  -0.2811582278592624E-02
   0.1265485697172544E-02
   0.2850417348590205E-02
   0.1533833266961951E-02
   0.2562440539188480E-02
   0.2009329366219479E-02
   0.2152902068931719E-02
   0.8578465507056427E-02
  -0.3835719321245921E-02
   0.6146233401910860E-02
   0.4620498927125036E-04
  -0.4247815512409384E-03
  -0.1674691926739284E-01
  -0.5005037472664659E-02
  -0.4835525900066578E-02
   0.3396938395843154E-02
  -0.6079343632594756E-02
   0.2524450623177767E-04
  -0.3285396797178641E-01
  -0.3188821258564109E-02
   0.4573348449076298E-02
   0.9670300374657144E-03
   0.2132610577461991E-02
   0.4531867220285735E-02
   0.2691321830458228E-02
   0.3250785501421076E-02
   0.5226686425360397E-02
   0.1957689409138881E-02
   0.7476519510989077E-03
  -0.6133215900506416E-04
  -0.5321966060690644E-02
  -0.6966496776921050E-02
  -0.9690391660424258E-03
   0.1057798355417470E-02
  -0.2117730114353909E-02
  -0.3224071934251052E-02
  -0.2538194500385217E-02
  -0.4117268302874772E-02
  -0.7559175667632905E-02
  -0.2014246466387351E-02
   0.6495753169337890E-03
  -0.1932165713853229E-03
   0.1227181404638838E-02
  -0.3503804189765171E-02
   0.4855576304230527E-02
  -0.8634991366116290E-02
   0.3164857331584669E-04
  -0.3337155755640866E-03
   0.2557975988398795E-02
   0.1609327707563888E-02
   0.2028246842013725E-02
  -0.5642904980172547E-02
SCALARS w double 1
LOOKUP_TABLE default
   0.0000000000000000E+00
   0.0000000000000000E+00
   0.0000000000000000E+00
   0.0000000000000000E+00
   0.0000000000000000E+00
   0.0000000000000000E+00
   0.0000000000000000E+00
   0.0000000000000000E+00
   0.0000000000000000E+00
   0.0000000000000000E+00
   0.0000000000000000E+00
   0.0000000000000000E+00
   0.0000000000000000E+00
   0.0000000000000000E+00
   0.0000000000000000E+00
   0.0000000000000000E+00
   0.0000000000000000E+00
   0.0000000000000000E+00
   0.0000000000000000E+00
   0.0000000000000000E+00
   0.0000000000000000E+00
   0.0000000000000000E+00
   0.0000000000000000E+00
   0.0000000000000000E+00
   0.0000000000000000E+00
   0.0000000000000000E+00
   0.0000000000000000E+00
   0.0000000000000000E+00
   0.0000000000000000E+00
   0.0000000000000000E+00
   0.0000000000000000E+00
   0.0000000000000000E+00
   0.0000000000000000E+00
  -0.1007323206334271E+00
  -0.4246422743873174E-01
   0.7113320562333239E-03
   0.5703905395206418E-02
   0.5677984598327887E-03
   0.1606453625676804E-02
   0.3372458896288492E-02
   0.2364336475023013E-02
   0.4714530235847857E-03
   0.3527024651847475E-02
   0.4532836890362897E-01
   0.6564276742144387E-01
   0.8375653662553113E-03
  -0.2265941550176038E-01
   0.4272680481588325E-02
   0.1342684434708890E-01
   0.1030062653910532E-01
   0.4871552730933127E-01
   0.2383979216013295E-02
  -0.6536040957544833E-02
  -0.7361231610157507E-03
   0.3059840397592312E-03
   0.3852877309395456E-02
  -0.3894170027802921E-01
   0.1818957303568402E-01
   0.1121939650201496E-01
   0.3396112627052541E-01
   0.8384113707889530E-02
   0.4924001849370034E-02
   0.4973334923078361E-02
   0.4900458220778598E-02
   0.6056655325867847E-02
   0.2699566746220310E-02
  -0.4126443334665408E-01
  -0.9925923043250402E-01
  -0.1120358547766613E+00
   0.5146227443718034E-02
   0.4213980525454416E-02
  -0.1002565010533609E+00
  -0.9892853588563709E-01
  -0.9835938895046427E-01
  -0.9444625150030490E-01
  -0.6789772304763458E-01
   0.5197107829504932E-02
  -0.1927012262399849E-01
  -0.1562810138385314E-01
  -0.5965351575749085E-02
   0.6821897455010091E-02
  -0.8000746105810294E-01
  -0.2776956709676415E-01
  -0.8085905782173244E-01
  -0.5863342928299367E-01
   0.3074015587562994E-02
   0.2684910269542819E-02
   0.2644248502684667E-02
   0.3456850596261917E-02
   0.3997736863600581E-02
   0.1199155293301932E-02
  -0.1356231974780381E-03
   0.2028500893707502E-02
   0.4893507167120283E-02
   0.3864262951551407E-02
   0.1125880532465672E-02
   0.1187840805032827E-02
   0.1459880931702326E-02
  -0.2249855862868317E-04
   0.9081791317249558E-04
   0.4386512858233311E-02
   0.2712007712674736E-02
   0.2316481470783718E-02
   0.5006621856789990E-02
   0.1069270609236170E-02
   0.2706708949540608E-02
   0.2010204622487042E-02
   0.3345964966408881E-04
   0.8386120783467811E-01
   0.2833933065415208E-02
  -0.8465892569613297E-03
  -0.1275297262304976E-03
   0.1410969289595510E+00
   0.1236587232025743E+00
  -0.1228603560335975E-02
  -0.4383029020729489E-02
  -0.2803887822383698E-03
  -0.6478051313471300E-02
  -0.1893638403341289E-02
   0.1559600015007542E+00
   0.7528209910234054E-01
   0.2567699421195010E-01
   0.1661258222177816E+00