# vtk DataFile Version 2.0
FUN3D:global_image_vtk
ASCII
DATASET UNSTRUCTURED_GRID
POINTS 213 double
   -0.5474738059814577E-02    0.2504941999961241E+01    0.8055552255803417E-04
    0.1245419063214638E+01    0.2504941999961241E+01    0.1041110933839854E-03
    0.2497696076328680E+01    0.2504941999961241E+01    0.1102916391887976E-03
    0.3750590986573695E+01    0.2504941999961241E+01    0.1358046458454499E-03
    0.5003221380247291E+01    0.2504941999961241E+01    0.9683524960246714E-04
    0.5004676745409914E+01    0.1281291377271856E+01    0.1639128452708972E-03
    0.5004772723164555E+01    0.2775094235730117E-01    0.1904167478741225E-03
    0.5003581213732781E+01   -0.1225853394966533E+01    0.1608071357320219E-03
    0.5001952545687840E+01   -0.2496589021166689E+01    0.1082184657579808E-03
    0.3750348114451831E+01   -0.2496589021166689E+01    0.1458710021468021E-03
    0.2498611455860601E+01   -0.2496589021166689E+01    0.1008914025384387E-03
    0.1247175253528958E+01   -0.2496589021166689E+01    0.1108597687264904E-03
   -0.3383978115988119E-02   -0.2496589021166689E+01    0.8107707279492078E-04
   -0.4257799575456914E-02   -0.1225734704380391E+01    0.3420054903613410E-04
   -0.5251637157324573E-02    0.2619498345417710E-01    0.1039613591529151E-03
   -0.5676113931670557E-02    0.1278221711770094E+01    0.8237743852068657E-04
    0.9003209086379074E+00    0.1608979275731563E+01    0.8718013114250540E-04
    0.3983172220880844E+01   -0.1561211796857582E+01    0.1757351975795738E-03
    0.4035602066124953E+01    0.1486760229512317E+01    0.1714506798292110E-03
    0.1036613696945589E+01   -0.1455626319024965E+01    0.1047539008247058E-03
    0.1094353438944581E+01   -0.2964620713759383E+00    0.1261326966781606E-03
    0.7298399754950837E+00    0.6874686188430766E+00    0.1045682122117189E-03
    0.1617018610904167E+01    0.8553209657933998E+00    0.1530917919644882E-03
    0.2143199645120037E+01   -0.1627128401292019E+01    0.1606433286625575E-03
    0.4088840470379607E+01   -0.4351046471420335E+00    0.2720522856929917E-03
    0.2977916500432444E+01   -0.8334990271293143E+00    0.2246093010071502E-03
    0.3044093236197464E+01   -0.1814361118271335E+01    0.1617179488712093E-03
    0.3427866617085013E+01    0.3813906574448717E+00    0.2937830792470451E-03
    0.4313225396319748E+01    0.5489135083240899E+00    0.2313893566351921E-03
    0.1823032699632520E+01    0.1771265381754231E+01    0.1837610921954232E-03
    0.2806311135978052E+01    0.1358629571502624E+01    0.1944713420349859E-03
    0.1891860844560729E+01   -0.8481309128940762E+00    0.1671170254230472E-03
    0.2268769163417261E+01    0.7723707075584005E-01    0.2073128285536292E-03
    0.5000000000000000E+01    0.2504941999961241E+01    0.1250000000000000E+01
    0.5000000000000000E+01    0.2504941999961241E+01    0.2500000000000000E+01
    0.5000000000000000E+01    0.2504941999961241E+01    0.3750000000000000E+01
    0.5000000000000000E+01    0.2504941999961241E+01    0.5000000000000000E+01
    0.3750000000000000E+01    0.2504941999961241E+01    0.5000000000000000E+01
    0.2500000000000000E+01    0.2504941999961241E+01    0.5000000000000000E+01
    0.1250000000000000E+01    0.2504941999961241E+01    0.5000000000000000E+01
    0.0000000000000000E+00    0.2504941999961241E+01    0.5000000000000000E+01
    0.0000000000000000E+00    0.2504941999961241E+01    0.3750000000000000E+01
    0.0000000000000000E+00    0.2504941999961241E+01    0.2500000000000000E+01
    0.0000000000000000E+00    0.2504941999961241E+01    0.1250000000000000E+01
    0.9588956144353830E+00    0.2504941999961241E+01    0.9696527279300926E+00
    0.3981953084978739E+01    0.2504941999961241E+01    0.4070563876502039E+01
    0.4036122198869928E+01    0.2504941999961241E+01    0.1017567671864867E+01
    0.9637572703687622E+00    0.2504941999961241E+01    0.3973598229043876E+01
    0.1546540123351725E+01    0.2504941999961241E+01    0.2931570247923728E+01
    0.6973799367131009E+00    0.2504941999961241E+01    0.3070319998909603E+01
    0.8903741869755911E+00    0.2504941999961241E+01    0.2056562332034845E+01
    0.2183041992443444E+01    0.2504941999961241E+01    0.3960694489257258E+01
    0.3855844883881953E+01    0.2504941999961241E+01    0.2933250643809132E+01
    0.3152611372008803E+01    0.2504941999961241E+01    0.3637668435339638E+01
    0.3103307388029244E+01    0.2504941999961241E+01    0.4332607836745958E+01
    0.3266711050822067E+01    0.2504941999961241E+01    0.1889656733426780E+01
    0.4232537571806085E+01    0.2504941999961241E+01    0.1918627039923659E+01
    0.1905522344841789E+01    0.2504941999961241E+01    0.7226292666294915E+00
    0.2879767720432537E+01    0.2504941999961241E+01    0.9080947550105787E+00
    0.2012711351532595E+01    0.2504941999961241E+01    0.1767082528598312E+01
    0.2669681472765194E+01    0.2504941999961241E+01    0.2853394418104091E+01
    0.5000000000000000E+01    0.1250000000000000E+01    0.5000000000000000E+01
    0.5000000000000000E+01    0.0000000000000000E+00    0.5000000000000000E+01
    0.5000000000000000E+01   -0.1250000000000000E+01    0.5000000000000000E+01
    0.5000000000000000E+01   -0.2496589021166689E+01    0.5000000000000000E+01
    0.5000000000000000E+01   -0.2496589021166689E+01    0.3750000000000000E+01
    0.5000000000000000E+01   -0.2496589021166689E+01    0.2500000000000000E+01
    0.5000000000000000E+01   -0.2496589021166689E+01    0.1250000000000000E+01
    0.5000000000000000E+01    0.1578994732800803E+01    0.9058375365086910E+00
    0.5000000000000000E+01   -0.1583989954232354E+01    0.3982050490726493E+01
    0.5000000000000000E+01    0.1453322699199022E+01    0.4033849428301197E+01
    0.5000000000000000E+01   -0.1479596339503735E+01    0.1040505887381675E+01
    0.5000000000000000E+01   -0.3227322616384110E+00    0.1099454400140349E+01
    0.5000000000000000E+01    0.6593508822075582E+00    0.7354504170366591E+00
    0.5000000000000000E+01    0.8256214013940779E+00    0.1622302608453282E+01
    0.5000000000000000E+01   -0.1650070333782557E+01    0.2145871574390382E+01
    0.5000000000000000E+01   -0.4612828702537229E+00    0.4086422318222992E+01
    0.5000000000000000E+01   -0.8579242121530853E+00    0.2979540174134984E+01
    0.5000000000000000E+01   -0.1836846154397680E+01    0.3045064261640043E+01
    0.5000000000000000E+01    0.3508002863614053E+00    0.3428197553792836E+01
    0.5000000000000000E+01    0.5185680230613409E+00    0.4309693860063405E+01
    0.5000000000000000E+01    0.1738996113203182E+01    0.1827272193562204E+01
    0.5000000000000000E+01    0.1325493893339706E+01    0.2808563282768077E+01
    0.5000000000000000E+01   -0.8731419609589618E+00    0.1895995683864404E+01
    0.5000000000000000E+01    0.4906150219227333E-01    0.2273179336307740E+01
    0.0000000000000000E+00    0.1250000000000000E+01    0.5000000000000000E+01
    0.0000000000000000E+00    0.0000000000000000E+00    0.5000000000000000E+01
    0.0000000000000000E+00   -0.1250000000000000E+01    0.5000000000000000E+01
    0.0000000000000000E+00   -0.2496589021166689E+01    0.5000000000000000E+01
    0.1250000000000000E+01   -0.2496589021166689E+01    0.5000000000000000E+01
    0.2500000000000000E+01   -0.2496589021166689E+01    0.5000000000000000E+01
    0.3750000000000000E+01   -0.2496589021166689E+01    0.5000000000000000E+01
    0.4042003247744892E+01    0.1558308132739014E+01    0.5000000000000000E+01
    0.9304122287900499E+00   -0.1548001304379777E+01    0.5000000000000000E+01
    0.1037243024609388E+01    0.1462892710085612E+01    0.5000000000000000E+01
    0.3946240828834967E+01   -0.1445243809615570E+01    0.5000000000000000E+01
    0.4092527262848217E+01   -0.3455338993778935E+00    0.5000000000000000E+01
    0.4293103109154542E+01    0.6277660831404320E+00    0.5000000000000000E+01
    0.3241512314643519E+01    0.7429886854239611E+00    0.5000000000000000E+01
    0.2844289952419609E+01   -0.1588117879734118E+01    0.5000000000000000E+01
    0.7159905765450471E+00   -0.6002320124191652E+00    0.5000000000000000E+01
    0.1754341919796891E+01   -0.7398147869923652E+00    0.5000000000000000E+01
    0.1870296826774691E+01   -0.1788622905643739E+01    0.5000000000000000E+01
    0.9220614901912976E+00    0.3083720183248586E+00    0.5000000000000000E+01
    0.3101523624086016E+01    0.1777901774806180E+01    0.5000000000000000E+01
    0.2192512063922564E+01    0.1576861561598471E+01    0.5000000000000000E+01
    0.2024793420196460E+01    0.4773861992750707E+00    0.5000000000000000E+01
    0.2990627757741975E+01   -0.4878110785814084E+00    0.5000000000000000E+01
    0.0000000000000000E+00   -0.2496589021166689E+01    0.1250000000000000E+01
    0.0000000000000000E+00   -0.2496589021166689E+01    0.2500000000000000E+01
    0.0000000000000000E+00   -0.2496589021166689E+01    0.3750000000000000E+01
    0.0000000000000000E+00    0.1558308132739014E+01    0.4042003247744892E+01
    0.0000000000000000E+00   -0.1548001304379777E+01    0.9304122287900499E+00
    0.0000000000000000E+00    0.1462892710085612E+01    0.1037243024609388E+01
    0.0000000000000000E+00   -0.1445243809615570E+01    0.3946240828834967E+01
    0.0000000000000000E+00   -0.3455338993778935E+00    0.4092527262848217E+01
    0.0000000000000000E+00    0.6277660831404320E+00    0.4293103109154542E+01
    0.0000000000000000E+00    0.7429886854239611E+00    0.3241512314643519E+01
    0.0000000000000000E+00   -0.1588117879734118E+01    0.2844289952419609E+01
    0.0000000000000000E+00   -0.6002320124191652E+00    0.7159905765450471E+00
    0.0000000000000000E+00   -0.7398147869923652E+00    0.1754341919796891E+01
    0.0000000000000000E+00   -0.1788622905643739E+01    0.1870296826774691E+01
    0.0000000000000000E+00    0.3083720183248586E+00    0.9220614901912976E+00
    0.0000000000000000E+00    0.1777901774806180E+01    0.3101523624086016E+01
    0.0000000000000000E+00    0.1576861561598471E+01    0.2192512063922564E+01
[...]
POINT_DATA 213
SCALARS rho double 1
LOOKUP_TABLE default
   0.1219599913612511E+01
   0.9221793838864168E+00
   0.9104476813015039E+00
   0.8966767977140188E+00
   0.7819488864850452E+00
   0.7116571317294987E+00
   0.6990709657813677E+00
   0.7029546921887100E+00
   0.7687355881649033E+00
   0.8895232822336802E+00
   0.8987464019096230E+00
   0.9249601769209521E+00
   0.1300246732791162E+01
   0.1348040885210287E+01
   0.1456338075682729E+01
   0.1286719692332781E+01
   0.9619642158930232E+00
   0.9047653980562600E+00
   0.8972301124069825E+00
   0.9249192778491370E+00
   0.9126331843463750E+00
   0.9866008235359287E+00
   0.8974308639229158E+00
   0.8999717894767800E+00
   0.9067475719111113E+00
   0.9112478407016726E+00
   0.8943866375902537E+00
   0.9125851103450857E+00
   0.8902529657778642E+00
   0.9018652715731978E+00
   0.9063596825271852E+00
   0.8623950846121848E+00
   0.9078064541478820E+00
   0.9506821984032749E+00
   0.1008490980181116E+01
   0.1006976758465201E+01
   0.1000145908711555E+01
   0.1000492870019372E+01
   0.1001010370643552E+01
   0.1002467258126893E+01
   0.1001944765552978E+01
   0.1004886098316332E+01
   0.1016625222135995E+01
   0.1058313554257792E+01
   0.1005436788049771E+01
   0.1000007369525156E+01
   0.9457700495011452E+00
   0.1002042271949058E+01
   0.9982829476317208E+00
   0.1004492521307737E+01
   0.1005371617841991E+01
   0.9993111978176104E+00
   0.9978002667647602E+00
   0.9988040172610948E+00
   0.9987211972620162E+00
   0.9780928918159620E+00
   0.9796706142574129E+00
   0.9639504863368301E+00
   0.9601301311179320E+00
   0.9867991727951519E+00
   0.9922400513253674E+00
   0.1000342977243368E+01
   0.1000541450771280E+01
   0.1000671133012708E+01
   0.9998284134543851E+00
   0.1009782297136106E+01
   0.1007174224035351E+01
   0.9448363518146702E+00
   0.9034576849463928E+00
   0.1007039898464973E+01
   0.1004193124636078E+01
   0.8965165777291073E+00
   0.8926680498091465E+00
   0.8470449749677323E+00
   0.9708429042405734E+00
   0.1000202431936267E+01
   0.1006091577627760E+01
   0.1015639761996982E+01
   0.1012987271709030E+01
   0.1012861697425282E+01
   0.1005118612472559E+01
   0.9863622640107342E+00
   0.1006593489929843E+01
   0.9849764702184112E+00
   0.1008140573354961E+01
   0.1001902606873920E+01
   0.1000777962762646E+01
   0.1001300678114540E+01
   0.1001842923441182E+01
   0.1002348926670212E+01
   0.1000286871398417E+01
   0.1000192914643231E+01
   0.9997755933390516E+00
   0.1001746394685889E+01
   0.1001907944784969E+01
   0.9986523977310223E+00
   0.9995364911723258E+00
   0.9999232354597805E+00
   0.1000198767971930E+01
   0.1000442941673376E+01
   0.1001058841355241E+01
   0.1001457792917565E+01
   0.1001331328861193E+01
   0.1001525818354315E+01
   0.1000861177974665E+01
   0.1001344306219856E+01
   0.1001108536268166E+01
   0.1000543854540193E+01
   0.1060180605639502E+01
   0.1020434851439528E+01
   0.1005937367252095E+01
   0.1003463833917661E+01
   0.1142067394328676E+01
   0.1083370527274593E+01
   0.1004378517860154E+01
   0.1003909103421306E+01
   0.1003789602179833E+01
   0.1006675430345916E+01
   0.1012240635866764E+01
   0.1193114846297205E+01
   0.1028000791369956E+01
   0.1034785375858418E+01
   0.1169417159588164E+01
   0.1009874385356260E+01
   0.1023546143337562E+01
   0.1017121966025145E+01
   0.1007875017661957E+01
   0.1013904356829919E+01
   0.1000120419994188E+01
   0.9442367767217620E+00
   0.1003512214008515E+01
   0.9988676266193519E+00
   0.1006433377409257E+01
   0.1009136818446581E+01
   0.9979418413419252E+00
   0.9977846798151417E+00
   0.9961676216967500E+00
   0.9984778160635439E+00
   0.9810175331423311E+00
   0.9780877552900720E+00
   0.9479693804266310E+00
   0.9505424156822324E+00
   0.9877990056568849E+00
   0.9899199084793505E+00
   0.9925444357413924E+00
   0.9998150160078196E+00
   0.9986044256971826E+00
   0.9946495923519865E+00
   0.1006783294485244E+01
   0.1021195773713015E+01
   0.9979991516458429E+00
   0.1004785936910335E+01
   0.1001443253579237E+01
   0.1004870015574693E+01
   0.9952898773731749E+00
   0.9853957099545848E+00
   0.1000226007448019E+01
   0.9938930119382231E+00
   0.9819631293257847E+00
   0.9943515145076280E+00
   0.9968775152988155E+00
   0.9937161314858862E+00
   0.9987031086257558E+00
   0.1000033244281310E+01
   0.9996686280057353E+00
   0.9958480420583968E+00
   0.9933618045053709E+00
   0.1001379813515507E+01
   0.1018342565080895E+01
   0.1002761163885587E+01
   0.9806466643451547E+00
   0.1001874257980424E+01
   0.1008205818682813E+01
   0.9702345995728442E+00
   0.9431323729252683E+00
   0.9846786353207347E+00
   0.9843645601748877E+00
   0.9754696721847272E+00
   0.9908380426727563E+00
   0.9779133561219165E+00
   0.1033958406002480E+01
   0.1021656796288857E+01
   0.1000033005353580E+01
   0.9991734290897069E+00
   0.9919055285336893E+00
   0.9907248504667321E+00
   0.9574014550771930E+00
   0.9930506880856153E+00
   0.1006289131536597E+01
   0.1002044037559720E+01
   0.9896477897141435E+00
   0.9652799826676828E+00
   0.9203406997505489E+00
   0.9724368702052341E+00
   0.9781836989218841E+00
   0.9559726800556974E+00
   0.9617645757531795E+00
   0.9490309801183651E+00
   0.9366912375253221E+00
   0.9303104723135329E+00
   0.9992919130617837E+00
   0.9994619482012800E+00
   0.9988025047151161E+00
   0.1002017073952179E+01
   0.9391477998917994E+00
   0.9239055150383381E+00
   0.9359217488826892E+00
   0.9984137893858714E+00
   0.9983444540269538E+00
   0.1000450520518567E+01
   0.9793848501612662E+00
   0.9713545842878135E+00
   0.9447096592611370E+00
SCALARS u double 1
LOOKUP_TABLE default
   0.0000000000000000E+00
   0.0000000000000000E+00
   0.0000000000000000E+00
   0.0000000000000000E+00
   0.0000000000000000E+00
   0.0000000000000000E+00
   0.0000000000000000E+00
   0.0000000000000000E+00
   0.0000000000000000E+00
   0.0000000000000000E+00
   0.0000000000000000E+00
   0.0000000000000000E+00
   0.0000000000000000E+00
   0.0000000000000000E+00
   0.0000000000000000E+00
   0.0000000000000000E+00
   0.0000000000000000E+00
   0.0000000000000000E+00
   0.0000000000000000E+00
   0.0000000000000000E+00
   0.0000000000000000E+00
   0.0000000000000000E+00
   0.0000000000000000E+00
   0.0000000000000000E+00
   0.0000000000000000E+00
   0.0000000000000000E+00
   0.0000000000000000E+00
   0.0000000000000000E+00
   0.0000000000000000E+00
   0.0000000000000000E+00
   0.0000000000000000E+00
   0.0000000000000000E+00
   0.0000000000000000E+00
   0.5044657150216330E+00
   0.5290125001527926E+00
   0.5144832571326635E+00
   0.4932265007646600E+00
   0.4881034955509182E+00
   0.4912132665302246E+00
   0.4932012104278315E+00
   0.4982359621809241E+00
   0.4935755401502765E+00
   0.4788817929299075E+00
   0.4518340488395695E+00
   0.4750761855242657E+00
   0.5097784009321681E+00
   0.4511935386954496E+00
   0.4980813340854156E+00
   0.5232695275263199E+00
   0.4995198835923100E+00
   0.5239976612152594E+00
   0.5062462133519500E+00
   0.5621720090255026E+00
   0.5246973183226961E+00
   0.5014415355443343E+00
   0.5724415173338323E+00
   0.5707004871827401E+00
   0.3697808153316901E+00
   0.4030358779683897E+00
   0.5559039170505271E+00
   0.5550071828086343E+00
   0.4941866649546397E+00
   0.4946225571907315E+00
   0.4922550880863349E+00
   0.4916952757182729E+00
   0.5126203612303786E+00
   0.5320037748246828E+00
   0.5051851732453102E+00
   0.4700274421484132E+00
   0.5096958286959459E+00
   0.5089633499027321E+00
   0.4955096745918530E+00
   0.5091189249451874E+00
   0.4859971782978636E+00
   0.5290197329766951E+00
   0.5276939305594621E+00
   0.5095384286303515E+00
   0.5265023575388881E+00
   0.5255836715386476E+00
   0.5249264246847412E+00
   0.5039105676452094E+00
   0.5284460210750234E+00
   0.5353830987681888E+00
   0.5371546996037757E+00
   0.5324039368461245E+00
   0.4987533161485681E+00
   0.4995693380787584E+00
   0.4985678142302403E+00
   0.4978564019051621E+00
   0.4945363810444244E+00
   0.4946354240510232E+00
   0.4894932186016130E+00
   0.4881854150422278E+00
   0.4965709365748034E+00
   0.4946579467484248E+00
   0.4860622930286014E+00
   0.4896816117979791E+00
   0.4900401237021733E+00
   0.4911767741678317E+00
   0.4926166626325293E+00
   0.4981835085192236E+00
   0.4946289643773982E+00
   0.4948394986064720E+00
   0.4976378086151569E+00
   0.4907933142963679E+00
   0.4936012114910288E+00
   0.4927628912595878E+00
   0.4920514951670429E+00
   0.4513309485669421E+00
   0.4773809617975284E+00
   0.4929577593220005E+00
   0.4922016431810801E+00
   0.4645164623142698E+00
   0.4729120395593302E+00
   0.4915211032743533E+00
   0.4906741942900213E+00
   0.4940153701893483E+00
   0.4854929930724390E+00
   0.4731445505284837E+00
   0.4017685352680990E+00
   0.4925811127270551E+00
   0.4586089377570134E+00
   0.4595049325728374E+00
   0.4895104444381070E+00
   0.4701583352953380E+00
   0.4742235035214643E+00
   0.4816343218415700E+00
   0.4809631439111601E+00
   0.5081955853677338E+00
   0.4436620421105638E+00
   0.4960916958403473E+00
   0.5314783349163875E+00
   0.4949806833028930E+00
   0.5219301823458338E+00
   0.5081293872919589E+00
   0.5664001670757058E+00
   0.5269142300369478E+00
   0.5035387233875575E+00
   0.5834535198963300E+00
   0.5720240542940782E+00
   0.3408859788081945E+00
   0.3851958352892711E+00
   0.5717594931322250E+00
   0.5645095790341564E+00
   0.5689243688360062E+00
   0.5291696422566391E+00
   0.5449155772722327E+00
   0.5701879996527992E+00
   0.5404097314629039E+00
   0.5487779046336848E+00
   0.5790107886346327E+00
   0.4955235725189207E+00
   0.5064965498851823E+00
   0.4994484985735665E+00
   0.5533092708763414E+00
   0.4597902452500301E+00
   0.4983751332337361E+00
   0.5489762939761279E+00
   0.5894376514072261E+00
   0.5821700660421528E+00
   0.5457059880224396E+00
   0.5785146402961975E+00
   0.5122043911199358E+00
   0.5055088210309141E+00
   0.5048980709476661E+00
   0.5645297506140629E+00
   0.5552265536389378E+00
   0.4977583767239256E+00
   0.5488209304647218E+00
   0.5486892305143972E+00
   0.5643387454154581E+00
   0.4955121571262032E+00
   0.4958798449047598E+00
   0.3908413931333875E+00
   0.3725909688230870E+00
   0.5584900234234750E+00
   0.5739392692804526E+00
   0.4177438620756583E+00
   0.5813083045673259E+00
   0.4186000131666847E+00
   0.5391903795418731E+00
   0.4993239551323224E+00
   0.5113858616791707E+00
   0.5070195028219080E+00
   0.5732639800853764E+00
   0.5857709107102306E+00
   0.5448205849305764E+00
   0.5657062906890055E+00
   0.5320308473954216E+00
   0.5310303347523142E+00
   0.5561915761167504E+00
   0.5552162144223112E+00
   0.4401002249592728E+00
   0.5282987549616867E+00
   0.5807279754732888E+00
   0.3397137414800408E+00
   0.4812261108062125E+00
   0.5510167856206555E+00
   0.4924432438989695E+00
   0.3108743858166302E+00
   0.5051822108484337E+00
   0.5043571403796108E+00
   0.5129608762274440E+00
   0.5385848712618048E+00
   0.3519685122004610E+00
   0.3560462896505089E+00
   0.3308149967153586E+00
   0.5084554626879313E+00
   0.5125571445665538E+00
   0.5314307736484380E+00
   0.5857978769829928E+00
   0.4640825134454448E+00
   0.3627234830354443E+00
SCALARS v double 1
LOOKUP_TABLE default
   0.0000000000000000E+00
   0.0000000000000000E+00
   0.0000000000000000E+00
   0.0000000000000000E+00
   0.0000000000000000E+00
   0.0000000000000000E+00
   0.0000000000000000E+00
   0.0000000000000000E+00
   0.0000000000000000E+00
   0.0000000000000000E+00
   0.0000000000000000E+00
   0.0000000000000000E+00
   0.0000000000000000E+00
   0.0000000000000000E+00
   0.0000000000000000E+00
   0.0000000000000000E+00
   0.0000000000000000E+00
   0.0000000000000000E+00
   0.0000000000000000E+00
   0.0000000000000000E+00
   0.0000000000000000E+00
   0.0000000000000000E+00
   0.0000000000000000E+00
   0.0000000000000000E+00
   0.0000000000000000E+00
   0.0000000000000000E+00
   0.0000000000000000E+00
   0.0000000000000000E+00
   0.0000000000000000E+00
   0.0000000000000000E+00
   0.0000000000000000E+00
   0.0000000000000000E+00
   0.0000000000000000E+00
   0.0000000000000000E+00
   0.0000000000000000E+00
   0.0000000000000000E+00
   0.0000000000000000E+00
   0.0000000000000000E+00
   0.0000000000000000E+00
   0.0000000000000000E+00
   0.0000000000000000E+00
   0.0000000000000000E+00
   0.0000000000000000E+00
   0.0000000000000000E+00
   0.0000000000000000E+00
   0.0000000000000000E+00
   0.0000000000000000E+00
   0.0000000000000000E+00
   0.0000000000000000E+00
   0.0000000000000000E+00
   0.0000000000000000E+00
   0.0000000000000000E+00
   0.0000000000000000E+00
   0.0000000000000000E+00
   0.0000000000000000E+00
   0.0000000000000000E+00
   0.0000000000000000E+00
   0.0000000000000000E+00
   0.0000000000000000E+00
   0.0000000000000000E+00
   0.0000000000000000E+00
   0.6334726277655891E-03
  -0.1412099241635212E-02
  -0.1391683322255012E-02
   0.0000000000000000E+00
   0.0000000000000000E+00
   0.0000000000000000E+00
   0.0000000000000000E+00
  -0.1867977671806074E-01
   0.2777562623138542E-03
   0.2206621687576662E-02
   0.1490281522640019E-01
  -0.5368566317611853E-02
  -0.6642053112268487E-02
  -0.1142210355689871E-01
   0.4788843881977109E-02
   0.5371990375967611E-03
   0.3195637575163109E-02
   0.1530304311412497E-02
   0.3473816364525087E-02
   0.1704917678452714E-02
  -0.6356083548775210E-02
   0.7681765858703519E-03
   0.4869155118381826E-02
   0.6121854298026430E-03
   0.6959008022158526E-04
  -0.1767233731369196E-03
   0.6082845697492416E-03
   0.0000000000000000E+00
   0.0000000000000000E+00
   0.0000000000000000E+00
   0.0000000000000000E+00
   0.1212948254107730E-03
   0.1423635166768622E-02
  -0.1108799870339328E-02
  -0.9188931100928363E-03
  -0.2101544819087514E-02
  -0.1220496110041086E-02
  -0.8986448895785103E-03
  -0.6448411764333562E-03
  -0.2472692922918632E-04
  -0.5341989942916880E-03
   0.7240121840523097E-03
  -0.1570799775975772E-02
   0.1025655398338488E-03
  -0.1214699128237524E-03
  -0.8743265540848012E-03
  -0.8885262190989603E-03
   0.0000000000000000E+00
   0.0000000000000000E+00
   0.0000000000000000E+00
  -0.1091310709062026E-02
  -0.8502847372839415E-02
   0.1568987576069066E-01
   0.2148694384247323E-03
  -0.1053392988552451E-02
  -0.1673615290460499E-02
  -0.5281084521853897E-02
  -0.1235969191473383E-02
  -0.3701268439902338E-02
  -0.3032657939796086E-02
   0.2127150619625811E-02
   0.2880603936482165E-01
  -0.1724510494844824E-03
  -0.4260459828881185E-02
   0.2498525674387949E-02
   0.9551004292057022E-03
   0.0000000000000000E+00
   0.0000000000000000E+00
   0.0000000000000000E+00
   0.0000000000000000E+00
   0.0000000000000000E+00
   0.0000000000000000E+00
   0.0000000000000000E+00
   0.0000000000000000E+00
   0.0000000000000000E+00
   0.0000000000000000E+00
   0.0000000000000000E+00
   0.0000000000000000E+00
   0.0000000000000000E+00
   0.0000000000000000E+00
   0.0000000000000000E+00
   0.0000000000000000E+00
   0.0000000000000000E+00
   0.4670203397047822E-02
   0.2763278973193676E-02
   0.6893748822077853E-02
   0.5630441903660295E-02
   0.8687068968126346E-02
   0.1244114795869734E-01
   0.4866776738722671E-03
   0.4364184572534798E-02
   0.2406606137684049E-02
   0.2332214665130746E-02
   0.3176378329262868E-02
  -0.1059584428473093E-01
  -0.4893827772983498E-03
   0.6038353378264806E-02
   0.2600383754149776E-02
   0.2269794192731888E-02
   0.3837926171740813E-02
  -0.2020264689926357E-02
   0.9170015277180200E-03
   0.2371046887234363E-02
   0.1154923840061457E-02
   0.2686130103442206E-02
   0.1739854456706897E-02
   0.1798803892976054E-02
   0.8007122737627104E-02
  -0.3375979414133581E-02
   0.5470409561020580E-02
   0.6506735758579243E-04
  -0.3121025401893705E-04
  -0.1328424452888209E-01
  -0.3290580632230781E-02
  -0.3547656599802132E-02
   0.3675146575583480E-02
  -0.3988175022146470E-02
   0.8943824046513669E-03
  -0.2587599550095574E-01
  -0.3070964858831834E-02
   0.4167723643278502E-02
   0.7177108492342077E-03
   0.1825205262379403E-02
   0.4437745133674447E-02
   0.2300337344153157E-02
   0.3389536933885559E-02
   0.5068279795298708E-02
   0.1856651917407336E-02
   0.5820194339944594E-03
  -0.3347065406721345E-03
  -0.4621586354202864E-02
  -0.5498382982266638E-02
   0.4518988842136831E-03
   0.9429331929634276E-03
  -0.7332720399204137E-03
  -0.3869855701935306E-02
  -0.1215981714715821E-02
  -0.3656432467605721E-02
  -0.6898512307103601E-02
  -0.1708648191923851E-02
   0.5357634569947597E-03
  -0.3546521856378651E-03
   0.1111768333362782E-02
  -0.1832583924076640E-02
   0.6956131194507475E-02
  -0.9774614548481671E-02
  -0.1544862378298857E-04
  -0.4080128414888415E-03
   0.2409198736119892E-02
   0.1123359026109568E-02
   0.1298608630595334E-02
  -0.3828995619476653E-02
SCALARS w double 1
LOOKUP_TABLE default
   0.0000000000000000E+00
   0.0000000000000000E+00
   0.0000000000000000E+00
   0.0000000000000000E+00
   0.0000000000000000E+00
   0.0000000000000000E+00
   0.0000000000000000E+00
   0.0000000000000000E+00
   0.0000000000000000E+00
   0.0000000000000000E+00
   0.0000000000000000E+00
   0.0000000000000000E+00
   0.0000000000000000E+00
   0.0000000000000000E+00
   0.0000000000000000E+00
   0.0000000000000000E+00
   0.0000000000000000E+00
   0.0000000000000000E+00
   0.0000000000000000E+00
   0.0000000000000000E+00
   0.0000000000000000E+00
   0.0000000000000000E+00
   0.0000000000000000E+00
   0.0000000000000000E+00
   0.0000000000000000E+00
   0.0000000000000000E+00
   0.0000000000000000E+00
   0.0000000000000000E+00
   0.0000000000000000E+00
   0.0000000000000000E+00
   0.0000000000000000E+00
   0.0000000000000000E+00
   0.0000000000000000E+00
  -0.1144740194442782E+00
  -0.5028451687033073E-01
  -0.2218633564707772E-02
   0.5066015281083289E-02
  -0.6957785140675923E-03
  -0.6076383656730533E-03
   0.5805994844144114E-03
   0.1144807693668982E-02
   0.2440761442857030E-03
   0.3422553655359660E-02
   0.3884462902374496E-01
   0.5360740798519385E-01
  -0.1493568916705361E-02
  -0.2790727253314189E-01
   0.2079826304674849E-02
   0.1059655285076419E-01
   0.8042749328943135E-02
   0.4393891044762747E-01
  -0.4043424472059159E-03
  -0.1058030838438384E-01
  -0.3671503938027230E-02
  -0.2102261163644877E-02
   0.4819869092336635E-03
  -0.4609511943872605E-01
   0.1623618845601621E-01
   0.1240676130668006E-01
   0.2994628377189670E-01
   0.5073338572555337E-02
   0.4321079621951304E-02
   0.4383199250437348E-02
   0.4018274366888747E-02
   0.5466031849456019E-02
  -0.1704930261601693E-03
  -0.4834022548321889E-01
  -0.1122168293596605E+00
  -0.1279822898509088E+00
   0.2784418228663275E-02
   0.1930924551574418E-02
  -0.1150881334331859E+00
  -0.1133079985009962E+00
  -0.1132666994710749E+00
  -0.1072902052081248E+00
  -0.7748706493389580E-01
   0.3027732499061528E-02
  -0.2451874734804765E-01
  -0.2041361290010305E-01
  -0.9927800116908423E-02
   0.5241307993985082E-02
  -0.9129643508684009E-01
  -0.3406071824570798E-01
  -0.9180581854592469E-01
  -0.6776877647207251E-01
   0.1807791039939973E-02
   0.1559386370338726E-02
   0.1426788015817380E-02
   0.2118646081463452E-02
   0.1358294159777681E-02
  -0.1241620279261890E-02
  -0.1475158646192053E-02
   0.1114707479122727E-02
   0.2218159173846282E-02
   0.1202567091645263E-02
  -0.7056005930429993E-04
   0.1919580807560002E-03
   0.8213705677214520E-03
  -0.1576102605661041E-02
  -0.1943016516034145E-02
   0.1965357256626247E-02
  -0.4390849792578720E-04
  -0.4390429777209779E-03
   0.2228746913912230E-02
  -0.1071757811528709E-02
  -0.2024428933503598E-03
  -0.4923302929703158E-03
  -0.1804015296286093E-02
   0.6879533227864583E-01
   0.2330699830756567E-02
  -0.1105206883231365E-02
  -0.7920433380385924E-03
   0.1156184651484525E+00
   0.1039170543465259E+00
  -0.1771015937486251E-02
  -0.4421117100616696E-02
  -0.7493460270422550E-03
  -0.7086036511226758E-02
  -0.2645567452377751E-02
   0.1269925479958788E+00
   0.6360353099885363E-01
   0.2237139462848983E-01
   0.1353419728104259E+00