# vtk DataFile Version 2.0
FUN3D:global_image_vtk
ASCII
DATASET UNSTRUCTURED_GRID
POINTS 213 double
   -0.5474737984429546E-02    0.2504942000171906E+01    0.8054288710432536E-04
    0.1245419063287635E+01    0.2504942000171906E+01    0.1040982242363260E-03
    0.2497696076401520E+01    0.2504942000171906E+01    0.1102785184627729E-03
    0.3750590986642493E+01    0.2504942000171906E+01    0.1357913126447800E-03
    0.5003221380310862E+01    0.2504942000171906E+01    0.9682175912499824E-04
    0.5004676745466023E+01    0.1281291378667557E+01    0.1639028988230570E-03
    0.5004772723207975E+01    0.2775094373633431E-01    0.1904103071714798E-03
    0.5003581213770980E+01   -0.1225853393607874E+01    0.1608041204801940E-03
    0.5001952545725711E+01   -0.2496589020965795E+01    0.1082187804680185E-03
    0.3750348114491570E+01   -0.2496589020965795E+01    0.1458713755491673E-03
    0.2498611455901012E+01   -0.2496589020965795E+01    0.1008918579170615E-03
    0.1247175253572183E+01   -0.2496589020965795E+01    0.1108603452286667E-03
   -0.3383978066580974E-02   -0.2496589020965795E+01    0.8107781894328218E-04
   -0.4257799517870532E-02   -0.1225734703039734E+01    0.3419801443898080E-04
   -0.5251637089208839E-02    0.2619498480250900E-01    0.1039555131118597E-03
   -0.5676113857691068E-02    0.1278221713126758E+01    0.8236822196797808E-04
    0.9003209087130581E+00    0.1608979277095704E+01    0.8716987147242785E-04
    0.3983172220920733E+01   -0.1561211795526088E+01    0.1757331413693142E-03
    0.4035602066189484E+01    0.1486760230919866E+01    0.1714402645550561E-03
    0.1036613697000555E+01   -0.1455626317691325E+01    0.1047518431303502E-03
    0.1094353439010365E+01   -0.2964620700297099E+00    0.1261275704529823E-03
    0.7298399755667218E+00    0.6874686201985623E+00    0.1045604887086438E-03
    0.1617018610977808E+01    0.8553209671555695E+00    0.1530834871082812E-03
    0.2143199645164996E+01   -0.1627128399969677E+01    0.1606415892318979E-03
    0.4088840470425460E+01   -0.4351046457790765E+00    0.2720472040485479E-03
    0.2977916500479441E+01   -0.8334990257952031E+00    0.2246053981977353E-03
    0.3044093236238964E+01   -0.1814361116951214E+01    0.1617166242898178E-03
    0.3427866617147374E+01    0.3813906588309347E+00    0.2937758392237885E-03
    0.4313225396370732E+01    0.5489135097142639E+00    0.2313815372695294E-03
    0.1823032699705293E+01    0.1771265383126610E+01    0.1837502295397403E-03
    0.2806311136050315E+01    0.1358629572896197E+01    0.1944614642862966E-03
    0.1891860844617549E+01   -0.8481309115566085E+00    0.1671132666116103E-03
    0.2268769163484147E+01    0.7723707211109879E-01    0.2073065485963980E-03
    0.5000000000000000E+01    0.2504942000171906E+01    0.1250000000000000E+01
    0.5000000000000000E+01    0.2504942000171906E+01    0.2500000000000000E+01
    0.5000000000000000E+01    0.2504942000171906E+01    0.3750000000000000E+01
    0.5000000000000000E+01    0.2504942000171906E+01    0.5000000000000000E+01
    0.3750000000000000E+01    0.2504942000171906E+01    0.5000000000000000E+01
    0.2500000000000000E+01    0.2504942000171906E+01    0.5000000000000000E+01
    0.1250000000000000E+01    0.2504942000171906E+01    0.5000000000000000E+01
    0.0000000000000000E+00    0.2504942000171906E+01    0.5000000000000000E+01
    0.0000000000000000E+00    0.2504942000171906E+01    0.3750000000000000E+01
    0.0000000000000000E+00    0.2504942000171906E+01    0.2500000000000000E+01
    0.0000000000000000E+00    0.2504942000171906E+01    0.1250000000000000E+01
    0.9588956142286825E+00    0.2504942000171906E+01    0.9696527184522824E+00
    0.3981953084623890E+01    0.2504942000171906E+01    0.4070563875089707E+01
    0.4036122199207728E+01    0.2504942000171906E+01    0.1017567661529594E+01
    0.9637572707600296E+00    0.2504942000171906E+01    0.3973598227537261E+01
    0.1546540123921061E+01    0.2504942000171906E+01    0.2931570243335598E+01
    0.6973799373881959E+00    0.2504942000171906E+01    0.3070319996270703E+01
    0.8903741877746778E+00    0.2504942000171906E+01    0.2056562326763548E+01
    0.2183041992615617E+01    0.2504942000171906E+01    0.3960694486840392E+01
    0.3855844883322608E+01    0.2504942000171906E+01    0.2933250640138026E+01
    0.3152611371781287E+01    0.2504942000171906E+01    0.3637668432349712E+01
    0.3103307387875516E+01    0.2504942000171906E+01    0.4332607835250691E+01
    0.3266711050636389E+01    0.2504942000171906E+01    0.1889656725478526E+01
    0.4232537571065292E+01    0.2504942000171906E+01    0.1918627035359317E+01
    0.1905522344833521E+01    0.2504942000171906E+01    0.7226292549541118E+00
    0.2879767720682043E+01    0.2504942000171906E+01    0.9080947429823831E+00
    0.2012711351939792E+01    0.2504942000171906E+01    0.1767082519851097E+01
    0.2669681472798754E+01    0.2504942000171906E+01    0.2853394412683602E+01
    0.5000000000000000E+01    0.1250000000000000E+01    0.5000000000000000E+01
    0.5000000000000000E+01    0.0000000000000000E+00    0.5000000000000000E+01
    0.5000000000000000E+01   -0.1250000000000000E+01    0.5000000000000000E+01
    0.5000000000000000E+01   -0.2496589020965795E+01    0.5000000000000000E+01
    0.5000000000000000E+01   -0.2496589020965795E+01    0.3750000000000000E+01
    0.5000000000000000E+01   -0.2496589020965795E+01    0.2500000000000000E+01
    0.5000000000000000E+01   -0.2496589020965795E+01    0.1250000000000000E+01
    0.5000000000000000E+01    0.1578994732800803E+01    0.9058375365086910E+00
    0.5000000000000000E+01   -0.1583989954232354E+01    0.3982050490726493E+01
    0.5000000000000000E+01    0.1453322699199022E+01    0.4033849428301197E+01
    0.5000000000000000E+01   -0.1479596339503735E+01    0.1040505887381675E+01
    0.5000000000000000E+01   -0.3227322616384110E+00    0.1099454400140349E+01
    0.5000000000000000E+01    0.6593508822075582E+00    0.7354504170366591E+00
    0.5000000000000000E+01    0.8256214013940779E+00    0.1622302608453282E+01
    0.5000000000000000E+01   -0.1650070333782557E+01    0.2145871574390382E+01
    0.5000000000000000E+01   -0.4612828702537229E+00    0.4086422318222992E+01
    0.5000000000000000E+01   -0.8579242121530853E+00    0.2979540174134984E+01
    0.5000000000000000E+01   -0.1836846154397680E+01    0.3045064261640043E+01
    0.5000000000000000E+01    0.3508002863614053E+00    0.3428197553792836E+01
    0.5000000000000000E+01    0.5185680230613409E+00    0.4309693860063405E+01
    0.5000000000000000E+01    0.1738996113203182E+01    0.1827272193562204E+01
    0.5000000000000000E+01    0.1325493893339706E+01    0.2808563282768077E+01
    0.5000000000000000E+01   -0.8731419609589618E+00    0.1895995683864404E+01
    0.5000000000000000E+01    0.4906150219227333E-01    0.2273179336307740E+01
    0.0000000000000000E+00    0.1250000000000000E+01    0.5000000000000000E+01
    0.0000000000000000E+00    0.0000000000000000E+00    0.5000000000000000E+01
    0.0000000000000000E+00   -0.1250000000000000E+01    0.5000000000000000E+01
    0.0000000000000000E+00   -0.2496589020965795E+01    0.5000000000000000E+01
    0.1250000000000000E+01   -0.2496589020965795E+01    0.5000000000000000E+01
    0.2500000000000000E+01   -0.2496589020965795E+01    0.5000000000000000E+01
    0.3750000000000000E+01   -0.2496589020965795E+01    0.5000000000000000E+01
    0.4042003247744892E+01    0.1558308132739014E+01    0.5000000000000000E+01
    0.9304122287900499E+00   -0.1548001304379777E+01    0.5000000000000000E+01
    0.1037243024609388E+01    0.1462892710085612E+01    0.5000000000000000E+01
    0.3946240828834967E+01   -0.1445243809615570E+01    0.5000000000000000E+01
    0.4092527262848217E+01   -0.3455338993778935E+00    0.5000000000000000E+01
    0.4293103109154542E+01    0.6277660831404320E+00    0.5000000000000000E+01
    0.3241512314643519E+01    0.7429886854239611E+00    0.5000000000000000E+01
    0.2844289952419609E+01   -0.1588117879734118E+01    0.5000000000000000E+01
    0.7159905765450471E+00   -0.6002320124191652E+00    0.5000000000000000E+01
    0.1754341919796891E+01   -0.7398147869923652E+00    0.5000000000000000E+01
    0.1870296826774691E+01   -0.1788622905643739E+01    0.5000000000000000E+01
    0.9220614901912976E+00    0.3083720183248586E+00    0.5000000000000000E+01
    0.3101523624086016E+01    0.1777901774806180E+01    0.5000000000000000E+01
    0.2192512063922564E+01    0.1576861561598471E+01    0.5000000000000000E+01
    0.2024793420196460E+01    0.4773861992750707E+00    0.5000000000000000E+01
    0.2990627757741975E+01   -0.4878110785814084E+00    0.5000000000000000E+01
    0.0000000000000000E+00   -0.2496589020965795E+01    0.1250000000000000E+01
    0.0000000000000000E+00   -0.2496589020965795E+01    0.2500000000000000E+01
    0.0000000000000000E+00   -0.2496589020965795E+01    0.3750000000000000E+01
    0.0000000000000000E+00    0.1558308132739014E+01    0.4042003247744892E+01
    0.0000000000000000E+00   -0.1548001304379777E+01    0.9304122287900499E+00
    0.0000000000000000E+00    0.1462892710085612E+01    0.1037243024609388E+01
    0.0000000000000000E+00   -0.1445243809615570E+01    0.3946240828834967E+01
    0.0000000000000000E+00   -0.3455338993778935E+00    0.4092527262848217E+01
    0.0000000000000000E+00    0.6277660831404320E+00    0.4293103109154542E+01
    0.0000000000000000E+00    0.7429886854239611E+00    0.3241512314643519E+01
    0.0000000000000000E+00   -0.1588117879734118E+01    0.2844289952419609E+01
    0.0000000000000000E+00   -0.6002320124191652E+00    0.7159905765450471E+00
    0.0000000000000000E+00   -0.7398147869923652E+00    0.1754341919796891E+01
    0.0000000000000000E+00   -0.1788622905643739E+01    0.1870296826774691E+01
    0.0000000000000000E+00    0.3083720183248586E+00    0.9220614901912976E+00
    0.0000000000000000E+00    0.1777901774806180E+01    0.3101523624086016E+01
    0.0000000000000000E+00    0.1576861561598471E+01    0.2192512063922564E+01
[...]
POINT_DATA 213
SCALARS rho double 1
LOOKUP_TABLE default
   0.1219134920867273E+01
   0.9226312523540531E+00
   0.9116396156280270E+00
   0.8987492126242589E+00
   0.7826843331187645E+00
   0.7115151148399423E+00
   0.6993367588652746E+00
   0.7025685971452100E+00
   0.7698478397701072E+00
   0.8909692454100775E+00
   0.8997152017011217E+00
   0.9248288752600332E+00
   0.1299009623958295E+01
   0.1346724408277751E+01
   0.1454803157913521E+01
   0.1286358232145743E+01
   0.9622137901560126E+00
   0.9060821669258758E+00
   0.8988974753759948E+00
   0.9247524080683420E+00
   0.9119619392463003E+00
   0.9859426747425802E+00
   0.8978217828979779E+00
   0.9010683642297341E+00
   0.9082039643719043E+00
   0.9128222620338915E+00
   0.8953906172591792E+00
   0.9139640644701145E+00
   0.8913497036226357E+00
   0.9027236943481955E+00
   0.9077965770504984E+00
   0.8627637047038398E+00
   0.9090651425913919E+00
   0.9515339546784516E+00
   0.1008378931199148E+01
   0.1006991214274441E+01
   0.1000859735534211E+01
   0.1000881527218093E+01
   0.1001121632993665E+01
   0.1002604565742121E+01
   0.1001542274218499E+01
   0.1004882858611932E+01
   0.1016498766861042E+01
   0.1057793160120257E+01
   0.1005274558669403E+01
   0.1000275436527897E+01
   0.9474506158660664E+00
   0.1001989467696160E+01
   0.9982056696945878E+00
   0.1004412965726378E+01
   0.1005165986675056E+01
   0.9992161851877107E+00
   0.9979181345503634E+00
   0.9988414684611974E+00
   0.9987204611218948E+00
   0.9783701864478053E+00
   0.9801212094726277E+00
   0.9643528792988776E+00
   0.9616535084698828E+00
   0.9870093091537333E+00
   0.9923578936298080E+00
   0.1001369004690328E+01
   0.1001669813044277E+01
   0.1001920198804191E+01
   0.1000933780077577E+01
   0.1009976181374074E+01
   0.1006363574688204E+01
   0.9450220760320389E+00
   0.9042794941244817E+00
   0.1007719832331319E+01
   0.1004537624585157E+01
   0.8972253854779554E+00
   0.8933928004303147E+00
   0.8481313423844516E+00
   0.9703678460111719E+00
   0.9992949872310759E+00
   0.1006483630791764E+01
   0.1014462639981376E+01
   0.1012405255248020E+01
   0.1012213893917658E+01
   0.1005510426935016E+01
   0.9863406143998463E+00
   0.1006136256120497E+01
   0.9841388151900828E+00
   0.1006146184524438E+01
   0.1001765705893137E+01
   0.1000916173769184E+01
   0.1001281965187536E+01
   0.1001832730284604E+01
   0.1002412538612398E+01
   0.1000011273343980E+01
   0.1000323618756440E+01
   0.1000335719881954E+01
   0.1001811519577823E+01
   0.1002009694839623E+01
   0.9989499587287127E+00
   0.1000213826157059E+01
   0.1000839078773137E+01
   0.1000241466615963E+01
   0.1000177634512444E+01
   0.1001023652306968E+01
   0.1001412633633621E+01
   0.1001113320970860E+01
   0.1001501325092327E+01
   0.1001065387775883E+01
   0.1001376440144718E+01
   0.1001007821674343E+01
   0.1000371591548474E+01
   0.1060654187706310E+01
   0.1020334042144498E+01
   0.1005949539642926E+01
   0.1003370605952605E+01
   0.1141352135749831E+01
   0.1083288189093804E+01
   0.1004327010472132E+01
   0.1003795936494824E+01
   0.1003700945792768E+01
   0.1006590995600369E+01
   0.1012100237941508E+01
   0.1192715398657815E+01
   0.1028282735649169E+01
   0.1034491688619169E+01
   0.1168862395838452E+01
   0.1009804046891899E+01
   0.1023219847405151E+01
   0.1017195621186409E+01
   0.1007878792819814E+01
   0.1013793278815247E+01
   0.1000312290855619E+01
   0.9455922454694875E+00
   0.1003343975743873E+01
   0.9990196685541046E+00
   0.1006137419903983E+01
   0.1009057638100251E+01
   0.9979427690503372E+00
   0.9976047403360491E+00
   0.9960978894671978E+00
   0.9983742521026036E+00
   0.9808759915847250E+00
   0.9778629910052099E+00
   0.9482505671058481E+00
   0.9510710096708304E+00
   0.9878715632312260E+00
   0.9902138755804500E+00
   0.9926387747050777E+00
   0.9998963786929932E+00
   0.9986989238290407E+00
   0.9946794443463602E+00
   0.1006737370115347E+01
   0.1020945231935513E+01
   0.9978093352419790E+00
   0.1004741216089932E+01
   0.1001357230474453E+01
   0.1004761745297804E+01
   0.9953203353674971E+00
   0.9852698083026082E+00
   0.1000275803049333E+01
   0.9939687159533591E+00
   0.9818672627217250E+00
   0.9942176230522888E+00
   0.9968739464692741E+00
   0.9929881481654667E+00
   0.9986783408530697E+00
   0.1000045540556814E+01
   0.9997576307988211E+00
   0.9953547340449864E+00
   0.9934389289943362E+00
   0.1001359617707901E+01
   0.1018100785717842E+01
   0.1002754578510849E+01
   0.9807210388787024E+00
   0.1001888914923980E+01
   0.1008094267281345E+01
   0.9703589185501403E+00
   0.9431718447527317E+00
   0.9845790876460387E+00
   0.9845638546618408E+00
   0.9759374230461171E+00
   0.9907790627590354E+00
   0.9774206227158631E+00
   0.1033863223611927E+01
   0.1021195906963483E+01
   0.1000258919590761E+01
   0.9991303878127081E+00
   0.9911077385810051E+00
   0.9906907915882243E+00
   0.9575596536972204E+00
   0.9924940128082372E+00
   0.1006125480250247E+01
   0.1001960351400116E+01
   0.9898356522373372E+00
   0.9657115820739359E+00
   0.9211010454078526E+00
   0.9725773771767485E+00
   0.9782275456023095E+00
   0.9569318865479848E+00
   0.9618598491593855E+00
   0.9492265240713009E+00
   0.9374998330284080E+00
   0.9320220953083422E+00
   0.9993340635252028E+00
   0.9994472271197850E+00
   0.9988478933265543E+00
   0.1001937649841740E+01
   0.9401051882201180E+00
   0.9260632787808361E+00
   0.9376793495255465E+00
   0.9982719444513427E+00
   0.9982367992360474E+00
   0.1000511624682766E+01
   0.9796497997543963E+00
   0.9712995163471736E+00
   0.9459754309963734E+00
SCALARS u double 1
LOOKUP_TABLE default
   0.0000000000000000E+00
   0.0000000000000000E+00
   0.0000000000000000E+00
   0.0000000000000000E+00
   0.0000000000000000E+00
   0.0000000000000000E+00
   0.0000000000000000E+00
   0.0000000000000000E+00
   0.0000000000000000E+00
   0.0000000000000000E+00
   0.0000000000000000E+00
   0.0000000000000000E+00
   0.0000000000000000E+00
   0.0000000000000000E+00
   0.0000000000000000E+00
   0.0000000000000000E+00
   0.0000000000000000E+00
   0.0000000000000000E+00
   0.0000000000000000E+00
   0.0000000000000000E+00
   0.0000000000000000E+00
   0.0000000000000000E+00
   0.0000000000000000E+00
   0.0000000000000000E+00
   0.0000000000000000E+00
   0.0000000000000000E+00
   0.0000000000000000E+00
   0.0000000000000000E+00
   0.0000000000000000E+00
   0.0000000000000000E+00
   0.0000000000000000E+00
   0.0000000000000000E+00
   0.0000000000000000E+00
   0.5056034637991220E+00
   0.5281603622193658E+00
   0.5144121046293116E+00
   0.4943174873078910E+00
   0.4882355244425152E+00
   0.4892449333775454E+00
   0.4916754657057654E+00
   0.4984296437427644E+00
   0.4933348275732112E+00
   0.4791756270794973E+00
   0.4525324155951091E+00
   0.4746524315609157E+00
   0.5096977479857404E+00
   0.4534675007361929E+00
   0.4980287810387586E+00
   0.5238745328886180E+00
   0.4996133630203467E+00
   0.5241459332829355E+00
   0.5063094127933359E+00
   0.5614683179754167E+00
   0.5255962722970244E+00
   0.5011897597928956E+00
   0.5716316978691216E+00
   0.5700249539240603E+00
   0.3694964640450775E+00
   0.4046241810443789E+00
   0.5549278775971566E+00
   0.5551716194372622E+00
   0.4951187835221368E+00
   0.4954795806386398E+00
   0.4935453513065757E+00
   0.4926695672905900E+00
   0.5127169516603443E+00
   0.5312471975220832E+00
   0.5064752881483924E+00
   0.4711093868376599E+00
   0.5093698588732728E+00
   0.5083278640312511E+00
   0.4965809140049717E+00
   0.5104332617287766E+00
   0.4872306011664221E+00
   0.5300676981371998E+00
   0.5273106570081142E+00
   0.5090839400149447E+00
   0.5260817084896037E+00
   0.5251039252117730E+00
   0.5237648041309314E+00
   0.5036429016196231E+00
   0.5284152966574693E+00
   0.5340772119861061E+00
   0.5374452812520950E+00
   0.5320550202741858E+00
   0.4993746487388493E+00
   0.4999784291742859E+00
   0.4987790650215781E+00
   0.4979272257017256E+00
   0.4931077375237199E+00
   0.4930543067666111E+00
   0.4891311995244430E+00
   0.4898846965125924E+00
   0.4957716116300432E+00
   0.4936868348032364E+00
   0.4880645836501637E+00
   0.4911080126034419E+00
   0.4916591725516930E+00
   0.4911269394124643E+00
   0.4915634406374437E+00
   0.4978749077805965E+00
   0.4929589029288871E+00
   0.4932942987689858E+00
   0.4968042606393928E+00
   0.4896371810946478E+00
   0.4922077759251223E+00
   0.4917264334082294E+00
   0.4912638915379125E+00
   0.4518178104448764E+00
   0.4774599107401573E+00
   0.4928758221895765E+00
   0.4919280726393060E+00
   0.4651141019900117E+00
   0.4721747643820896E+00
   0.4914610444322298E+00
   0.4907490505181297E+00
   0.4941411309345068E+00
   0.4856001277590249E+00
   0.4738951850867297E+00
   0.4021418832981625E+00
   0.4922249443164783E+00
   0.4592947656848439E+00
   0.4600238209547165E+00
   0.4894474615774312E+00
   0.4711663725371966E+00
   0.4746326167019748E+00
   0.4817467500880619E+00
   0.4809697495481519E+00
   0.5088551856488719E+00
   0.4462603710692911E+00
   0.4962879649572876E+00
   0.5325970891435889E+00
   0.4954415693182470E+00
   0.5220039432734103E+00
   0.5091000266813346E+00
   0.5649651983997691E+00
   0.5280932524471962E+00
   0.5039018966247374E+00
   0.5819107641699872E+00
   0.5710430091924373E+00
   0.3419401052404886E+00
   0.3865105489105192E+00
   0.5704936029190867E+00
   0.5644758604650348E+00
   0.5680361885215941E+00
   0.5294468621748787E+00
   0.5447827697584698E+00
   0.5697494762977128E+00
   0.5403840201002297E+00
   0.5487309958585921E+00
   0.5787004185891316E+00
   0.4958862476565562E+00
   0.5066926941888084E+00
   0.4997858461274206E+00
   0.5529603070652261E+00
   0.4599377162091108E+00
   0.4984308371429007E+00
   0.5487202240808152E+00
   0.5873630705286892E+00
   0.5807114069484430E+00
   0.5451140509644240E+00
   0.5754320749778474E+00
   0.5124449737346360E+00
   0.5057320206635360E+00
   0.5050542933942184E+00
   0.5629555705728209E+00
   0.5551472449251283E+00
   0.4981544264749147E+00
   0.5484843140777252E+00
   0.5484566639348907E+00
   0.5637690288823335E+00
   0.4954128612905653E+00
   0.4963032326346615E+00
   0.3930094150523775E+00
   0.3747087585153897E+00
   0.5576785577326530E+00
   0.5730783134647547E+00
   0.4176961673572873E+00
   0.5803244249677560E+00
   0.4200528921040041E+00
   0.5390540152843316E+00
   0.4999189330167584E+00
   0.5110582284659996E+00
   0.5070765037116485E+00
   0.5706478929512400E+00
   0.5839053391750499E+00
   0.5446005519439536E+00
   0.5636681536400324E+00
   0.5322659030765572E+00
   0.5311660685583850E+00
   0.5557827504459231E+00
   0.5546835025237826E+00
   0.4419471871910092E+00
   0.5275704875293283E+00
   0.5790616896541463E+00
   0.3423578152499768E+00
   0.4809123425314564E+00
   0.5507757044595601E+00
   0.4937090102870209E+00
   0.3129748221482871E+00
   0.5064182711505645E+00
   0.5044803432337839E+00
   0.5133334180118865E+00
   0.5375041369723973E+00
   0.3546183453001513E+00
   0.3596720218126805E+00
   0.3330917691515906E+00
   0.5089457000968763E+00
   0.5137493747041773E+00
   0.5315427792952971E+00
   0.5847271730706985E+00
   0.4639014552162963E+00
   0.3664194793163534E+00
SCALARS v double 1
LOOKUP_TABLE default
   0.0000000000000000E+00
   0.0000000000000000E+00
   0.0000000000000000E+00
   0.0000000000000000E+00
   0.0000000000000000E+00
   0.0000000000000000E+00
   0.0000000000000000E+00
   0.0000000000000000E+00
   0.0000000000000000E+00
   0.0000000000000000E+00
   0.0000000000000000E+00
   0.0000000000000000E+00
   0.0000000000000000E+00
   0.0000000000000000E+00
   0.0000000000000000E+00
   0.0000000000000000E+00
   0.0000000000000000E+00
   0.0000000000000000E+00
   0.0000000000000000E+00
   0.0000000000000000E+00
   0.0000000000000000E+00
   0.0000000000000000E+00
   0.0000000000000000E+00
   0.0000000000000000E+00
   0.0000000000000000E+00
   0.0000000000000000E+00
   0.0000000000000000E+00
   0.0000000000000000E+00
   0.0000000000000000E+00
   0.0000000000000000E+00
   0.0000000000000000E+00
   0.0000000000000000E+00
   0.0000000000000000E+00
   0.0000000000000000E+00
   0.0000000000000000E+00
   0.0000000000000000E+00
   0.0000000000000000E+00
   0.0000000000000000E+00
   0.0000000000000000E+00
   0.0000000000000000E+00
   0.0000000000000000E+00
   0.0000000000000000E+00
   0.0000000000000000E+00
   0.0000000000000000E+00
   0.0000000000000000E+00
   0.0000000000000000E+00
   0.0000000000000000E+00
   0.0000000000000000E+00
   0.0000000000000000E+00
   0.0000000000000000E+00
   0.0000000000000000E+00
   0.0000000000000000E+00
   0.0000000000000000E+00
   0.0000000000000000E+00
   0.0000000000000000E+00
   0.0000000000000000E+00
   0.0000000000000000E+00
   0.0000000000000000E+00
   0.0000000000000000E+00
   0.0000000000000000E+00
   0.0000000000000000E+00
   0.1024738399018241E-02
  -0.1894844203735844E-03
  -0.5483294711004092E-03
   0.0000000000000000E+00
   0.0000000000000000E+00
   0.0000000000000000E+00
   0.0000000000000000E+00
  -0.1794486834612306E-01
   0.4158502364745265E-03
   0.1890926724144431E-02
   0.1481592999501682E-01
  -0.5477217464795133E-02
  -0.5538229090795534E-02
  -0.1105876997404049E-01
   0.4395483332475330E-02
   0.7044804267989652E-03
   0.2941551193573346E-02
   0.1472666336179685E-02
   0.2882822767165874E-02
   0.1829301501977690E-02
  -0.6344297152559028E-02
   0.3510166686725911E-04
   0.4397058236637598E-02
   0.1108224114638037E-03
  -0.3072465073169524E-03
  -0.4030539853329301E-03
   0.6180269136877685E-03
   0.0000000000000000E+00
   0.0000000000000000E+00
   0.0000000000000000E+00
   0.0000000000000000E+00
   0.4322943598497656E-03
   0.1252314658100942E-02
  -0.1212481547007477E-02
  -0.3453877250515645E-03
  -0.9709599520434173E-03
  -0.2929111228531611E-03
  -0.1628308138910504E-03
  -0.2323386772434034E-03
  -0.2512192323797800E-03
  -0.5008153930076339E-03
   0.6710855989574535E-03
  -0.1764976501314652E-02
   0.3614644577847971E-03
   0.1419671552202380E-03
  -0.4103003444402366E-03
  -0.4439685139665673E-03
   0.0000000000000000E+00
   0.0000000000000000E+00
   0.0000000000000000E+00
  -0.1036775969589281E-02
  -0.8642704418719203E-02
   0.1491342764331632E-01
   0.1308406884664397E-03
  -0.1047482711084655E-02
  -0.1797517291572040E-02
  -0.5015783607015192E-02
  -0.1437966328480150E-02
  -0.4115790071022802E-02
  -0.3029690281763326E-02
   0.2205496476424981E-02
   0.2848437179205796E-01
  -0.2230904388655591E-03
  -0.3851023783770668E-02
   0.2893015803403141E-02
   0.9891972595001811E-03
   0.0000000000000000E+00
   0.0000000000000000E+00
   0.0000000000000000E+00
   0.0000000000000000E+00
   0.0000000000000000E+00
   0.0000000000000000E+00
   0.0000000000000000E+00
   0.0000000000000000E+00
   0.0000000000000000E+00
   0.0000000000000000E+00
   0.0000000000000000E+00
   0.0000000000000000E+00
   0.0000000000000000E+00
   0.0000000000000000E+00
   0.0000000000000000E+00
   0.0000000000000000E+00
   0.0000000000000000E+00
   0.4372671802974648E-02
   0.2836362093280515E-02
   0.6896779486926915E-02
   0.5345944365903713E-02
   0.8757653076472605E-02
   0.1213541267790156E-01
  -0.1715341559308141E-03
   0.4585872689361506E-02
   0.2535912762666361E-02
   0.2549900349776090E-02
   0.3066434570922246E-02
  -0.1120752175496183E-01
  -0.5221626489892092E-03
   0.6035688292077512E-02
   0.2496084997474733E-02
   0.2507223258882581E-02
   0.3764554920837115E-02
  -0.2009997388624398E-02
   0.1219269670153278E-02
   0.2665513674949294E-02
   0.1454082322143260E-02
   0.2310570129061708E-02
   0.1654456315988307E-02
   0.1977516908663208E-02
   0.8136148529804715E-02
  -0.3285775919195644E-02
   0.5441468881255497E-02
   0.5500387494443682E-04
  -0.1302871379657468E-03
  -0.1339734883043346E-01
  -0.3509915658442587E-02
  -0.4001221364601727E-02
   0.3737935245012190E-02
  -0.4190557389609033E-02
   0.7351245289854182E-03
  -0.2694969213008344E-01
  -0.2863992842447982E-02
   0.4326085268780856E-02
   0.9009468545932570E-03
   0.2035393368130326E-02
   0.3882062451455162E-02
   0.2066021869375683E-02
   0.2999120071215199E-02
   0.4623125475507881E-02
   0.1845737018325287E-02
   0.5353806899098941E-03
  -0.2588111609498093E-03
  -0.4207565343664177E-02
  -0.4834608453435889E-02
   0.7208553617059731E-03
   0.6735886238283288E-03
  -0.2739740811728311E-03
  -0.3979897038005853E-02
  -0.1297656036321929E-02
  -0.4181014221490077E-02
  -0.7254009056381433E-02
  -0.1738906468982633E-02
   0.6405165830817219E-03
  -0.2180802253054477E-03
   0.8099099666646109E-03
  -0.1536277896094357E-02
   0.7236640497068302E-02
  -0.9845500275778626E-02
  -0.1068025018811164E-04
  -0.3764630000471241E-03
   0.2264080512793414E-02
   0.1177069826896578E-02
   0.1461275435935232E-02
  -0.3738772893600458E-02
SCALARS w double 1
LOOKUP_TABLE default
   0.0000000000000000E+00
   0.0000000000000000E+00
   0.0000000000000000E+00
   0.0000000000000000E+00
   0.0000000000000000E+00
   0.0000000000000000E+00
   0.0000000000000000E+00
   0.0000000000000000E+00
   0.0000000000000000E+00
   0.0000000000000000E+00
   0.0000000000000000E+00
   0.0000000000000000E+00
   0.0000000000000000E+00
   0.0000000000000000E+00
   0.0000000000000000E+00
   0.0000000000000000E+00
   0.0000000000000000E+00
   0.0000000000000000E+00
   0.0000000000000000E+00
   0.0000000000000000E+00
   0.0000000000000000E+00
   0.0000000000000000E+00
   0.0000000000000000E+00
   0.0000000000000000E+00
   0.0000000000000000E+00
   0.0000000000000000E+00
   0.0000000000000000E+00
   0.0000000000000000E+00
   0.0000000000000000E+00
   0.0000000000000000E+00
   0.0000000000000000E+00
   0.0000000000000000E+00
   0.0000000000000000E+00
  -0.1119684776814810E+00
  -0.4944020653146090E-01
  -0.2722927935750956E-02
   0.5010773236574983E-02
  -0.3532142106903740E-03
  -0.7478658824890190E-03
   0.2766787614325469E-03
   0.1874313869875271E-02
   0.4135238297147381E-03
   0.3631428338528188E-02
   0.3915418140554815E-01
   0.5302048948279581E-01
  -0.6369508041120022E-03
  -0.2789038576399124E-01
   0.1800162222792477E-02
   0.1012347265806982E-01
   0.7794086647807169E-02
   0.4347726849967912E-01
  -0.9883728380070339E-03
  -0.9893843898156835E-02
  -0.3407147193637621E-02
  -0.1931017601058622E-02
  -0.4999091701619590E-04
  -0.4492596775041465E-01
   0.1603377928032771E-01
   0.1188433594280727E-01
   0.2883053337903147E-01
   0.4661585307735110E-02
   0.4127272625178931E-02
   0.4482801004663559E-02
   0.4470459856731176E-02
   0.5891451756004787E-02
  -0.4992344113213704E-03
  -0.4763056503191539E-01
  -0.1101039260917531E+00
  -0.1256160340636871E+00
   0.2475356269216815E-02
   0.8924770086883567E-03
  -0.1122945970964006E+00
  -0.1108808947053258E+00
  -0.1107808811020980E+00
  -0.1053234815774611E+00
  -0.7619002190659878E-01
   0.2361358601208251E-02
  -0.2487077270397378E-01
  -0.2066423519968304E-01
  -0.1113684917480271E-01
   0.4208873196554719E-02
  -0.8953766825158127E-01
  -0.3439756671026972E-01
  -0.8998514560877262E-01
  -0.6744686221698620E-01
   0.2359626082117065E-02
   0.1776831006851938E-02
   0.1682657801043351E-02
   0.2513967740182327E-02
   0.6575936551726830E-03
  -0.1370912747946563E-02
  -0.1316665381165208E-02
   0.1224091401143668E-02
   0.2027876794812690E-02
   0.9864719130555837E-03
   0.9674049883571166E-03
   0.1043133752816624E-02
   0.8688235060944642E-03
  -0.1127005843494839E-02
  -0.2101562610355116E-02
   0.2201052729139914E-02
  -0.5882603439452615E-03
  -0.7886831466347381E-03
   0.2262304952489977E-02
  -0.1079606906258307E-02
  -0.6048115720191130E-03
  -0.4757669448797291E-03
  -0.1618052737925057E-02
   0.6928362279865564E-01
   0.2333028199378451E-02
  -0.1085779946669747E-02
  -0.8316749438458656E-03
   0.1153153888909613E+00
   0.1030931135978210E+00
  -0.1798526122910522E-02
  -0.4519445233811781E-02
  -0.7730788535269501E-03
  -0.6734520556799268E-02
  -0.2020224037704093E-02
   0.1271901600839191E+00
   0.6393829113425431E-01
   0.2261635836799603E-01
   0.1351358185603427E+00