title="tecplot geometry and solution file"
variables = x y z rho u v w p mach temperature
zone t="boundary 1 bc-1", solutiontime= 0.4000000E+02, strandid=1001, i=32, j=46, f=feblock
 -0.547468543987E-02  0.000000000000E+00 -0.567606031024E-02  0.000000000000E+00  0.000000000000E+00  0.000000000000E+00 -0.525159244635E-02
 -0.425776897796E-02  0.000000000000E+00  0.000000000000E+00  0.000000000000E+00  0.000000000000E+00  0.000000000000E+00  0.000000000000E+00
  0.000000000000E+00  0.000000000000E+00 -0.338395986423E-02  0.000000000000E+00  0.000000000000E+00  0.000000000000E+00  0.000000000000E+00
  0.000000000000E+00  0.000000000000E+00  0.000000000000E+00  0.000000000000E+00  0.000000000000E+00  0.000000000000E+00  0.000000000000E+00
  0.000000000000E+00  0.000000000000E+00  0.000000000000E+00  0.000000000000E+00
  0.250494197116E+01  0.250494197116E+01  0.127822156905E+01  0.146289271009E+01  0.157686156160E+01  0.308372018325E+00  0.261948602315E-01
 -0.122573481165E+01 -0.600232012419E+00  0.250494197116E+01  0.477386199275E+00  0.742988685424E+00 -0.739814786992E+00  0.177790177481E+01
  0.155830813274E+01  0.250494197116E+01 -0.249658903664E+01 -0.154800130438E+01 -0.487811078581E+00  0.250494197116E+01  0.627766083140E+00
 -0.345533899378E+00 -0.178862290564E+01 -0.158811787973E+01  0.125000000000E+01 -0.249658903664E+01 -0.144524380962E+01  0.000000000000E+00
 -0.125000000000E+01 -0.249658903664E+01 -0.249658903664E+01 -0.249658903664E+01
  0.803813995958E-04  0.125000000000E+01  0.822460266042E-04  0.103724302461E+01  0.219251206392E+01  0.922061490191E+00  0.103872444351E-03
  0.341545892404E-04  0.715990576545E+00  0.250000000000E+01  0.202479342020E+01  0.324151231464E+01  0.175434191980E+01  0.310152362409E+01
  0.404200324774E+01  0.375000000000E+01  0.810725942332E-04  0.930412228790E+00  0.299062775774E+01  0.500000000000E+01  0.429310310915E+01
  0.409252726285E+01  0.187029682677E+01  0.284428995242E+01  0.500000000000E+01  0.125000000000E+01  0.394624082883E+01  0.500000000000E+01
  0.500000000000E+01  0.250000000000E+01  0.375000000000E+01  0.500000000000E+01
  0.134610832171E+01  0.106375545810E+01  0.142661175261E+01  0.108602668300E+01  0.103229749538E+01  0.120170182470E+01  0.164672969531E+01
  0.149542069194E+01  0.123512317310E+01  0.102386944036E+01  0.102822218010E+01  0.101305388207E+01  0.103253556570E+01  0.101467213595E+01
  0.100662698696E+01  0.100826832677E+01  0.144847545784E+01  0.116396754153E+01  0.101464051695E+01  0.100424996067E+01  0.100679645778E+01
  0.100725182634E+01  0.104656547682E+01  0.101934078683E+01  0.100423992184E+01  0.106448526694E+01  0.100790708442E+01  0.100288597397E+01
  0.100335006441E+01  0.102844205837E+01  0.100960587208E+01  0.100399795110E+01
  0.000000000000E+00  0.444887286499E+00  0.000000000000E+00  0.468180338025E+00  0.462186787557E+00  0.443238673222E+00  0.000000000000E+00
  0.000000000000E+00  0.379439108951E+00  0.471807259059E+00  0.466360673888E+00  0.479394557846E+00  0.490363729560E+00  0.484571642816E+00
  0.488597452556E+00  0.489900751164E+00  0.000000000000E+00  0.451029480327E+00  0.474778710245E+00  0.495800888904E+00  0.490926828741E+00
  0.486826270867E+00  0.448796920183E+00  0.465790689783E+00  0.496535899153E+00  0.444910653618E+00  0.487666682078E+00  0.497536481693E+00
  0.496381515578E+00  0.470013292259E+00  0.489177494275E+00  0.495515503812E+00
  0.000000000000E+00  0.000000000000E+00  0.000000000000E+00  0.182111793776E-01 -0.276667322849E-02  0.330008520489E-01  0.000000000000E+00
  0.000000000000E+00 -0.635883642646E-02  0.000000000000E+00  0.362941178710E-02 -0.561333103374E-02 -0.432753189079E-02  0.439715799977E-04
 -0.103548087836E-02  0.000000000000E+00  0.000000000000E+00 -0.779174685356E-02  0.391748495901E-03  0.000000000000E+00 -0.202832108693E-02
 -0.137700176521E-02  0.151652573530E-02 -0.162048234946E-02 -0.665417041126E-04  0.000000000000E+00 -0.290733451575E-04 -0.202434763160E-03
  0.805362925967E-03  0.000000000000E+00  0.000000000000E+00  0.000000000000E+00
  0.000000000000E+00  0.453283728405E-01  0.000000000000E+00  0.123658721390E+00  0.245692504438E-01  0.166125821888E+00  0.000000000000E+00
  0.000000000000E+00  0.155960000840E+00  0.352702540037E-02  0.259078638885E-01 -0.647805297516E-02  0.752820965548E-01  0.371569941094E-02
 -0.127527282573E-03  0.471449392245E-03  0.000000000000E+00  0.141096927973E+00 -0.806996234550E-02  0.236433159144E-02 -0.280381817285E-03
 -0.438302999900E-02  0.256769957065E-01 -0.189363998685E-02  0.307401247909E-02  0.838611996597E-01 -0.122860307370E-02  0.268490283334E-02
  0.264424873461E-02  0.283393202025E-02 -0.846591580335E-03  0.345684381798E-02
  0.961496617329E+00  0.782491125917E+00  0.101899898123E+01  0.808635917006E+00  0.746113329391E+00  0.879959780445E+00  0.117622540463E+01
  0.106814927407E+01  0.916484222064E+00  0.737375269602E+00  0.743650978737E+00  0.725792792056E+00  0.757479364854E+00  0.729144501933E+00
  0.720777568288E+00  0.722747149648E+00  0.103461779884E+01  0.858092896556E+00  0.728072572089E+00  0.718602762711E+00  0.721012356852E+00
  0.721154300929E+00  0.759934138578E+00  0.732618491465E+00  0.718521956111E+00  0.790948761033E+00  0.722118114936E+00  0.717197483544E+00
  0.717641998769E+00  0.741773495680E+00  0.724071787026E+00  0.718406376188E+00
  0.000000000000E+00  0.440666218215E+00  0.000000000000E+00  0.474617249202E+00  0.460123128927E+00  0.468636776150E+00  0.000000000000E+00
  0.000000000000E+00  0.402549873657E+00  0.469884091570E+00  0.464193486117E+00  0.478749618748E+00  0.489549461093E+00  0.483128671353E+00
  0.488002249697E+00  0.489034115706E+00  0.000000000000E+00  0.465240579880E+00  0.473760510461E+00  0.495364285274E+00  0.490293360186E+00
  0.486277594141E+00  0.445854524605E+00  0.464358891459E+00  0.496127934794E+00  0.443900324064E+00  0.486930048060E+00  0.497248718466E+00
  0.496055917073E+00  0.467744053797E+00  0.488189260929E+00  0.495091102556E+00
  0.999990299850E+00  0.102983027531E+01  0.999990762110E+00  0.104241479655E+01  0.101187755063E+01  0.102516586670E+01  0.999991420068E+00
  0.999992170607E+00  0.103882587489E+01  0.100825880406E+01  0.101253541343E+01  0.100301664784E+01  0.102705528606E+01  0.100604152469E+01
  0.100244540299E+01  0.100354834387E+01  0.999992723747E+00  0.103209927452E+01  0.100459382796E+01  0.100178631535E+01  0.100260314962E+01
  0.100234717366E+01  0.101657069488E+01  0.100620508990E+01  0.100168367806E+01  0.104024761999E+01  0.100303428415E+01  0.100118707712E+01
  0.100134423060E+01  0.100976315145E+01  0.100405567149E+01  0.100176392348E+01
        12        19        11        11
        11         5        12        12
        10        14         5         5
        19        13        11        11
        19        24        13        13
        30        23        24        24
        19        12        22        22
        28        22        21        21
        11        13         6         6
         7         6         9         9
        15        12        14        14
        18        13        23        23
        15        25        21        21
        27        19        22        22
        18         8         9         9
        27        31        24        24
         4        11         6         6
         5        14        12        12
         4         2         5         5
        21        12        15        15
        14        16        15        15
        24        19        27        27
        22        29        27        27
        23        26        18        18
        17         8        18        18
         5        11         4         4
         6         3         4         4
        26        23        30        30
         5         2        10        10
        16        14        10        10
         3         6         7         7
        21        25        28        28
        29        22        28        28
         6        13         9         9
         2         4         1         1
        31        27        32        32
        25        15        20        20
        24        23        13        13
         8         7         9         9
        13        18         9         9
        31        30        24        24
        12        21        22        22
        29        32        27        27
         3         1         4         4
        26        17        18        18
        16        20        15        15
zone t="boundary 2 bc-2", solutiontime= 0.4000000E+02, strandid=1002, i=33, j=48, f=feblock
  0.500195253374E+01  0.375034811161E+01  0.249861146300E+01  0.288036674177E+01  0.124717526933E+01  0.190856698521E+01  0.326577190273E+01
  0.201394856120E+01 -0.338395986423E-02  0.962374249381E+00  0.500000000000E+01  0.403430190009E+01  0.423029563807E+01  0.500000000000E+01
  0.385439188940E+01  0.500000000000E+01  0.398133433177E+01  0.315200081417E+01  0.266958028869E+01  0.154798029824E+01  0.218327860466E+01
  0.893688440337E+00  0.000000000000E+00  0.699009761767E+00  0.964460899052E+00  0.310303671659E+01  0.000000000000E+00  0.000000000000E+00
  0.125000000000E+01  0.500000000000E+01  0.375000000000E+01  0.250000000000E+01  0.000000000000E+00
 -0.249658903664E+01 -0.249658903664E+01 -0.249658903664E+01 -0.249658903664E+01 -0.249658903664E+01 -0.249658903664E+01 -0.249658903664E+01
 -0.249658903664E+01 -0.249658903664E+01 -0.249658903664E+01 -0.249658903664E+01 -0.249658903664E+01 -0.249658903664E+01 -0.249658903664E+01
 -0.249658903664E+01 -0.249658903664E+01 -0.249658903664E+01 -0.249658903664E+01 -0.249658903664E+01 -0.249658903664E+01 -0.249658903664E+01
 -0.249658903664E+01 -0.249658903664E+01 -0.249658903664E+01 -0.249658903664E+01 -0.249658903664E+01 -0.249658903664E+01 -0.249658903664E+01
 -0.249658903664E+01 -0.249658903664E+01 -0.249658903664E+01 -0.249658903664E+01 -0.249658903664E+01
  0.108225888555E-03  0.145875368860E-03  0.100893325300E-03  0.901663374397E+00  0.110858760391E-03  0.714928318829E+00  0.188140648011E+01
  0.175892165504E+01  0.810725942332E-04  0.957504300332E+00  0.125000000000E+01  0.100596698996E+01  0.191313519090E+01  0.250000000000E+01
  0.292898096716E+01  0.375000000000E+01  0.406883369524E+01  0.363389289944E+01  0.284756860985E+01  0.292582308120E+01  0.395754054931E+01
  0.205027256979E+01  0.125000000000E+01  0.306703272692E+01  0.397155766662E+01  0.433068622168E+01  0.250000000000E+01  0.375000000000E+01
  0.500000000000E+01  0.500000000000E+01  0.500000000000E+01  0.500000000000E+01  0.500000000000E+01
  0.831048953166E+00  0.935354829454E+00  0.934389726674E+00  0.968094446340E+00  0.961616790748E+00  0.964874058208E+00  0.984210083709E+00
  0.991408428449E+00  0.144847545784E+01  0.102898692475E+01  0.956112582391E+00  0.960814812608E+00  0.981522848554E+00  0.100650793585E+01
  0.997935775683E+00  0.100981613845E+01  0.100200369978E+01  0.998069032396E+00  0.991091310332E+00  0.100132489837E+01  0.100093956245E+01
  0.101223133484E+01  0.106448526694E+01  0.101079825619E+01  0.100685806735E+01  0.100119202562E+01  0.102844205837E+01  0.100960587208E+01
  0.100511534026E+01  0.100179357019E+01  0.100266908195E+01  0.100322320941E+01  0.100399795110E+01
  0.000000000000E+00  0.000000000000E+00  0.000000000000E+00  0.378615141691E+00  0.000000000000E+00  0.340330039204E+00  0.582178245015E+00
  0.575334650286E+00  0.000000000000E+00  0.489381113199E+00  0.495137382124E+00  0.430537266530E+00  0.569176908895E+00  0.536367083204E+00
  0.569065094219E+00  0.516259724832E+00  0.508563991853E+00  0.527499088423E+00  0.566854333941E+00  0.532032737621E+00  0.506130952829E+00
  0.520947366506E+00  0.444910653618E+00  0.491385550005E+00  0.492729807782E+00  0.501502456236E+00  0.470013292259E+00  0.489177494275E+00
  0.490417226419E+00  0.491396789643E+00  0.486161128499E+00  0.490250013605E+00  0.495515503812E+00
  0.000000000000E+00  0.000000000000E+00  0.000000000000E+00  0.000000000000E+00  0.000000000000E+00  0.000000000000E+00  0.000000000000E+00
  0.000000000000E+00  0.000000000000E+00  0.000000000000E+00  0.000000000000E+00  0.000000000000E+00  0.000000000000E+00  0.000000000000E+00
  0.000000000000E+00  0.000000000000E+00  0.000000000000E+00  0.000000000000E+00  0.000000000000E+00  0.000000000000E+00  0.000000000000E+00
  0.000000000000E+00  0.000000000000E+00  0.000000000000E+00  0.000000000000E+00  0.000000000000E+00  0.000000000000E+00  0.000000000000E+00
  0.000000000000E+00  0.000000000000E+00  0.000000000000E+00  0.000000000000E+00  0.000000000000E+00
  0.000000000000E+00  0.000000000000E+00  0.000000000000E+00 -0.232905594581E-02  0.000000000000E+00  0.182353617858E-01  0.121236145759E-01
  0.453891511131E-01  0.000000000000E+00  0.867493105810E-01 -0.992592156209E-01 -0.210121367232E-01 -0.304696993996E-01 -0.412644344148E-01
 -0.132001215689E-02  0.269959901880E-02  0.637166288191E-03  0.535288793487E-03  0.151134228642E-01  0.283971486240E-01  0.565021380496E-02
  0.553958420753E-01  0.838611996597E-01  0.110560475343E-01  0.679114338847E-02 -0.740718501033E-03  0.283393202025E-02 -0.846591580335E-03
  0.399772698277E-02  0.605671923434E-02 -0.135634989195E-03  0.119911128624E-02  0.345684381798E-02
  0.593602529596E+00  0.668106377045E+00  0.667416924349E+00  0.684291428920E+00  0.686864423381E+00  0.679258572078E+00  0.695864188412E+00
  0.702291797182E+00  0.103461779884E+01  0.723389826931E+00  0.672789516481E+00  0.675870606491E+00  0.694123988016E+00  0.721038057667E+00
  0.712711433132E+00  0.724812452746E+00  0.716595363527E+00  0.713312870206E+00  0.706427911998E+00  0.717741414555E+00  0.715380852719E+00
  0.730906769246E+00  0.790948761033E+00  0.724365788815E+00  0.721017443560E+00  0.715471797185E+00  0.741773495680E+00  0.724071787026E+00
  0.719322139080E+00  0.715894727541E+00  0.716614351075E+00  0.717376644281E+00  0.718406376188E+00
  0.000000000000E+00  0.000000000000E+00  0.000000000000E+00  0.380610260410E+00  0.000000000000E+00  0.343302168254E+00  0.585285499806E+00
  0.579523876977E+00  0.000000000000E+00  0.500979747993E+00  0.508782784883E+00  0.434361574857E+00  0.572843962127E+00  0.537166662413E+00
  0.569106480647E+00  0.515013360657E+00  0.508252584757E+00  0.527349064090E+00  0.567655262632E+00  0.531857867780E+00  0.506012460837E+00
  0.521051127459E+00  0.443900324064E+00  0.490706194530E+00  0.492149791114E+00  0.501385709602E+00  0.467744053797E+00  0.488189260929E+00
  0.489961961994E+00  0.491321558933E+00  0.486017930216E+00  0.489981930554E+00  0.495091102556E+00
  0.999993488071E+00  0.999993690532E+00  0.999993543824E+00  0.989581134475E+00  0.999993138624E+00  0.985581478556E+00  0.989839344163E+00
  0.991729026949E+00  0.999992723747E+00  0.984216352363E+00  0.985140599988E+00  0.984808765092E+00  0.990067204910E+00  0.100292630071E+01
  0.999859941591E+00  0.100487345687E+01  0.100122734992E+01  0.100057008671E+01  0.997888959863E+00  0.100350843369E+01  0.100059307412E+01
  0.101090476230E+01  0.104024761999E+01  0.100327844664E+01  0.100254887329E+01  0.100046793265E+01  0.100976315145E+01  0.100405567149E+01
  0.100192580331E+01  0.100045822651E+01  0.100058943630E+01  0.100110054530E+01  0.100176392348E+01
        15         7        19        19
         8        20        19        19
        18        19        21        21
         7         4         8         8
         3         6         4         4
        19         7         8         8
        19        18        15        15
        14        13        15        15
         8        22        20        20
        27        24        22        22
        19        20        21        21
        32        26        21        21
        17        18        26        26
        17        16        15        15
        25        29        21        21
        12         7        13        13
        10         8         6         6
        25        20        24        24
         4         6         8         8
        12         2         4         4
        10        23        22        22
        26        31        17        17
        30        16        17        17
         4         7        12        12
        13        11        12        12
        21        20        25        25
        24        28        25        25
        22         8        10        10
         6         5        10        10
        31        26        32        32
         4         2         3         3
         5         6         3         3
        11        13        14        14
        22        23        27        27
        28        24        27        27
        15        13         7         7
         2        12         1         1
        29        25        33        33
        23        10         9         9
        21        26        18        18
        16        14        15        15
        18        17        15        15
        29        32        21        21
        22        24        20        20
        28        33        25        25
        11         1        12        12
        31        30        17        17
         5         9        10        10
zone t="boundary 3 bc-3", solutiontime= 0.4000000E+02, strandid=1003, i=33, j=48, f=feblock
  0.375059096891E+01  0.249769609313E+01  0.500322133174E+01  0.403612218725E+01  0.287976772364E+01  0.124541910518E+01  0.190552237404E+01
  0.500000000000E+01  0.326671104552E+01  0.423253755448E+01  0.201271136506E+01 -0.547468543987E-02  0.958895643489E+00  0.500000000000E+01
  0.266968147299E+01  0.385584487271E+01  0.890374214836E+00  0.154654013699E+01  0.000000000000E+00  0.500000000000E+01  0.315261136744E+01
  0.218304199515E+01  0.398195307895E+01  0.000000000000E+00  0.697379952124E+00  0.963757277315E+00  0.125000000000E+01  0.000000000000E+00
  0.500000000000E+01  0.310330738524E+01  0.250000000000E+01  0.375000000000E+01  0.000000000000E+00
  0.250494197116E+01  0.250494197116E+01  0.250494197116E+01  0.250494197116E+01  0.250494197116E+01  0.250494197116E+01  0.250494197116E+01
  0.250494197116E+01  0.250494197116E+01  0.250494197116E+01  0.250494197116E+01  0.250494197116E+01  0.250494197116E+01  0.250494197116E+01
  0.250494197116E+01  0.250494197116E+01  0.250494197116E+01  0.250494197116E+01  0.250494197116E+01  0.250494197116E+01  0.250494197116E+01
  0.250494197116E+01  0.250494197116E+01  0.250494197116E+01  0.250494197116E+01  0.250494197116E+01  0.250494197116E+01  0.250494197116E+01
  0.250494197116E+01  0.250494197116E+01  0.250494197116E+01  0.250494197116E+01  0.250494197116E+01
  0.135649916541E-03  0.110129831688E-03  0.966887472373E-04  0.101756752010E+01  0.908094589231E+00  0.103942520155E-03  0.722629083224E+00
  0.125000000000E+01  0.188965661747E+01  0.191862696981E+01  0.176708239099E+01  0.803813995958E-04  0.969652551961E+00  0.250000000000E+01
  0.285339433502E+01  0.293325058812E+01  0.205656223819E+01  0.293157016932E+01  0.125000000000E+01  0.375000000000E+01  0.363766838842E+01
  0.396069444983E+01  0.407056385475E+01  0.250000000000E+01  0.307031995246E+01  0.397359820314E+01  0.500000000000E+01  0.375000000000E+01
  0.500000000000E+01  0.433260781310E+01  0.500000000000E+01  0.500000000000E+01  0.500000000000E+01
  0.942172450595E+00  0.946117212449E+00  0.843607716550E+00  0.964577725289E+00  0.979032802890E+00  0.957203997798E+00  0.983413598460E+00
  0.963701610935E+00  0.982803914325E+00  0.984390015628E+00  0.990475726795E+00  0.134610832171E+01  0.101939409142E+01  0.100835624967E+01
  0.993519343546E+00  0.998019543143E+00  0.100803794762E+01  0.100074573370E+01  0.106375545810E+01  0.100671242411E+01  0.100059276875E+01
  0.100235385901E+01  0.100177792932E+01  0.102386944036E+01  0.100869654747E+01  0.100526332640E+01  0.100520805689E+01  0.100826832677E+01
  0.100195898219E+01  0.100162062949E+01  0.100412009354E+01  0.100321752582E+01  0.100424996067E+01
  0.000000000000E+00  0.000000000000E+00  0.000000000000E+00  0.440185893898E+00  0.400363877008E+00  0.000000000000E+00  0.375219232122E+00
  0.494597094129E+00  0.572920162962E+00  0.569359257704E+00  0.559939006534E+00  0.000000000000E+00  0.484436994349E+00  0.533624826351E+00
  0.556225907346E+00  0.564433684051E+00  0.522383224908E+00  0.522300364607E+00  0.444887286499E+00  0.518273984522E+00  0.524589442145E+00
  0.503816806064E+00  0.509770277577E+00  0.471807259059E+00  0.496274709160E+00  0.494958706341E+00  0.489143081411E+00  0.489900751164E+00
  0.493071554999E+00  0.499098476332E+00  0.486813310926E+00  0.484775685373E+00  0.495800888904E+00
  0.000000000000E+00  0.000000000000E+00  0.000000000000E+00  0.000000000000E+00  0.000000000000E+00  0.000000000000E+00  0.000000000000E+00
  0.000000000000E+00  0.000000000000E+00  0.000000000000E+00  0.000000000000E+00  0.000000000000E+00  0.000000000000E+00  0.000000000000E+00
  0.000000000000E+00  0.000000000000E+00  0.000000000000E+00  0.000000000000E+00  0.000000000000E+00  0.000000000000E+00  0.000000000000E+00
  0.000000000000E+00  0.000000000000E+00  0.000000000000E+00  0.000000000000E+00  0.000000000000E+00  0.000000000000E+00  0.000000000000E+00
  0.000000000000E+00  0.000000000000E+00  0.000000000000E+00  0.000000000000E+00  0.000000000000E+00
  0.000000000000E+00  0.000000000000E+00  0.000000000000E+00 -0.226594357016E-01  0.112193937183E-01  0.000000000000E+00  0.181895733556E-01
 -0.100732259791E+00  0.385288006368E-02 -0.389416672504E-01  0.339611290466E-01  0.000000000000E+00  0.656427703845E-01 -0.424641828185E-01
  0.838411059240E-02 -0.653602485356E-02  0.487155295568E-01  0.134268360898E-01  0.453283728405E-01  0.711321357946E-03 -0.736109922618E-03
  0.238397738341E-02  0.837588293227E-03  0.352702540037E-02  0.103006242730E-01  0.427267878518E-02  0.337245636321E-02  0.471449392245E-03
  0.570391820514E-02  0.306017026890E-03  0.160645851283E-02  0.567736583663E-03  0.236433159144E-02
  0.672973151265E+00  0.675790855130E+00  0.602570692912E+00  0.676155663478E+00  0.691393383377E+00  0.683710189525E+00  0.689988522029E+00
  0.677396046578E+00  0.695267866394E+00  0.696328697249E+00  0.703514408182E+00  0.961496617329E+00  0.719946046802E+00  0.722885112817E+00
  0.709495716354E+00  0.713707852614E+00  0.726005213767E+00  0.716614511532E+00  0.782491125917E+00  0.722258489356E+00  0.716132747710E+00
  0.716553863641E+00  0.716542447316E+00  0.737375269602E+00  0.722640583224E+00  0.719421878702E+00  0.719547972197E+00  0.722747149648E+00
  0.716025347086E+00  0.715847808103E+00  0.718137391911E+00  0.717062195316E+00  0.718602762711E+00
  0.000000000000E+00  0.000000000000E+00  0.000000000000E+00  0.444930343940E+00  0.402807303788E+00  0.000000000000E+00  0.379033808768E+00
  0.508818483876E+00  0.575701378234E+00  0.573472053987E+00  0.562547834841E+00  0.000000000000E+00  0.491637802397E+00  0.534336829598E+00
  0.556352188338E+00  0.564140535722E+00  0.522485308864E+00  0.521817742055E+00  0.440666218215E+00  0.517132922268E+00  0.524068273169E+00
  0.503616101478E+00  0.509419830246E+00  0.469884091570E+00  0.495645020509E+00  0.494503340628E+00  0.488630219915E+00  0.489034115706E+00
  0.492987334168E+00  0.498957538381E+00  0.486507847906E+00  0.484614328933E+00  0.495364285274E+00
  0.999989345025E+00  0.999989414348E+00  0.999989632061E+00  0.981380664359E+00  0.988680597699E+00  0.999989832404E+00  0.982276360987E+00
  0.984074794987E+00  0.990406121469E+00  0.990319040901E+00  0.994391023233E+00  0.999990299850E+00  0.988748585070E+00  0.100365238800E+01
  0.999773189468E+00  0.100117377513E+01  0.100830261567E+01  0.100251270864E+01  0.102983027531E+01  0.100441979346E+01  0.100199189731E+01
  0.100081962081E+01  0.100137904508E+01  0.100825880406E+01  0.100297440202E+01  0.100191721286E+01  0.100214791771E+01  0.100354834387E+01
  0.100047557209E+01  0.100056538558E+01  0.100126703483E+01  0.100066740024E+01  0.100178631535E+01
        15         9        16        16
        15        18        11        11
        22        15        21        21
        11         5         9         9
         5         7         2         2
        11         9        15        15
        16        21        15        15
        16        10        14        14
        18        17        11        11
        17        25        24        24
        22        18        15        15
        22        30        31        31
        30        21        23        23
        16        20        23        23
        22        27        26        26
        10         9         4         4
         7        11        13        13
        25        18        26        26
        11         7         5         5
         5         1         4         4
        17        19        13        13
        23        32        30        30
        23        20        29        29
         4         9         5         5
         4         8        10        10
        26        18        22        22
        26        28        25        25
        13        11        17        17
        13         6         7         7
        31        30        32        32
         2         1         5         5
         2         7         6         6
        14        10         8         8
        24        19        17        17
        24        25        28        28
         9        10        16        16
         3         4         1         1
        33        26        27        27
        12        13        19        19
        21        30        22        22
        16        14        20        20
        16        23        21        21
        22        31        27        27
        18        25        17        17
        26        33        28        28
         4         3         8         8
        23        29        32        32
        13        12         6         6
zone t="boundary 4 bc-4", solutiontime= 0.4000000E+02, strandid=1004, i=32, j=46, f=feblock
  0.125000000000E+01  0.219251206392E+01  0.103724302461E+01  0.500000000000E+01  0.250000000000E+01  0.375000000000E+01  0.404200324774E+01
  0.500000000000E+01  0.000000000000E+00  0.310152362409E+01  0.202479342020E+01  0.324151231464E+01  0.922061490191E+00  0.000000000000E+00
  0.299062775774E+01  0.394624082883E+01  0.500000000000E+01  0.409252726285E+01  0.500000000000E+01  0.429310310915E+01  0.175434191980E+01
  0.284428995242E+01  0.000000000000E+00  0.000000000000E+00  0.715990576545E+00  0.930412228790E+00  0.125000000000E+01  0.187029682677E+01
  0.500000000000E+01  0.375000000000E+01  0.250000000000E+01  0.000000000000E+00
  0.250494197116E+01  0.157686156160E+01  0.146289271009E+01  0.250494197116E+01  0.250494197116E+01  0.250494197116E+01  0.155830813274E+01
  0.125000000000E+01  0.250494197116E+01  0.177790177481E+01  0.477386199275E+00  0.742988685424E+00  0.308372018325E+00  0.125000000000E+01
 -0.487811078581E+00 -0.144524380962E+01 -0.125000000000E+01 -0.345533899378E+00  0.000000000000E+00  0.627766083140E+00 -0.739814786992E+00
 -0.158811787973E+01  0.000000000000E+00 -0.125000000000E+01 -0.600232012419E+00 -0.154800130438E+01 -0.249658903664E+01 -0.178862290564E+01
 -0.249658903664E+01 -0.249658903664E+01 -0.249658903664E+01 -0.249658903664E+01
  0.500000000000E+01  0.500000000000E+01  0.500000000000E+01  0.500000000000E+01  0.500000000000E+01  0.500000000000E+01  0.500000000000E+01
  0.500000000000E+01  0.500000000000E+01  0.500000000000E+01  0.500000000000E+01  0.500000000000E+01  0.500000000000E+01  0.500000000000E+01
  0.500000000000E+01  0.500000000000E+01  0.500000000000E+01  0.500000000000E+01  0.500000000000E+01  0.500000000000E+01  0.500000000000E+01
  0.500000000000E+01  0.500000000000E+01  0.500000000000E+01  0.500000000000E+01  0.500000000000E+01  0.500000000000E+01  0.500000000000E+01
  0.500000000000E+01  0.500000000000E+01  0.500000000000E+01  0.500000000000E+01
  0.100520805689E+01  0.100431922269E+01  0.100430498072E+01  0.100195898219E+01  0.100412009354E+01  0.100321752582E+01  0.100258949228E+01
  0.100200891240E+01  0.100424996067E+01  0.100371857126E+01  0.100446255573E+01  0.100347196457E+01  0.100365301014E+01  0.100423992184E+01
  0.100362939211E+01  0.100164311223E+01  0.100227305303E+01  0.100227909763E+01  0.100213223549E+01  0.100254673460E+01  0.100442988155E+01
  0.100338022197E+01  0.100288597397E+01  0.100335006441E+01  0.100323313370E+01  0.100406904263E+01  0.100511534026E+01  0.100432403106E+01
  0.100179357019E+01  0.100266908195E+01  0.100322320941E+01  0.100399795110E+01
  0.489143081411E+00  0.489273599397E+00  0.491032986620E+00  0.493071554999E+00  0.486813310926E+00  0.484775685373E+00  0.485407077341E+00
  0.494264259957E+00  0.495800888904E+00  0.486819302999E+00  0.488146832013E+00  0.487231381540E+00  0.494435320197E+00  0.496535899153E+00
  0.487825307919E+00  0.483167783089E+00  0.492561935333E+00  0.487247036448E+00  0.494865306807E+00  0.488002686707E+00  0.490072125695E+00
  0.488216381754E+00  0.497536481693E+00  0.496381515578E+00  0.495257692018E+00  0.493195604922E+00  0.490417226419E+00  0.490359912770E+00
  0.491396789643E+00  0.486161128499E+00  0.490250013605E+00  0.495515503812E+00
  0.000000000000E+00 -0.578523988436E-04 -0.127351334120E-02  0.000000000000E+00  0.000000000000E+00  0.000000000000E+00  0.473966105058E-03
  0.850770237577E-03  0.000000000000E+00  0.314103675380E-03 -0.890168607826E-03 -0.751200586417E-03 -0.173055036565E-02 -0.665417041126E-04
 -0.105311949371E-02 -0.998777090139E-03 -0.129436330576E-02 -0.207746712814E-02 -0.126368567975E-02 -0.996999297089E-03 -0.597615347866E-03
 -0.743039694247E-03 -0.202434763160E-03  0.805362925967E-03  0.601396838025E-04  0.162348647401E-02  0.000000000000E+00  0.803317502549E-03
  0.000000000000E+00  0.000000000000E+00  0.000000000000E+00  0.000000000000E+00