# vtk DataFile Version 2.0
FUN3D:global_image_vtk
ASCII
DATASET UNSTRUCTURED_GRID
POINTS 213 double
   -0.5474738059816353E-02    0.2504941999961241E+01    0.8055552255809012E-04
    0.1245419063214638E+01    0.2504941999961241E+01    0.1041110933837075E-03
    0.2497696076328680E+01    0.2504941999961241E+01    0.1102916391885756E-03
    0.3750590986573695E+01    0.2504941999961241E+01    0.1358046458449502E-03
    0.5003221380247291E+01    0.2504941999961241E+01    0.9683524960252270E-04
    0.5004676745409914E+01    0.1281291377271856E+01    0.1639128452713412E-03
    0.5004772723164555E+01    0.2775094235730189E-01    0.1904167478743474E-03
    0.5003581213732784E+01   -0.1225853394966534E+01    0.1608071357316332E-03
    0.5001952545687839E+01   -0.2496589021166688E+01    0.1082184657581475E-03
    0.3750348114451831E+01   -0.2496589021166688E+01    0.1458710021469690E-03
    0.2498611455860601E+01   -0.2496589021166688E+01    0.1008914025378838E-03
    0.1247175253528958E+01   -0.2496589021166688E+01    0.1108597687262125E-03
   -0.3383978115987675E-02   -0.2496589021166688E+01    0.8107707279458864E-04
   -0.4257799575456911E-02   -0.1225734704380391E+01    0.3420054903580012E-04
   -0.5251637157326791E-02    0.2619498345417694E-01    0.1039613591536946E-03
   -0.5676113931663443E-02    0.1278221711770096E+01    0.8237743852046446E-04
    0.9003209086379147E+00    0.1608979275731559E+01    0.8718013114211808E-04
    0.3983172220880844E+01   -0.1561211796857582E+01    0.1757351975800179E-03
    0.4035602066124953E+01    0.1486760229512317E+01    0.1714506798288773E-03
    0.1036613696945590E+01   -0.1455626319024965E+01    0.1047539008243713E-03
    0.1094353438944583E+01   -0.2964620713759378E+00    0.1261326966781083E-03
    0.7298399754950831E+00    0.6874686188430774E+00    0.1045682122114421E-03
    0.1617018610904167E+01    0.8553209657934012E+00    0.1530917919644326E-03
    0.2143199645120037E+01   -0.1627128401292019E+01    0.1606433286623911E-03
    0.4088840470379607E+01   -0.4351046471420333E+00    0.2720522856927143E-03
    0.2977916500432444E+01   -0.8334990271293130E+00    0.2246093010063173E-03
    0.3044093236197464E+01   -0.1814361118271335E+01    0.1617179488713779E-03
    0.3427866617085013E+01    0.3813906574448717E+00    0.2937830792466000E-03
    0.4313225396319748E+01    0.5489135083240898E+00    0.2313893566348034E-03
    0.1823032699632520E+01    0.1771265381754231E+01    0.1837610921953114E-03
    0.2806311135978052E+01    0.1358629571502624E+01    0.1944713420344876E-03
    0.1891860844560727E+01   -0.8481309128940752E+00    0.1671170254233800E-03
    0.2268769163417261E+01    0.7723707075583998E-01    0.2073128285531844E-03
    0.5000000000000000E+01    0.2504941999961241E+01    0.1250000000000000E+01
    0.5000000000000000E+01    0.2504941999961241E+01    0.2500000000000000E+01
    0.5000000000000000E+01    0.2504941999961241E+01    0.3750000000000000E+01
    0.5000000000000000E+01    0.2504941999961241E+01    0.5000000000000000E+01
    0.3750000000000000E+01    0.2504941999961241E+01    0.5000000000000000E+01
    0.2500000000000000E+01    0.2504941999961241E+01    0.5000000000000000E+01
    0.1250000000000000E+01    0.2504941999961241E+01    0.5000000000000000E+01
    0.0000000000000000E+00    0.2504941999961241E+01    0.5000000000000000E+01
    0.0000000000000000E+00    0.2504941999961241E+01    0.3750000000000000E+01
    0.0000000000000000E+00    0.2504941999961241E+01    0.2500000000000000E+01
    0.0000000000000000E+00    0.2504941999961241E+01    0.1250000000000000E+01
    0.9588956144353838E+00    0.2504941999961241E+01    0.9696527279300923E+00
    0.3981953084978739E+01    0.2504941999961241E+01    0.4070563876502039E+01
    0.4036122198869928E+01    0.2504941999961241E+01    0.1017567671864866E+01
    0.9637572703687622E+00    0.2504941999961241E+01    0.3973598229043876E+01
    0.1546540123351725E+01    0.2504941999961241E+01    0.2931570247923728E+01
    0.6973799367131008E+00    0.2504941999961241E+01    0.3070319998909603E+01
    0.8903741869755911E+00    0.2504941999961241E+01    0.2056562332034845E+01
    0.2183041992443444E+01    0.2504941999961241E+01    0.3960694489257258E+01
    0.3855844883881953E+01    0.2504941999961241E+01    0.2933250643809132E+01
    0.3152611372008803E+01    0.2504941999961241E+01    0.3637668435339638E+01
    0.3103307388029244E+01    0.2504941999961241E+01    0.4332607836745958E+01
    0.3266711050822067E+01    0.2504941999961241E+01    0.1889656733426780E+01
    0.4232537571806085E+01    0.2504941999961241E+01    0.1918627039923659E+01
    0.1905522344841790E+01    0.2504941999961241E+01    0.7226292666294912E+00
    0.2879767720432537E+01    0.2504941999961241E+01    0.9080947550105782E+00
    0.2012711351532595E+01    0.2504941999961241E+01    0.1767082528598312E+01
    0.2669681472765194E+01    0.2504941999961241E+01    0.2853394418104090E+01
    0.5000000000000000E+01    0.1250000000000000E+01    0.5000000000000000E+01
    0.5000000000000000E+01    0.0000000000000000E+00    0.5000000000000000E+01
    0.5000000000000000E+01   -0.1250000000000000E+01    0.5000000000000000E+01
    0.5000000000000000E+01   -0.2496589021166688E+01    0.5000000000000000E+01
    0.5000000000000000E+01   -0.2496589021166688E+01    0.3750000000000000E+01
    0.5000000000000000E+01   -0.2496589021166688E+01    0.2500000000000000E+01
    0.5000000000000000E+01   -0.2496589021166688E+01    0.1250000000000000E+01
    0.5000000000000000E+01    0.1578994732800803E+01    0.9058375365086910E+00
    0.5000000000000000E+01   -0.1583989954232354E+01    0.3982050490726493E+01
    0.5000000000000000E+01    0.1453322699199022E+01    0.4033849428301197E+01
    0.5000000000000000E+01   -0.1479596339503735E+01    0.1040505887381675E+01
    0.5000000000000000E+01   -0.3227322616384110E+00    0.1099454400140349E+01
    0.5000000000000000E+01    0.6593508822075582E+00    0.7354504170366591E+00
    0.5000000000000000E+01    0.8256214013940779E+00    0.1622302608453282E+01
    0.5000000000000000E+01   -0.1650070333782557E+01    0.2145871574390382E+01
    0.5000000000000000E+01   -0.4612828702537229E+00    0.4086422318222992E+01
    0.5000000000000000E+01   -0.8579242121530853E+00    0.2979540174134984E+01
    0.5000000000000000E+01   -0.1836846154397680E+01    0.3045064261640043E+01
    0.5000000000000000E+01    0.3508002863614053E+00    0.3428197553792836E+01
    0.5000000000000000E+01    0.5185680230613409E+00    0.4309693860063405E+01
    0.5000000000000000E+01    0.1738996113203182E+01    0.1827272193562204E+01
    0.5000000000000000E+01    0.1325493893339706E+01    0.2808563282768077E+01
    0.5000000000000000E+01   -0.8731419609589618E+00    0.1895995683864404E+01
    0.5000000000000000E+01    0.4906150219227333E-01    0.2273179336307740E+01
    0.0000000000000000E+00    0.1250000000000000E+01    0.5000000000000000E+01
    0.0000000000000000E+00    0.0000000000000000E+00    0.5000000000000000E+01
    0.0000000000000000E+00   -0.1250000000000000E+01    0.5000000000000000E+01
    0.0000000000000000E+00   -0.2496589021166688E+01    0.5000000000000000E+01
    0.1250000000000000E+01   -0.2496589021166688E+01    0.5000000000000000E+01
    0.2500000000000000E+01   -0.2496589021166688E+01    0.5000000000000000E+01
    0.3750000000000000E+01   -0.2496589021166688E+01    0.5000000000000000E+01
    0.4042003247744892E+01    0.1558308132739014E+01    0.5000000000000000E+01
    0.9304122287900499E+00   -0.1548001304379777E+01    0.5000000000000000E+01
    0.1037243024609388E+01    0.1462892710085612E+01    0.5000000000000000E+01
    0.3946240828834967E+01   -0.1445243809615570E+01    0.5000000000000000E+01
    0.4092527262848217E+01   -0.3455338993778935E+00    0.5000000000000000E+01
    0.4293103109154542E+01    0.6277660831404320E+00    0.5000000000000000E+01
    0.3241512314643519E+01    0.7429886854239611E+00    0.5000000000000000E+01
    0.2844289952419609E+01   -0.1588117879734118E+01    0.5000000000000000E+01
    0.7159905765450471E+00   -0.6002320124191652E+00    0.5000000000000000E+01
    0.1754341919796891E+01   -0.7398147869923652E+00    0.5000000000000000E+01
    0.1870296826774691E+01   -0.1788622905643739E+01    0.5000000000000000E+01
    0.9220614901912976E+00    0.3083720183248586E+00    0.5000000000000000E+01
    0.3101523624086016E+01    0.1777901774806180E+01    0.5000000000000000E+01
    0.2192512063922564E+01    0.1576861561598471E+01    0.5000000000000000E+01
    0.2024793420196460E+01    0.4773861992750707E+00    0.5000000000000000E+01
    0.2990627757741975E+01   -0.4878110785814084E+00    0.5000000000000000E+01
    0.0000000000000000E+00   -0.2496589021166688E+01    0.1250000000000000E+01
    0.0000000000000000E+00   -0.2496589021166688E+01    0.2500000000000000E+01
    0.0000000000000000E+00   -0.2496589021166688E+01    0.3750000000000000E+01
    0.0000000000000000E+00    0.1558308132739014E+01    0.4042003247744892E+01
    0.0000000000000000E+00   -0.1548001304379777E+01    0.9304122287900499E+00
    0.0000000000000000E+00    0.1462892710085612E+01    0.1037243024609388E+01
    0.0000000000000000E+00   -0.1445243809615570E+01    0.3946240828834967E+01
    0.0000000000000000E+00   -0.3455338993778935E+00    0.4092527262848217E+01
    0.0000000000000000E+00    0.6277660831404320E+00    0.4293103109154542E+01
    0.0000000000000000E+00    0.7429886854239611E+00    0.3241512314643519E+01
    0.0000000000000000E+00   -0.1588117879734118E+01    0.2844289952419609E+01
    0.0000000000000000E+00   -0.6002320124191652E+00    0.7159905765450471E+00
    0.0000000000000000E+00   -0.7398147869923652E+00    0.1754341919796891E+01
    0.0000000000000000E+00   -0.1788622905643739E+01    0.1870296826774691E+01
    0.0000000000000000E+00    0.3083720183248586E+00    0.9220614901912976E+00
    0.0000000000000000E+00    0.1777901774806180E+01    0.3101523624086016E+01
    0.0000000000000000E+00    0.1576861561598471E+01    0.2192512063922564E+01
[...]
POINT_DATA 213
SCALARS rho double 1
LOOKUP_TABLE default
   0.1219599913616180E+01
   0.9221793838880096E+00
   0.9104476812931427E+00
   0.8966767976562862E+00
   0.7819488863899695E+00
   0.7116571317226148E+00
   0.6990709657854376E+00
   0.7029546921935966E+00
   0.7687355881557351E+00
   0.8895232822288335E+00
   0.8987464019090735E+00
   0.9249601769149186E+00
   0.1300246732779291E+01
   0.1348040885210393E+01
   0.1456338075677741E+01
   0.1286719692336523E+01
   0.9619642158940911E+00
   0.9047653980566962E+00
   0.8972301123593759E+00
   0.9249192778396206E+00
   0.9126331843477831E+00
   0.9866008235392271E+00
   0.8974308639204061E+00
   0.8999717894748515E+00
   0.9067475719168041E+00
   0.9112478406999750E+00
   0.8943866375888155E+00
   0.9125851103369375E+00
   0.8902529657866363E+00
   0.9018652715700650E+00
   0.9063596825073803E+00
   0.8623950846105191E+00
   0.9078064541470504E+00
   0.9506821980934619E+00
   0.1008490980202855E+01
   0.1006976758480191E+01
   0.1000145908665384E+01
   0.1000492870001307E+01
   0.1001010370654660E+01
   0.1002467258125913E+01
   0.1001944765553510E+01
   0.1004886098317308E+01
   0.1016625222136811E+01
   0.1058313554258327E+01
   0.1005436788049132E+01
   0.1000007369537337E+01
   0.9457700490474418E+00
   0.1002042271947871E+01
   0.9982829476285940E+00
   0.1004492521308519E+01
   0.1005371617840461E+01
   0.9993111978129622E+00
   0.9978002667662067E+00
   0.9988040172539995E+00
   0.9987211972701999E+00
   0.9780928918388665E+00
   0.9796706142196558E+00
   0.9639504863511760E+00
   0.9601301310483475E+00
   0.9867991728035889E+00
   0.9922400513197903E+00
   0.1000342977223491E+01
   0.1000541450813983E+01
   0.1000671133070733E+01
   0.9998284135089333E+00
   0.1009782297109951E+01
   0.1007174224039079E+01
   0.9448363517731785E+00
   0.9034576848509989E+00
   0.1007039898459507E+01
   0.1004193124635594E+01
   0.8965165777362286E+00
   0.8926680498149441E+00
   0.8470449750108656E+00
   0.9708429042674186E+00
   0.1000202431946888E+01
   0.1006091577615697E+01
   0.1015639761998086E+01
   0.1012987271709659E+01
   0.1012861697417688E+01
   0.1005118612467308E+01
   0.9863622640682264E+00
   0.1006593489931502E+01
   0.9849764702312326E+00
   0.1008140573348326E+01
   0.1001902606874139E+01
   0.1000777962764673E+01
   0.1001300678117673E+01
   0.1001842923437918E+01
   0.1002348926670470E+01
   0.1000286871387735E+01
   0.1000192914675916E+01
   0.9997755933121059E+00
   0.1001746394682131E+01
   0.1001907944788028E+01
   0.9986523977729329E+00
   0.9995364912100827E+00
   0.9999232355147013E+00
   0.1000198767987085E+01
   0.1000442941677158E+01
   0.1001058841351826E+01
   0.1001457792922589E+01
   0.1001331328856441E+01
   0.1001525818349016E+01
   0.1000861177977869E+01
   0.1001344306221323E+01
   0.1001108536260494E+01
   0.1000543854547274E+01
   0.1060180605604397E+01
   0.1020434851446686E+01
   0.1005937367251585E+01
   0.1003463833916381E+01
   0.1142067394352128E+01
   0.1083370527283109E+01
   0.1004378517860488E+01
   0.1003909103423313E+01
   0.1003789602179385E+01
   0.1006675430344269E+01
   0.1012240635872016E+01
   0.1193114846293424E+01
   0.1028000791361213E+01
   0.1034785375862174E+01
   0.1169417159577928E+01
   0.1009874385357584E+01
   0.1023546143336138E+01
   0.1017121966024275E+01
   0.1007875017663751E+01
   0.1013904356828044E+01
   0.1000120419972782E+01
   0.9442367766744376E+00
   0.1003512214009054E+01
   0.9988676266154862E+00
   0.1006433377413041E+01
   0.1009136818442762E+01
   0.9979418413411918E+00
   0.9977846798161990E+00
   0.9961676217014114E+00
   0.9984778160662308E+00
   0.9810175331359549E+00
   0.9780877552761730E+00
   0.9479693804094941E+00
   0.9505424156673401E+00
   0.9877990056527114E+00
   0.9899199084747696E+00
   0.9925444357414381E+00
   0.9998150160081111E+00
   0.9986044256975144E+00
   0.9946495923491252E+00
   0.1006783294486253E+01
   0.1021195773710314E+01
   0.9979991516430475E+00
   0.1004785936910758E+01
   0.1001443253578756E+01
   0.1004870015573990E+01
   0.9952898773714528E+00
   0.9853957099544012E+00
   0.1000226007444864E+01
   0.9938930119371872E+00
   0.9819631293087522E+00
   0.9943515144921408E+00
   0.9968775152976422E+00
   0.9937161314907382E+00
   0.9987031086240780E+00
   0.1000033244278825E+01
   0.9996686280107405E+00
   0.9958480420587046E+00
   0.9933618045053684E+00
   0.1001379813514636E+01
   0.1018342565079134E+01
   0.1002761163883283E+01
   0.9806466643452764E+00
   0.1001874257979855E+01
   0.1008205818684778E+01
   0.9702345995628037E+00
   0.9431323729232927E+00
   0.9846786353185140E+00
   0.9843645601673918E+00
   0.9754696721941366E+00
   0.9908380426682637E+00
   0.9779133561216911E+00
   0.1033958406005739E+01
   0.1021656796292151E+01
   0.1000033005346969E+01
   0.9991734290874039E+00
   0.9919055285384242E+00
   0.9907248504710672E+00
   0.9574014550819890E+00
   0.9930506880942150E+00
   0.1006289131536113E+01
   0.1002044037553252E+01
   0.9896477897162600E+00
   0.9652799827153976E+00
   0.9203406997245511E+00
   0.9724368701982280E+00
   0.9781836989276805E+00
   0.9559726800662245E+00
   0.9617645757545121E+00
   0.9490309801048096E+00
   0.9366912375347098E+00
   0.9303104723266987E+00
   0.9992919130672926E+00
   0.9994619482034466E+00
   0.9988025047109184E+00
   0.1002017073946804E+01
   0.9391477998921322E+00
   0.9239055150467527E+00
   0.9359217488828370E+00
   0.9984137893782697E+00
   0.9983444540240335E+00
   0.1000450520513089E+01
   0.9793848501606227E+00
   0.9713545842931115E+00
   0.9447096592561741E+00
SCALARS u double 1
LOOKUP_TABLE default
   0.0000000000000000E+00
   0.0000000000000000E+00
   0.0000000000000000E+00
   0.0000000000000000E+00
   0.0000000000000000E+00
   0.0000000000000000E+00
   0.0000000000000000E+00
   0.0000000000000000E+00
   0.0000000000000000E+00
   0.0000000000000000E+00
   0.0000000000000000E+00
   0.0000000000000000E+00
   0.0000000000000000E+00
   0.0000000000000000E+00
   0.0000000000000000E+00
   0.0000000000000000E+00
   0.0000000000000000E+00
   0.0000000000000000E+00
   0.0000000000000000E+00
   0.0000000000000000E+00
   0.0000000000000000E+00
   0.0000000000000000E+00
   0.0000000000000000E+00
   0.0000000000000000E+00
   0.0000000000000000E+00
   0.0000000000000000E+00
   0.0000000000000000E+00
   0.0000000000000000E+00
   0.0000000000000000E+00
   0.0000000000000000E+00
   0.0000000000000000E+00
   0.0000000000000000E+00
   0.0000000000000000E+00
   0.5044657153267958E+00
   0.5290125001250422E+00
   0.5144832571544820E+00
   0.4932265007146683E+00
   0.4881034954292459E+00
   0.4912132665130827E+00
   0.4932012104335707E+00
   0.4982359621909908E+00
   0.4935755401449006E+00
   0.4788817929296613E+00
   0.4518340488400475E+00
   0.4750761855217150E+00
   0.5097784009970961E+00
   0.4511935386193089E+00
   0.4980813340876922E+00
   0.5232695275298288E+00
   0.4995198835910870E+00
   0.5239976612172045E+00
   0.5062462133611254E+00
   0.5621720090423841E+00
   0.5246973183384357E+00
   0.5014415355688453E+00
   0.5724415173385202E+00
   0.5707004872023057E+00
   0.3697808153157752E+00
   0.4030358778684002E+00
   0.5559039170494563E+00
   0.5550071828224433E+00
   0.4941866649119782E+00
   0.4946225571721292E+00
   0.4922550880774095E+00
   0.4916952757086564E+00
   0.5126203612101899E+00
   0.5320037748259917E+00
   0.5051851732895078E+00
   0.4700274422235961E+00
   0.5096958286798425E+00
   0.5089633499335119E+00
   0.4955096745857154E+00
   0.5091189249435683E+00
   0.4859971782612233E+00
   0.5290197329653664E+00
   0.5276939305557177E+00
   0.5095384286340057E+00
   0.5265023575269860E+00
   0.5255836715224995E+00
   0.5249264246900083E+00
   0.5039105676555757E+00
   0.5284460209982654E+00
   0.5353830987665880E+00
   0.5371546995990416E+00
   0.5324039368583232E+00
   0.4987533161460670E+00
   0.4995693380799224E+00
   0.4985678142319603E+00
   0.4978564019020433E+00
   0.4945363810553302E+00
   0.4946354240656645E+00
   0.4894932186615985E+00
   0.4881854149293249E+00
   0.4965709365752100E+00
   0.4946579467471022E+00
   0.4860622930852275E+00
   0.4896816117887243E+00
   0.4900401236949989E+00
   0.4911767741913650E+00
   0.4926166626955773E+00
   0.4981835085210494E+00
   0.4946289643977473E+00
   0.4948394986229533E+00
   0.4976378086146672E+00
   0.4907933142526436E+00
   0.4936012114806600E+00
   0.4927628912637487E+00
   0.4920514951908193E+00
   0.4513309486380155E+00
   0.4773809617874386E+00
   0.4929577593227364E+00
   0.4922016431822731E+00
   0.4645164622665331E+00
   0.4729120395434115E+00
   0.4915211032815571E+00
   0.4906741942899403E+00
   0.4940153701932908E+00
   0.4854929930745068E+00
   0.4731445505144375E+00
   0.4017685352714634E+00
   0.4925811127418213E+00
   0.4586089377542920E+00
   0.4595049325910602E+00
   0.4895104444365976E+00
   0.4701583353007301E+00
   0.4742235035197122E+00
   0.4816343218385064E+00
   0.4809631439132936E+00
   0.5081955852926997E+00
   0.4436620420943842E+00
   0.4960916958400778E+00
   0.5314783349105753E+00
   0.4949806832961221E+00
   0.5219301823560165E+00
   0.5081293872675379E+00
   0.5664001670778857E+00
   0.5269142300078441E+00
   0.5035387233633766E+00
   0.5834535199028491E+00
   0.5720240543059786E+00
   0.3408859787972787E+00
   0.3851958352803033E+00
   0.5717594931431927E+00
   0.5645095790363942E+00
   0.5689243688383431E+00
   0.5291696422568613E+00
   0.5449155772734283E+00
   0.5701879996570609E+00
   0.5404097314617301E+00
   0.5487779046386746E+00
   0.5790107886365712E+00
   0.4955235725196592E+00
   0.5064965498886329E+00
   0.4994484985750261E+00
   0.5533092708748070E+00
   0.4597902452483961E+00
   0.4983751332286098E+00
   0.5489762939828288E+00
   0.5894376514256997E+00
   0.5821700660579735E+00
   0.5457059880237765E+00
   0.5785146403097962E+00
   0.5122043911192935E+00
   0.5055088210334954E+00
   0.5048980709610326E+00
   0.5645297506078224E+00
   0.5552265536361654E+00
   0.4977583767270522E+00
   0.5488209304665584E+00
   0.5486892305188581E+00
   0.5643387454176377E+00
   0.4955121571254648E+00
   0.4958798449039499E+00
   0.3908413931521724E+00
   0.3725909688295001E+00
   0.5584900234291624E+00
   0.5739392692870746E+00
   0.4177438620699603E+00
   0.5813083045731153E+00
   0.4186000131723362E+00
   0.5391903795373970E+00
   0.4993239551266313E+00
   0.5113858616866283E+00
   0.5070195028284963E+00
   0.5732639800913996E+00
   0.5857709107211906E+00
   0.5448205849368373E+00
   0.5657062906969927E+00
   0.5320308473740505E+00
   0.5310303347352159E+00
   0.5561915761242663E+00
   0.5552162144217121E+00
   0.4401002249983533E+00
   0.5282987549666888E+00
   0.5807279754776566E+00
   0.3397137414839909E+00
   0.4812261108046683E+00
   0.5510167856381407E+00
   0.4924432439059573E+00
   0.3108743858201443E+00
   0.5051822108403781E+00
   0.5043571403719094E+00
   0.5129608762006392E+00
   0.5385848712713863E+00
   0.3519685122384112E+00
   0.3560462896585685E+00
   0.3308149967078429E+00
   0.5084554626672484E+00
   0.5125571445303686E+00
   0.5314307736587606E+00
   0.5857978769889166E+00
   0.4640825134401793E+00
   0.3627234830521527E+00
SCALARS v double 1
LOOKUP_TABLE default
   0.0000000000000000E+00
   0.0000000000000000E+00
   0.0000000000000000E+00
   0.0000000000000000E+00
   0.0000000000000000E+00
   0.0000000000000000E+00
   0.0000000000000000E+00
   0.0000000000000000E+00
   0.0000000000000000E+00
   0.0000000000000000E+00
   0.0000000000000000E+00
   0.0000000000000000E+00
   0.0000000000000000E+00
   0.0000000000000000E+00
   0.0000000000000000E+00
   0.0000000000000000E+00
   0.0000000000000000E+00
   0.0000000000000000E+00
   0.0000000000000000E+00
   0.0000000000000000E+00
   0.0000000000000000E+00
   0.0000000000000000E+00
   0.0000000000000000E+00
   0.0000000000000000E+00
   0.0000000000000000E+00
   0.0000000000000000E+00
   0.0000000000000000E+00
   0.0000000000000000E+00
   0.0000000000000000E+00
   0.0000000000000000E+00
   0.0000000000000000E+00
   0.0000000000000000E+00
   0.0000000000000000E+00
   0.0000000000000000E+00
   0.0000000000000000E+00
   0.0000000000000000E+00
   0.0000000000000000E+00
   0.0000000000000000E+00
   0.0000000000000000E+00
   0.0000000000000000E+00
   0.0000000000000000E+00
   0.0000000000000000E+00
   0.0000000000000000E+00
   0.0000000000000000E+00
   0.0000000000000000E+00
   0.0000000000000000E+00
   0.0000000000000000E+00
   0.0000000000000000E+00
   0.0000000000000000E+00
   0.0000000000000000E+00
   0.0000000000000000E+00
   0.0000000000000000E+00
   0.0000000000000000E+00
   0.0000000000000000E+00
   0.0000000000000000E+00
   0.0000000000000000E+00
   0.0000000000000000E+00
   0.0000000000000000E+00
   0.0000000000000000E+00
   0.0000000000000000E+00
   0.0000000000000000E+00
   0.6334726661479792E-03
  -0.1412099335452083E-02
  -0.1391683386790496E-02
   0.0000000000000000E+00
   0.0000000000000000E+00
   0.0000000000000000E+00
   0.0000000000000000E+00
  -0.1867977657170405E-01
   0.2777562581054674E-03
   0.2206621705445395E-02
   0.1490281520584237E-01
  -0.5368566308809506E-02
  -0.6642053016992738E-02
  -0.1142210351192585E-01
   0.4788843878981304E-02
   0.5371990520972312E-03
   0.3195637593225696E-02
   0.1530304316756363E-02
   0.3473816383251141E-02
   0.1704917693224379E-02
  -0.6356083485934909E-02
   0.7681765890830292E-03
   0.4869155120241020E-02
   0.6121854335071654E-03
   0.6959008637396190E-04
  -0.1767233737954674E-03
   0.6082845653350322E-03
   0.0000000000000000E+00
   0.0000000000000000E+00
   0.0000000000000000E+00
   0.0000000000000000E+00
   0.1212948083845898E-03
   0.1423635162173635E-02
  -0.1108799877952287E-02
  -0.9188931497118742E-03
  -0.2101544926222622E-02
  -0.1220496171098957E-02
  -0.8986449416341031E-03
  -0.6448412026478797E-03
  -0.2472692762314007E-04
  -0.5341990122648218E-03
   0.7240121811009459E-03
  -0.1570799774632928E-02
   0.1025654862603813E-03
  -0.1214699262118512E-03
  -0.8743265557167539E-03
  -0.8885262476310897E-03
   0.0000000000000000E+00
   0.0000000000000000E+00
   0.0000000000000000E+00
  -0.1091310707680673E-02
  -0.8502847378765522E-02
   0.1568987575905422E-01
   0.2148694358515415E-03
  -0.1053392986315040E-02
  -0.1673615285590669E-02
  -0.5281084522905786E-02
  -0.1235969186622668E-02
  -0.3701268434031750E-02
  -0.3032657935145605E-02
   0.2127150619178489E-02
   0.2880603936384372E-01
  -0.1724510494518370E-03
  -0.4260459827458581E-02
   0.2498525672876746E-02
   0.9551004278821561E-03
   0.0000000000000000E+00
   0.0000000000000000E+00
   0.0000000000000000E+00
   0.0000000000000000E+00
   0.0000000000000000E+00
   0.0000000000000000E+00
   0.0000000000000000E+00
   0.0000000000000000E+00
   0.0000000000000000E+00
   0.0000000000000000E+00
   0.0000000000000000E+00
   0.0000000000000000E+00
   0.0000000000000000E+00
   0.0000000000000000E+00
   0.0000000000000000E+00
   0.0000000000000000E+00
   0.0000000000000000E+00
   0.4670203401668640E-02
   0.2763278976665531E-02
   0.6893748822498101E-02
   0.5630441902845526E-02
   0.8687068967071313E-02
   0.1244114795728560E-01
   0.4866776733574737E-03
   0.4364184573631497E-02
   0.2406606140537653E-02
   0.2332214665007405E-02
   0.3176378326873606E-02
  -0.1059584428760792E-01
  -0.4893827753833162E-03
   0.6038353382911993E-02
   0.2600383740633421E-02
   0.2269794189248002E-02
   0.3837926185030874E-02
  -0.2020264705238380E-02
   0.9170015407598776E-03
   0.2371046893628659E-02
   0.1154923836629799E-02
   0.2686130112048441E-02
   0.1739854464601634E-02
   0.1798803895586622E-02
   0.8007122738288765E-02
  -0.3375979412410704E-02
   0.5470409559857404E-02
   0.6506736114500784E-04
  -0.3121025194474882E-04
  -0.1328424454081581E-01
  -0.3290580635221075E-02
  -0.3547656601502247E-02
   0.3675146570677989E-02
  -0.3988175035957755E-02
   0.8943823969825555E-03
  -0.2587599550205074E-01
  -0.3070964856963586E-02
   0.4167723642141331E-02
   0.7177108636991903E-03
   0.1825205270749895E-02
   0.4437745139943370E-02
   0.2300337350912699E-02
   0.3389536929549446E-02
   0.5068279800369758E-02
   0.1856651920319121E-02
   0.5820194497296211E-03
  -0.3347065360102377E-03
  -0.4621586350990559E-02
  -0.5498382918159343E-02
   0.4518988538679644E-03
   0.9429331933234955E-03
  -0.7332720421361338E-03
  -0.3869855700565853E-02
  -0.1215981719325903E-02
  -0.3656432472117206E-02
  -0.6898512307209174E-02
  -0.1708648187137582E-02
   0.5357634663689004E-03
  -0.3546521723343798E-03
   0.1111768347510988E-02
  -0.1832583914176750E-02
   0.6956131211826031E-02
  -0.9774614548182729E-02
  -0.1544861565503492E-04
  -0.4080128338573601E-03
   0.2409198744743660E-02
   0.1123359027860264E-02
   0.1298608631994411E-02
  -0.3828995613551337E-02
SCALARS w double 1
LOOKUP_TABLE default
   0.0000000000000000E+00
   0.0000000000000000E+00
   0.0000000000000000E+00
   0.0000000000000000E+00
   0.0000000000000000E+00
   0.0000000000000000E+00
   0.0000000000000000E+00
   0.0000000000000000E+00
   0.0000000000000000E+00
   0.0000000000000000E+00
   0.0000000000000000E+00
   0.0000000000000000E+00
   0.0000000000000000E+00
   0.0000000000000000E+00
   0.0000000000000000E+00
   0.0000000000000000E+00
   0.0000000000000000E+00
   0.0000000000000000E+00
   0.0000000000000000E+00
   0.0000000000000000E+00
   0.0000000000000000E+00
   0.0000000000000000E+00
   0.0000000000000000E+00
   0.0000000000000000E+00
   0.0000000000000000E+00
   0.0000000000000000E+00
   0.0000000000000000E+00
   0.0000000000000000E+00
   0.0000000000000000E+00
   0.0000000000000000E+00
   0.0000000000000000E+00
   0.0000000000000000E+00
   0.0000000000000000E+00
  -0.1144740195633672E+00
  -0.5028451693383198E-01
  -0.2218633552186088E-02
   0.5066015315496276E-02
  -0.6957785669887807E-03
  -0.6076383509312632E-03
   0.5805994828392512E-03
   0.1144807691521737E-02
   0.2440761465486689E-03
   0.3422553655958043E-02
   0.3884462902564281E-01
   0.5360740798587448E-01
  -0.1493568925408443E-02
  -0.2790727250033928E-01
   0.2079826304082299E-02
   0.1059655285212127E-01
   0.8042749329785569E-02
   0.4393891044756232E-01
  -0.4043424472684983E-03
  -0.1058030839380543E-01
  -0.3671503934995326E-02
  -0.2102261163961591E-02
   0.4819869236608787E-03
  -0.4609511947954349E-01
   0.1623618845824946E-01
   0.1240676134045534E-01
   0.2994628379086062E-01
   0.5073338576910476E-02
   0.4321079616969240E-02
   0.4383199196509358E-02
   0.4018274339680995E-02
   0.5466031820393115E-02
  -0.1704930572343811E-03
  -0.4834022548397722E-01
  -0.1122168293673871E+00
  -0.1279822898740930E+00
   0.2784418195360605E-02
   0.1930924569044250E-02
  -0.1150881334373475E+00
  -0.1133079985079642E+00
  -0.1132666994734224E+00
  -0.1072902052358478E+00
  -0.7748706493747126E-01
   0.3027732464566675E-02
  -0.2451874734606128E-01
  -0.2041361289950631E-01
  -0.9927800112115073E-02
   0.5241307971412961E-02
  -0.9129643516734358E-01
  -0.3406071824794515E-01
  -0.9180581855089903E-01
  -0.6776877647478149E-01
   0.1807791039783433E-02
   0.1559386366164626E-02
   0.1426788009216956E-02
   0.2118646086184817E-02
   0.1358294164726517E-02
  -0.1241620288532883E-02
  -0.1475158617561350E-02
   0.1114707502664604E-02
   0.2218159179044250E-02
   0.1202567088667461E-02
  -0.7056002411720448E-04
   0.1919581137155682E-03
   0.8213705057442039E-03
  -0.1576102576054741E-02
  -0.1943016499082983E-02
   0.1965357257446442E-02
  -0.4390851077264456E-04
  -0.4390429764507210E-03
   0.2228746919753732E-02
  -0.1071757830531196E-02
  -0.2024428958007783E-03
  -0.4923302850387096E-03
  -0.1804015296316045E-02
   0.6879533230817261E-01
   0.2330699831530126E-02
  -0.1105206881711263E-02
  -0.7920433426260664E-03
   0.1156184651476642E+00
   0.1039170543432188E+00
  -0.1771015940434806E-02
  -0.4421117100944864E-02
  -0.7493460295304219E-03
  -0.7086036512059255E-02
  -0.2645567454923801E-02
   0.1269925479957119E+00
   0.6360353099943367E-01
   0.2237139462633215E-01
   0.1353419728084077E+00