title="tecplot geometry and solution file"
variables = x y z rho u v w p mach temperature
zone t="boundary 1 bc-1", solutiontime= 0.2000000E+02, strandid=1001, i=32, j=46, f=feblock
 -0.547473806063E-02  0.000000000000E+00 -0.567611393240E-02  0.000000000000E+00  0.000000000000E+00  0.000000000000E+00 -0.525163715796E-02
 -0.425779957601E-02  0.000000000000E+00  0.000000000000E+00  0.000000000000E+00  0.000000000000E+00  0.000000000000E+00  0.000000000000E+00
  0.000000000000E+00  0.000000000000E+00 -0.338397811649E-02  0.000000000000E+00  0.000000000000E+00  0.000000000000E+00  0.000000000000E+00
  0.000000000000E+00  0.000000000000E+00  0.000000000000E+00  0.000000000000E+00  0.000000000000E+00  0.000000000000E+00  0.000000000000E+00
  0.000000000000E+00  0.000000000000E+00  0.000000000000E+00  0.000000000000E+00
  0.250494199996E+01  0.250494199996E+01  0.127822171179E+01  0.146289271009E+01  0.157686156160E+01  0.308372018325E+00  0.261949834755E-01
 -0.122573470436E+01 -0.600232012419E+00  0.250494199996E+01  0.477386199275E+00  0.742988685424E+00 -0.739814786992E+00  0.177790177481E+01
  0.155830813274E+01  0.250494199996E+01 -0.249658902116E+01 -0.154800130438E+01 -0.487811078581E+00  0.250494199996E+01  0.627766083140E+00
 -0.345533899378E+00 -0.178862290564E+01 -0.158811787973E+01  0.125000000000E+01 -0.249658902116E+01 -0.144524380962E+01  0.000000000000E+00
 -0.125000000000E+01 -0.249658902116E+01 -0.249658902116E+01 -0.249658902116E+01
  0.805553119610E-04  0.125000000000E+01  0.823772825417E-04  0.103724302461E+01  0.219251206392E+01  0.922061490191E+00  0.103961257429E-03
  0.342005009042E-04  0.715990576545E+00  0.250000000000E+01  0.202479342020E+01  0.324151231464E+01  0.175434191980E+01  0.310152362409E+01
  0.404200324774E+01  0.375000000000E+01  0.810770774298E-04  0.930412228790E+00  0.299062775774E+01  0.500000000000E+01  0.429310310915E+01
  0.409252726285E+01  0.187029682677E+01  0.284428995242E+01  0.500000000000E+01  0.125000000000E+01  0.394624082883E+01  0.500000000000E+01
  0.500000000000E+01  0.250000000000E+01  0.375000000000E+01  0.500000000000E+01
  0.121960387963E+01  0.105830820632E+01  0.128672571621E+01  0.108337590755E+01  0.102354096131E+01  0.116941411076E+01  0.145633663229E+01
  0.134803943366E+01  0.119311513697E+01  0.101662651999E+01  0.101711986112E+01  0.100667830023E+01  0.102800816522E+01  0.100987683350E+01
  0.100346713704E+01  0.100488571207E+01  0.130025395098E+01  0.114205252909E+01  0.100787531761E+01  0.100194811871E+01  0.100379375359E+01
  0.100390835281E+01  0.103478271950E+01  0.101223798262E+01  0.100190551145E+01  0.106019169204E+01  0.100437682650E+01  0.100077731139E+01
  0.100130169377E+01  0.102043676494E+01  0.100593444575E+01  0.100184649840E+01
  0.000000000000E+00  0.451841539934E+00  0.000000000000E+00  0.472892573025E+00  0.470175887056E+00  0.459506481808E+00  0.000000000000E+00
  0.000000000000E+00  0.401766657828E+00  0.478881926754E+00  0.474234172601E+00  0.485491372868E+00  0.492569732615E+00  0.489508282558E+00
  0.492183901352E+00  0.493568686241E+00  0.000000000000E+00  0.464538341697E+00  0.481637586348E+00  0.498272288438E+00  0.494017925560E+00
  0.490673527802E+00  0.458613147098E+00  0.473154117447E+00  0.498762158676E+00  0.451315446517E+00  0.491520348910E+00  0.499572441492E+00
  0.498567203290E+00  0.477380040231E+00  0.492960005040E+00  0.497870266651E+00
  0.000000000000E+00  0.000000000000E+00  0.000000000000E+00  0.156909019294E-01 -0.426031612117E-02  0.288073661369E-01  0.000000000000E+00
  0.000000000000E+00 -0.370493613926E-02  0.000000000000E+00  0.249654439144E-02 -0.528751776087E-02 -0.303798265085E-02 -0.174569390654E-03
 -0.108715612761E-02  0.000000000000E+00  0.000000000000E+00 -0.850443855751E-02  0.949706579082E-03  0.000000000000E+00 -0.167176957701E-02
 -0.105426823063E-02  0.212849031582E-02 -0.124234685163E-02  0.763509567314E-04  0.000000000000E+00  0.215844310310E-03 -0.173374243376E-03
  0.618468161687E-03  0.000000000000E+00  0.000000000000E+00  0.000000000000E+00
  0.000000000000E+00  0.388532289046E-01  0.000000000000E+00  0.103906633937E+00  0.224247003046E-01  0.135339891632E+00  0.000000000000E+00
  0.000000000000E+00  0.126994673033E+00  0.342182540653E-02  0.213596603706E-01 -0.708541481346E-02  0.635991173918E-01  0.292530392705E-02
 -0.795005778688E-03  0.241077624844E-03  0.000000000000E+00  0.115614630636E+00 -0.829839897447E-02  0.114781020387E-02 -0.750783275209E-03
 -0.442145049375E-02  0.223690029467E-01 -0.264683875743E-02  0.181139231886E-02  0.687893192136E-01 -0.175729260000E-02  0.156750742282E-02
  0.143659895387E-02  0.232617260572E-02 -0.110685752067E-02  0.212198698716E-02
  0.908105207178E+00  0.774898485197E+00  0.958083474984E+00  0.800620329821E+00  0.737947837326E+00  0.857913377387E+00  0.108437411628E+01
  0.100373707368E+01  0.887194664237E+00  0.730580570352E+00  0.733315228149E+00  0.720301178487E+00  0.748107934053E+00  0.724223921156E+00
  0.717575653824E+00  0.719224901990E+00  0.968156467244E+00  0.840780607693E+00  0.722226444681E+00  0.716323827636E+00  0.717949024521E+00
  0.717912012420E+00  0.749167387464E+00  0.726421757616E+00  0.716252828291E+00  0.782035849461E+00  0.718599588922E+00  0.715132899495E+00
  0.715580840551E+00  0.734166124174E+00  0.720294816896E+00  0.716217044094E+00
  0.000000000000E+00  0.447925206189E+00  0.000000000000E+00  0.476256826660E+00  0.468540673230E+00  0.473520467528E+00  0.000000000000E+00
  0.000000000000E+00  0.412988161472E+00  0.477443707613E+00  0.472515015590E+00  0.485151955392E+00  0.492060201179E+00  0.488541634569E+00
  0.491906704640E+00  0.493071170549E+00  0.000000000000E+00  0.471604656947E+00  0.480937189820E+00  0.498048672788E+00  0.493693168374E+00
  0.490409266268E+00  0.456077122155E+00  0.472056292291E+00  0.498554401932E+00  0.449243753851E+00  0.491117219593E+00  0.499472941191E+00
  0.498442366203E+00  0.475665083249E+00  0.492355118690E+00  0.497661888935E+00
  0.104242640687E+01  0.102508690077E+01  0.104242640687E+01  0.103460715153E+01  0.100936553720E+01  0.102707733496E+01  0.104242640687E+01
  0.104242640687E+01  0.104103325106E+01  0.100608510439E+01  0.100936119591E+01  0.100173178428E+01  0.101881594243E+01  0.100399717667E+01
  0.100113484366E+01  0.100201928507E+01  0.104242640687E+01  0.103068188266E+01  0.100321637497E+01  0.100090347989E+01  0.100132983567E+01
  0.100116391558E+01  0.101357929803E+01  0.100469502046E+01  0.100084683450E+01  0.103269078363E+01  0.100165535280E+01  0.100040843043E+01
  0.100051081807E+01  0.100724768957E+01  0.100246367734E+01  0.100085578313E+01
        12        19        11        11
        11         5        12        12
        10        14         5         5
        19        13        11        11
        19        24        13        13
        30        23        24        24
        19        12        22        22
        28        22        21        21
        11        13         6         6
         7         6         9         9
        15        12        14        14
        18        13        23        23
        15        25        21        21
        27        19        22        22
        18         8         9         9
        27        31        24        24
         4        11         6         6
         5        14        12        12
         4         2         5         5
        21        12        15        15
        14        16        15        15
        24        19        27        27
        22        29        27        27
        23        26        18        18
        17         8        18        18
         5        11         4         4
         6         3         4         4
        26        23        30        30
         5         2        10        10
        16        14        10        10
         3         6         7         7
        21        25        28        28
        29        22        28        28
         6        13         9         9
         2         4         1         1
        31        27        32        32
        25        15        20        20
        24        23        13        13
         8         7         9         9
        13        18         9         9
        31        30        24        24
        12        21        22        22
        29        32        27        27
         3         1         4         4
        26        17        18        18
        16        20        15        15
zone t="boundary 2 bc-2", solutiontime= 0.2000000E+02, strandid=1002, i=33, j=48, f=feblock
  0.500195254569E+01  0.375034811445E+01  0.249861145586E+01  0.288036674135E+01  0.124717525353E+01  0.190856697906E+01  0.326577190006E+01
  0.201394855912E+01 -0.338397811649E-02  0.962374243895E+00  0.500000000000E+01  0.403430189815E+01  0.423029563516E+01  0.500000000000E+01
  0.385439188839E+01  0.500000000000E+01  0.398133433218E+01  0.315200081383E+01  0.266958028789E+01  0.154798029748E+01  0.218327860401E+01
  0.893688440131E+00  0.000000000000E+00  0.699009761223E+00  0.964460898513E+00  0.310303671661E+01  0.000000000000E+00  0.000000000000E+00
  0.125000000000E+01  0.500000000000E+01  0.375000000000E+01  0.250000000000E+01  0.000000000000E+00
 -0.249658902116E+01 -0.249658902116E+01 -0.249658902116E+01 -0.249658902116E+01 -0.249658902116E+01 -0.249658902116E+01 -0.249658902116E+01
 -0.249658902116E+01 -0.249658902116E+01 -0.249658902116E+01 -0.249658902116E+01 -0.249658902116E+01 -0.249658902116E+01 -0.249658902116E+01
 -0.249658902116E+01 -0.249658902116E+01 -0.249658902116E+01 -0.249658902116E+01 -0.249658902116E+01 -0.249658902116E+01 -0.249658902116E+01
 -0.249658902116E+01 -0.249658902116E+01 -0.249658902116E+01 -0.249658902116E+01 -0.249658902116E+01 -0.249658902116E+01 -0.249658902116E+01
 -0.249658902116E+01 -0.249658902116E+01 -0.249658902116E+01 -0.249658902116E+01 -0.249658902116E+01
  0.108218473874E-03  0.145871009042E-03  0.100891408563E-03  0.901663364684E+00  0.110859774047E-03  0.714928312394E+00  0.188140647109E+01
  0.175892165292E+01  0.810770774298E-04  0.957504290547E+00  0.125000000000E+01  0.100596696997E+01  0.191313518633E+01  0.250000000000E+01
  0.292898096727E+01  0.375000000000E+01  0.406883369622E+01  0.363389290090E+01  0.284756861227E+01  0.292582308302E+01  0.395754055150E+01
  0.205027257040E+01  0.125000000000E+01  0.306703272777E+01  0.397155766782E+01  0.433068622256E+01  0.250000000000E+01  0.375000000000E+01
  0.500000000000E+01  0.500000000000E+01  0.500000000000E+01  0.500000000000E+01  0.500000000000E+01
  0.768742208747E+00  0.889533854938E+00  0.898746964102E+00  0.950544855827E+00  0.924964895261E+00  0.947981063476E+00  0.981007073469E+00
  0.987806291463E+00  0.130025395098E+01  0.101390608301E+01  0.944830299086E+00  0.944263076160E+00  0.978077233088E+00  0.100716402572E+01
  0.997783404414E+00  0.100978883470E+01  0.100011907289E+01  0.996169551216E+00  0.989925653945E+00  0.998869523442E+00  0.997944441276E+00
  0.100913913972E+01  0.106019169204E+01  0.100643263782E+01  0.100351423407E+01  0.998474711066E+00  0.102043676494E+01  0.100593444575E+01
  0.100235247801E+01  0.999801945009E+00  0.100018709415E+01  0.100028828582E+01  0.100184649840E+01
  0.000000000000E+00  0.000000000000E+00  0.000000000000E+00  0.385189622549E+00  0.000000000000E+00  0.340894588216E+00  0.583427053128E+00
  0.571749897989E+00  0.000000000000E+00  0.480965354905E+00  0.505178235747E+00  0.443662781643E+00  0.572001663120E+00  0.532011200834E+00
  0.566425643853E+00  0.512663622551E+00  0.508246730113E+00  0.526960048554E+00  0.564515271145E+00  0.531485544456E+00  0.508163709554E+00
  0.521925999972E+00  0.451315446517E+00  0.494980114256E+00  0.496092053882E+00  0.503545560693E+00  0.477380040231E+00  0.492960005040E+00
  0.494502660802E+00  0.491654995548E+00  0.489330820901E+00  0.494545415768E+00  0.497870266651E+00
  0.000000000000E+00  0.000000000000E+00  0.000000000000E+00  0.000000000000E+00  0.000000000000E+00  0.000000000000E+00  0.000000000000E+00
  0.000000000000E+00  0.000000000000E+00  0.000000000000E+00  0.000000000000E+00  0.000000000000E+00  0.000000000000E+00  0.000000000000E+00
  0.000000000000E+00  0.000000000000E+00  0.000000000000E+00  0.000000000000E+00  0.000000000000E+00  0.000000000000E+00  0.000000000000E+00
  0.000000000000E+00  0.000000000000E+00  0.000000000000E+00  0.000000000000E+00  0.000000000000E+00  0.000000000000E+00  0.000000000000E+00
  0.000000000000E+00  0.000000000000E+00  0.000000000000E+00  0.000000000000E+00  0.000000000000E+00
  0.000000000000E+00  0.000000000000E+00  0.000000000000E+00 -0.142349117024E-02  0.000000000000E+00  0.169035318521E-01  0.876982370582E-02
  0.404047658718E-01  0.000000000000E+00  0.730705097270E-01 -0.112204734028E+00 -0.263058580846E-01 -0.368311470956E-01 -0.483528099348E-01
 -0.588551195506E-02 -0.166766931853E-03 -0.196711695186E-02 -0.316976664362E-02  0.106576705034E-01  0.235316133203E-01  0.229062134873E-02
  0.486659987148E-01  0.687893192136E-01  0.868912204246E-02  0.441975355333E-02 -0.352534562723E-02  0.232617260572E-02 -0.110685752067E-02
  0.136396303970E-02  0.548155031816E-02 -0.148045610557E-02 -0.124544335100E-02  0.212198698716E-02
  0.572397984624E+00  0.662338271566E+00  0.669198263197E+00  0.681374023765E+00  0.688719880178E+00  0.681182184945E+00  0.693025704294E+00
  0.700086932867E+00  0.968156467244E+00  0.722090916459E+00  0.666756596778E+00  0.671483588878E+00  0.691230466226E+00  0.720034183103E+00
  0.710710210266E+00  0.723776691203E+00  0.714753922403E+00  0.710894416371E+00  0.704011235711E+00  0.714161158575E+00  0.712432903977E+00
  0.725805416906E+00  0.782035849461E+00  0.720438567239E+00  0.717728754799E+00  0.712834584838E+00  0.734166124174E+00  0.720294816896E+00
  0.716526161146E+00  0.714324691373E+00  0.714316970563E+00  0.714494375309E+00  0.716217044094E+00
  0.000000000000E+00  0.000000000000E+00  0.000000000000E+00  0.384509476279E+00  0.000000000000E+00  0.340296541432E+00  0.586722849452E+00
  0.575418382192E+00  0.000000000000E+00  0.487200508307E+00  0.520631475896E+00  0.445430391575E+00  0.576244585585E+00  0.533969758957E+00
  0.567249593022E+00  0.511777858748E+00  0.508114290407E+00  0.527212391584E+00  0.565849003282E+00  0.531751792123E+00  0.508306002322E+00
  0.522384298928E+00  0.449243753851E+00  0.494520749367E+00  0.495789224285E+00  0.503685618141E+00  0.475665083249E+00  0.492355118690E+00
  0.494311228052E+00  0.491623445944E+00  0.489368127009E+00  0.494546034845E+00  0.497661888935E+00
  0.104242640687E+01  0.104242640687E+01  0.104242640687E+01  0.100355456918E+01  0.104242640687E+01  0.100598534682E+01  0.989020377377E+00
  0.992220554257E+00  0.104242640687E+01  0.997062055332E+00  0.987964967246E+00  0.995566858605E+00  0.989413330541E+00  0.100087754388E+01
  0.997204693895E+00  0.100346461841E+01  0.100053635461E+01  0.999079104260E+00  0.995646214509E+00  0.100095718063E+01  0.999460515349E+00
  0.100692515399E+01  0.103269078363E+01  0.100216741413E+01  0.100130144905E+01  0.999492934286E+00  0.100724768957E+01  0.100246367734E+01
  0.100078230723E+01  0.100025267296E+01  0.999856691450E+00  0.100000383850E+01  0.100085578313E+01
        15         7        19        19
         8        20        19        19
        18        19        21        21
         7         4         8         8
         3         6         4         4
        19         7         8         8
        19        18        15        15
        14        13        15        15
         8        22        20        20
        27        24        22        22
        19        20        21        21
        32        26        21        21
        17        18        26        26
        17        16        15        15
        25        29        21        21
        12         7        13        13
        10         8         6         6
        25        20        24        24
         4         6         8         8
        12         2         4         4
        10        23        22        22
        26        31        17        17
        30        16        17        17
         4         7        12        12
        13        11        12        12
        21        20        25        25
        24        28        25        25
        22         8        10        10
         6         5        10        10
        31        26        32        32
         4         2         3         3
         5         6         3         3
        11        13        14        14
        22        23        27        27
        28        24        27        27
        15        13         7         7
         2        12         1         1
        29        25        33        33
        23        10         9         9
        21        26        18        18
        16        14        15        15
        18        17        15        15
        29        32        21        21
        22        24        20        20
        28        33        25        25
        11         1        12        12
        31        30        17        17
         5         9        10        10
zone t="boundary 3 bc-3", solutiontime= 0.2000000E+02, strandid=1003, i=33, j=48, f=feblock
  0.375059098657E+01  0.249769607633E+01  0.500322138025E+01  0.403612219887E+01  0.287976772043E+01  0.124541906321E+01  0.190552234484E+01
  0.500000000000E+01  0.326671105082E+01  0.423253757179E+01  0.201271135154E+01 -0.547473806063E-02  0.958895614429E+00  0.500000000000E+01
  0.266968147276E+01  0.385584488387E+01  0.890374186987E+00  0.154654012336E+01  0.000000000000E+00  0.500000000000E+01  0.315261137200E+01
  0.218304199245E+01  0.398195308497E+01  0.000000000000E+00  0.697379936723E+00  0.963757270375E+00  0.125000000000E+01  0.000000000000E+00
  0.500000000000E+01  0.310330738803E+01  0.250000000000E+01  0.375000000000E+01  0.000000000000E+00
  0.250494199996E+01  0.250494199996E+01  0.250494199996E+01  0.250494199996E+01  0.250494199996E+01  0.250494199996E+01  0.250494199996E+01
  0.250494199996E+01  0.250494199996E+01  0.250494199996E+01  0.250494199996E+01  0.250494199996E+01  0.250494199996E+01  0.250494199996E+01
  0.250494199996E+01  0.250494199996E+01  0.250494199996E+01  0.250494199996E+01  0.250494199996E+01  0.250494199996E+01  0.250494199996E+01
  0.250494199996E+01  0.250494199996E+01  0.250494199996E+01  0.250494199996E+01  0.250494199996E+01  0.250494199996E+01  0.250494199996E+01
  0.250494199996E+01  0.250494199996E+01  0.250494199996E+01  0.250494199996E+01  0.250494199996E+01
  0.135804440761E-03  0.110291431629E-03  0.968350475942E-04  0.101756767171E+01  0.908094754822E+00  0.104110884131E-03  0.722629266442E+00
  0.125000000000E+01  0.188965673330E+01  0.191862703985E+01  0.176708252846E+01  0.805553119610E-04  0.969652727775E+00  0.250000000000E+01
  0.285339441802E+01  0.293325064375E+01  0.205656233195E+01  0.293157024785E+01  0.125000000000E+01  0.375000000000E+01  0.363766843529E+01
  0.396069448922E+01  0.407056387648E+01  0.250000000000E+01  0.307031999887E+01  0.397359822902E+01  0.500000000000E+01  0.375000000000E+01
  0.500000000000E+01  0.433260783672E+01  0.500000000000E+01  0.500000000000E+01  0.500000000000E+01
  0.896707678381E+00  0.910457386472E+00  0.781968218019E+00  0.945869089657E+00  0.960187870279E+00  0.922184368364E+00  0.963953866275E+00
  0.950748870561E+00  0.978091037792E+00  0.979679019578E+00  0.986796741649E+00  0.121960387963E+01  0.100544035340E+01  0.100849030334E+01
  0.992241909928E+00  0.997802987825E+00  0.100536946206E+01  0.998281817577E+00  0.105830820632E+01  0.100698752095E+01  0.998809809629E+00
  0.999315477781E+00  0.100000686218E+01  0.101662651999E+01  0.100449351918E+01  0.100204276830E+01  0.100247477216E+01  0.100488571207E+01
  0.100009606653E+01  0.998729186786E+00  0.100100747441E+01  0.100046014051E+01  0.100194811871E+01
  0.000000000000E+00  0.000000000000E+00  0.000000000000E+00  0.451169848678E+00  0.403008576071E+00  0.000000000000E+00  0.369768857481E+00
  0.504385822647E+00  0.572418560312E+00  0.570664653711E+00  0.555899691758E+00  0.000000000000E+00  0.475071340990E+00  0.529014353169E+00
  0.555022854379E+00  0.562208983421E+00  0.524000957801E+00  0.523277210873E+00  0.451841539934E+00  0.514529383160E+00  0.524736432726E+00
  0.506256726123E+00  0.509834481381E+00  0.478881926754E+00  0.499516025591E+00  0.498082197585E+00  0.493193528227E+00  0.493568686241E+00
  0.493166236899E+00  0.501447164333E+00  0.491122410562E+00  0.487915901178E+00  0.498272288438E+00
  0.000000000000E+00  0.000000000000E+00  0.000000000000E+00  0.000000000000E+00  0.000000000000E+00  0.000000000000E+00  0.000000000000E+00
  0.000000000000E+00  0.000000000000E+00  0.000000000000E+00  0.000000000000E+00  0.000000000000E+00  0.000000000000E+00  0.000000000000E+00
  0.000000000000E+00  0.000000000000E+00  0.000000000000E+00  0.000000000000E+00  0.000000000000E+00  0.000000000000E+00  0.000000000000E+00
  0.000000000000E+00  0.000000000000E+00  0.000000000000E+00  0.000000000000E+00  0.000000000000E+00  0.000000000000E+00  0.000000000000E+00
  0.000000000000E+00  0.000000000000E+00  0.000000000000E+00  0.000000000000E+00  0.000000000000E+00
  0.000000000000E+00  0.000000000000E+00  0.000000000000E+00 -0.279294476446E-01  0.124038188716E-01  0.000000000000E+00  0.162342640956E-01
 -0.114457099218E+00  0.478049059582E-03 -0.461013943007E-01  0.299435409840E-01  0.000000000000E+00  0.536026660489E-01 -0.502854618268E-01
  0.508169463405E-02 -0.105795271398E-01  0.439395017839E-01  0.106038144718E-01  0.388532289046E-01 -0.220406223656E-02 -0.366939155806E-02
 -0.402466296466E-03 -0.148821546570E-02  0.342182540653E-02  0.804183872108E-02  0.207774265924E-02  0.578302028844E-03  0.241077624844E-03
  0.509443717625E-02 -0.211405967374E-02 -0.621830475396E-03 -0.724452618494E-03  0.114781020387E-02
  0.667679830849E+00  0.677917729992E+00  0.582245942712E+00  0.670529183163E+00  0.688130558452E+00  0.686649526848E+00  0.690434844855E+00
  0.670672306807E+00  0.691906325201E+00  0.692625718516E+00  0.700948900866E+00  0.908105207178E+00  0.717681182608E+00  0.721493368967E+00
  0.706705653734E+00  0.711396317190E+00  0.721304749367E+00  0.713319224067E+00  0.774898485197E+00  0.721215416358E+00  0.713532463046E+00
  0.713575756456E+00  0.714554388577E+00  0.730580570352E+00  0.718615517728E+00  0.716238839598E+00  0.716751656879E+00  0.719224901990E+00
  0.714521200061E+00  0.713135435271E+00  0.715143151591E+00  0.714634299402E+00  0.716323827636E+00
  0.000000000000E+00  0.000000000000E+00  0.000000000000E+00  0.453746490924E+00  0.402530283777E+00  0.000000000000E+00  0.369616411220E+00
  0.520451243423E+00  0.575195963925E+00  0.575469238573E+00  0.558254479361E+00  0.000000000000E+00  0.478249138032E+00  0.530977773460E+00
  0.555846085761E+00  0.562829998370E+00  0.524678215761E+00  0.523288957913E+00  0.447925206189E+00  0.513842108737E+00  0.524713635366E+00
  0.506335280640E+00  0.509742543444E+00  0.477443707613E+00  0.499191240907E+00  0.497914731159E+00  0.492953577886E+00  0.493071170549E+00
  0.493134956511E+00  0.501536891565E+00  0.491075480668E+00  0.487909641050E+00  0.498048672788E+00
  0.104242640687E+01  0.104242640687E+01  0.104242640687E+01  0.992463826859E+00  0.100332738171E+01  0.104242640687E+01  0.100275419459E+01
  0.987580694128E+00  0.990366763270E+00  0.989789498952E+00  0.994458554426E+00  0.104242640687E+01  0.999317017916E+00  0.100158693961E+01
  0.997123690632E+00  0.998147786906E+00  0.100443338217E+01  0.100036572450E+01  0.102508690077E+01  0.100269522898E+01  0.100013580026E+01
  0.999690369308E+00  0.100036927929E+01  0.100608510439E+01  0.100156119040E+01  0.100069019722E+01  0.100097513423E+01  0.100201928507E+01
  0.100023359111E+01  0.999659990505E+00  0.100019274363E+01  0.100002786583E+01  0.100090347989E+01
        15         9        16        16
        15        18        11        11
        22        15        21        21
        11         5         9         9
         5         7         2         2
        11         9        15        15
        16        21        15        15
        16        10        14        14
        18        17        11        11
        17        25        24        24
        22        18        15        15
        22        30        31        31
        30        21        23        23
        16        20        23        23
        22        27        26        26
        10         9         4         4
         7        11        13        13
        25        18        26        26
        11         7         5         5
         5         1         4         4
        17        19        13        13
        23        32        30        30
        23        20        29        29
         4         9         5         5
         4         8        10        10
        26        18        22        22
        26        28        25        25
        13        11        17        17
        13         6         7         7
        31        30        32        32
         2         1         5         5
         2         7         6         6
        14        10         8         8
        24        19        17        17
        24        25        28        28
         9        10        16        16
         3         4         1         1
        33        26        27        27
        12        13        19        19
        21        30        22        22
        16        14        20        20
        16        23        21        21
        22        31        27        27
        18        25        17        17
        26        33        28        28
         4         3         8         8
        23        29        32        32
        13        12         6         6
zone t="boundary 4 bc-4", solutiontime= 0.2000000E+02, strandid=1004, i=32, j=46, f=feblock
  0.125000000000E+01  0.219251206392E+01  0.103724302461E+01  0.500000000000E+01  0.250000000000E+01  0.375000000000E+01  0.404200324774E+01
  0.500000000000E+01  0.000000000000E+00  0.310152362409E+01  0.202479342020E+01  0.324151231464E+01  0.922061490191E+00  0.000000000000E+00
  0.299062775774E+01  0.394624082883E+01  0.500000000000E+01  0.409252726285E+01  0.500000000000E+01  0.429310310915E+01  0.175434191980E+01
  0.284428995242E+01  0.000000000000E+00  0.000000000000E+00  0.715990576545E+00  0.930412228790E+00  0.125000000000E+01  0.187029682677E+01
  0.500000000000E+01  0.375000000000E+01  0.250000000000E+01  0.000000000000E+00
  0.250494199996E+01  0.157686156160E+01  0.146289271009E+01  0.250494199996E+01  0.250494199996E+01  0.250494199996E+01  0.155830813274E+01
  0.125000000000E+01  0.250494199996E+01  0.177790177481E+01  0.477386199275E+00  0.742988685424E+00  0.308372018325E+00  0.125000000000E+01
 -0.487811078581E+00 -0.144524380962E+01 -0.125000000000E+01 -0.345533899378E+00  0.000000000000E+00  0.627766083140E+00 -0.739814786992E+00
 -0.158811787973E+01  0.000000000000E+00 -0.125000000000E+01 -0.600232012419E+00 -0.154800130438E+01 -0.249658902116E+01 -0.178862290564E+01
 -0.249658902116E+01 -0.249658902116E+01 -0.249658902116E+01 -0.249658902116E+01
  0.500000000000E+01  0.500000000000E+01  0.500000000000E+01  0.500000000000E+01  0.500000000000E+01  0.500000000000E+01  0.500000000000E+01
  0.500000000000E+01  0.500000000000E+01  0.500000000000E+01  0.500000000000E+01  0.500000000000E+01  0.500000000000E+01  0.500000000000E+01
  0.500000000000E+01  0.500000000000E+01  0.500000000000E+01  0.500000000000E+01  0.500000000000E+01  0.500000000000E+01  0.500000000000E+01
  0.500000000000E+01  0.500000000000E+01  0.500000000000E+01  0.500000000000E+01  0.500000000000E+01  0.500000000000E+01  0.500000000000E+01
  0.500000000000E+01  0.500000000000E+01  0.500000000000E+01  0.500000000000E+01
  0.100247477216E+01  0.100134712737E+01  0.100191255952E+01  0.100009606653E+01  0.100100747441E+01  0.100046014051E+01  0.999736578397E+00
  0.100030300678E+01  0.100194811871E+01  0.100084777698E+01  0.100111992466E+01  0.100019348136E+01  0.100153423885E+01  0.100190551145E+01
  0.100054801554E+01  0.998646792802E+00  0.100065289032E+01  0.999514238521E+00  0.100050374985E+01  0.999881366342E+00  0.100147037105E+01
  0.100045126623E+01  0.100077731139E+01  0.100130169377E+01  0.100106353481E+01  0.100175189806E+01  0.100235247801E+01  0.100133698617E+01
  0.999801945009E+00  0.100018709415E+01  0.100028828582E+01  0.100184649840E+01
  0.493193528227E+00  0.493543413474E+00  0.494639873031E+00  0.493166236899E+00  0.491122410562E+00  0.487915901178E+00  0.488037838510E+00
  0.494124069017E+00  0.498272288438E+00  0.490661521205E+00  0.492713771346E+00  0.491092204069E+00  0.497621746489E+00  0.498762158676E+00
  0.491948512941E+00  0.485951493384E+00  0.492212847895E+00  0.489588738699E+00  0.494589175047E+00  0.489945065382E+00  0.494579979776E+00
  0.492493855558E+00  0.499572441492E+00  0.498567203290E+00  0.498170905125E+00  0.496557860048E+00  0.494502660802E+00  0.494785795045E+00
  0.491654995548E+00  0.489330820901E+00  0.494545415768E+00  0.497870266651E+00
  0.000000000000E+00 -0.145674543041E-03 -0.111916765200E-02  0.000000000000E+00  0.000000000000E+00  0.000000000000E+00  0.120555959519E-03
  0.650233555809E-03  0.000000000000E+00  0.714858783500E-04 -0.885061971922E-03 -0.926607654668E-03 -0.157263351823E-02  0.763509567314E-04
 -0.897303576819E-03 -0.927196322724E-03 -0.140047718135E-02 -0.211720455861E-02 -0.140761835752E-02 -0.123333286973E-02 -0.521699640686E-03
 -0.631392113687E-03 -0.173374243376E-03  0.618468161687E-03 -0.169686439085E-04  0.143828187243E-02  0.000000000000E+00  0.729932533090E-03
  0.000000000000E+00  0.000000000000E+00  0.000000000000E+00  0.000000000000E+00