# vtk DataFile Version 2.0
FUN3D:global_image_vtk
ASCII
DATASET UNSTRUCTURED_GRID
POINTS 213 double
   -0.5474738059816353E-02    0.2504941999961241E+01    0.8055552255797816E-04
    0.1245419063214638E+01    0.2504941999961241E+01    0.1041110933838236E-03
    0.2497696076328680E+01    0.2504941999961241E+01    0.1102916391888077E-03
    0.3750590986573695E+01    0.2504941999961241E+01    0.1358046458449541E-03
    0.5003221380247291E+01    0.2504941999961241E+01    0.9683524960263314E-04
    0.5004676745409914E+01    0.1281291377271856E+01    0.1639128452713482E-03
    0.5004772723164555E+01    0.2775094235730143E-01    0.1904167478736942E-03
    0.5003581213732781E+01   -0.1225853394966533E+01    0.1608071357316288E-03
    0.5001952545687839E+01   -0.2496589021166689E+01    0.1082184657581474E-03
    0.3750348114451831E+01   -0.2496589021166689E+01    0.1458710021468010E-03
    0.2498611455860601E+01   -0.2496589021166689E+01    0.1008914025379395E-03
    0.1247175253528958E+01   -0.2496589021166689E+01    0.1108597687262181E-03
   -0.3383978115988118E-02   -0.2496589021166689E+01    0.8107707279458524E-04
   -0.4257799575456911E-02   -0.1225734704380391E+01    0.3420054903602220E-04
   -0.5251637157326337E-02    0.2619498345417718E-01    0.1039613591536948E-03
   -0.5676113931662562E-02    0.1278221711770095E+01    0.8237743852063613E-04
    0.9003209086379080E+00    0.1608979275731562E+01    0.8718013114195907E-04
    0.3983172220880844E+01   -0.1561211796857582E+01    0.1757351975799100E-03
    0.4035602066124953E+01    0.1486760229512317E+01    0.1714506798288921E-03
    0.1036613696945590E+01   -0.1455626319024965E+01    0.1047539008244846E-03
    0.1094353438944579E+01   -0.2964620713759387E+00    0.1261326966772638E-03
    0.7298399754950841E+00    0.6874686188430774E+00    0.1045682122114395E-03
    0.1617018610904167E+01    0.8553209657933991E+00    0.1530917919644307E-03
    0.2143199645120037E+01   -0.1627128401292019E+01    0.1606433286624970E-03
    0.4088840470379607E+01   -0.4351046471420333E+00    0.2720522856927144E-03
    0.2977916500432443E+01   -0.8334990271293130E+00    0.2246093010064191E-03
    0.3044093236197464E+01   -0.1814361118271335E+01    0.1617179488709321E-03
    0.3427866617085013E+01    0.3813906574448717E+00    0.2937830792468758E-03
    0.4313225396319748E+01    0.5489135083240898E+00    0.2313893566347483E-03
    0.1823032699632520E+01    0.1771265381754231E+01    0.1837610921954275E-03
    0.2806311135978052E+01    0.1358629571502624E+01    0.1944713420341531E-03
    0.1891860844560727E+01   -0.8481309128940754E+00    0.1671170254232134E-03
    0.2268769163417261E+01    0.7723707075583999E-01    0.2073128285536971E-03
    0.5000000000000000E+01    0.2504941999961241E+01    0.1250000000000000E+01
    0.5000000000000000E+01    0.2504941999961241E+01    0.2500000000000000E+01
    0.5000000000000000E+01    0.2504941999961241E+01    0.3750000000000000E+01
    0.5000000000000000E+01    0.2504941999961241E+01    0.5000000000000000E+01
    0.3750000000000000E+01    0.2504941999961241E+01    0.5000000000000000E+01
    0.2500000000000000E+01    0.2504941999961241E+01    0.5000000000000000E+01
    0.1250000000000000E+01    0.2504941999961241E+01    0.5000000000000000E+01
    0.0000000000000000E+00    0.2504941999961241E+01    0.5000000000000000E+01
    0.0000000000000000E+00    0.2504941999961241E+01    0.3750000000000000E+01
    0.0000000000000000E+00    0.2504941999961241E+01    0.2500000000000000E+01
    0.0000000000000000E+00    0.2504941999961241E+01    0.1250000000000000E+01
    0.9588956144353828E+00    0.2504941999961241E+01    0.9696527279300924E+00
    0.3981953084978739E+01    0.2504941999961241E+01    0.4070563876502039E+01
    0.4036122198869928E+01    0.2504941999961241E+01    0.1017567671864866E+01
    0.9637572703687622E+00    0.2504941999961241E+01    0.3973598229043876E+01
    0.1546540123351725E+01    0.2504941999961241E+01    0.2931570247923728E+01
    0.6973799367131008E+00    0.2504941999961241E+01    0.3070319998909603E+01
    0.8903741869755910E+00    0.2504941999961241E+01    0.2056562332034845E+01
    0.2183041992443444E+01    0.2504941999961241E+01    0.3960694489257258E+01
    0.3855844883881953E+01    0.2504941999961241E+01    0.2933250643809132E+01
    0.3152611372008803E+01    0.2504941999961241E+01    0.3637668435339639E+01
    0.3103307388029244E+01    0.2504941999961241E+01    0.4332607836745958E+01
    0.3266711050822067E+01    0.2504941999961241E+01    0.1889656733426780E+01
    0.4232537571806085E+01    0.2504941999961241E+01    0.1918627039923659E+01
    0.1905522344841789E+01    0.2504941999961241E+01    0.7226292666294915E+00
    0.2879767720432537E+01    0.2504941999961241E+01    0.9080947550105783E+00
    0.2012711351532595E+01    0.2504941999961241E+01    0.1767082528598312E+01
    0.2669681472765194E+01    0.2504941999961241E+01    0.2853394418104091E+01
    0.5000000000000000E+01    0.1250000000000000E+01    0.5000000000000000E+01
    0.5000000000000000E+01    0.0000000000000000E+00    0.5000000000000000E+01
    0.5000000000000000E+01   -0.1250000000000000E+01    0.5000000000000000E+01
    0.5000000000000000E+01   -0.2496589021166689E+01    0.5000000000000000E+01
    0.5000000000000000E+01   -0.2496589021166689E+01    0.3750000000000000E+01
    0.5000000000000000E+01   -0.2496589021166689E+01    0.2500000000000000E+01
    0.5000000000000000E+01   -0.2496589021166689E+01    0.1250000000000000E+01
    0.5000000000000000E+01    0.1578994732800803E+01    0.9058375365086910E+00
    0.5000000000000000E+01   -0.1583989954232354E+01    0.3982050490726493E+01
    0.5000000000000000E+01    0.1453322699199022E+01    0.4033849428301197E+01
    0.5000000000000000E+01   -0.1479596339503735E+01    0.1040505887381675E+01
    0.5000000000000000E+01   -0.3227322616384110E+00    0.1099454400140349E+01
    0.5000000000000000E+01    0.6593508822075582E+00    0.7354504170366591E+00
    0.5000000000000000E+01    0.8256214013940779E+00    0.1622302608453282E+01
    0.5000000000000000E+01   -0.1650070333782557E+01    0.2145871574390382E+01
    0.5000000000000000E+01   -0.4612828702537229E+00    0.4086422318222992E+01
    0.5000000000000000E+01   -0.8579242121530853E+00    0.2979540174134984E+01
    0.5000000000000000E+01   -0.1836846154397680E+01    0.3045064261640043E+01
    0.5000000000000000E+01    0.3508002863614053E+00    0.3428197553792836E+01
    0.5000000000000000E+01    0.5185680230613409E+00    0.4309693860063405E+01
    0.5000000000000000E+01    0.1738996113203182E+01    0.1827272193562204E+01
    0.5000000000000000E+01    0.1325493893339706E+01    0.2808563282768077E+01
    0.5000000000000000E+01   -0.8731419609589618E+00    0.1895995683864404E+01
    0.5000000000000000E+01    0.4906150219227333E-01    0.2273179336307740E+01
    0.0000000000000000E+00    0.1250000000000000E+01    0.5000000000000000E+01
    0.0000000000000000E+00    0.0000000000000000E+00    0.5000000000000000E+01
    0.0000000000000000E+00   -0.1250000000000000E+01    0.5000000000000000E+01
    0.0000000000000000E+00   -0.2496589021166689E+01    0.5000000000000000E+01
    0.1250000000000000E+01   -0.2496589021166689E+01    0.5000000000000000E+01
    0.2500000000000000E+01   -0.2496589021166689E+01    0.5000000000000000E+01
    0.3750000000000000E+01   -0.2496589021166689E+01    0.5000000000000000E+01
    0.4042003247744892E+01    0.1558308132739014E+01    0.5000000000000000E+01
    0.9304122287900499E+00   -0.1548001304379777E+01    0.5000000000000000E+01
    0.1037243024609388E+01    0.1462892710085612E+01    0.5000000000000000E+01
    0.3946240828834967E+01   -0.1445243809615570E+01    0.5000000000000000E+01
    0.4092527262848217E+01   -0.3455338993778935E+00    0.5000000000000000E+01
    0.4293103109154542E+01    0.6277660831404320E+00    0.5000000000000000E+01
    0.3241512314643519E+01    0.7429886854239611E+00    0.5000000000000000E+01
    0.2844289952419609E+01   -0.1588117879734118E+01    0.5000000000000000E+01
    0.7159905765450471E+00   -0.6002320124191652E+00    0.5000000000000000E+01
    0.1754341919796891E+01   -0.7398147869923652E+00    0.5000000000000000E+01
    0.1870296826774691E+01   -0.1788622905643739E+01    0.5000000000000000E+01
    0.9220614901912976E+00    0.3083720183248586E+00    0.5000000000000000E+01
    0.3101523624086016E+01    0.1777901774806180E+01    0.5000000000000000E+01
    0.2192512063922564E+01    0.1576861561598471E+01    0.5000000000000000E+01
    0.2024793420196460E+01    0.4773861992750707E+00    0.5000000000000000E+01
    0.2990627757741975E+01   -0.4878110785814084E+00    0.5000000000000000E+01
    0.0000000000000000E+00   -0.2496589021166689E+01    0.1250000000000000E+01
    0.0000000000000000E+00   -0.2496589021166689E+01    0.2500000000000000E+01
    0.0000000000000000E+00   -0.2496589021166689E+01    0.3750000000000000E+01
    0.0000000000000000E+00    0.1558308132739014E+01    0.4042003247744892E+01
    0.0000000000000000E+00   -0.1548001304379777E+01    0.9304122287900499E+00
    0.0000000000000000E+00    0.1462892710085612E+01    0.1037243024609388E+01
    0.0000000000000000E+00   -0.1445243809615570E+01    0.3946240828834967E+01
    0.0000000000000000E+00   -0.3455338993778935E+00    0.4092527262848217E+01
    0.0000000000000000E+00    0.6277660831404320E+00    0.4293103109154542E+01
    0.0000000000000000E+00    0.7429886854239611E+00    0.3241512314643519E+01
    0.0000000000000000E+00   -0.1588117879734118E+01    0.2844289952419609E+01
    0.0000000000000000E+00   -0.6002320124191652E+00    0.7159905765450471E+00
    0.0000000000000000E+00   -0.7398147869923652E+00    0.1754341919796891E+01
    0.0000000000000000E+00   -0.1788622905643739E+01    0.1870296826774691E+01
    0.0000000000000000E+00    0.3083720183248586E+00    0.9220614901912976E+00
    0.0000000000000000E+00    0.1777901774806180E+01    0.3101523624086016E+01
    0.0000000000000000E+00    0.1576861561598471E+01    0.2192512063922564E+01
[...]
POINT_DATA 213
SCALARS rho double 1
LOOKUP_TABLE default
   0.1219599913615949E+01
   0.9221793838878738E+00
   0.9104476812935409E+00
   0.8966767976587248E+00
   0.7819488863933503E+00
   0.7116571317227715E+00
   0.6990709657852826E+00
   0.7029546921935149E+00
   0.7687355881560347E+00
   0.8895232822289748E+00
   0.8987464019090704E+00
   0.9249601769151559E+00
   0.1300246732779770E+01
   0.1348040885210375E+01
   0.1456338075677920E+01
   0.1286719692336320E+01
   0.9619642158939899E+00
   0.9047653980566553E+00
   0.8972301123612391E+00
   0.9249192778399822E+00
   0.9126331843476847E+00
   0.9866008235390494E+00
   0.8974308639204481E+00
   0.8999717894748896E+00
   0.9067475719165899E+00
   0.9112478406999969E+00
   0.8943866375888524E+00
   0.9125851103371782E+00
   0.8902529657862971E+00
   0.9018652715701299E+00
   0.9063596825082009E+00
   0.8623950846105400E+00
   0.9078064541470043E+00
   0.9506821981027618E+00
   0.1008490980202311E+01
   0.1006976758479836E+01
   0.1000145908665945E+01
   0.1000492870001451E+01
   0.1001010370654441E+01
   0.1002467258125842E+01
   0.1001944765553472E+01
   0.1004886098317187E+01
   0.1016625222136792E+01
   0.1058313554258312E+01
   0.1005436788049071E+01
   0.1000007369536951E+01
   0.9457700490613145E+00
   0.1002042271947877E+01
   0.9982829476286782E+00
   0.1004492521308435E+01
   0.1005371617840460E+01
   0.9993111978131244E+00
   0.9978002667662478E+00
   0.9988040172541344E+00
   0.9987211972702066E+00
   0.9780928918381986E+00
   0.9796706142207421E+00
   0.9639504863507273E+00
   0.9601301310493988E+00
   0.9867991728034167E+00
   0.9922400513200109E+00
   0.1000342977224060E+01
   0.1000541450813558E+01
   0.1000671133069294E+01
   0.9998284135076346E+00
   0.1009782297110679E+01
   0.1007174224039081E+01
   0.9448363517750062E+00
   0.9034576848537412E+00
   0.1007039898459638E+01
   0.1004193124635441E+01
   0.8965165777358414E+00
   0.8926680498145670E+00
   0.8470449750094741E+00
   0.9708429042667549E+00
   0.1000202431946652E+01
   0.1006091577615851E+01
   0.1015639761998007E+01
   0.1012987271709640E+01
   0.1012861697417829E+01
   0.1005118612467228E+01
   0.9863622640662391E+00
   0.1006593489931654E+01
   0.9849764702307244E+00
   0.1008140573348729E+01
   0.1001902606873997E+01
   0.1000777962764634E+01
   0.1001300678117607E+01
   0.1001842923437956E+01
   0.1002348926670461E+01
   0.1000286871388016E+01
   0.1000192914675180E+01
   0.9997755933126741E+00
   0.1001746394682232E+01
   0.1001907944787915E+01
   0.9986523977719152E+00
   0.9995364912095599E+00
   0.9999232355142622E+00
   0.1000198767986965E+01
   0.1000442941677092E+01
   0.1001058841351877E+01
   0.1001457792922504E+01
   0.1001331328856533E+01
   0.1001525818349080E+01
   0.1000861177977612E+01
   0.1001344306221285E+01
   0.1001108536260642E+01
   0.1000543854547049E+01
   0.1060180605605786E+01
   0.1020434851446388E+01
   0.1005937367251599E+01
   0.1003463833916485E+01
   0.1142067394351161E+01
   0.1083370527282886E+01
   0.1004378517860499E+01
   0.1003909103423297E+01
   0.1003789602179433E+01
   0.1006675430344294E+01
   0.1012240635871787E+01
   0.1193114846293578E+01
   0.1028000791361534E+01
   0.1034785375862026E+01
   0.1169417159578310E+01
   0.1009874385357545E+01
   0.1023546143336193E+01
   0.1017121966024216E+01
   0.1007875017663660E+01
   0.1013904356828113E+01
   0.1000120419973389E+01
   0.9442367766763810E+00
   0.1003512214009045E+01
   0.9988676266156545E+00
   0.1006433377412906E+01
   0.1009136818442912E+01
   0.9979418413411510E+00
   0.9977846798161913E+00
   0.9961676217012584E+00
   0.9984778160660933E+00
   0.9810175331362119E+00
   0.9780877552767887E+00
   0.9479693804101761E+00
   0.9505424156680323E+00
   0.9877990056528492E+00
   0.9899199084748986E+00
   0.9925444357414418E+00
   0.9998150160081019E+00
   0.9986044256974945E+00
   0.9946495923492262E+00
   0.1006783294486199E+01
   0.1021195773710406E+01
   0.9979991516431013E+00
   0.1004785936910740E+01
   0.1001443253578777E+01
   0.1004870015573989E+01
   0.9952898773714547E+00
   0.9853957099543339E+00
   0.1000226007444939E+01
   0.9938930119372114E+00
   0.9819631293094042E+00
   0.9943515144927694E+00
   0.9968775152976544E+00
   0.9937161314907629E+00
   0.9987031086241297E+00
   0.1000033244278920E+01
   0.9996686280106836E+00
   0.9958480420587205E+00
   0.9933618045053757E+00
   0.1001379813514642E+01
   0.1018342565079180E+01
   0.1002761163883356E+01
   0.9806466643452223E+00
   0.1001874257979871E+01
   0.1008205818684723E+01
   0.9702345995630721E+00
   0.9431323729233182E+00
   0.9846786353186185E+00
   0.9843645601676303E+00
   0.9754696721938879E+00
   0.9908380426684074E+00
   0.9779133561216531E+00
   0.1033958406005588E+01
   0.1021656796292000E+01
   0.1000033005346975E+01
   0.9991734290875205E+00
   0.9919055285383170E+00
   0.9907248504709429E+00
   0.9574014550818605E+00
   0.9930506880940079E+00
   0.1006289131536111E+01
   0.1002044037553393E+01
   0.9896477897161888E+00
   0.9652799827136563E+00
   0.9203406997253899E+00
   0.9724368701987971E+00
   0.9781836989275239E+00
   0.9559726800657892E+00
   0.9617645757544767E+00
   0.9490309801052642E+00
   0.9366912375342112E+00
   0.9303104723260360E+00
   0.9992919130670640E+00
   0.9994619482033865E+00
   0.9988025047109576E+00
   0.1002017073946981E+01
   0.9391477998923434E+00
   0.9239055150463362E+00
   0.9359217488826703E+00
   0.9984137893784797E+00
   0.9983444540240974E+00
   0.1000450520513311E+01
   0.9793848501606200E+00
   0.9713545842928608E+00
   0.9447096592561234E+00
SCALARS u double 1
LOOKUP_TABLE default
   0.0000000000000000E+00
   0.0000000000000000E+00
   0.0000000000000000E+00
   0.0000000000000000E+00
   0.0000000000000000E+00
   0.0000000000000000E+00
   0.0000000000000000E+00
   0.0000000000000000E+00
   0.0000000000000000E+00
   0.0000000000000000E+00
   0.0000000000000000E+00
   0.0000000000000000E+00
   0.0000000000000000E+00
   0.0000000000000000E+00
   0.0000000000000000E+00
   0.0000000000000000E+00
   0.0000000000000000E+00
   0.0000000000000000E+00
   0.0000000000000000E+00
   0.0000000000000000E+00
   0.0000000000000000E+00
   0.0000000000000000E+00
   0.0000000000000000E+00
   0.0000000000000000E+00
   0.0000000000000000E+00
   0.0000000000000000E+00
   0.0000000000000000E+00
   0.0000000000000000E+00
   0.0000000000000000E+00
   0.0000000000000000E+00
   0.0000000000000000E+00
   0.0000000000000000E+00
   0.0000000000000000E+00
   0.5044657153185318E+00
   0.5290125001257747E+00
   0.5144832571539877E+00
   0.4932265007155147E+00
   0.4881034954306980E+00
   0.4912132665131284E+00
   0.4932012104334838E+00
   0.4982359621910882E+00
   0.4935755401451240E+00
   0.4788817929296692E+00
   0.4518340488400223E+00
   0.4750761855218409E+00
   0.5097784009954491E+00
   0.4511935386238689E+00
   0.4980813340876962E+00
   0.5232695275297438E+00
   0.4995198835911545E+00
   0.5239976612171908E+00
   0.5062462133608552E+00
   0.5621720090416125E+00
   0.5246973183379833E+00
   0.5014415355681199E+00
   0.5724415173384028E+00
   0.5707004872020712E+00
   0.3697808153165075E+00
   0.4030358778730608E+00
   0.5559039170494936E+00
   0.5550071828219204E+00
   0.4941866649125000E+00
   0.4946225571723443E+00
   0.4922550880776335E+00
   0.4916952757088648E+00
   0.5126203612106004E+00
   0.5320037748259209E+00
   0.5051851732876267E+00
   0.4700274422217597E+00
   0.5096958286801851E+00
   0.5089633499330307E+00
   0.4955096745861742E+00
   0.5091189249437621E+00
   0.4859971782623401E+00
   0.5290197329654327E+00
   0.5276939305558399E+00
   0.5095384286339958E+00
   0.5265023575273107E+00
   0.5255836715229150E+00
   0.5249264246898828E+00
   0.5039105676555576E+00
   0.5284460210011866E+00
   0.5353830987663443E+00
   0.5371546995993381E+00
   0.5324039368576016E+00
   0.4987533161462568E+00
   0.4995693380798951E+00
   0.4985678142319370E+00
   0.4978564019021533E+00
   0.4945363810549633E+00
   0.4946354240653240E+00
   0.4894932186601373E+00
   0.4881854149308873E+00
   0.4965709365751815E+00
   0.4946579467471697E+00
   0.4860622930836931E+00
   0.4896816117889400E+00
   0.4900401236949547E+00
   0.4911767741909288E+00
   0.4926166626939201E+00
   0.4981835085210197E+00
   0.4946289643971914E+00
   0.4948394986224742E+00
   0.4976378086146561E+00
   0.4907933142529479E+00
   0.4936012114807330E+00
   0.4927628912636938E+00
   0.4920514951902298E+00
   0.4513309486351701E+00
   0.4773809617878484E+00
   0.4929577593227018E+00
   0.4922016431821774E+00
   0.4645164622684781E+00
   0.4729120395439396E+00
   0.4915211032813461E+00
   0.4906741942899759E+00
   0.4940153701932106E+00
   0.4854929930744418E+00
   0.4731445505149768E+00
   0.4017685352713333E+00
   0.4925811127412589E+00
   0.4586089377543939E+00
   0.4595049325903740E+00
   0.4895104444366598E+00
   0.4701583353005394E+00
   0.4742235035198481E+00
   0.4816343218386062E+00
   0.4809631439132122E+00
   0.5081955852945332E+00
   0.4436620420948924E+00
   0.4960916958401029E+00
   0.5314783349107621E+00
   0.4949806832963762E+00
   0.5219301823556040E+00
   0.5081293872682000E+00
   0.5664001670778867E+00
   0.5269142300085923E+00
   0.5035387233639957E+00
   0.5834535199026654E+00
   0.5720240543056753E+00
   0.3408859787977204E+00
   0.3851958352806451E+00
   0.5717594931427719E+00
   0.5645095790363340E+00
   0.5689243688382851E+00
   0.5291696422568638E+00
   0.5449155772734220E+00
   0.5701879996569835E+00
   0.5404097314618148E+00
   0.5487779046385116E+00
   0.5790107886365274E+00
   0.4955235725196708E+00
   0.5064965498885579E+00
   0.4994484985749954E+00
   0.5533092708748907E+00
   0.4597902452484851E+00
   0.4983751332287175E+00
   0.5489762939826147E+00
   0.5894376514249784E+00
   0.5821700660572542E+00
   0.5457059880237736E+00
   0.5785146403089888E+00
   0.5122043911192574E+00
   0.5055088210333792E+00
   0.5048980709606049E+00
   0.5645297506079793E+00
   0.5552265536361912E+00
   0.4977583767269469E+00
   0.5488209304665200E+00
   0.5486892305187165E+00
   0.5643387454176266E+00
   0.4955121571254414E+00
   0.4958798449040120E+00
   0.3908413931513606E+00
   0.3725909688292552E+00
   0.5584900234290360E+00
   0.5739392692868103E+00
   0.4177438620702288E+00
   0.5813083045728942E+00
   0.4186000131721234E+00
   0.5391903795375875E+00
   0.4993239551268775E+00
   0.5113858616864141E+00
   0.5070195028282432E+00
   0.5732639800912472E+00
   0.5857709107209810E+00
   0.5448205849367199E+00
   0.5657062906968613E+00
   0.5320308473745475E+00
   0.5310303347355296E+00
   0.5561915761241504E+00
   0.5552162144218961E+00
   0.4401002249972610E+00
   0.5282987549664651E+00
   0.5807279754776168E+00
   0.3397137414838076E+00
   0.4812261108047506E+00
   0.5510167856374575E+00
   0.4924432439058273E+00
   0.3108743858200205E+00
   0.5051822108406393E+00
   0.5043571403719739E+00
   0.5129608762011588E+00
   0.5385848712711674E+00
   0.3519685122370177E+00
   0.3560462896581292E+00
   0.3308149967080730E+00
   0.5084554626676692E+00
   0.5125571445312201E+00
   0.5314307736586724E+00
   0.5857978769887687E+00
   0.4640825134403960E+00
   0.3627234830514525E+00
SCALARS v double 1
LOOKUP_TABLE default
   0.0000000000000000E+00
   0.0000000000000000E+00
   0.0000000000000000E+00
   0.0000000000000000E+00
   0.0000000000000000E+00
   0.0000000000000000E+00
   0.0000000000000000E+00
   0.0000000000000000E+00
   0.0000000000000000E+00
   0.0000000000000000E+00
   0.0000000000000000E+00
   0.0000000000000000E+00
   0.0000000000000000E+00
   0.0000000000000000E+00
   0.0000000000000000E+00
   0.0000000000000000E+00
   0.0000000000000000E+00
   0.0000000000000000E+00
   0.0000000000000000E+00
   0.0000000000000000E+00
   0.0000000000000000E+00
   0.0000000000000000E+00
   0.0000000000000000E+00
   0.0000000000000000E+00
   0.0000000000000000E+00
   0.0000000000000000E+00
   0.0000000000000000E+00
   0.0000000000000000E+00
   0.0000000000000000E+00
   0.0000000000000000E+00
   0.0000000000000000E+00
   0.0000000000000000E+00
   0.0000000000000000E+00
   0.0000000000000000E+00
   0.0000000000000000E+00
   0.0000000000000000E+00
   0.0000000000000000E+00
   0.0000000000000000E+00
   0.0000000000000000E+00
   0.0000000000000000E+00
   0.0000000000000000E+00
   0.0000000000000000E+00
   0.0000000000000000E+00
   0.0000000000000000E+00
   0.0000000000000000E+00
   0.0000000000000000E+00
   0.0000000000000000E+00
   0.0000000000000000E+00
   0.0000000000000000E+00
   0.0000000000000000E+00
   0.0000000000000000E+00
   0.0000000000000000E+00
   0.0000000000000000E+00
   0.0000000000000000E+00
   0.0000000000000000E+00
   0.0000000000000000E+00
   0.0000000000000000E+00
   0.0000000000000000E+00
   0.0000000000000000E+00
   0.0000000000000000E+00
   0.0000000000000000E+00
   0.6334726664039853E-03
  -0.1412099333491289E-02
  -0.1391683385542135E-02
   0.0000000000000000E+00
   0.0000000000000000E+00
   0.0000000000000000E+00
   0.0000000000000000E+00
  -0.1867977657665089E-01
   0.2777562581948439E-03
   0.2206621704963088E-02
   0.1490281520670626E-01
  -0.5368566309181652E-02
  -0.6642053020389726E-02
  -0.1142210351333632E-01
   0.4788843879287908E-02
   0.5371990514931626E-03
   0.3195637592821510E-02
   0.1530304316667006E-02
   0.3473816382764860E-02
   0.1704917692774948E-02
  -0.6356083487819594E-02
   0.7681765891155381E-03
   0.4869155120294889E-02
   0.6121854335471708E-03
   0.6959008623408545E-04
  -0.1767233737503783E-03
   0.6082845654216266E-03
   0.0000000000000000E+00
   0.0000000000000000E+00
   0.0000000000000000E+00
   0.0000000000000000E+00
   0.1212948095013234E-03
   0.1423635162289171E-02
  -0.1108799877780271E-02
  -0.9188931485954675E-03
  -0.2101544924089804E-02
  -0.1220496169310249E-02
  -0.8986449404634227E-03
  -0.6448412019421580E-03
  -0.2472692763006988E-04
  -0.5341990117673474E-03
   0.7240121811193346E-03
  -0.1570799774629337E-02
   0.1025654872384624E-03
  -0.1214699259819474E-03
  -0.8743265556622376E-03
  -0.8885262467683353E-03
   0.0000000000000000E+00
   0.0000000000000000E+00
   0.0000000000000000E+00
  -0.1091310707752037E-02
  -0.8502847378494324E-02
   0.1568987575907927E-01
   0.2148694359455891E-03
  -0.1053392986358125E-02
  -0.1673615285703445E-02
  -0.5281084522904479E-02
  -0.1235969186829404E-02
  -0.3701268434250677E-02
  -0.3032657935338102E-02
   0.2127150619209639E-02
   0.2880603936388517E-01
  -0.1724510494354028E-03
  -0.4260459827520461E-02
   0.2498525672894579E-02
   0.9551004279196686E-03
   0.0000000000000000E+00
   0.0000000000000000E+00
   0.0000000000000000E+00
   0.0000000000000000E+00
   0.0000000000000000E+00
   0.0000000000000000E+00
   0.0000000000000000E+00
   0.0000000000000000E+00
   0.0000000000000000E+00
   0.0000000000000000E+00
   0.0000000000000000E+00
   0.0000000000000000E+00
   0.0000000000000000E+00
   0.0000000000000000E+00
   0.0000000000000000E+00
   0.0000000000000000E+00
   0.0000000000000000E+00
   0.4670203401586849E-02
   0.2763278976589590E-02
   0.6893748822491155E-02
   0.5630441902854178E-02
   0.8687068967077893E-02
   0.1244114795734115E-01
   0.4866776733728382E-03
   0.4364184573607175E-02
   0.2406606140503570E-02
   0.2332214665007682E-02
   0.3176378326968767E-02
  -0.1059584428745083E-01
  -0.4893827754315829E-03
   0.6038353382807986E-02
   0.2600383741182933E-02
   0.2269794189487075E-02
   0.3837926184690186E-02
  -0.2020264704481561E-02
   0.9170015404838045E-03
   0.2371046893483260E-02
   0.1154923836511880E-02
   0.2686130111931122E-02
   0.1739854464430405E-02
   0.1798803895601997E-02
   0.8007122738248582E-02
  -0.3375979412498461E-02
   0.5470409559877835E-02
   0.6506736110397684E-04
  -0.3121025200760546E-04
  -0.1328424454024972E-01
  -0.3290580635072683E-02
  -0.3547656601464185E-02
   0.3675146570926666E-02
  -0.3988175035308622E-02
   0.8943823973276093E-03
  -0.2587599550198271E-01
  -0.3070964857045463E-02
   0.4167723642207079E-02
   0.7177108631449189E-03
   0.1825205270482519E-02
   0.4437745139842439E-02
   0.2300337350708068E-02
   0.3389536929718237E-02
   0.5068279800274653E-02
   0.1856651920223995E-02
   0.5820194493290456E-03
  -0.3347065361369332E-03
  -0.4621586350913857E-02
  -0.5498382920440332E-02
   0.4518988550985576E-03
   0.9429331932997806E-03
  -0.7332720420427220E-03
  -0.3869855700632565E-02
  -0.1215981719189060E-02
  -0.3656432472002590E-02
  -0.6898512307279270E-02
  -0.1708648187255623E-02
   0.5357634662383349E-03
  -0.3546521726737357E-03
   0.1111768347059817E-02
  -0.1832583914451682E-02
   0.6956131211201098E-02
  -0.9774614548228146E-02
  -0.1544861585139234E-04
  -0.4080128340682935E-03
   0.2409198744473362E-02
   0.1123359027791744E-02
   0.1298608631947852E-02
  -0.3828995613772602E-02
SCALARS w double 1
LOOKUP_TABLE default
   0.0000000000000000E+00
   0.0000000000000000E+00
   0.0000000000000000E+00
   0.0000000000000000E+00
   0.0000000000000000E+00
   0.0000000000000000E+00
   0.0000000000000000E+00
   0.0000000000000000E+00
   0.0000000000000000E+00
   0.0000000000000000E+00
   0.0000000000000000E+00
   0.0000000000000000E+00
   0.0000000000000000E+00
   0.0000000000000000E+00
   0.0000000000000000E+00
   0.0000000000000000E+00
   0.0000000000000000E+00
   0.0000000000000000E+00
   0.0000000000000000E+00
   0.0000000000000000E+00
   0.0000000000000000E+00
   0.0000000000000000E+00
   0.0000000000000000E+00
   0.0000000000000000E+00
   0.0000000000000000E+00
   0.0000000000000000E+00
   0.0000000000000000E+00
   0.0000000000000000E+00
   0.0000000000000000E+00
   0.0000000000000000E+00
   0.0000000000000000E+00
   0.0000000000000000E+00
   0.0000000000000000E+00
  -0.1144740195594930E+00
  -0.5028451693190523E-01
  -0.2218633552334608E-02
   0.5066015314758167E-02
  -0.6957785662913784E-03
  -0.6076383512445027E-03
   0.5805994830552367E-03
   0.1144807691437919E-02
   0.2440761464926874E-03
   0.3422553655931151E-02
   0.3884462902554979E-01
   0.5360740798584263E-01
  -0.1493568925290283E-02
  -0.2790727250148836E-01
   0.2079826304112044E-02
   0.1059655285209389E-01
   0.8042749329780035E-02
   0.4393891044758735E-01
  -0.4043424472115686E-03
  -0.1058030839362759E-01
  -0.3671503935043119E-02
  -0.2102261164044880E-02
   0.4819869229289050E-03
  -0.4609511947843380E-01
   0.1623618845816803E-01
   0.1240676133905297E-01
   0.2994628379001310E-01
   0.5073338576745675E-02
   0.4321079616522360E-02
   0.4383199197211372E-02
   0.4018274340400424E-02
   0.5466031821133285E-02
  -0.1704930563958249E-03
  -0.4834022548385351E-01
  -0.1122168293671573E+00
  -0.1279822898730857E+00
   0.2784418196138422E-02
   0.1930924568619792E-02
  -0.1150881334372888E+00
  -0.1133079985078473E+00
  -0.1132666994733892E+00
  -0.1072902052349771E+00
  -0.7748706493733669E-01
   0.3027732465165128E-02
  -0.2451874734618212E-01
  -0.2041361289952742E-01
  -0.9927800112244084E-02
   0.5241307971514085E-02
  -0.9129643516487199E-01
  -0.3406071824778090E-01
  -0.9180581855081234E-01
  -0.6776877647475392E-01
   0.1807791039898203E-02
   0.1559386366243252E-02
   0.1426788009381669E-02
   0.2118646086119706E-02
   0.1358294164605493E-02
  -0.1241620288234983E-02
  -0.1475158618141263E-02
   0.1114707502053393E-02
   0.2218159178903207E-02
   0.1202567088838091E-02
  -0.7056002510839070E-04
   0.1919581134609192E-03
   0.8213705064252479E-03
  -0.1576102576229775E-02
  -0.1943016499420760E-02
   0.1965357257476689E-02
  -0.4390851049133483E-04
  -0.4390429764794920E-03
   0.2228746919703227E-02
  -0.1071757830436583E-02
  -0.2024428956096576E-03
  -0.4923302851964862E-03
  -0.1804015296437974E-02
   0.6879533230695203E-01
   0.2330699831501292E-02
  -0.1105206881731885E-02
  -0.7920433425481549E-03
   0.1156184651476970E+00
   0.1039170543433710E+00
  -0.1771015940360952E-02
  -0.4421117100962140E-02
  -0.7493460294386890E-03
  -0.7086036512066612E-02
  -0.2645567454806665E-02
   0.1269925479957207E+00
   0.6360353099943548E-01
   0.2237139462640500E-01
   0.1353419728084836E+00