title="tecplot geometry and solution file"
variables = x y z mach temperature lambda1 lambda2 lambda3 lambda4 lambda5
zone t="boundary 1 bc-1", solutiontime= 0.5000000E+02, strandid=1001, i=32, j=46, f=feblock
 -0.547473807126E-02  0.000000000000E+00 -0.567611394124E-02  0.000000000000E+00  0.000000000000E+00  0.000000000000E+00 -0.525163716493E-02
 -0.425779958105E-02  0.000000000000E+00  0.000000000000E+00  0.000000000000E+00  0.000000000000E+00  0.000000000000E+00  0.000000000000E+00
  0.000000000000E+00  0.000000000000E+00 -0.338397811977E-02  0.000000000000E+00  0.000000000000E+00  0.000000000000E+00  0.000000000000E+00
  0.000000000000E+00  0.000000000000E+00  0.000000000000E+00  0.000000000000E+00  0.000000000000E+00  0.000000000000E+00  0.000000000000E+00
  0.000000000000E+00  0.000000000000E+00  0.000000000000E+00  0.000000000000E+00
  0.250494199996E+01  0.250494199996E+01  0.127822171177E+01  0.146289271009E+01  0.157686156160E+01  0.308372018325E+00  0.261949834539E-01
 -0.122573470438E+01 -0.600232012419E+00  0.250494199996E+01  0.477386199275E+00  0.742988685424E+00 -0.739814786992E+00  0.177790177481E+01
  0.155830813274E+01  0.250494199996E+01 -0.249658902117E+01 -0.154800130438E+01 -0.487811078581E+00  0.250494199996E+01  0.627766083140E+00
 -0.345533899378E+00 -0.178862290564E+01 -0.158811787973E+01  0.125000000000E+01 -0.249658902117E+01 -0.144524380962E+01  0.000000000000E+00
 -0.125000000000E+01 -0.249658902117E+01 -0.249658902117E+01 -0.249658902117E+01
  0.805554723431E-04  0.125000000000E+01  0.823773991683E-04  0.103724302461E+01  0.219251206392E+01  0.922061490191E+00  0.103961330990E-03
  0.342005321779E-04  0.715990576545E+00  0.250000000000E+01  0.202479342020E+01  0.324151231464E+01  0.175434191980E+01  0.310152362409E+01
  0.404200324774E+01  0.375000000000E+01  0.810770666835E-04  0.930412228790E+00  0.299062775774E+01  0.500000000000E+01  0.429310310915E+01
  0.409252726285E+01  0.187029682677E+01  0.284428995242E+01  0.500000000000E+01  0.125000000000E+01  0.394624082883E+01  0.500000000000E+01
  0.500000000000E+01  0.250000000000E+01  0.375000000000E+01  0.500000000000E+01
  0.000000000000E+00  0.447917893104E+00  0.000000000000E+00  0.476275931555E+00  0.468523764258E+00  0.473519703686E+00  0.000000000000E+00
  0.000000000000E+00  0.412988885572E+00  0.477443348003E+00  0.472504673047E+00  0.485153442297E+00  0.492070550375E+00  0.488543839063E+00
  0.491923380125E+00  0.493078169939E+00  0.000000000000E+00  0.471586654448E+00  0.480934095626E+00  0.498012892236E+00  0.493689909582E+00
  0.490409919455E+00  0.456073457024E+00  0.472047037771E+00  0.498545864547E+00  0.449257989219E+00  0.491117573798E+00  0.499470102958E+00
  0.498443302004E+00  0.475665752878E+00  0.492352552841E+00  0.497648492019E+00
  0.104242640687E+01  0.102508330221E+01  0.104242640687E+01  0.103461472126E+01  0.100936211481E+01  0.102707647030E+01  0.104242640687E+01
  0.104242640687E+01  0.104103512175E+01  0.100608607954E+01  0.100935928681E+01  0.100173207642E+01  0.101882157420E+01  0.100399703841E+01
  0.100113916075E+01  0.100201867166E+01  0.104242640687E+01  0.103067303883E+01  0.100321571449E+01  0.100090132497E+01  0.100133271257E+01
  0.100116394826E+01  0.101357751416E+01  0.100469368551E+01  0.100084556817E+01  0.103269876849E+01  0.100165718156E+01  0.100040727367E+01
  0.100050934991E+01  0.100724883558E+01  0.100246497717E+01  0.100085386850E+01
  0.369330139917E+01  0.625164836784E+01  0.451355169488E+01  0.816390782889E+01  0.629336062444E+01  0.483660726677E+01  0.675303123789E+01
  0.334559597239E+01  0.188952752385E+01  0.461794470220E+01  0.816167131787E+01  0.475135095070E+01  0.948723387945E+01  0.356862852171E+01
  0.112250412314E+02  0.931283676671E+01  0.441582992000E+01  0.549904316745E+01  0.475157004381E+01  0.569422229979E+02  0.160848583411E+02
  0.823936485128E+01  0.803590224337E+01  0.493349432842E+01  0.607787337222E+02  0.901078795124E+01  0.625691696011E+01  0.625106208453E+02
  0.457706802134E+02  0.588990203662E+01  0.690962804289E+01  0.382634502220E+02
  0.983399007780E+00  0.258921027112E+01  0.142608269448E+01  0.270850319650E+01  0.237422257246E+01  0.299658704626E+01  0.820768610273E+00
  0.920698311222E+00  0.208718054056E+01  0.191792294204E+01  0.251564280347E+01  0.139598422031E+01  0.275490274848E+01  0.128584956532E+01
  0.222033444557E+01  0.199079413164E+01  0.631060067107E+00  0.261227895081E+01  0.145601752901E+01  0.117854737600E+02  0.324267555218E+01
  0.163231544864E+01  0.250162304332E+01  0.153211362096E+01  0.128123263173E+02  0.239178018905E+01  0.131187185150E+01  0.131874857314E+02
  0.964327651992E+01  0.191162129723E+01  0.172126318258E+01  0.801085346829E+01
  0.163329676825E+00  0.129358286101E+00  0.580564070091E-01  0.404964225999E+00  0.143987908895E+00  0.218365486848E+00  0.393058754976E+00
 -0.193121284391E+00  0.492640994105E+00 -0.866810973441E-03  0.529304569982E+00  0.489942963430E+00  0.592364232035E+00  0.283084452022E+00
  0.368244663302E+00  0.348492594247E-02 -0.287949126785E+00 -0.277532328415E+00  0.519383501111E+00 -0.150505195367E-01  0.312656866276E+00
  0.178035322560E+00  0.410213690752E+00  0.201957950706E+00  0.115890349569E-01 -0.110630792955E+00  0.780135559780E-01  0.196144187319E+00
  0.130161659689E+00 -0.528055965024E-02 -0.325355898683E-01 -0.135160348241E-01
 -0.241470113871E+01 -0.660848733353E+01 -0.315178910347E+01 -0.704871527527E+01 -0.537514041051E+01 -0.992311501294E+01 -0.186695093578E+01
 -0.173875982286E+01 -0.988140554063E+01 -0.536824257387E+01 -0.440623868981E+01 -0.379092147447E+01 -0.314331701125E+01 -0.453598364847E+01
 -0.279624942290E+01 -0.319088705986E+01 -0.115299183083E+01 -0.632171628361E+01 -0.365801923560E+01 -0.119310986916E+01 -0.238483434403E+01
 -0.259735712421E+01 -0.378397610127E+01 -0.366368336541E+01 -0.112679358792E+01 -0.517955125690E+01 -0.257219035614E+01 -0.102874637388E+01
 -0.122404676339E+01 -0.419041623552E+01 -0.277578226757E+01 -0.124246473447E+01
 -0.114169858237E+01 -0.265095648646E+01 -0.170576059052E+01 -0.327189771318E+01 -0.226273804327E+01 -0.240568167148E+01 -0.142296625901E+01
 -0.860305761271E+00 -0.133780547169E+01 -0.159974303117E+01 -0.288104022687E+01 -0.171427359333E+01 -0.333380814935E+01 -0.118363659032E+01
 -0.427840373045E+01 -0.354930248660E+01 -0.103180376545E+01 -0.253522733955E+01 -0.173124123593E+01 -0.235767650452E+02 -0.632201566099E+01
 -0.304674834629E+01 -0.289101321629E+01 -0.177542742137E+01 -0.252224334018E+02 -0.349329606489E+01 -0.221600082466E+01 -0.260205882351E+02
 -0.189500512983E+02 -0.208886521145E+01 -0.256395645484E+01 -0.157379905102E+02
        12        19        11        11
        11         5        12        12
        10        14         5         5
        19        13        11        11
        19        24        13        13
        30        23        24        24
        19        12        22        22
        28        22        21        21
        11        13         6         6
         7         6         9         9
        15        12        14        14
        18        13        23        23
        15        25        21        21
        27        19        22        22
        18         8         9         9
        27        31        24        24
         4        11         6         6
         5        14        12        12
         4         2         5         5
        21        12        15        15
        14        16        15        15
        24        19        27        27
        22        29        27        27
        23        26        18        18
        17         8        18        18
         5        11         4         4
         6         3         4         4
        26        23        30        30
         5         2        10        10
        16        14        10        10
         3         6         7         7
        21        25        28        28
        29        22        28        28
         6        13         9         9
         2         4         1         1
        31        27        32        32
        25        15        20        20
        24        23        13        13
         8         7         9         9
        13        18         9         9
        31        30        24        24
        12        21        22        22
        29        32        27        27
         3         1         4         4
        26        17        18        18
        16        20        15        15
zone t="boundary 2 bc-2", solutiontime= 0.5000000E+02, strandid=1002, i=33, j=48, f=feblock
  0.500195254568E+01  0.375034811445E+01  0.249861145586E+01  0.288036674134E+01  0.124717525353E+01  0.190856697905E+01  0.326577190006E+01
  0.201394855912E+01 -0.338397811977E-02  0.962374243889E+00  0.500000000000E+01  0.403430189815E+01  0.423029563516E+01  0.500000000000E+01
  0.385439188840E+01  0.500000000000E+01  0.398133433219E+01  0.315200081383E+01  0.266958028789E+01  0.154798029748E+01  0.218327860401E+01
  0.893688440126E+00  0.000000000000E+00  0.699009761219E+00  0.964460898511E+00  0.310303671661E+01  0.000000000000E+00  0.000000000000E+00
  0.125000000000E+01  0.500000000000E+01  0.375000000000E+01  0.250000000000E+01  0.000000000000E+00
 -0.249658902117E+01 -0.249658902117E+01 -0.249658902117E+01 -0.249658902117E+01 -0.249658902117E+01 -0.249658902117E+01 -0.249658902117E+01
 -0.249658902117E+01 -0.249658902117E+01 -0.249658902117E+01 -0.249658902117E+01 -0.249658902117E+01 -0.249658902117E+01 -0.249658902117E+01
 -0.249658902117E+01 -0.249658902117E+01 -0.249658902117E+01 -0.249658902117E+01 -0.249658902117E+01 -0.249658902117E+01 -0.249658902117E+01
 -0.249658902117E+01 -0.249658902117E+01 -0.249658902117E+01 -0.249658902117E+01 -0.249658902117E+01 -0.249658902117E+01 -0.249658902117E+01
 -0.249658902117E+01 -0.249658902117E+01 -0.249658902117E+01 -0.249658902117E+01 -0.249658902117E+01
  0.108218470107E-03  0.145871004167E-03  0.100891402352E-03  0.901663364689E+00  0.110859765950E-03  0.714928312394E+00  0.188140647110E+01
  0.175892165293E+01  0.810770666835E-04  0.957504290550E+00  0.125000000000E+01  0.100596696999E+01  0.191313518634E+01  0.250000000000E+01
  0.292898096729E+01  0.375000000000E+01  0.406883369623E+01  0.363389290091E+01  0.284756861229E+01  0.292582308304E+01  0.395754055152E+01
  0.205027257041E+01  0.125000000000E+01  0.306703272778E+01  0.397155766783E+01  0.433068622257E+01  0.250000000000E+01  0.375000000000E+01
  0.500000000000E+01  0.500000000000E+01  0.500000000000E+01  0.500000000000E+01  0.500000000000E+01
  0.000000000000E+00  0.000000000000E+00  0.000000000000E+00  0.384516102379E+00  0.000000000000E+00  0.340285873075E+00  0.586752973058E+00
  0.575426018814E+00  0.000000000000E+00  0.487199378467E+00  0.520641040018E+00  0.445423555755E+00  0.576269221497E+00  0.533962376915E+00
  0.567224534025E+00  0.511735128316E+00  0.508063929882E+00  0.527166122502E+00  0.565842714108E+00  0.531744059128E+00  0.508272212922E+00
  0.522388437205E+00  0.449257989219E+00  0.494521458293E+00  0.495788427676E+00  0.503678485303E+00  0.475665752878E+00  0.492352552841E+00
  0.494346755558E+00  0.491660272583E+00  0.489529542898E+00  0.494638536197E+00  0.497648492019E+00
  0.104242640687E+01  0.104242640687E+01  0.104242640687E+01  0.100355246665E+01  0.104242640687E+01  0.100599607839E+01  0.989008031489E+00
  0.992225316054E+00  0.104242640687E+01  0.997058798899E+00  0.987964542596E+00  0.995589876967E+00  0.989405264241E+00  0.100087323765E+01
  0.997203119671E+00  0.100346283424E+01  0.100053321078E+01  0.999080757420E+00  0.995647250028E+00  0.100095637499E+01  0.999458338897E+00
  0.100692573084E+01  0.103269876849E+01  0.100216635877E+01  0.100130290772E+01  0.999493814466E+00  0.100724883558E+01  0.100246497717E+01
  0.100077487280E+01  0.100026599126E+01  0.999860681535E+00  0.999993717468E+00  0.100085386850E+01
  0.819901434906E+01  0.917961257095E+01  0.741644992943E+01  0.799572044264E+01  0.500419839229E+01  0.782950660046E+01  0.986393643273E+01
  0.855099611601E+01  0.441582992000E+01  0.857435923801E+01  0.118205856211E+02  0.942685483968E+01  0.110579670323E+02  0.944231525978E+01
  0.787793259673E+01  0.630383724842E+01  0.687154592151E+01  0.728975990940E+01  0.837799252862E+01  0.705422810018E+01  0.582197818578E+01
  0.772885558463E+01  0.901078795124E+01  0.529559098438E+01  0.544418909528E+01  0.911316254103E+01  0.588990203662E+01  0.690962804289E+01
  0.248188913174E+02  0.985194927630E+01  0.116571976274E+02  0.369491077426E+01  0.382634502220E+02
 -0.163551942491E+01  0.237465132243E+00  0.536513991956E+00  0.400864936374E+01 -0.427498696534E-01  0.307116991614E+01 -0.133857301400E+01
  0.113680842035E+01  0.631060067107E+00  0.286718201194E+01 -0.271953871914E+01  0.357642661356E+00 -0.259015881300E+01 -0.241711665464E+01
 -0.202681851210E+01 -0.155118189187E+01 -0.157978553096E+01 -0.148852614430E+01 -0.137220619357E+01 -0.126117912305E+00 -0.124653068284E+01
  0.159089685862E+01  0.239178018905E+01  0.504426687740E+00 -0.178849388801E+00 -0.103135240263E+01  0.191162129723E+01  0.172126318258E+01
  0.328784289582E+01  0.652135339327E-01 -0.786237791270E+00 -0.231348570589E+01  0.801085346829E+01
 -0.244181199071E+00 -0.392821866449E+00  0.878931067716E-01  0.381408148161E+00  0.163709468354E+00  0.633758565121E+00 -0.149830861026E+00
 -0.244897304366E+00 -0.287949126785E+00  0.929370097242E-01 -0.769371774491E-01 -0.246092904074E+00  0.569708875480E-01 -0.173117540021E-01
 -0.636211571183E-02  0.245501307623E-01 -0.224569279831E-01  0.106291951949E-01  0.538923436287E-01  0.711837259835E-01  0.632518204681E-03
 -0.153743887224E-01 -0.110630792955E+00 -0.531144763800E-01 -0.503996702172E-01  0.649639277000E-02 -0.528055965024E-02 -0.325355898683E-01
  0.690831253769E-04  0.330014756943E-02  0.170671080001E-02 -0.749187426258E-02 -0.135160348241E-01
 -0.125455155148E+01 -0.221483321329E+01 -0.165865545709E+01 -0.836037711661E+01 -0.163493705050E+01 -0.891363644289E+01 -0.214822514607E+01
 -0.381434740384E+01 -0.115299183083E+01 -0.525869924603E+01 -0.693640020926E+00 -0.350630898633E+01 -0.910790217406E+00 -0.376217812834E+00
 -0.140826310862E+01 -0.463412583055E+00 -0.139898633052E+01 -0.206281142946E+01 -0.251776128418E+01 -0.328617158556E+01 -0.239832790549E+01
 -0.377763351782E+01 -0.517955125690E+01 -0.329290296263E+01 -0.251710323320E+01 -0.205536497785E+01 -0.419041623552E+01 -0.277578226757E+01
 -0.173183602631E+01 -0.804542557488E+00 -0.179786934961E+01 -0.202724625284E+01 -0.124246473447E+01
 -0.859099106637E+00  0.241421989604E-03  0.639831786045E-03 -0.343524812986E+01 -0.206395238936E-01 -0.364677740007E+01 -0.218286890034E+01
 -0.242727322954E+01 -0.103180376545E+01 -0.356896927659E+01 -0.256852256493E+01 -0.262585083370E+01 -0.234093988388E+01 -0.183005737241E+01
 -0.154054250730E+01 -0.124515533658E+01 -0.146085233961E+01 -0.162605669276E+01 -0.200063479970E+01 -0.198087812788E+01 -0.122946910909E+01
 -0.256811846182E+01 -0.349329606489E+01 -0.161833896215E+01 -0.149505653383E+01 -0.247291529587E+01 -0.208886521145E+01 -0.256395645484E+01
 -0.951371628420E+01 -0.323684940293E+01 -0.354657878483E+01 -0.225173520854E+00 -0.157379905102E+02
        15         7        19        19
         8        20        19        19
        18        19        21        21
         7         4         8         8
         3         6         4         4
        19         7         8         8
        19        18        15        15
        14        13        15        15
         8        22        20        20
        27        24        22        22
        19        20        21        21
        32        26        21        21
        17        18        26        26
        17        16        15        15
        25        29        21        21
        12         7        13        13
        10         8         6         6
        25        20        24        24
         4         6         8         8
        12         2         4         4
        10        23        22        22
        26        31        17        17
        30        16        17        17
         4         7        12        12
        13        11        12        12
        21        20        25        25
        24        28        25        25
        22         8        10        10
         6         5        10        10
        31        26        32        32
         4         2         3         3
         5         6         3         3
        11        13        14        14
        22        23        27        27
        28        24        27        27
        15        13         7         7
         2        12         1         1
        29        25        33        33
        23        10         9         9
        21        26        18        18
        16        14        15        15
        18        17        15        15
        29        32        21        21
        22        24        20        20
        28        33        25        25
        11         1        12        12
        31        30        17        17
         5         9        10        10
zone t="boundary 3 bc-3", solutiontime= 0.5000000E+02, strandid=1003, i=33, j=48, f=feblock
  0.375059098656E+01  0.249769607632E+01  0.500322138024E+01  0.403612219886E+01  0.287976772042E+01  0.124541906320E+01  0.190552234483E+01
  0.500000000000E+01  0.326671105081E+01  0.423253757180E+01  0.201271135153E+01 -0.547473807126E-02  0.958895614425E+00  0.500000000000E+01
  0.266968147276E+01  0.385584488388E+01  0.890374186974E+00  0.154654012335E+01  0.000000000000E+00  0.500000000000E+01  0.315261137201E+01
  0.218304199244E+01  0.398195308498E+01  0.000000000000E+00  0.697379936714E+00  0.963757270369E+00  0.125000000000E+01  0.000000000000E+00
  0.500000000000E+01  0.310330738803E+01  0.250000000000E+01  0.375000000000E+01  0.000000000000E+00
  0.250494199996E+01  0.250494199996E+01  0.250494199996E+01  0.250494199996E+01  0.250494199996E+01  0.250494199996E+01  0.250494199996E+01
  0.250494199996E+01  0.250494199996E+01  0.250494199996E+01  0.250494199996E+01  0.250494199996E+01  0.250494199996E+01  0.250494199996E+01
  0.250494199996E+01  0.250494199996E+01  0.250494199996E+01  0.250494199996E+01  0.250494199996E+01  0.250494199996E+01  0.250494199996E+01
  0.250494199996E+01  0.250494199996E+01  0.250494199996E+01  0.250494199996E+01  0.250494199996E+01  0.250494199996E+01  0.250494199996E+01
  0.250494199996E+01  0.250494199996E+01  0.250494199996E+01  0.250494199996E+01  0.250494199996E+01
  0.135804613136E-03  0.110291600138E-03  0.968352231350E-04  0.101756767184E+01  0.908094754977E+00  0.104111048370E-03  0.722629266591E+00
  0.125000000000E+01  0.188965673340E+01  0.191862703991E+01  0.176708252857E+01  0.805554723431E-04  0.969652727894E+00  0.250000000000E+01
  0.285339441809E+01  0.293325064380E+01  0.205656233202E+01  0.293157024791E+01  0.125000000000E+01  0.375000000000E+01  0.363766843533E+01
  0.396069448925E+01  0.407056387650E+01  0.250000000000E+01  0.307031999890E+01  0.397359822904E+01  0.500000000000E+01  0.375000000000E+01
  0.500000000000E+01  0.433260783674E+01  0.500000000000E+01  0.500000000000E+01  0.500000000000E+01
  0.000000000000E+00  0.000000000000E+00  0.000000000000E+00  0.453747912967E+00  0.402545502452E+00  0.000000000000E+00  0.369629009543E+00
  0.520525438577E+00  0.575220780219E+00  0.575502697133E+00  0.558260174274E+00  0.000000000000E+00  0.478252962452E+00  0.530976530200E+00
  0.555830976399E+00  0.562793219653E+00  0.524675235834E+00  0.523282018188E+00  0.447917893104E+00  0.513796076167E+00  0.524673097208E+00
  0.506323914759E+00  0.509686671337E+00  0.477443348003E+00  0.499194823540E+00  0.497912967444E+00  0.492962759870E+00  0.493078169939E+00
  0.493192027983E+00  0.501531684732E+00  0.491169160321E+00  0.488098785873E+00  0.498012892236E+00
  0.104242640687E+01  0.104242640687E+01  0.104242640687E+01  0.992555420605E+00  0.100338777628E+01  0.104242640687E+01  0.100275102529E+01
  0.987610948161E+00  0.990360755947E+00  0.989796153239E+00  0.994453865708E+00  0.104242640687E+01  0.999323382885E+00  0.100158433896E+01
  0.997121320216E+00  0.998147046673E+00  0.100443205293E+01  0.100036233051E+01  0.102508330221E+01  0.100269535219E+01  0.100014129837E+01
  0.999693737614E+00  0.100036856474E+01  0.100608607954E+01  0.100156234007E+01  0.100069385186E+01  0.100096903929E+01  0.100201867166E+01
  0.100024531101E+01  0.999658107118E+00  0.100018113529E+01  0.100002132966E+01  0.100090132497E+01
  0.121077568162E+02  0.753176955074E+01  0.915893355300E+01  0.952327927409E+01  0.911685662997E+01  0.615259605331E+01  0.840899664694E+01
  0.125141150347E+02  0.108567277989E+02  0.112142535258E+02  0.990716967512E+01  0.369330139917E+01  0.920150239304E+01  0.939132901836E+01
  0.830139254245E+01  0.844422983983E+01  0.801561169113E+01  0.638485248381E+01  0.625164836784E+01  0.683143284984E+01  0.605309107162E+01
  0.541432558033E+01  0.529280714236E+01  0.461794470220E+01  0.450092905707E+01  0.103100944822E+02  0.347663100543E+02  0.931283676671E+01
  0.655855884928E+01  0.957165067944E+01  0.135871129526E+02  0.186869545266E+02  0.569422229979E+02
  0.206864798879E+00  0.582466779102E+00 -0.197299446116E+01  0.162904671550E+01  0.421598017783E+01  0.223338083986E+00  0.427153711630E+01
 -0.285905380232E+01 -0.230606085140E+01 -0.300630683010E+01  0.751126453002E-01  0.983399007780E+00  0.347416814576E+01 -0.242730943486E+01
 -0.173129677488E+01 -0.213623478308E+01  0.167425355590E+01 -0.735708003078E+00  0.258921027112E+01 -0.166014317758E+01 -0.191087279272E+01
 -0.161428662257E+01 -0.198325711925E+01  0.191792294204E+01  0.151876337121E+00  0.642587229452E+00  0.532014615305E+01  0.199079413164E+01
 -0.624534294582E+00 -0.107476171709E+01 -0.232954755830E+00  0.576263992263E+00  0.117854737600E+02
 -0.178420475749E-01  0.980004046346E-01  0.863616611844E-01 -0.777386097853E+00 -0.757164601408E+00 -0.824058513943E-01 -0.680161352890E-02
  0.509454943812E-01  0.228356016630E+00  0.347723366856E-01  0.268969671303E+00  0.163329676825E+00  0.234145225337E+00 -0.186666645206E-01
 -0.391342984295E-01  0.164783738276E-01 -0.277398312551E-01 -0.172357350353E+00  0.129358286101E+00 -0.277303739869E-01 -0.127345762000E-01
  0.221276941091E-01  0.448373376915E-02 -0.866810973441E-03  0.385498913614E-01  0.836691782513E-01 -0.272811676330E-01  0.348492594247E-02
 -0.158934598830E-01 -0.134827114178E-02 -0.716134063836E-02 -0.222070622577E-02 -0.150505195367E-01
 -0.285920353794E+01 -0.268678858798E+01 -0.112111286361E+01 -0.822146093579E+01 -0.967938636048E+01 -0.271247281342E+01 -0.991290516798E+01
 -0.450833266592E+00 -0.301426113904E+01 -0.105662532926E+01 -0.440127444893E+01 -0.241470113871E+01 -0.710872302570E+01 -0.466620959842E+00
 -0.303455821798E+01 -0.156158996655E+01 -0.490364968256E+01 -0.409764205600E+01 -0.660848733353E+01 -0.569396219279E+00 -0.216352137714E+01
 -0.273217591699E+01 -0.149296277541E+01 -0.536824257387E+01 -0.426435629777E+01 -0.291660217096E+01 -0.187879720718E+01 -0.319088705986E+01
 -0.752065802793E+00 -0.211110728200E+01 -0.211595694098E+01 -0.183765046067E+01 -0.119310986916E+01
  0.707125329648E-02 -0.282382310081E-01 -0.854663134237E+00 -0.321053199312E+01 -0.380447249197E+01 -0.424189674759E-01 -0.396826943408E+01
 -0.273655980384E+01 -0.219598856395E+01 -0.221007446497E+01 -0.248569017701E+01 -0.114169858237E+01 -0.370118603436E+01 -0.181637402843E+01
 -0.184530252868E+01 -0.168489137406E+01 -0.254037904861E+01 -0.152582312581E+01 -0.265095648646E+01 -0.136164884250E+01 -0.102764455587E+01
 -0.954507500352E+00 -0.773074788674E+00 -0.159974303117E+01 -0.125781738928E+01 -0.347067660793E+01 -0.136341196600E+02 -0.354930248660E+01
 -0.184726732773E+01 -0.261443438385E+01 -0.437676154559E+01 -0.646295206606E+01 -0.235767650452E+02
        15         9        16        16
        15        18        11        11
        22        15        21        21
        11         5         9         9
         5         7         2         2
        11         9        15        15
        16        21        15        15
        16        10        14        14
        18        17        11        11
        17        25        24        24
        22        18        15        15
        22        30        31        31
        30        21        23        23
        16        20        23        23
        22        27        26        26
        10         9         4         4
         7        11        13        13
        25        18        26        26
        11         7         5         5
         5         1         4         4
        17        19        13        13
        23        32        30        30
        23        20        29        29
         4         9         5         5
         4         8        10        10
        26        18        22        22
        26        28        25        25
        13        11        17        17
        13         6         7         7
        31        30        32        32
         2         1         5         5
         2         7         6         6
        14        10         8         8
        24        19        17        17
        24        25        28        28
         9        10        16        16
         3         4         1         1
        33        26        27        27
        12        13        19        19
        21        30        22        22
        16        14        20        20
        16        23        21        21
        22        31        27        27
        18        25        17        17
        26        33        28        28
         4         3         8         8
        23        29        32        32
        13        12         6         6
zone t="boundary 4 bc-4", solutiontime= 0.5000000E+02, strandid=1004, i=32, j=46, f=feblock
  0.125000000000E+01  0.219251206392E+01  0.103724302461E+01  0.500000000000E+01  0.250000000000E+01  0.375000000000E+01  0.404200324774E+01
  0.500000000000E+01  0.000000000000E+00  0.310152362409E+01  0.202479342020E+01  0.324151231464E+01  0.922061490191E+00  0.000000000000E+00
  0.299062775774E+01  0.394624082883E+01  0.500000000000E+01  0.409252726285E+01  0.500000000000E+01  0.429310310915E+01  0.175434191980E+01
  0.284428995242E+01  0.000000000000E+00  0.000000000000E+00  0.715990576545E+00  0.930412228790E+00  0.125000000000E+01  0.187029682677E+01
  0.500000000000E+01  0.375000000000E+01  0.250000000000E+01  0.000000000000E+00
  0.250494199996E+01  0.157686156160E+01  0.146289271009E+01  0.250494199996E+01  0.250494199996E+01  0.250494199996E+01  0.155830813274E+01
  0.125000000000E+01  0.250494199996E+01  0.177790177481E+01  0.477386199275E+00  0.742988685424E+00  0.308372018325E+00  0.125000000000E+01
 -0.487811078581E+00 -0.144524380962E+01 -0.125000000000E+01 -0.345533899378E+00  0.000000000000E+00  0.627766083140E+00 -0.739814786992E+00
 -0.158811787973E+01  0.000000000000E+00 -0.125000000000E+01 -0.600232012419E+00 -0.154800130438E+01 -0.249658902117E+01 -0.178862290564E+01
 -0.249658902117E+01 -0.249658902117E+01 -0.249658902117E+01 -0.249658902117E+01
  0.500000000000E+01  0.500000000000E+01  0.500000000000E+01  0.500000000000E+01  0.500000000000E+01  0.500000000000E+01  0.500000000000E+01
  0.500000000000E+01  0.500000000000E+01  0.500000000000E+01  0.500000000000E+01  0.500000000000E+01  0.500000000000E+01  0.500000000000E+01
  0.500000000000E+01  0.500000000000E+01  0.500000000000E+01  0.500000000000E+01  0.500000000000E+01  0.500000000000E+01  0.500000000000E+01
  0.500000000000E+01  0.500000000000E+01  0.500000000000E+01  0.500000000000E+01  0.500000000000E+01  0.500000000000E+01  0.500000000000E+01
  0.500000000000E+01  0.500000000000E+01  0.500000000000E+01  0.500000000000E+01
  0.492962759870E+00  0.493501811671E+00  0.494482154831E+00  0.493192027983E+00  0.491169160321E+00  0.488098785873E+00  0.488213915627E+00
  0.494128983540E+00  0.498012892236E+00  0.490743060293E+00  0.492687813004E+00  0.491182349969E+00  0.497494162823E+00  0.498545864547E+00
  0.492035510719E+00  0.486141829064E+00  0.492132924673E+00  0.489715881183E+00  0.494539390222E+00  0.490046920039E+00  0.494491364915E+00
  0.492624363644E+00  0.499470102958E+00  0.498443302004E+00  0.498085503858E+00  0.496394045645E+00  0.494346755558E+00  0.494728908771E+00
  0.491660272583E+00  0.489529542898E+00  0.494638536197E+00  0.497648492019E+00
  0.100096903929E+01  0.100040310406E+01  0.100072208318E+01  0.100024531101E+01  0.100018113529E+01  0.100002132966E+01  0.999888523338E+00
  0.100031159626E+01  0.100090132497E+01  0.100020963142E+01  0.100030894110E+01  0.999990940255E+00  0.100060759990E+01  0.100084556817E+01
  0.100008167760E+01  0.999676407531E+00  0.100057119101E+01  0.999878618045E+00  0.100042307878E+01  0.999981274937E+00  0.100055778173E+01
  0.999986005540E+00  0.100040727367E+01  0.100050934991E+01  0.100040913615E+01  0.100074102371E+01  0.100077487280E+01  0.100045005174E+01
  0.100026599126E+01  0.999860681535E+00  0.999993717468E+00  0.100085386850E+01
  0.347663100543E+02  0.340268994029E+02  0.402071047631E+02  0.655855884928E+01  0.135871129526E+02  0.186869545266E+02  0.241822797759E+02
  0.550007389359E+01  0.569422229979E+02  0.218529280490E+02  0.340683371229E+02  0.189723089288E+02  0.463017304307E+02  0.607787337222E+02
  0.837275672123E+01  0.101050471994E+02  0.871787319808E+01  0.117518611731E+02  0.691408460603E+01  0.298718925833E+02  0.352694024315E+02
  0.724983428917E+01  0.625106208453E+02  0.457706802134E+02  0.513790728440E+02  0.321971021146E+02  0.248188913174E+02  0.234866408874E+02
  0.985194927630E+01  0.116571976274E+02  0.369491077426E+01  0.382634502220E+02