title="tecplot geometry and solution file"
variables = x y z mach temperature lambda1 lambda2 lambda3 lambda4 lambda5
zone t="boundary 1 bc-1", solutiontime= 0.2000000E+02, strandid=1001, i=32, j=46, f=feblock
 -0.547473807126E-02  0.000000000000E+00 -0.567611394124E-02  0.000000000000E+00  0.000000000000E+00  0.000000000000E+00 -0.525163716493E-02
 -0.425779958105E-02  0.000000000000E+00  0.000000000000E+00  0.000000000000E+00  0.000000000000E+00  0.000000000000E+00  0.000000000000E+00
  0.000000000000E+00  0.000000000000E+00 -0.338397811977E-02  0.000000000000E+00  0.000000000000E+00  0.000000000000E+00  0.000000000000E+00
  0.000000000000E+00  0.000000000000E+00  0.000000000000E+00  0.000000000000E+00  0.000000000000E+00  0.000000000000E+00  0.000000000000E+00
  0.000000000000E+00  0.000000000000E+00  0.000000000000E+00  0.000000000000E+00
  0.250494199996E+01  0.250494199996E+01  0.127822171177E+01  0.146289271009E+01  0.157686156160E+01  0.308372018325E+00  0.261949834539E-01
 -0.122573470438E+01 -0.600232012419E+00  0.250494199996E+01  0.477386199275E+00  0.742988685424E+00 -0.739814786992E+00  0.177790177481E+01
  0.155830813274E+01  0.250494199996E+01 -0.249658902117E+01 -0.154800130438E+01 -0.487811078581E+00  0.250494199996E+01  0.627766083140E+00
 -0.345533899378E+00 -0.178862290564E+01 -0.158811787973E+01  0.125000000000E+01 -0.249658902117E+01 -0.144524380962E+01  0.000000000000E+00
 -0.125000000000E+01 -0.249658902117E+01 -0.249658902117E+01 -0.249658902117E+01
  0.805554723431E-04  0.125000000000E+01  0.823773991683E-04  0.103724302461E+01  0.219251206392E+01  0.922061490191E+00  0.103961330990E-03
  0.342005321779E-04  0.715990576545E+00  0.250000000000E+01  0.202479342020E+01  0.324151231464E+01  0.175434191980E+01  0.310152362409E+01
  0.404200324774E+01  0.375000000000E+01  0.810770666835E-04  0.930412228790E+00  0.299062775774E+01  0.500000000000E+01  0.429310310915E+01
  0.409252726285E+01  0.187029682677E+01  0.284428995242E+01  0.500000000000E+01  0.125000000000E+01  0.394624082883E+01  0.500000000000E+01
  0.500000000000E+01  0.250000000000E+01  0.375000000000E+01  0.500000000000E+01
  0.000000000000E+00  0.447917893104E+00  0.000000000000E+00  0.476275931555E+00  0.468523764258E+00  0.473519703686E+00  0.000000000000E+00
  0.000000000000E+00  0.412988885572E+00  0.477443348003E+00  0.472504673047E+00  0.485153442297E+00  0.492070550375E+00  0.488543839063E+00
  0.491923380125E+00  0.493078169939E+00  0.000000000000E+00  0.471586654448E+00  0.480934095626E+00  0.498012892236E+00  0.493689909582E+00
  0.490409919455E+00  0.456073457024E+00  0.472047037771E+00  0.498545864547E+00  0.449257989219E+00  0.491117573798E+00  0.499470102958E+00
  0.498443302004E+00  0.475665752878E+00  0.492352552841E+00  0.497648492019E+00
  0.104242640687E+01  0.102508330221E+01  0.104242640687E+01  0.103461472126E+01  0.100936211481E+01  0.102707647030E+01  0.104242640687E+01
  0.104242640687E+01  0.104103512175E+01  0.100608607954E+01  0.100935928681E+01  0.100173207642E+01  0.101882157420E+01  0.100399703841E+01
  0.100113916075E+01  0.100201867166E+01  0.104242640687E+01  0.103067303883E+01  0.100321571449E+01  0.100090132497E+01  0.100133271257E+01
  0.100116394826E+01  0.101357751416E+01  0.100469368551E+01  0.100084556817E+01  0.103269876849E+01  0.100165718156E+01  0.100040727367E+01
  0.100050934991E+01  0.100724883558E+01  0.100246497717E+01  0.100085386850E+01
  0.369114419313E+01  0.626258598638E+01  0.451241601379E+01  0.817741181013E+01  0.629052912890E+01  0.485085266076E+01  0.675461731964E+01
  0.334546329707E+01  0.190165234202E+01  0.460359656275E+01  0.816058391835E+01  0.472608295432E+01  0.950304670902E+01  0.354740951126E+01
  0.112906204865E+02  0.928143209023E+01  0.441544226906E+01  0.549411828738E+01  0.472732852150E+01  0.568954184954E+02  0.161423332272E+02
  0.822237898267E+01  0.803839037288E+01  0.493974699688E+01  0.607283482311E+02  0.900447361376E+01  0.625281624738E+01  0.624772999588E+02
  0.458004089459E+02  0.589447258651E+01  0.690608867963E+01  0.382593427049E+02
  0.982971456624E+00  0.259058554159E+01  0.142572486560E+01  0.271037113732E+01  0.237337785387E+01  0.299832952392E+01  0.820633306367E+00
  0.920494405882E+00  0.208842744810E+01  0.191532946812E+01  0.251560112715E+01  0.139164857986E+01  0.275904329615E+01  0.128311427342E+01
  0.223935765033E+01  0.198741150872E+01  0.631020487760E+00  0.261079737211E+01  0.145058681696E+01  0.117671285290E+02  0.325845783824E+01
  0.163089929265E+01  0.250225750242E+01  0.153301152927E+01  0.127962278303E+02  0.239056446204E+01  0.131148245621E+01  0.131760958283E+02
  0.964936025774E+01  0.191229271444E+01  0.172047959625E+01  0.801097995034E+01
  0.163250611317E+00  0.129317701914E+00  0.576445937959E-01  0.404586642546E+00  0.143527312859E+00  0.218495302543E+00  0.393000373057E+00
 -0.193006556607E+00  0.493108783093E+00 -0.859271961016E-03  0.528824500360E+00  0.488862370696E+00  0.592248424522E+00  0.282829508616E+00
  0.368572260921E+00  0.377901026461E-02 -0.287982850132E+00 -0.277312530071E+00  0.519167008400E+00 -0.147709631772E-01  0.311139056389E+00
  0.176340516483E+00  0.410239156725E+00  0.201874890761E+00  0.153960520512E-01 -0.110680593285E+00  0.770057509661E-01  0.200147134584E+00
  0.131546118779E+00 -0.524056100212E-02 -0.325333567436E-01 -0.135186991480E-01
 -0.241436868173E+01 -0.660584496312E+01 -0.315148397328E+01 -0.704656086467E+01 -0.537296502946E+01 -0.992117439318E+01 -0.186719168474E+01
 -0.173863462603E+01 -0.988065685969E+01 -0.536631027729E+01 -0.440544827974E+01 -0.379188036904E+01 -0.314303989480E+01 -0.453658628504E+01
 -0.279688588161E+01 -0.319417188023E+01 -0.115289149263E+01 -0.632059580458E+01 -0.365833826048E+01 -0.119160990115E+01 -0.238393743989E+01
 -0.259773467014E+01 -0.378335683727E+01 -0.366355556837E+01 -0.112413548716E+01 -0.517860081972E+01 -0.257175699445E+01 -0.102688512358E+01
 -0.122341695732E+01 -0.418995962755E+01 -0.277570522183E+01 -0.124232935113E+01
 -0.114005465483E+01 -0.265544281146E+01 -0.170469171815E+01 -0.327749278002E+01 -0.226160415961E+01 -0.241138818222E+01 -0.142391778851E+01
 -0.859716172695E+00 -0.134252185210E+01 -0.159386361885E+01 -0.288072870507E+01 -0.170372941373E+01 -0.334064130188E+01 -0.117511645544E+01
 -0.430765526697E+01 -0.353645357445E+01 -0.103128068795E+01 -0.253316750422E+01 -0.172098885224E+01 -0.235555430473E+02 -0.634760774911E+01
 -0.304033101661E+01 -0.289212414535E+01 -0.177788841785E+01 -0.252005897538E+02 -0.349074404210E+01 -0.221444132225E+01 -0.260059226356E+02
 -0.189626134812E+02 -0.209073985431E+01 -0.256259611266E+01 -0.157364818330E+02
        12        19        11        11
        11         5        12        12
        10        14         5         5
        19        13        11        11
        19        24        13        13
        30        23        24        24
        19        12        22        22
        28        22        21        21
        11        13         6         6
         7         6         9         9
        15        12        14        14
        18        13        23        23
        15        25        21        21
        27        19        22        22
        18         8         9         9
        27        31        24        24
         4        11         6         6
         5        14        12        12
         4         2         5         5
        21        12        15        15
        14        16        15        15
        24        19        27        27
        22        29        27        27
        23        26        18        18
        17         8        18        18
         5        11         4         4
         6         3         4         4
        26        23        30        30
         5         2        10        10
        16        14        10        10
         3         6         7         7
        21        25        28        28
        29        22        28        28
         6        13         9         9
         2         4         1         1
        31        27        32        32
        25        15        20        20
        24        23        13        13
         8         7         9         9
        13        18         9         9
        31        30        24        24
        12        21        22        22
        29        32        27        27
         3         1         4         4
        26        17        18        18
        16        20        15        15
zone t="boundary 2 bc-2", solutiontime= 0.2000000E+02, strandid=1002, i=33, j=48, f=feblock
  0.500195254568E+01  0.375034811445E+01  0.249861145586E+01  0.288036674134E+01  0.124717525353E+01  0.190856697905E+01  0.326577190006E+01
  0.201394855912E+01 -0.338397811977E-02  0.962374243889E+00  0.500000000000E+01  0.403430189815E+01  0.423029563516E+01  0.500000000000E+01
  0.385439188840E+01  0.500000000000E+01  0.398133433219E+01  0.315200081383E+01  0.266958028789E+01  0.154798029748E+01  0.218327860401E+01
  0.893688440126E+00  0.000000000000E+00  0.699009761219E+00  0.964460898511E+00  0.310303671661E+01  0.000000000000E+00  0.000000000000E+00
  0.125000000000E+01  0.500000000000E+01  0.375000000000E+01  0.250000000000E+01  0.000000000000E+00
 -0.249658902117E+01 -0.249658902117E+01 -0.249658902117E+01 -0.249658902117E+01 -0.249658902117E+01 -0.249658902117E+01 -0.249658902117E+01
 -0.249658902117E+01 -0.249658902117E+01 -0.249658902117E+01 -0.249658902117E+01 -0.249658902117E+01 -0.249658902117E+01 -0.249658902117E+01
 -0.249658902117E+01 -0.249658902117E+01 -0.249658902117E+01 -0.249658902117E+01 -0.249658902117E+01 -0.249658902117E+01 -0.249658902117E+01
 -0.249658902117E+01 -0.249658902117E+01 -0.249658902117E+01 -0.249658902117E+01 -0.249658902117E+01 -0.249658902117E+01 -0.249658902117E+01
 -0.249658902117E+01 -0.249658902117E+01 -0.249658902117E+01 -0.249658902117E+01 -0.249658902117E+01
  0.108218470107E-03  0.145871004167E-03  0.100891402352E-03  0.901663364689E+00  0.110859765950E-03  0.714928312394E+00  0.188140647110E+01
  0.175892165293E+01  0.810770666835E-04  0.957504290550E+00  0.125000000000E+01  0.100596696999E+01  0.191313518634E+01  0.250000000000E+01
  0.292898096729E+01  0.375000000000E+01  0.406883369623E+01  0.363389290091E+01  0.284756861229E+01  0.292582308304E+01  0.395754055152E+01
  0.205027257041E+01  0.125000000000E+01  0.306703272778E+01  0.397155766783E+01  0.433068622257E+01  0.250000000000E+01  0.375000000000E+01
  0.500000000000E+01  0.500000000000E+01  0.500000000000E+01  0.500000000000E+01  0.500000000000E+01
  0.000000000000E+00  0.000000000000E+00  0.000000000000E+00  0.384516102379E+00  0.000000000000E+00  0.340285873075E+00  0.586752973058E+00
  0.575426018814E+00  0.000000000000E+00  0.487199378467E+00  0.520641040018E+00  0.445423555755E+00  0.576269221497E+00  0.533962376915E+00
  0.567224534025E+00  0.511735128316E+00  0.508063929882E+00  0.527166122502E+00  0.565842714108E+00  0.531744059128E+00  0.508272212922E+00
  0.522388437205E+00  0.449257989219E+00  0.494521458293E+00  0.495788427676E+00  0.503678485303E+00  0.475665752878E+00  0.492352552841E+00
  0.494346755558E+00  0.491660272583E+00  0.489529542898E+00  0.494638536197E+00  0.497648492019E+00
  0.104242640687E+01  0.104242640687E+01  0.104242640687E+01  0.100355246665E+01  0.104242640687E+01  0.100599607839E+01  0.989008031489E+00
  0.992225316054E+00  0.104242640687E+01  0.997058798899E+00  0.987964542596E+00  0.995589876967E+00  0.989405264241E+00  0.100087323765E+01
  0.997203119671E+00  0.100346283424E+01  0.100053321078E+01  0.999080757420E+00  0.995647250028E+00  0.100095637499E+01  0.999458338897E+00
  0.100692573084E+01  0.103269876849E+01  0.100216635877E+01  0.100130290772E+01  0.999493814466E+00  0.100724883558E+01  0.100246497717E+01
  0.100077487280E+01  0.100026599126E+01  0.999860681535E+00  0.999993717468E+00  0.100085386850E+01
  0.819908181410E+01  0.917954339578E+01  0.741698755095E+01  0.799621040332E+01  0.500403616634E+01  0.781971438980E+01  0.986477863442E+01
  0.855179093472E+01  0.441544226906E+01  0.856363380244E+01  0.118201733617E+02  0.942944129474E+01  0.110574884104E+02  0.944223317590E+01
  0.787786207564E+01  0.630381649861E+01  0.687096234460E+01  0.728924438027E+01  0.837534824826E+01  0.705154229697E+01  0.582561353009E+01
  0.773099727140E+01  0.900447361376E+01  0.530112607957E+01  0.544179337370E+01  0.911368814000E+01  0.589447258651E+01  0.690608867963E+01
  0.248143592436E+02  0.985192422859E+01  0.116574589807E+02  0.369854189716E+01  0.382593427049E+02
 -0.163550996743E+01  0.237484962571E+00  0.536539757662E+00  0.400789258068E+01 -0.425678053571E-01  0.306865107043E+01 -0.133823789672E+01
  0.113737220863E+01  0.631020487760E+00  0.286478939057E+01 -0.271961521608E+01  0.358278820798E+00 -0.259027469336E+01 -0.241709483038E+01
 -0.202669549455E+01 -0.155115316446E+01 -0.157967970211E+01 -0.148842801714E+01 -0.137261680897E+01 -0.126334927911E+00 -0.124574046332E+01
  0.159271761191E+01  0.239056446204E+01  0.505517303890E+00 -0.179569560827E+00 -0.103091906702E+01  0.191229271444E+01  0.172047959625E+01
  0.328761574995E+01  0.651950206307E-01 -0.786265092720E+00 -0.231346114358E+01  0.801097995034E+01
 -0.244138487897E+00 -0.392814703820E+00  0.878696850510E-01  0.381348029528E+00  0.163645485934E+00  0.633641771165E+00 -0.149797793599E+00
 -0.244906503900E+00 -0.287982850132E+00  0.928294051035E-01 -0.769323706265E-01 -0.246056857148E+00  0.569723073507E-01 -0.173127257186E-01
 -0.635340578760E-02  0.245494567796E-01 -0.224554358646E-01  0.106298731426E-01  0.538892980783E-01  0.711624532253E-01  0.624692373781E-03
 -0.153494011595E-01 -0.110680593285E+00 -0.530066436013E-01 -0.503077646981E-01  0.648399272728E-02 -0.524056100212E-02 -0.325333567436E-01
  0.128721989378E-03  0.329329618286E-02  0.168645098140E-02 -0.750571037136E-02 -0.135186991480E-01
 -0.125453969224E+01 -0.221484921601E+01 -0.165872396884E+01 -0.836065697933E+01 -0.163493798262E+01 -0.891320927838E+01 -0.214832350069E+01
 -0.381427809145E+01 -0.115289149263E+01 -0.525884814600E+01 -0.693644881644E+00 -0.350666844044E+01 -0.910850470334E+00 -0.376223457106E+00
 -0.140831658637E+01 -0.463409264478E+00 -0.139896880797E+01 -0.206279735577E+01 -0.251767396656E+01 -0.328568243743E+01 -0.239797837013E+01
 -0.377799439865E+01 -0.517860081972E+01 -0.329280293188E+01 -0.251658579343E+01 -0.205507455713E+01 -0.418995962755E+01 -0.277570522183E+01
 -0.173196644154E+01 -0.804569744023E+00 -0.179788870513E+01 -0.202725320849E+01 -0.124232935113E+01
 -0.859163989960E+00  0.204501515218E-03  0.471669415236E-03 -0.343534474856E+01 -0.207123005372E-01 -0.364259200847E+01 -0.218329770036E+01
 -0.242779615652E+01 -0.103128068795E+01 -0.356442502917E+01 -0.256835168021E+01 -0.262701953311E+01 -0.234074419743E+01 -0.183004084666E+01
 -0.154056420992E+01 -0.124517205389E+01 -0.146067473954E+01 -0.162588807352E+01 -0.199954140286E+01 -0.197981486183E+01 -0.123106848048E+01
 -0.256941278232E+01 -0.349074404210E+01 -0.162066270173E+01 -0.149403482614E+01 -0.247323597729E+01 -0.209073985431E+01 -0.256259611266E+01
 -0.951189206631E+01 -0.323683337196E+01 -0.354666108081E+01 -0.226498021318E+00 -0.157364818330E+02
        15         7        19        19
         8        20        19        19
        18        19        21        21
         7         4         8         8
         3         6         4         4
        19         7         8         8
        19        18        15        15
        14        13        15        15
         8        22        20        20
        27        24        22        22
        19        20        21        21
        32        26        21        21
        17        18        26        26
        17        16        15        15
        25        29        21        21
        12         7        13        13
        10         8         6         6
        25        20        24        24
         4         6         8         8
        12         2         4         4
        10        23        22        22
        26        31        17        17
        30        16        17        17
         4         7        12        12
        13        11        12        12
        21        20        25        25
        24        28        25        25
        22         8        10        10
         6         5        10        10
        31        26        32        32
         4         2         3         3
         5         6         3         3
        11        13        14        14
        22        23        27        27
        28        24        27        27
        15        13         7         7
         2        12         1         1
        29        25        33        33
        23        10         9         9
        21        26        18        18
        16        14        15        15
        18        17        15        15
        29        32        21        21
        22        24        20        20
        28        33        25        25
        11         1        12        12
        31        30        17        17
         5         9        10        10
zone t="boundary 3 bc-3", solutiontime= 0.2000000E+02, strandid=1003, i=33, j=48, f=feblock
  0.375059098656E+01  0.249769607632E+01  0.500322138024E+01  0.403612219886E+01  0.287976772042E+01  0.124541906320E+01  0.190552234483E+01
  0.500000000000E+01  0.326671105081E+01  0.423253757180E+01  0.201271135153E+01 -0.547473807126E-02  0.958895614425E+00  0.500000000000E+01
  0.266968147276E+01  0.385584488388E+01  0.890374186974E+00  0.154654012335E+01  0.000000000000E+00  0.500000000000E+01  0.315261137201E+01
  0.218304199244E+01  0.398195308498E+01  0.000000000000E+00  0.697379936714E+00  0.963757270369E+00  0.125000000000E+01  0.000000000000E+00
  0.500000000000E+01  0.310330738803E+01  0.250000000000E+01  0.375000000000E+01  0.000000000000E+00
  0.250494199996E+01  0.250494199996E+01  0.250494199996E+01  0.250494199996E+01  0.250494199996E+01  0.250494199996E+01  0.250494199996E+01
  0.250494199996E+01  0.250494199996E+01  0.250494199996E+01  0.250494199996E+01  0.250494199996E+01  0.250494199996E+01  0.250494199996E+01
  0.250494199996E+01  0.250494199996E+01  0.250494199996E+01  0.250494199996E+01  0.250494199996E+01  0.250494199996E+01  0.250494199996E+01
  0.250494199996E+01  0.250494199996E+01  0.250494199996E+01  0.250494199996E+01  0.250494199996E+01  0.250494199996E+01  0.250494199996E+01
  0.250494199996E+01  0.250494199996E+01  0.250494199996E+01  0.250494199996E+01  0.250494199996E+01
  0.135804613136E-03  0.110291600138E-03  0.968352231350E-04  0.101756767184E+01  0.908094754977E+00  0.104111048370E-03  0.722629266591E+00
  0.125000000000E+01  0.188965673340E+01  0.191862703991E+01  0.176708252857E+01  0.805554723431E-04  0.969652727894E+00  0.250000000000E+01
  0.285339441809E+01  0.293325064380E+01  0.205656233202E+01  0.293157024791E+01  0.125000000000E+01  0.375000000000E+01  0.363766843533E+01
  0.396069448925E+01  0.407056387650E+01  0.250000000000E+01  0.307031999890E+01  0.397359822904E+01  0.500000000000E+01  0.375000000000E+01
  0.500000000000E+01  0.433260783674E+01  0.500000000000E+01  0.500000000000E+01  0.500000000000E+01
  0.000000000000E+00  0.000000000000E+00  0.000000000000E+00  0.453747912967E+00  0.402545502452E+00  0.000000000000E+00  0.369629009543E+00
  0.520525438577E+00  0.575220780219E+00  0.575502697133E+00  0.558260174274E+00  0.000000000000E+00  0.478252962452E+00  0.530976530200E+00
  0.555830976399E+00  0.562793219653E+00  0.524675235834E+00  0.523282018188E+00  0.447917893104E+00  0.513796076167E+00  0.524673097208E+00
  0.506323914759E+00  0.509686671337E+00  0.477443348003E+00  0.499194823540E+00  0.497912967444E+00  0.492962759870E+00  0.493078169939E+00
  0.493192027983E+00  0.501531684732E+00  0.491169160321E+00  0.488098785874E+00  0.498012892236E+00
  0.104242640687E+01  0.104242640687E+01  0.104242640687E+01  0.992555420605E+00  0.100338777628E+01  0.104242640687E+01  0.100275102529E+01
  0.987610948161E+00  0.990360755947E+00  0.989796153239E+00  0.994453865708E+00  0.104242640687E+01  0.999323382885E+00  0.100158433896E+01
  0.997121320216E+00  0.998147046673E+00  0.100443205293E+01  0.100036233051E+01  0.102508330221E+01  0.100269535219E+01  0.100014129837E+01
  0.999693737614E+00  0.100036856474E+01  0.100608607954E+01  0.100156234007E+01  0.100069385186E+01  0.100096903929E+01  0.100201867166E+01
  0.100024531101E+01  0.999658107118E+00  0.100018113529E+01  0.100002132966E+01  0.100090132497E+01
  0.121093266253E+02  0.753230446953E+01  0.915906983825E+01  0.952455597927E+01  0.910122400347E+01  0.615204712827E+01  0.839500109510E+01
  0.125140373111E+02  0.108581192361E+02  0.112130528400E+02  0.990436254042E+01  0.369114419313E+01  0.917793012484E+01  0.939124866609E+01
  0.830151608627E+01  0.844450846805E+01  0.801976411477E+01  0.639334020228E+01  0.626258598638E+01  0.683180032618E+01  0.605073830604E+01
  0.541377648435E+01  0.529192663892E+01  0.460359656275E+01  0.449248259391E+01  0.102974995696E+02  0.348022701592E+02  0.928143209023E+01
  0.655842177319E+01  0.957223895102E+01  0.135782921711E+02  0.186935062531E+02  0.568954184954E+02
  0.206959879239E+00  0.582562912904E+00 -0.197302668617E+01  0.162673511893E+01  0.420984518659E+01  0.223775046173E+00  0.426663640729E+01
 -0.285913187300E+01 -0.230542273333E+01 -0.300652667764E+01  0.736132890490E-01  0.982971456624E+00  0.346852111938E+01 -0.242727415032E+01
 -0.173097057520E+01 -0.213607435225E+01  0.167592120736E+01 -0.732608429768E+00  0.259058554159E+01 -0.166001493663E+01 -0.191138214926E+01
 -0.161313985277E+01 -0.198327365656E+01  0.191532946812E+01  0.152483559912E+00  0.641974716396E+00  0.532788787188E+01  0.198741150872E+01
 -0.624649283923E+00 -0.107355907889E+01 -0.237807722309E+00  0.577318509471E+00  0.117671285290E+02
 -0.177984593426E-01  0.980359555664E-01  0.863223664499E-01 -0.777158997429E+00 -0.756796265422E+00 -0.823668775229E-01 -0.670081615783E-02
  0.509643508104E-01  0.228324308185E+00  0.347721262006E-01  0.268946333043E+00  0.163250611317E+00  0.234157030253E+00 -0.186771311638E-01
 -0.391453164917E-01  0.164653686280E-01 -0.276684017622E-01 -0.172470614371E+00  0.129317701914E+00 -0.277326020685E-01 -0.127164718557E-01
  0.220722401292E-01  0.446130378432E-02 -0.859271961016E-03  0.384751433231E-01  0.835842036267E-01 -0.275799808965E-01  0.377901026461E-02
 -0.159013368120E-01 -0.140696750081E-02 -0.717013614078E-02 -0.225547125916E-02 -0.147709631772E-01
 -0.285937655068E+01 -0.268663824055E+01 -0.112118681194E+01 -0.822166509460E+01 -0.967789742804E+01 -0.271229670526E+01 -0.991178955148E+01
 -0.450699318191E+00 -0.301421947943E+01 -0.105674125433E+01 -0.440046839534E+01 -0.241436868173E+01 -0.710827794289E+01 -0.466592710138E+00
 -0.303449040810E+01 -0.156168027784E+01 -0.490367953655E+01 -0.409690946319E+01 -0.660584496312E+01 -0.569378929270E+00 -0.216367021636E+01
 -0.273159721865E+01 -0.149299892830E+01 -0.536631027729E+01 -0.426389556141E+01 -0.291624166027E+01 -0.187861867891E+01 -0.319417188023E+01
 -0.752117184082E+00 -0.211046601782E+01 -0.211588832794E+01 -0.183764955944E+01 -0.119160990115E+01
  0.679616140892E-02 -0.280644622064E-01 -0.854652407898E+00 -0.321047953900E+01 -0.379744760617E+01 -0.422392442064E-01 -0.396199714869E+01
 -0.273647269920E+01 -0.219675920430E+01 -0.220957906192E+01 -0.248447777473E+01 -0.114005465483E+01 -0.369121836771E+01 -0.181636436914E+01
 -0.184545057735E+01 -0.168505266118E+01 -0.254242212091E+01 -0.152973842228E+01 -0.265544281146E+01 -0.136182464810E+01 -0.102663211496E+01
 -0.954554896871E+00 -0.772750115076E+00 -0.159386361885E+01 -0.125484415904E+01 -0.346582199228E+01 -0.136496031360E+02 -0.353645357445E+01
 -0.184718049652E+01 -0.261498291886E+01 -0.437235576806E+01 -0.646563326913E+01 -0.235555430473E+02
        15         9        16        16
        15        18        11        11
        22        15        21        21
        11         5         9         9
         5         7         2         2
        11         9        15        15
        16        21        15        15
        16        10        14        14
        18        17        11        11
        17        25        24        24
        22        18        15        15
        22        30        31        31
        30        21        23        23
        16        20        23        23
        22        27        26        26
        10         9         4         4
         7        11        13        13
        25        18        26        26
        11         7         5         5
         5         1         4         4
        17        19        13        13
        23        32        30        30
        23        20        29        29
         4         9         5         5
         4         8        10        10
        26        18        22        22
        26        28        25        25
        13        11        17        17
        13         6         7         7
        31        30        32        32
         2         1         5         5
         2         7         6         6
        14        10         8         8
        24        19        17        17
        24        25        28        28
         9        10        16        16
         3         4         1         1
        33        26        27        27
        12        13        19        19
        21        30        22        22
        16        14        20        20
        16        23        21        21
        22        31        27        27
        18        25        17        17
        26        33        28        28
         4         3         8         8
        23        29        32        32
        13        12         6         6
zone t="boundary 4 bc-4", solutiontime= 0.2000000E+02, strandid=1004, i=32, j=46, f=feblock
  0.125000000000E+01  0.219251206392E+01  0.103724302461E+01  0.500000000000E+01  0.250000000000E+01  0.375000000000E+01  0.404200324774E+01
  0.500000000000E+01  0.000000000000E+00  0.310152362409E+01  0.202479342020E+01  0.324151231464E+01  0.922061490191E+00  0.000000000000E+00
  0.299062775774E+01  0.394624082883E+01  0.500000000000E+01  0.409252726285E+01  0.500000000000E+01  0.429310310915E+01  0.175434191980E+01
  0.284428995242E+01  0.000000000000E+00  0.000000000000E+00  0.715990576545E+00  0.930412228790E+00  0.125000000000E+01  0.187029682677E+01
  0.500000000000E+01  0.375000000000E+01  0.250000000000E+01  0.000000000000E+00
  0.250494199996E+01  0.157686156160E+01  0.146289271009E+01  0.250494199996E+01  0.250494199996E+01  0.250494199996E+01  0.155830813274E+01
  0.125000000000E+01  0.250494199996E+01  0.177790177481E+01  0.477386199275E+00  0.742988685424E+00  0.308372018325E+00  0.125000000000E+01
 -0.487811078581E+00 -0.144524380962E+01 -0.125000000000E+01 -0.345533899378E+00  0.000000000000E+00  0.627766083140E+00 -0.739814786992E+00
 -0.158811787973E+01  0.000000000000E+00 -0.125000000000E+01 -0.600232012419E+00 -0.154800130438E+01 -0.249658902117E+01 -0.178862290564E+01
 -0.249658902117E+01 -0.249658902117E+01 -0.249658902117E+01 -0.249658902117E+01
  0.500000000000E+01  0.500000000000E+01  0.500000000000E+01  0.500000000000E+01  0.500000000000E+01  0.500000000000E+01  0.500000000000E+01
  0.500000000000E+01  0.500000000000E+01  0.500000000000E+01  0.500000000000E+01  0.500000000000E+01  0.500000000000E+01  0.500000000000E+01
  0.500000000000E+01  0.500000000000E+01  0.500000000000E+01  0.500000000000E+01  0.500000000000E+01  0.500000000000E+01  0.500000000000E+01
  0.500000000000E+01  0.500000000000E+01  0.500000000000E+01  0.500000000000E+01  0.500000000000E+01  0.500000000000E+01  0.500000000000E+01
  0.500000000000E+01  0.500000000000E+01  0.500000000000E+01  0.500000000000E+01
  0.492962759870E+00  0.493501811671E+00  0.494482154831E+00  0.493192027983E+00  0.491169160321E+00  0.488098785874E+00  0.488213915627E+00
  0.494128983540E+00  0.498012892236E+00  0.490743060293E+00  0.492687813004E+00  0.491182349969E+00  0.497494162823E+00  0.498545864547E+00
  0.492035510719E+00  0.486141829064E+00  0.492132924673E+00  0.489715881183E+00  0.494539390222E+00  0.490046920039E+00  0.494491364915E+00
  0.492624363644E+00  0.499470102958E+00  0.498443302004E+00  0.498085503858E+00  0.496394045645E+00  0.494346755558E+00  0.494728908771E+00
  0.491660272583E+00  0.489529542898E+00  0.494638536197E+00  0.497648492019E+00
  0.100096903929E+01  0.100040310406E+01  0.100072208318E+01  0.100024531101E+01  0.100018113529E+01  0.100002132966E+01  0.999888523338E+00
  0.100031159626E+01  0.100090132497E+01  0.100020963142E+01  0.100030894110E+01  0.999990940255E+00  0.100060759990E+01  0.100084556817E+01
  0.100008167760E+01  0.999676407531E+00  0.100057119101E+01  0.999878618045E+00  0.100042307878E+01  0.999981274937E+00  0.100055778173E+01
  0.999986005540E+00  0.100040727367E+01  0.100050934991E+01  0.100040913615E+01  0.100074102371E+01  0.100077487280E+01  0.100045005174E+01
  0.100026599126E+01  0.999860681535E+00  0.999993717468E+00  0.100085386850E+01
  0.348022701592E+02  0.340140203721E+02  0.402208942042E+02  0.655842177319E+01  0.135782921711E+02  0.186935062531E+02  0.241827449645E+02
  0.550003366261E+01  0.568954184954E+02  0.218601408340E+02  0.340809779940E+02  0.189745429712E+02  0.463093826316E+02  0.607283482311E+02
  0.837040478433E+01  0.101055752678E+02  0.871780056413E+01  0.117523906877E+02  0.691420527614E+01  0.298721050074E+02  0.352744755904E+02
  0.725050738982E+01  0.624772999588E+02  0.458004089459E+02  0.514371565487E+02  0.321929929573E+02  0.248143592436E+02  0.234853883788E+02
  0.985192422859E+01  0.116574589807E+02  0.369854189716E+01  0.382593427049E+02