title="tecplot geometry and solution file"
variables = x y z mach temperature lambda1 lambda2 lambda3 lambda4 lambda5
zone t="boundary 1 bc-1", solutiontime= 0.1000000E+02, strandid=1001, i=32, j=46, f=feblock
 -0.547473807126E-02  0.000000000000E+00 -0.567611394124E-02  0.000000000000E+00  0.000000000000E+00  0.000000000000E+00 -0.525163716493E-02
 -0.425779958105E-02  0.000000000000E+00  0.000000000000E+00  0.000000000000E+00  0.000000000000E+00  0.000000000000E+00  0.000000000000E+00
  0.000000000000E+00  0.000000000000E+00 -0.338397811977E-02  0.000000000000E+00  0.000000000000E+00  0.000000000000E+00  0.000000000000E+00
  0.000000000000E+00  0.000000000000E+00  0.000000000000E+00  0.000000000000E+00  0.000000000000E+00  0.000000000000E+00  0.000000000000E+00
  0.000000000000E+00  0.000000000000E+00  0.000000000000E+00  0.000000000000E+00
  0.250494199996E+01  0.250494199996E+01  0.127822171177E+01  0.146289271009E+01  0.157686156160E+01  0.308372018325E+00  0.261949834539E-01
 -0.122573470438E+01 -0.600232012419E+00  0.250494199996E+01  0.477386199275E+00  0.742988685424E+00 -0.739814786992E+00  0.177790177481E+01
  0.155830813274E+01  0.250494199996E+01 -0.249658902117E+01 -0.154800130438E+01 -0.487811078581E+00  0.250494199996E+01  0.627766083140E+00
 -0.345533899378E+00 -0.178862290564E+01 -0.158811787973E+01  0.125000000000E+01 -0.249658902117E+01 -0.144524380962E+01  0.000000000000E+00
 -0.125000000000E+01 -0.249658902117E+01 -0.249658902117E+01 -0.249658902117E+01
  0.805554723431E-04  0.125000000000E+01  0.823773991683E-04  0.103724302461E+01  0.219251206392E+01  0.922061490191E+00  0.103961330990E-03
  0.342005321779E-04  0.715990576545E+00  0.250000000000E+01  0.202479342020E+01  0.324151231464E+01  0.175434191980E+01  0.310152362409E+01
  0.404200324774E+01  0.375000000000E+01  0.810770666835E-04  0.930412228790E+00  0.299062775774E+01  0.500000000000E+01  0.429310310915E+01
  0.409252726285E+01  0.187029682677E+01  0.284428995242E+01  0.500000000000E+01  0.125000000000E+01  0.394624082883E+01  0.500000000000E+01
  0.500000000000E+01  0.250000000000E+01  0.375000000000E+01  0.500000000000E+01
  0.000000000000E+00  0.447917893104E+00  0.000000000000E+00  0.476275931555E+00  0.468523764258E+00  0.473519703686E+00  0.000000000000E+00
  0.000000000000E+00  0.412988885572E+00  0.477443348003E+00  0.472504673047E+00  0.485153442297E+00  0.492070550375E+00  0.488543839063E+00
  0.491923380125E+00  0.493078169939E+00  0.000000000000E+00  0.471586654448E+00  0.480934095626E+00  0.498012892236E+00  0.493689909582E+00
  0.490409919455E+00  0.456073457024E+00  0.472047037771E+00  0.498545864547E+00  0.449257989219E+00  0.491117573798E+00  0.499470102958E+00
  0.498443302004E+00  0.475665752878E+00  0.492352552841E+00  0.497648492019E+00
  0.104242640687E+01  0.102508330221E+01  0.104242640687E+01  0.103461472126E+01  0.100936211481E+01  0.102707647030E+01  0.104242640687E+01
  0.104242640687E+01  0.104103512175E+01  0.100608607954E+01  0.100935928681E+01  0.100173207642E+01  0.101882157420E+01  0.100399703841E+01
  0.100113916075E+01  0.100201867166E+01  0.104242640687E+01  0.103067303883E+01  0.100321571449E+01  0.100090132497E+01  0.100133271257E+01
  0.100116394826E+01  0.101357751416E+01  0.100469368551E+01  0.100084556817E+01  0.103269876849E+01  0.100165718156E+01  0.100040727367E+01
  0.100050934991E+01  0.100724883558E+01  0.100246497717E+01  0.100085386850E+01
  0.371382911132E+01  0.621509715994E+01  0.452906657972E+01  0.800014178695E+01  0.606703189668E+01  0.486853715310E+01  0.677811580128E+01
  0.335922894077E+01  0.192892770927E+01  0.453514999690E+01  0.796546212210E+01  0.493116701887E+01  0.964238862847E+01  0.385406579414E+01
  0.128990492223E+02  0.997320998275E+01  0.441613259892E+01  0.555819126075E+01  0.448642494598E+01  0.542318403626E+02  0.174278789802E+02
  0.910660234847E+01  0.821952058913E+01  0.469928515113E+01  0.580399122892E+02  0.890972993166E+01  0.661410722712E+01  0.598791113306E+02
  0.452306090170E+02  0.558471826211E+01  0.687499695030E+01  0.383456647713E+02
  0.983973843546E+00  0.254986067651E+01  0.143200276511E+01  0.264096210805E+01  0.233702802095E+01  0.296235636089E+01  0.823782664674E+00
  0.924855828264E+00  0.207444622834E+01  0.191937002878E+01  0.249789963929E+01  0.147144017442E+01  0.279088288419E+01  0.138411536005E+01
  0.259511866864E+01  0.217198901348E+01  0.632968559639E+00  0.258639796723E+01  0.143112387769E+01  0.110989223853E+02  0.354669906307E+01
  0.186046526977E+01  0.253581529749E+01  0.150746960445E+01  0.121752937785E+02  0.234638665441E+01  0.141060625110E+01  0.126225763459E+02
  0.949251237939E+01  0.186388251644E+01  0.172342096464E+01  0.796567349518E+01
  0.165027564082E+00  0.127999336239E+00  0.613616712019E-01  0.419574994422E+00  0.141384665981E+00  0.241332354361E+00  0.393874172637E+00
 -0.192962390605E+00  0.511286204105E+00 -0.121111800390E-03  0.513171495011E+00  0.463288915439E+00  0.571525736896E+00  0.261833070623E+00
  0.351528989301E+00  0.751430941421E-02 -0.286972037696E+00 -0.288459162669E+00  0.509794186023E+00 -0.721057577731E-02  0.303706118760E+00
  0.181302361107E+00  0.408138802489E+00  0.203599526073E+00  0.635339732643E-01 -0.111818219774E+00  0.801750454778E-01  0.234115174046E+00
  0.150976514962E+00 -0.494867063813E-02 -0.336717950513E-01 -0.150939093288E-01
 -0.241612613714E+01 -0.653849007468E+01 -0.315034677975E+01 -0.701055297655E+01 -0.532967327445E+01 -0.989210469887E+01 -0.186940279596E+01
 -0.174117452018E+01 -0.990516886651E+01 -0.529395797332E+01 -0.442004142819E+01 -0.385163365775E+01 -0.316887958894E+01 -0.452830429390E+01
 -0.277757510505E+01 -0.318816590698E+01 -0.115105848936E+01 -0.632507855738E+01 -0.370217495151E+01 -0.118111054589E+01 -0.234085925518E+01
 -0.259928031048E+01 -0.375728173886E+01 -0.366182147337E+01 -0.108063523048E+01 -0.514878522269E+01 -0.256470819380E+01 -0.991558886504E+00
 -0.118700757259E+01 -0.415738267562E+01 -0.278366925939E+01 -0.122179074722E+01
 -0.115438706691E+01 -0.263177988172E+01 -0.171022333297E+01 -0.319830468142E+01 -0.217123464168E+01 -0.241581698729E+01 -0.142878646646E+01
 -0.867988075701E+00 -0.135044571035E+01 -0.156765993386E+01 -0.280354221402E+01 -0.179346816681E+01 -0.339834354661E+01 -0.130863225195E+01
 -0.499845926099E+01 -0.383412357642E+01 -0.103282073703E+01 -0.255419905192E+01 -0.162249021399E+01 -0.224076241404E+02 -0.690803969549E+01
 -0.343091055200E+01 -0.296936246477E+01 -0.168013225747E+01 -0.240633638396E+02 -0.344776430801E+01 -0.237575546758E+01 -0.249094697960E+02
 -0.187170572710E+02 -0.196415677579E+01 -0.255133218613E+01 -0.157660707915E+02
        12        19        11        11
        11         5        12        12
        10        14         5         5
        19        13        11        11
        19        24        13        13
        30        23        24        24
        19        12        22        22
        28        22        21        21
        11        13         6         6
         7         6         9         9
        15        12        14        14
        18        13        23        23
        15        25        21        21
        27        19        22        22
        18         8         9         9
        27        31        24        24
         4        11         6         6
         5        14        12        12
         4         2         5         5
        21        12        15        15
        14        16        15        15
        24        19        27        27
        22        29        27        27
        23        26        18        18
        17         8        18        18
         5        11         4         4
         6         3         4         4
        26        23        30        30
         5         2        10        10
        16        14        10        10
         3         6         7         7
        21        25        28        28
        29        22        28        28
         6        13         9         9
         2         4         1         1
        31        27        32        32
        25        15        20        20
        24        23        13        13
         8         7         9         9
        13        18         9         9
        31        30        24        24
        12        21        22        22
        29        32        27        27
         3         1         4         4
        26        17        18        18
        16        20        15        15
zone t="boundary 2 bc-2", solutiontime= 0.1000000E+02, strandid=1002, i=33, j=48, f=feblock
  0.500195254568E+01  0.375034811445E+01  0.249861145586E+01  0.288036674134E+01  0.124717525353E+01  0.190856697905E+01  0.326577190006E+01
  0.201394855912E+01 -0.338397811977E-02  0.962374243889E+00  0.500000000000E+01  0.403430189815E+01  0.423029563516E+01  0.500000000000E+01
  0.385439188840E+01  0.500000000000E+01  0.398133433219E+01  0.315200081383E+01  0.266958028789E+01  0.154798029748E+01  0.218327860401E+01
  0.893688440126E+00  0.000000000000E+00  0.699009761219E+00  0.964460898511E+00  0.310303671661E+01  0.000000000000E+00  0.000000000000E+00
  0.125000000000E+01  0.500000000000E+01  0.375000000000E+01  0.250000000000E+01  0.000000000000E+00
 -0.249658902117E+01 -0.249658902117E+01 -0.249658902117E+01 -0.249658902117E+01 -0.249658902117E+01 -0.249658902117E+01 -0.249658902117E+01
 -0.249658902117E+01 -0.249658902117E+01 -0.249658902117E+01 -0.249658902117E+01 -0.249658902117E+01 -0.249658902117E+01 -0.249658902117E+01
 -0.249658902117E+01 -0.249658902117E+01 -0.249658902117E+01 -0.249658902117E+01 -0.249658902117E+01 -0.249658902117E+01 -0.249658902117E+01
 -0.249658902117E+01 -0.249658902117E+01 -0.249658902117E+01 -0.249658902117E+01 -0.249658902117E+01 -0.249658902117E+01 -0.249658902117E+01
 -0.249658902117E+01 -0.249658902117E+01 -0.249658902117E+01 -0.249658902117E+01 -0.249658902117E+01
  0.108218470107E-03  0.145871004167E-03  0.100891402352E-03  0.901663364689E+00  0.110859765950E-03  0.714928312394E+00  0.188140647110E+01
  0.175892165293E+01  0.810770666835E-04  0.957504290550E+00  0.125000000000E+01  0.100596696999E+01  0.191313518634E+01  0.250000000000E+01
  0.292898096729E+01  0.375000000000E+01  0.406883369623E+01  0.363389290091E+01  0.284756861229E+01  0.292582308304E+01  0.395754055152E+01
  0.205027257041E+01  0.125000000000E+01  0.306703272778E+01  0.397155766783E+01  0.433068622257E+01  0.250000000000E+01  0.375000000000E+01
  0.500000000000E+01  0.500000000000E+01  0.500000000000E+01  0.500000000000E+01  0.500000000000E+01
  0.000000000000E+00  0.000000000000E+00  0.000000000000E+00  0.384516102379E+00  0.000000000000E+00  0.340285873075E+00  0.586752973058E+00
  0.575426018814E+00  0.000000000000E+00  0.487199378467E+00  0.520641040018E+00  0.445423555755E+00  0.576269221497E+00  0.533962376915E+00
  0.567224534025E+00  0.511735128316E+00  0.508063929882E+00  0.527166122502E+00  0.565842714108E+00  0.531744059128E+00  0.508272212922E+00
  0.522388437205E+00  0.449257989219E+00  0.494521458293E+00  0.495788427676E+00  0.503678485303E+00  0.475665752878E+00  0.492352552841E+00
  0.494346755558E+00  0.491660272583E+00  0.489529542898E+00  0.494638536197E+00  0.497648492019E+00
  0.104242640687E+01  0.104242640687E+01  0.104242640687E+01  0.100355246665E+01  0.104242640687E+01  0.100599607839E+01  0.989008031489E+00
  0.992225316054E+00  0.104242640687E+01  0.997058798899E+00  0.987964542596E+00  0.995589876967E+00  0.989405264241E+00  0.100087323765E+01
  0.997203119671E+00  0.100346283424E+01  0.100053321078E+01  0.999080757420E+00  0.995647250028E+00  0.100095637499E+01  0.999458338897E+00
  0.100692573084E+01  0.103269876849E+01  0.100216635877E+01  0.100130290772E+01  0.999493814466E+00  0.100724883558E+01  0.100246497717E+01
  0.100077487280E+01  0.100026599126E+01  0.999860681535E+00  0.999993717468E+00  0.100085386850E+01
  0.821072591532E+01  0.918753512312E+01  0.744505278784E+01  0.794621356640E+01  0.500490691267E+01  0.747323813579E+01  0.989719530670E+01
  0.860138152442E+01  0.441613259892E+01  0.856977276356E+01  0.118290336652E+02  0.947659540107E+01  0.110662934113E+02  0.945193442460E+01
  0.787922155318E+01  0.630052737480E+01  0.692026051359E+01  0.730372258089E+01  0.834247438449E+01  0.711041581663E+01  0.582596553657E+01
  0.797564634533E+01  0.890972993166E+01  0.503513339708E+01  0.526970461276E+01  0.911258703332E+01  0.558471826211E+01  0.687499695030E+01
  0.250062903578E+02  0.988255079350E+01  0.116234239728E+02  0.360234411337E+01  0.383456647713E+02
 -0.163608930694E+01  0.239543439045E+00  0.537836918658E+00  0.394265078850E+01 -0.405647535049E-01  0.295517584153E+01 -0.133372630782E+01
  0.114908165491E+01  0.632968559639E+00  0.282903001985E+01 -0.272492374812E+01  0.359802595359E+00 -0.259915211299E+01 -0.241675388014E+01
 -0.202517256850E+01 -0.155500995474E+01 -0.156287271336E+01 -0.148617951441E+01 -0.137766955117E+01 -0.925322131366E-01 -0.125699034740E+01
  0.164554836965E+01  0.234638665441E+01  0.450076925674E+00 -0.223040448466E+00 -0.102856023166E+01  0.186388251644E+01  0.172342096464E+01
  0.330695188813E+01  0.694276025901E-01 -0.789511396548E+00 -0.232153728107E+01  0.796567349518E+01
 -0.242085007770E+00 -0.394909420828E+00  0.846972205004E-01  0.378038369491E+00  0.162045986855E+00  0.630924356196E+00 -0.149505622364E+00
 -0.243172934525E+00 -0.286972037696E+00  0.929467473763E-01 -0.764007513972E-01 -0.245651657859E+00  0.567960952654E-01 -0.173258887608E-01
 -0.594611036648E-02  0.245934701651E-01 -0.209983769409E-01  0.114707893074E-01  0.548306933954E-01  0.722111057903E-01  0.201068795214E-02
 -0.155565739995E-01 -0.111818219774E+00 -0.552850766197E-01 -0.516096605948E-01  0.629622540370E-02 -0.494867063813E-02 -0.336717950513E-01
  0.149041718123E-02  0.367479096654E-02  0.185318733421E-02 -0.778087563085E-02 -0.150939093288E-01
 -0.125470335275E+01 -0.221606291001E+01 -0.166096295954E+01 -0.835821546159E+01 -0.163213454871E+01 -0.889154285619E+01 -0.216335148223E+01
 -0.381575728758E+01 -0.115105848936E+01 -0.525222040742E+01 -0.696857010635E+00 -0.353315783738E+01 -0.918284686112E+00 -0.375517493124E+00
 -0.141449656530E+01 -0.463105635619E+00 -0.140601083717E+01 -0.206701315952E+01 -0.251594360290E+01 -0.326539699007E+01 -0.238242200639E+01
 -0.376847690325E+01 -0.514878522269E+01 -0.328737560745E+01 -0.250108361682E+01 -0.205705220366E+01 -0.415738267562E+01 -0.278366925939E+01
 -0.172864217715E+01 -0.805116043658E+00 -0.180247266502E+01 -0.203681889876E+01 -0.122179074722E+01
 -0.862433831470E+00 -0.933534919839E-03 -0.246909133436E-02 -0.340160359322E+01 -0.180700197982E-01 -0.348907042002E+01 -0.219663645743E+01
 -0.245029080282E+01 -0.103282073703E+01 -0.356196813670E+01 -0.256903629124E+01 -0.264555295098E+01 -0.234154865968E+01 -0.183210598914E+01
 -0.154118392840E+01 -0.124229708388E+01 -0.148306354647E+01 -0.163103102253E+01 -0.198439778819E+01 -0.200857852495E+01 -0.122994410357E+01
 -0.267469233090E+01 -0.344776430801E+01 -0.150705731725E+01 -0.142058957781E+01 -0.247335030106E+01 -0.196415677579E+01 -0.255133218613E+01
 -0.958838932743E+01 -0.324953232299E+01 -0.353268445750E+01 -0.185282525632E+00 -0.157660707915E+02
        15         7        19        19
         8        20        19        19
        18        19        21        21
         7         4         8         8
         3         6         4         4
        19         7         8         8
        19        18        15        15
        14        13        15        15
         8        22        20        20
        27        24        22        22
        19        20        21        21
        32        26        21        21
        17        18        26        26
        17        16        15        15
        25        29        21        21
        12         7        13        13
        10         8         6         6
        25        20        24        24
         4         6         8         8
        12         2         4         4
        10        23        22        22
        26        31        17        17
        30        16        17        17
         4         7        12        12
        13        11        12        12
        21        20        25        25
        24        28        25        25
        22         8        10        10
         6         5        10        10
        31        26        32        32
         4         2         3         3
         5         6         3         3
        11        13        14        14
        22        23        27        27
        28        24        27        27
        15        13         7         7
         2        12         1         1
        29        25        33        33
        23        10         9         9
        21        26        18        18
        16        14        15        15
        18        17        15        15
        29        32        21        21
        22        24        20        20
        28        33        25        25
        11         1        12        12
        31        30        17        17
         5         9        10        10
zone t="boundary 3 bc-3", solutiontime= 0.1000000E+02, strandid=1003, i=33, j=48, f=feblock
  0.375059098656E+01  0.249769607632E+01  0.500322138024E+01  0.403612219886E+01  0.287976772042E+01  0.124541906320E+01  0.190552234483E+01
  0.500000000000E+01  0.326671105081E+01  0.423253757180E+01  0.201271135153E+01 -0.547473807126E-02  0.958895614425E+00  0.500000000000E+01
  0.266968147276E+01  0.385584488388E+01  0.890374186974E+00  0.154654012335E+01  0.000000000000E+00  0.500000000000E+01  0.315261137201E+01
  0.218304199244E+01  0.398195308498E+01  0.000000000000E+00  0.697379936714E+00  0.963757270369E+00  0.125000000000E+01  0.000000000000E+00
  0.500000000000E+01  0.310330738803E+01  0.250000000000E+01  0.375000000000E+01  0.000000000000E+00
  0.250494199996E+01  0.250494199996E+01  0.250494199996E+01  0.250494199996E+01  0.250494199996E+01  0.250494199996E+01  0.250494199996E+01
  0.250494199996E+01  0.250494199996E+01  0.250494199996E+01  0.250494199996E+01  0.250494199996E+01  0.250494199996E+01  0.250494199996E+01
  0.250494199996E+01  0.250494199996E+01  0.250494199996E+01  0.250494199996E+01  0.250494199996E+01  0.250494199996E+01  0.250494199996E+01
  0.250494199996E+01  0.250494199996E+01  0.250494199996E+01  0.250494199996E+01  0.250494199996E+01  0.250494199996E+01  0.250494199996E+01
  0.250494199996E+01  0.250494199996E+01  0.250494199996E+01  0.250494199996E+01  0.250494199996E+01
  0.135804613136E-03  0.110291600138E-03  0.968352231350E-04  0.101756767184E+01  0.908094754977E+00  0.104111048370E-03  0.722629266591E+00
  0.125000000000E+01  0.188965673340E+01  0.191862703991E+01  0.176708252857E+01  0.805554723431E-04  0.969652727894E+00  0.250000000000E+01
  0.285339441809E+01  0.293325064380E+01  0.205656233202E+01  0.293157024791E+01  0.125000000000E+01  0.375000000000E+01  0.363766843533E+01
  0.396069448925E+01  0.407056387650E+01  0.250000000000E+01  0.307031999890E+01  0.397359822904E+01  0.500000000000E+01  0.375000000000E+01
  0.500000000000E+01  0.433260783674E+01  0.500000000000E+01  0.500000000000E+01  0.500000000000E+01
  0.000000000000E+00  0.000000000000E+00  0.000000000000E+00  0.453747912967E+00  0.402545502452E+00  0.000000000000E+00  0.369629009543E+00
  0.520525438577E+00  0.575220780219E+00  0.575502697133E+00  0.558260174274E+00  0.000000000000E+00  0.478252962452E+00  0.530976530200E+00
  0.555830976399E+00  0.562793219653E+00  0.524675235834E+00  0.523282018188E+00  0.447917893104E+00  0.513796076167E+00  0.524673097208E+00
  0.506323914759E+00  0.509686671337E+00  0.477443348003E+00  0.499194823540E+00  0.497912967444E+00  0.492962759870E+00  0.493078169939E+00
  0.493192027983E+00  0.501531684732E+00  0.491169160321E+00  0.488098785874E+00  0.498012892236E+00
  0.104242640687E+01  0.104242640687E+01  0.104242640687E+01  0.992555420605E+00  0.100338777628E+01  0.104242640687E+01  0.100275102529E+01
  0.987610948161E+00  0.990360755947E+00  0.989796153239E+00  0.994453865708E+00  0.104242640687E+01  0.999323382885E+00  0.100158433896E+01
  0.997121320216E+00  0.998147046673E+00  0.100443205293E+01  0.100036233051E+01  0.102508330221E+01  0.100269535219E+01  0.100014129837E+01
  0.999693737614E+00  0.100036856474E+01  0.100608607954E+01  0.100156234007E+01  0.100069385186E+01  0.100096903929E+01  0.100201867166E+01
  0.100024531101E+01  0.999658107118E+00  0.100018113529E+01  0.100002132966E+01  0.100090132497E+01
  0.121397771133E+02  0.754113774170E+01  0.916946445807E+01  0.952412699361E+01  0.894717208128E+01  0.614428097724E+01  0.828294161185E+01
  0.125183830066E+02  0.109657522736E+02  0.112528506548E+02  0.994535717353E+01  0.371382911132E+01  0.932293742882E+01  0.939288832924E+01
  0.820680569192E+01  0.845795520694E+01  0.821728073774E+01  0.633844549337E+01  0.621509715994E+01  0.684743506395E+01  0.593266303099E+01
  0.552836061259E+01  0.529358740463E+01  0.453514999690E+01  0.423881086071E+01  0.106716671467E+02  0.352839715882E+02  0.997320998275E+01
  0.658587447452E+01  0.974644968324E+01  0.133971293127E+02  0.188228339246E+02  0.542318403626E+02
  0.210664480270E+00  0.584754901790E+00 -0.197249940244E+01  0.154164057096E+01  0.407055203111E+01  0.222957223166E+00  0.415796357156E+01
 -0.286532235186E+01 -0.227705242027E+01 -0.299081311064E+01  0.562994975029E-01  0.983973843546E+00  0.342283893757E+01 -0.242844652652E+01
 -0.174192840550E+01 -0.213581868134E+01  0.172932662473E+01 -0.706179039776E+00  0.254986067651E+01 -0.165780555891E+01 -0.192899672074E+01
 -0.155232624535E+01 -0.197189055471E+01  0.191937002878E+01  0.151478186721E+00  0.746815615722E+00  0.535892515699E+01  0.217198901348E+01
 -0.625146302951E+00 -0.101554998297E+01 -0.299114028777E+00  0.586169418569E+00  0.110989223853E+02
 -0.159671597414E-01  0.987976007219E-01  0.846861486037E-01 -0.770378218658E+00 -0.750970672993E+00 -0.809040309693E-01 -0.727368243298E-02
  0.507948541347E-01  0.226909111650E+00  0.342552597955E-01  0.266730096842E+00  0.165027564082E+00  0.229443292442E+00 -0.191120413661E-01
 -0.397335270601E-01  0.161180061077E-01 -0.307958849866E-01 -0.171542093829E+00  0.127999336239E+00 -0.284289443722E-01 -0.124366290703E-01
  0.227677018553E-01  0.334632831481E-02 -0.121111800390E-03  0.405759660561E-01  0.851533060703E-01 -0.291284478510E-01  0.751430941421E-02
 -0.160922443275E-01 -0.259347517210E-02 -0.814181032480E-02 -0.319183666561E-02 -0.721057577731E-02
 -0.286047447744E+01 -0.268224386243E+01 -0.112183083404E+01 -0.821882046298E+01 -0.963781885047E+01 -0.271277107355E+01 -0.989359372251E+01
 -0.453264386691E+00 -0.301469590154E+01 -0.107083254918E+01 -0.437535438831E+01 -0.241612613714E+01 -0.709764534137E+01 -0.465059012285E+00
 -0.304470009613E+01 -0.156824908676E+01 -0.489088362665E+01 -0.408189250718E+01 -0.653849007468E+01 -0.566468635200E+00 -0.218190543189E+01
 -0.272061007275E+01 -0.149678354224E+01 -0.529395797332E+01 -0.425161457230E+01 -0.288781602854E+01 -0.187017419082E+01 -0.318816590698E+01
 -0.753393153604E+00 -0.210875902234E+01 -0.212344080936E+01 -0.183486029415E+01 -0.118111054589E+01
  0.437840959839E-02 -0.252056331087E-01 -0.854141829971E+00 -0.319037004763E+01 -0.371459810450E+01 -0.424374258827E-01 -0.390020769546E+01
 -0.273455912223E+01 -0.224538879545E+01 -0.222926587109E+01 -0.249837620418E+01 -0.115438706691E+01 -0.374319601793E+01 -0.181583638214E+01
 -0.180640745696E+01 -0.169030826279E+01 -0.263141254407E+01 -0.151289673641E+01 -0.263177988172E+01 -0.136849839631E+01 -0.976813782084E+00
 -0.101249210945E+01 -0.776008619106E+00 -0.156765993386E+01 -0.115364087054E+01 -0.363231461575E+01 -0.138369129208E+02 -0.383412357642E+01
 -0.185643292507E+01 -0.269522945800E+01 -0.428672569207E+01 -0.651618723936E+01 -0.224076241404E+02
        15         9        16        16
        15        18        11        11
        22        15        21        21
        11         5         9         9
         5         7         2         2
        11         9        15        15
        16        21        15        15
        16        10        14        14
        18        17        11        11
        17        25        24        24
        22        18        15        15
        22        30        31        31
        30        21        23        23
        16        20        23        23
        22        27        26        26
        10         9         4         4
         7        11        13        13
        25        18        26        26
        11         7         5         5
         5         1         4         4
        17        19        13        13
        23        32        30        30
        23        20        29        29
         4         9         5         5
         4         8        10        10
        26        18        22        22
        26        28        25        25
        13        11        17        17
        13         6         7         7
        31        30        32        32
         2         1         5         5
         2         7         6         6
        14        10         8         8
        24        19        17        17
        24        25        28        28
         9        10        16        16
         3         4         1         1
        33        26        27        27
        12        13        19        19
        21        30        22        22
        16        14        20        20
        16        23        21        21
        22        31        27        27
        18        25        17        17
        26        33        28        28
         4         3         8         8
        23        29        32        32
        13        12         6         6
zone t="boundary 4 bc-4", solutiontime= 0.1000000E+02, strandid=1004, i=32, j=46, f=feblock
  0.125000000000E+01  0.219251206392E+01  0.103724302461E+01  0.500000000000E+01  0.250000000000E+01  0.375000000000E+01  0.404200324774E+01
  0.500000000000E+01  0.000000000000E+00  0.310152362409E+01  0.202479342020E+01  0.324151231464E+01  0.922061490191E+00  0.000000000000E+00
  0.299062775774E+01  0.394624082883E+01  0.500000000000E+01  0.409252726285E+01  0.500000000000E+01  0.429310310915E+01  0.175434191980E+01
  0.284428995242E+01  0.000000000000E+00  0.000000000000E+00  0.715990576545E+00  0.930412228790E+00  0.125000000000E+01  0.187029682677E+01
  0.500000000000E+01  0.375000000000E+01  0.250000000000E+01  0.000000000000E+00
  0.250494199996E+01  0.157686156160E+01  0.146289271009E+01  0.250494199996E+01  0.250494199996E+01  0.250494199996E+01  0.155830813274E+01
  0.125000000000E+01  0.250494199996E+01  0.177790177481E+01  0.477386199275E+00  0.742988685424E+00  0.308372018325E+00  0.125000000000E+01
 -0.487811078581E+00 -0.144524380962E+01 -0.125000000000E+01 -0.345533899378E+00  0.000000000000E+00  0.627766083140E+00 -0.739814786992E+00
 -0.158811787973E+01  0.000000000000E+00 -0.125000000000E+01 -0.600232012419E+00 -0.154800130438E+01 -0.249658902117E+01 -0.178862290564E+01
 -0.249658902117E+01 -0.249658902117E+01 -0.249658902117E+01 -0.249658902117E+01
  0.500000000000E+01  0.500000000000E+01  0.500000000000E+01  0.500000000000E+01  0.500000000000E+01  0.500000000000E+01  0.500000000000E+01
  0.500000000000E+01  0.500000000000E+01  0.500000000000E+01  0.500000000000E+01  0.500000000000E+01  0.500000000000E+01  0.500000000000E+01
  0.500000000000E+01  0.500000000000E+01  0.500000000000E+01  0.500000000000E+01  0.500000000000E+01  0.500000000000E+01  0.500000000000E+01
  0.500000000000E+01  0.500000000000E+01  0.500000000000E+01  0.500000000000E+01  0.500000000000E+01  0.500000000000E+01  0.500000000000E+01
  0.500000000000E+01  0.500000000000E+01  0.500000000000E+01  0.500000000000E+01
  0.492962759870E+00  0.493501811671E+00  0.494482154831E+00  0.493192027983E+00  0.491169160321E+00  0.488098785874E+00  0.488213915627E+00
  0.494128983540E+00  0.498012892236E+00  0.490743060293E+00  0.492687813004E+00  0.491182349969E+00  0.497494162823E+00  0.498545864547E+00
  0.492035510719E+00  0.486141829064E+00  0.492132924673E+00  0.489715881183E+00  0.494539390222E+00  0.490046920039E+00  0.494491364915E+00
  0.492624363644E+00  0.499470102958E+00  0.498443302004E+00  0.498085503858E+00  0.496394045645E+00  0.494346755558E+00  0.494728908771E+00
  0.491660272583E+00  0.489529542898E+00  0.494638536197E+00  0.497648492019E+00
  0.100096903929E+01  0.100040310406E+01  0.100072208318E+01  0.100024531101E+01  0.100018113529E+01  0.100002132966E+01  0.999888523338E+00
  0.100031159626E+01  0.100090132497E+01  0.100020963142E+01  0.100030894110E+01  0.999990940255E+00  0.100060759990E+01  0.100084556817E+01
  0.100008167760E+01  0.999676407531E+00  0.100057119101E+01  0.999878618045E+00  0.100042307878E+01  0.999981274937E+00  0.100055778173E+01
  0.999986005540E+00  0.100040727367E+01  0.100050934991E+01  0.100040913615E+01  0.100074102371E+01  0.100077487280E+01  0.100045005174E+01
  0.100026599126E+01  0.999860681535E+00  0.999993717468E+00  0.100085386850E+01
  0.352839715882E+02  0.337299816002E+02  0.397364630018E+02  0.658587447452E+01  0.133971293127E+02  0.188228339246E+02  0.242831700536E+02
  0.550024328605E+01  0.542318403626E+02  0.216388369783E+02  0.340121214934E+02  0.190439371879E+02  0.451099378913E+02  0.580399122892E+02
  0.841110980767E+01  0.100715889638E+02  0.875040814257E+01  0.117599205295E+02  0.691921221316E+01  0.299310505921E+02  0.354935030292E+02
  0.726637718869E+01  0.598791113306E+02  0.452306090170E+02  0.507449438441E+02  0.323079771483E+02  0.250062903578E+02  0.235446635764E+02
  0.988255079350E+01  0.116234239728E+02  0.360234411337E+01  0.383456647713E+02