title="tecplot geometry and solution file"
variables = x y z mach temperature lambda1 lambda2 lambda3 lambda4 lambda5
zone t="boundary 1 bc-1", solutiontime= 0.7000000E+02, strandid=1001, i=32, j=46, f=feblock
 -0.547473807126E-02  0.000000000000E+00 -0.567611394124E-02  0.000000000000E+00  0.000000000000E+00  0.000000000000E+00 -0.525163716493E-02
 -0.425779958105E-02  0.000000000000E+00  0.000000000000E+00  0.000000000000E+00  0.000000000000E+00  0.000000000000E+00  0.000000000000E+00
  0.000000000000E+00  0.000000000000E+00 -0.338397811977E-02  0.000000000000E+00  0.000000000000E+00  0.000000000000E+00  0.000000000000E+00
  0.000000000000E+00  0.000000000000E+00  0.000000000000E+00  0.000000000000E+00  0.000000000000E+00  0.000000000000E+00  0.000000000000E+00
  0.000000000000E+00  0.000000000000E+00  0.000000000000E+00  0.000000000000E+00
  0.250494199996E+01  0.250494199996E+01  0.127822171177E+01  0.146289271009E+01  0.157686156160E+01  0.308372018325E+00  0.261949834539E-01
 -0.122573470438E+01 -0.600232012419E+00  0.250494199996E+01  0.477386199275E+00  0.742988685424E+00 -0.739814786992E+00  0.177790177481E+01
  0.155830813274E+01  0.250494199996E+01 -0.249658902117E+01 -0.154800130438E+01 -0.487811078581E+00  0.250494199996E+01  0.627766083140E+00
 -0.345533899378E+00 -0.178862290564E+01 -0.158811787973E+01  0.125000000000E+01 -0.249658902117E+01 -0.144524380962E+01  0.000000000000E+00
 -0.125000000000E+01 -0.249658902117E+01 -0.249658902117E+01 -0.249658902117E+01
  0.805554723431E-04  0.125000000000E+01  0.823773991683E-04  0.103724302461E+01  0.219251206392E+01  0.922061490191E+00  0.103961330990E-03
  0.342005321779E-04  0.715990576545E+00  0.250000000000E+01  0.202479342020E+01  0.324151231464E+01  0.175434191980E+01  0.310152362409E+01
  0.404200324774E+01  0.375000000000E+01  0.810770666835E-04  0.930412228790E+00  0.299062775774E+01  0.500000000000E+01  0.429310310915E+01
  0.409252726285E+01  0.187029682677E+01  0.284428995242E+01  0.500000000000E+01  0.125000000000E+01  0.394624082883E+01  0.500000000000E+01
  0.500000000000E+01  0.250000000000E+01  0.375000000000E+01  0.500000000000E+01
  0.000000000000E+00  0.447917893104E+00  0.000000000000E+00  0.476275931555E+00  0.468523764258E+00  0.473519703686E+00  0.000000000000E+00
  0.000000000000E+00  0.412988885572E+00  0.477443348003E+00  0.472504673047E+00  0.485153442297E+00  0.492070550375E+00  0.488543839063E+00
  0.491923380125E+00  0.493078169939E+00  0.000000000000E+00  0.471586654448E+00  0.480934095626E+00  0.498012892236E+00  0.493689909582E+00
  0.490409919455E+00  0.456073457024E+00  0.472047037771E+00  0.498545864547E+00  0.449257989219E+00  0.491117573798E+00  0.499470102958E+00
  0.498443302004E+00  0.475665752878E+00  0.492352552841E+00  0.497648492019E+00
  0.104242640687E+01  0.102508330221E+01  0.104242640687E+01  0.103461472126E+01  0.100936211481E+01  0.102707647030E+01  0.104242640687E+01
  0.104242640687E+01  0.104103512175E+01  0.100608607954E+01  0.100935928681E+01  0.100173207642E+01  0.101882157420E+01  0.100399703841E+01
  0.100113916075E+01  0.100201867166E+01  0.104242640687E+01  0.103067303883E+01  0.100321571449E+01  0.100090132497E+01  0.100133271257E+01
  0.100116394826E+01  0.101357751416E+01  0.100469368551E+01  0.100084556817E+01  0.103269876849E+01  0.100165718156E+01  0.100040727367E+01
  0.100050934991E+01  0.100724883558E+01  0.100246497717E+01  0.100085386850E+01
  0.369330145284E+01  0.625164896330E+01  0.451355164356E+01  0.816390798390E+01  0.629336054121E+01  0.483660651715E+01  0.675303124688E+01
  0.334559598492E+01  0.188952767899E+01  0.461794448614E+01  0.816167149351E+01  0.475135040740E+01  0.948723455088E+01  0.356862856393E+01
  0.112250406043E+02  0.931283735959E+01  0.441582992733E+01  0.549904426585E+01  0.475156947119E+01  0.569422234265E+02  0.160848592701E+02
  0.823936649325E+01  0.803590194024E+01  0.493349423185E+01  0.607787330990E+02  0.901078623716E+01  0.625691702360E+01  0.625106184393E+02
  0.457706796391E+02  0.588990198720E+01  0.690962830995E+01  0.382634499370E+02
  0.983399010784E+00  0.258921042602E+01  0.142608270863E+01  0.270850325398E+01  0.237422258156E+01  0.299658683465E+01  0.820768614582E+00
  0.920698308454E+00  0.208718055963E+01  0.191792293241E+01  0.251564282096E+01  0.139598408839E+01  0.275490288455E+01  0.128584958262E+01
  0.222033423587E+01  0.199079427711E+01  0.631060062100E+00  0.261227915715E+01  0.145601740769E+01  0.117854738977E+02  0.324267580301E+01
  0.163231593727E+01  0.250162299258E+01  0.153211360170E+01  0.128123262142E+02  0.239177989089E+01  0.131187181517E+01  0.131874851880E+02
  0.964327639303E+01  0.191162130141E+01  0.172126322267E+01  0.801085344457E+01
  0.163329683577E+00  0.129358287161E+00  0.580564081901E-01  0.404964302716E+00  0.143987986816E+00  0.218365577298E+00  0.393058753165E+00
 -0.193121282801E+00  0.492641106979E+00 -0.866809895804E-03  0.529304559705E+00  0.489942971548E+00  0.592364188767E+00  0.283084492224E+00
  0.368244703323E+00  0.348492394842E-02 -0.287949130431E+00 -0.277532372960E+00  0.519383430363E+00 -0.150505217347E-01  0.312656974464E+00
  0.178035351418E+00  0.410213666500E+00  0.201957939078E+00  0.115889054058E-01 -0.110630797393E+00  0.780135451671E-01  0.196144123695E+00
  0.130161677088E+00 -0.528055820881E-02 -0.325355885304E-01 -0.135160328851E-01
 -0.241470115679E+01 -0.660848743107E+01 -0.315178909384E+01 -0.704871526246E+01 -0.537514039608E+01 -0.992311491906E+01 -0.186695093118E+01
 -0.173875982993E+01 -0.988140556732E+01 -0.536824262854E+01 -0.440623859508E+01 -0.379092151002E+01 -0.314331705679E+01 -0.453598367980E+01
 -0.279624943743E+01 -0.319088704388E+01 -0.115299183160E+01 -0.632171631245E+01 -0.365801924791E+01 -0.119310986185E+01 -0.238483430972E+01
 -0.259735711239E+01 -0.378397613684E+01 -0.366368338424E+01 -0.112679357651E+01 -0.517955122678E+01 -0.257219035822E+01 -0.102874630264E+01
 -0.122404674559E+01 -0.419041625257E+01 -0.277578223434E+01 -0.124246473646E+01
 -0.114169863988E+01 -0.265095674204E+01 -0.170576050601E+01 -0.327189778227E+01 -0.226273801098E+01 -0.240568136012E+01 -0.142296624339E+01
 -0.860305778938E+00 -0.133780553009E+01 -0.159974294719E+01 -0.288104030088E+01 -0.171427336049E+01 -0.333380843148E+01 -0.118363661191E+01
 -0.427840345446E+01 -0.354930275043E+01 -0.103180378015E+01 -0.253522778933E+01 -0.173124099117E+01 -0.235767652337E+02 -0.632201607921E+01
 -0.304674908354E+01 -0.289101309126E+01 -0.177542738122E+01 -0.252224331409E+02 -0.349329535410E+01 -0.221600084092E+01 -0.260205872088E+02
 -0.189500510501E+02 -0.208886519613E+01 -0.256395657009E+01 -0.157379903936E+02
        12        19        11        11
        11         5        12        12
        10        14         5         5
        19        13        11        11
        19        24        13        13
        30        23        24        24
        19        12        22        22
        28        22        21        21
        11        13         6         6
         7         6         9         9
        15        12        14        14
        18        13        23        23
        15        25        21        21
        27        19        22        22
        18         8         9         9
        27        31        24        24
         4        11         6         6
         5        14        12        12
         4         2         5         5
        21        12        15        15
        14        16        15        15
        24        19        27        27
        22        29        27        27
        23        26        18        18
        17         8        18        18
         5        11         4         4
         6         3         4         4
        26        23        30        30
         5         2        10        10
        16        14        10        10
         3         6         7         7
        21        25        28        28
        29        22        28        28
         6        13         9         9
         2         4         1         1
        31        27        32        32
        25        15        20        20
        24        23        13        13
         8         7         9         9
        13        18         9         9
        31        30        24        24
        12        21        22        22
        29        32        27        27
         3         1         4         4
        26        17        18        18
        16        20        15        15
zone t="boundary 2 bc-2", solutiontime= 0.7000000E+02, strandid=1002, i=33, j=48, f=feblock
  0.500195254568E+01  0.375034811445E+01  0.249861145586E+01  0.288036674134E+01  0.124717525353E+01  0.190856697905E+01  0.326577190006E+01
  0.201394855912E+01 -0.338397811977E-02  0.962374243889E+00  0.500000000000E+01  0.403430189815E+01  0.423029563516E+01  0.500000000000E+01
  0.385439188840E+01  0.500000000000E+01  0.398133433219E+01  0.315200081383E+01  0.266958028789E+01  0.154798029748E+01  0.218327860401E+01
  0.893688440126E+00  0.000000000000E+00  0.699009761219E+00  0.964460898511E+00  0.310303671661E+01  0.000000000000E+00  0.000000000000E+00
  0.125000000000E+01  0.500000000000E+01  0.375000000000E+01  0.250000000000E+01  0.000000000000E+00
 -0.249658902117E+01 -0.249658902117E+01 -0.249658902117E+01 -0.249658902117E+01 -0.249658902117E+01 -0.249658902117E+01 -0.249658902117E+01
 -0.249658902117E+01 -0.249658902117E+01 -0.249658902117E+01 -0.249658902117E+01 -0.249658902117E+01 -0.249658902117E+01 -0.249658902117E+01
 -0.249658902117E+01 -0.249658902117E+01 -0.249658902117E+01 -0.249658902117E+01 -0.249658902117E+01 -0.249658902117E+01 -0.249658902117E+01
 -0.249658902117E+01 -0.249658902117E+01 -0.249658902117E+01 -0.249658902117E+01 -0.249658902117E+01 -0.249658902117E+01 -0.249658902117E+01
 -0.249658902117E+01 -0.249658902117E+01 -0.249658902117E+01 -0.249658902117E+01 -0.249658902117E+01
  0.108218470107E-03  0.145871004167E-03  0.100891402352E-03  0.901663364689E+00  0.110859765950E-03  0.714928312394E+00  0.188140647110E+01
  0.175892165293E+01  0.810770666835E-04  0.957504290550E+00  0.125000000000E+01  0.100596696999E+01  0.191313518634E+01  0.250000000000E+01
  0.292898096729E+01  0.375000000000E+01  0.406883369623E+01  0.363389290091E+01  0.284756861229E+01  0.292582308304E+01  0.395754055152E+01
  0.205027257041E+01  0.125000000000E+01  0.306703272778E+01  0.397155766783E+01  0.433068622257E+01  0.250000000000E+01  0.375000000000E+01
  0.500000000000E+01  0.500000000000E+01  0.500000000000E+01  0.500000000000E+01  0.500000000000E+01
  0.000000000000E+00  0.000000000000E+00  0.000000000000E+00  0.384516102379E+00  0.000000000000E+00  0.340285873075E+00  0.586752973058E+00
  0.575426018814E+00  0.000000000000E+00  0.487199378467E+00  0.520641040018E+00  0.445423555755E+00  0.576269221497E+00  0.533962376915E+00
  0.567224534025E+00  0.511735128316E+00  0.508063929882E+00  0.527166122502E+00  0.565842714108E+00  0.531744059128E+00  0.508272212922E+00
  0.522388437205E+00  0.449257989219E+00  0.494521458293E+00  0.495788427676E+00  0.503678485303E+00  0.475665752878E+00  0.492352552841E+00
  0.494346755558E+00  0.491660272583E+00  0.489529542898E+00  0.494638536197E+00  0.497648492019E+00
  0.104242640687E+01  0.104242640687E+01  0.104242640687E+01  0.100355246665E+01  0.104242640687E+01  0.100599607839E+01  0.989008031489E+00
  0.992225316054E+00  0.104242640687E+01  0.997058798899E+00  0.987964542596E+00  0.995589876967E+00  0.989405264241E+00  0.100087323765E+01
  0.997203119671E+00  0.100346283424E+01  0.100053321078E+01  0.999080757420E+00  0.995647250028E+00  0.100095637499E+01  0.999458338897E+00
  0.100692573084E+01  0.103269876849E+01  0.100216635877E+01  0.100130290772E+01  0.999493814466E+00  0.100724883558E+01  0.100246497717E+01
  0.100077487280E+01  0.100026599126E+01  0.999860681535E+00  0.999993717468E+00  0.100085386850E+01
  0.819901433854E+01  0.917961256884E+01  0.741644993012E+01  0.799572031665E+01  0.500419840599E+01  0.782950696859E+01  0.986393641429E+01
  0.855099601077E+01  0.441582992733E+01  0.857435929128E+01  0.118205856358E+02  0.942685463198E+01  0.110579670551E+02  0.944231525344E+01
  0.787793257108E+01  0.630383727476E+01  0.687154582679E+01  0.728975990275E+01  0.837799244271E+01  0.705422783954E+01  0.582197829670E+01
  0.772885562039E+01  0.901078623716E+01  0.529559102881E+01  0.544418950330E+01  0.911316260852E+01  0.588990198720E+01  0.690962830995E+01
  0.248188908440E+02  0.985194924104E+01  0.116571976678E+02  0.369491121132E+01  0.382634499370E+02
 -0.163551942289E+01  0.237465129783E+00  0.536513990822E+00  0.400864933479E+01 -0.427498714005E-01  0.307116997701E+01 -0.133857301213E+01
  0.113680839013E+01  0.631060062100E+00  0.286718202163E+01 -0.271953871154E+01  0.357642617464E+00 -0.259015880163E+01 -0.241711665315E+01
 -0.202681851666E+01 -0.155118188572E+01 -0.157978555214E+01 -0.148852614395E+01 -0.137220621417E+01 -0.126117979348E+00 -0.124653065177E+01
  0.159089689854E+01  0.239177989089E+01  0.504426722680E+00 -0.178849319861E+00 -0.103135237602E+01  0.191162130141E+01  0.172126322267E+01
  0.328784266939E+01  0.652135292842E-01 -0.786237771521E+00 -0.231348559709E+01  0.801085344457E+01
 -0.244181197728E+00 -0.392821865240E+00  0.878931067220E-01  0.381408144854E+00  0.163709464561E+00  0.633758562947E+00 -0.149830862268E+00
 -0.244897305202E+00 -0.287949130431E+00  0.929370094486E-01 -0.769371772742E-01 -0.246092905928E+00  0.569708879416E-01 -0.173117539389E-01
 -0.636211594214E-02  0.245501308717E-01 -0.224569290982E-01  0.106291949372E-01  0.538923435243E-01  0.711837252440E-01  0.632520434560E-03
 -0.153743791201E-01 -0.110630797393E+00 -0.531144693881E-01 -0.503996720873E-01  0.649639401884E-02 -0.528055820881E-02 -0.325355885304E-01
  0.690778130311E-04  0.330014774152E-02  0.170671124159E-02 -0.749187115521E-02 -0.135160328851E-01
 -0.125455155089E+01 -0.221483321476E+01 -0.165865545646E+01 -0.836037709635E+01 -0.163493705303E+01 -0.891363642234E+01 -0.214822514316E+01
 -0.381434740062E+01 -0.115299183160E+01 -0.525869921615E+01 -0.693640019632E+00 -0.350630897008E+01 -0.910790217644E+00 -0.376217811748E+00
 -0.140826310748E+01 -0.463412582508E+00 -0.139898633452E+01 -0.206281142898E+01 -0.251776128323E+01 -0.328617159041E+01 -0.239832789805E+01
 -0.377763349500E+01 -0.517955122678E+01 -0.329290295577E+01 -0.251710321852E+01 -0.205536497410E+01 -0.419041625257E+01 -0.277578223434E+01
 -0.173183602776E+01 -0.804542557016E+00 -0.179786934730E+01 -0.202724625402E+01 -0.124246473646E+01
 -0.859099099846E+00  0.241422258094E-03  0.639837382365E-03 -0.343524807582E+01 -0.206395266908E-01 -0.364677755114E+01 -0.218286889508E+01
 -0.242727318225E+01 -0.103180378015E+01 -0.356896929580E+01 -0.256852257328E+01 -0.262585074434E+01 -0.234093989627E+01 -0.183005737112E+01
 -0.154054249735E+01 -0.124515534809E+01 -0.146085229944E+01 -0.162605669058E+01 -0.200063476222E+01 -0.198087801313E+01 -0.122946915882E+01
 -0.256811848590E+01 -0.349329535410E+01 -0.161833898652E+01 -0.149505670462E+01 -0.247291532859E+01 -0.208886519613E+01 -0.256395657009E+01
 -0.951371605378E+01 -0.323684938930E+01 -0.354657880533E+01 -0.225173710142E+00 -0.157379903936E+02
        15         7        19        19
         8        20        19        19
        18        19        21        21
         7         4         8         8
         3         6         4         4
        19         7         8         8
        19        18        15        15
        14        13        15        15
         8        22        20        20
        27        24        22        22
        19        20        21        21
        32        26        21        21
        17        18        26        26
        17        16        15        15
        25        29        21        21
        12         7        13        13
        10         8         6         6
        25        20        24        24
         4         6         8         8
        12         2         4         4
        10        23        22        22
        26        31        17        17
        30        16        17        17
         4         7        12        12
        13        11        12        12
        21        20        25        25
        24        28        25        25
        22         8        10        10
         6         5        10        10
        31        26        32        32
         4         2         3         3
         5         6         3         3
        11        13        14        14
        22        23        27        27
        28        24        27        27
        15        13         7         7
         2        12         1         1
        29        25        33        33
        23        10         9         9
        21        26        18        18
        16        14        15        15
        18        17        15        15
        29        32        21        21
        22        24        20        20
        28        33        25        25
        11         1        12        12
        31        30        17        17
         5         9        10        10
zone t="boundary 3 bc-3", solutiontime= 0.7000000E+02, strandid=1003, i=33, j=48, f=feblock
  0.375059098656E+01  0.249769607632E+01  0.500322138024E+01  0.403612219886E+01  0.287976772042E+01  0.124541906320E+01  0.190552234483E+01
  0.500000000000E+01  0.326671105081E+01  0.423253757180E+01  0.201271135153E+01 -0.547473807126E-02  0.958895614425E+00  0.500000000000E+01
  0.266968147276E+01  0.385584488388E+01  0.890374186974E+00  0.154654012335E+01  0.000000000000E+00  0.500000000000E+01  0.315261137201E+01
  0.218304199244E+01  0.398195308498E+01  0.000000000000E+00  0.697379936714E+00  0.963757270369E+00  0.125000000000E+01  0.000000000000E+00
  0.500000000000E+01  0.310330738803E+01  0.250000000000E+01  0.375000000000E+01  0.000000000000E+00
  0.250494199996E+01  0.250494199996E+01  0.250494199996E+01  0.250494199996E+01  0.250494199996E+01  0.250494199996E+01  0.250494199996E+01
  0.250494199996E+01  0.250494199996E+01  0.250494199996E+01  0.250494199996E+01  0.250494199996E+01  0.250494199996E+01  0.250494199996E+01
  0.250494199996E+01  0.250494199996E+01  0.250494199996E+01  0.250494199996E+01  0.250494199996E+01  0.250494199996E+01  0.250494199996E+01
  0.250494199996E+01  0.250494199996E+01  0.250494199996E+01  0.250494199996E+01  0.250494199996E+01  0.250494199996E+01  0.250494199996E+01
  0.250494199996E+01  0.250494199996E+01  0.250494199996E+01  0.250494199996E+01  0.250494199996E+01
  0.135804613136E-03  0.110291600138E-03  0.968352231350E-04  0.101756767184E+01  0.908094754977E+00  0.104111048370E-03  0.722629266591E+00
  0.125000000000E+01  0.188965673340E+01  0.191862703991E+01  0.176708252857E+01  0.805554723431E-04  0.969652727894E+00  0.250000000000E+01
  0.285339441809E+01  0.293325064380E+01  0.205656233202E+01  0.293157024791E+01  0.125000000000E+01  0.375000000000E+01  0.363766843533E+01
  0.396069448925E+01  0.407056387650E+01  0.250000000000E+01  0.307031999890E+01  0.397359822904E+01  0.500000000000E+01  0.375000000000E+01
  0.500000000000E+01  0.433260783674E+01  0.500000000000E+01  0.500000000000E+01  0.500000000000E+01
  0.000000000000E+00  0.000000000000E+00  0.000000000000E+00  0.453747912967E+00  0.402545502452E+00  0.000000000000E+00  0.369629009543E+00
  0.520525438577E+00  0.575220780219E+00  0.575502697133E+00  0.558260174274E+00  0.000000000000E+00  0.478252962452E+00  0.530976530200E+00
  0.555830976399E+00  0.562793219653E+00  0.524675235834E+00  0.523282018188E+00  0.447917893104E+00  0.513796076167E+00  0.524673097208E+00
  0.506323914759E+00  0.509686671337E+00  0.477443348003E+00  0.499194823540E+00  0.497912967444E+00  0.492962759870E+00  0.493078169939E+00
  0.493192027983E+00  0.501531684732E+00  0.491169160321E+00  0.488098785873E+00  0.498012892236E+00
  0.104242640687E+01  0.104242640687E+01  0.104242640687E+01  0.992555420605E+00  0.100338777628E+01  0.104242640687E+01  0.100275102529E+01
  0.987610948161E+00  0.990360755947E+00  0.989796153239E+00  0.994453865708E+00  0.104242640687E+01  0.999323382885E+00  0.100158433896E+01
  0.997121320216E+00  0.998147046673E+00  0.100443205293E+01  0.100036233051E+01  0.102508330221E+01  0.100269535219E+01  0.100014129837E+01
  0.999693737614E+00  0.100036856474E+01  0.100608607954E+01  0.100156234007E+01  0.100069385186E+01  0.100096903929E+01  0.100201867166E+01
  0.100024531101E+01  0.999658107118E+00  0.100018113529E+01  0.100002132966E+01  0.100090132497E+01
  0.121077566982E+02  0.753176950011E+01  0.915893354525E+01  0.952327862199E+01  0.911685792004E+01  0.615259605147E+01  0.840899799890E+01
  0.125141151200E+02  0.108567275195E+02  0.112142536470E+02  0.990716960392E+01  0.369330145284E+01  0.920150365266E+01  0.939132899222E+01
  0.830139261270E+01  0.844422986861E+01  0.801561163914E+01  0.638485230554E+01  0.625164896330E+01  0.683143285169E+01  0.605309105296E+01
  0.541432564478E+01  0.529280712139E+01  0.461794448614E+01  0.450092906666E+01  0.103100945982E+02  0.347663097908E+02  0.931283735959E+01
  0.655855883258E+01  0.957165069683E+01  0.135871131541E+02  0.186869545260E+02  0.569422234265E+02
  0.206864794233E+00  0.582466771226E+00 -0.197299445144E+01  0.162904678077E+01  0.421598065229E+01  0.223338058576E+00  0.427153757320E+01
 -0.285905376352E+01 -0.230606093943E+01 -0.300630678418E+01  0.751127137403E-01  0.983399010784E+00  0.347416856988E+01 -0.242730944019E+01
 -0.173129677834E+01 -0.213623477011E+01  0.167425362337E+01 -0.735708086572E+00  0.258921042602E+01 -0.166014317400E+01 -0.191087278929E+01
 -0.161428661169E+01 -0.198325712261E+01  0.191792293241E+01  0.151876396112E+00  0.642587247412E+00  0.532014599072E+01  0.199079427711E+01
 -0.624534296317E+00 -0.107476171118E+01 -0.232954681292E+00  0.576263996746E+00  0.117854738977E+02
 -0.178420498941E-01  0.980004036790E-01  0.863616652595E-01 -0.777386109760E+00 -0.757164629502E+00 -0.824058521823E-01 -0.680162269970E-02
  0.509454931909E-01  0.228356021780E+00  0.347723347977E-01  0.268969676324E+00  0.163329683577E+00  0.234145211622E+00 -0.186666644062E-01
 -0.391342971091E-01  0.164783737733E-01 -0.277398447645E-01 -0.172357347858E+00  0.129358287161E+00 -0.277303737113E-01 -0.127345760636E-01
  0.221276912147E-01  0.448373366837E-02 -0.866809895804E-03  0.385498836205E-01  0.836691781439E-01 -0.272811655593E-01  0.348492394842E-02
 -0.158934599321E-01 -0.134827028454E-02 -0.716134345966E-02 -0.222070561761E-02 -0.150505217347E-01
 -0.285920352372E+01 -0.268678860329E+01 -0.112111286583E+01 -0.822146088370E+01 -0.967938644907E+01 -0.271247282767E+01 -0.991290526626E+01
 -0.450833286014E+00 -0.301426113826E+01 -0.105662532586E+01 -0.440127449581E+01 -0.241470115679E+01 -0.710872312930E+01 -0.466620958403E+00
 -0.303455821570E+01 -0.156158996155E+01 -0.490364975365E+01 -0.409764208552E+01 -0.660848743107E+01 -0.569396219857E+00 -0.216352137573E+01
 -0.273217590480E+01 -0.149296277441E+01 -0.536824262854E+01 -0.426435633712E+01 -0.291660215822E+01 -0.187879720445E+01 -0.319088704388E+01
 -0.752065802251E+00 -0.211110728578E+01 -0.211595694388E+01 -0.183765045673E+01 -0.119310986185E+01
  0.707128153081E-02 -0.282382454843E-01 -0.854663148976E+00 -0.321053176233E+01 -0.380447307374E+01 -0.424189765929E-01 -0.396827004577E+01
 -0.273655985231E+01 -0.219598843096E+01 -0.221007452461E+01 -0.248569015337E+01 -0.114169863988E+01 -0.370118659505E+01 -0.181637401787E+01
 -0.184530255529E+01 -0.168489138891E+01 -0.254037903413E+01 -0.152582303786E+01 -0.265095674204E+01 -0.136164884497E+01 -0.102764454956E+01
 -0.954507527009E+00 -0.773074780647E+00 -0.159974294719E+01 -0.125781739953E+01 -0.347067665589E+01 -0.136341195237E+02 -0.354930275043E+01
 -0.184726732140E+01 -0.261443439197E+01 -0.437676163537E+01 -0.646295206821E+01 -0.235767652337E+02
        15         9        16        16
        15        18        11        11
        22        15        21        21
        11         5         9         9
         5         7         2         2
        11         9        15        15
        16        21        15        15
        16        10        14        14
        18        17        11        11
        17        25        24        24
        22        18        15        15
        22        30        31        31
        30        21        23        23
        16        20        23        23
        22        27        26        26
        10         9         4         4
         7        11        13        13
        25        18        26        26
        11         7         5         5
         5         1         4         4
        17        19        13        13
        23        32        30        30
        23        20        29        29
         4         9         5         5
         4         8        10        10
        26        18        22        22
        26        28        25        25
        13        11        17        17
        13         6         7         7
        31        30        32        32
         2         1         5         5
         2         7         6         6
        14        10         8         8
        24        19        17        17
        24        25        28        28
         9        10        16        16
         3         4         1         1
        33        26        27        27
        12        13        19        19
        21        30        22        22
        16        14        20        20
        16        23        21        21
        22        31        27        27
        18        25        17        17
        26        33        28        28
         4         3         8         8
        23        29        32        32
        13        12         6         6
zone t="boundary 4 bc-4", solutiontime= 0.7000000E+02, strandid=1004, i=32, j=46, f=feblock
  0.125000000000E+01  0.219251206392E+01  0.103724302461E+01  0.500000000000E+01  0.250000000000E+01  0.375000000000E+01  0.404200324774E+01
  0.500000000000E+01  0.000000000000E+00  0.310152362409E+01  0.202479342020E+01  0.324151231464E+01  0.922061490191E+00  0.000000000000E+00
  0.299062775774E+01  0.394624082883E+01  0.500000000000E+01  0.409252726285E+01  0.500000000000E+01  0.429310310915E+01  0.175434191980E+01
  0.284428995242E+01  0.000000000000E+00  0.000000000000E+00  0.715990576545E+00  0.930412228790E+00  0.125000000000E+01  0.187029682677E+01
  0.500000000000E+01  0.375000000000E+01  0.250000000000E+01  0.000000000000E+00
  0.250494199996E+01  0.157686156160E+01  0.146289271009E+01  0.250494199996E+01  0.250494199996E+01  0.250494199996E+01  0.155830813274E+01
  0.125000000000E+01  0.250494199996E+01  0.177790177481E+01  0.477386199275E+00  0.742988685424E+00  0.308372018325E+00  0.125000000000E+01
 -0.487811078581E+00 -0.144524380962E+01 -0.125000000000E+01 -0.345533899378E+00  0.000000000000E+00  0.627766083140E+00 -0.739814786992E+00
 -0.158811787973E+01  0.000000000000E+00 -0.125000000000E+01 -0.600232012419E+00 -0.154800130438E+01 -0.249658902117E+01 -0.178862290564E+01
 -0.249658902117E+01 -0.249658902117E+01 -0.249658902117E+01 -0.249658902117E+01
  0.500000000000E+01  0.500000000000E+01  0.500000000000E+01  0.500000000000E+01  0.500000000000E+01  0.500000000000E+01  0.500000000000E+01
  0.500000000000E+01  0.500000000000E+01  0.500000000000E+01  0.500000000000E+01  0.500000000000E+01  0.500000000000E+01  0.500000000000E+01
  0.500000000000E+01  0.500000000000E+01  0.500000000000E+01  0.500000000000E+01  0.500000000000E+01  0.500000000000E+01  0.500000000000E+01
  0.500000000000E+01  0.500000000000E+01  0.500000000000E+01  0.500000000000E+01  0.500000000000E+01  0.500000000000E+01  0.500000000000E+01
  0.500000000000E+01  0.500000000000E+01  0.500000000000E+01  0.500000000000E+01
  0.492962759870E+00  0.493501811671E+00  0.494482154831E+00  0.493192027983E+00  0.491169160321E+00  0.488098785873E+00  0.488213915627E+00
  0.494128983540E+00  0.498012892236E+00  0.490743060293E+00  0.492687813004E+00  0.491182349969E+00  0.497494162823E+00  0.498545864547E+00
  0.492035510719E+00  0.486141829064E+00  0.492132924673E+00  0.489715881183E+00  0.494539390222E+00  0.490046920039E+00  0.494491364915E+00
  0.492624363644E+00  0.499470102958E+00  0.498443302004E+00  0.498085503858E+00  0.496394045645E+00  0.494346755558E+00  0.494728908771E+00
  0.491660272583E+00  0.489529542898E+00  0.494638536197E+00  0.497648492019E+00
  0.100096903929E+01  0.100040310406E+01  0.100072208318E+01  0.100024531101E+01  0.100018113529E+01  0.100002132966E+01  0.999888523338E+00
  0.100031159626E+01  0.100090132497E+01  0.100020963142E+01  0.100030894110E+01  0.999990940255E+00  0.100060759990E+01  0.100084556817E+01
  0.100008167760E+01  0.999676407531E+00  0.100057119101E+01  0.999878618045E+00  0.100042307878E+01  0.999981274937E+00  0.100055778173E+01
  0.999986005540E+00  0.100040727367E+01  0.100050934991E+01  0.100040913615E+01  0.100074102371E+01  0.100077487280E+01  0.100045005174E+01
  0.100026599126E+01  0.999860681535E+00  0.999993717468E+00  0.100085386850E+01
  0.347663097908E+02  0.340268994207E+02  0.402071048932E+02  0.655855883258E+01  0.135871131541E+02  0.186869545260E+02  0.241822798036E+02
  0.550007388619E+01  0.569422234265E+02  0.218529279923E+02  0.340683373272E+02  0.189723087161E+02  0.463017299411E+02  0.607787330990E+02
  0.837275658027E+01  0.101050472774E+02  0.871787315708E+01  0.117518612184E+02  0.691408459668E+01  0.298718925744E+02  0.352694022074E+02
  0.724983389563E+01  0.625106184393E+02  0.457706796391E+02  0.513790725939E+02  0.321971021025E+02  0.248188908440E+02  0.234866406610E+02
  0.985194924104E+01  0.116571976678E+02  0.369491121132E+01  0.382634499370E+02