title="tecplot geometry and solution file"
variables = x y z mach temperature lambda1 lambda2 lambda3 lambda4 lambda5
zone t="boundary 1 bc-1", solutiontime= 0.3000000E+02, strandid=1001, i=32, j=46, f=feblock
 -0.547473807126E-02  0.000000000000E+00 -0.567611394124E-02  0.000000000000E+00  0.000000000000E+00  0.000000000000E+00 -0.525163716493E-02
 -0.425779958105E-02  0.000000000000E+00  0.000000000000E+00  0.000000000000E+00  0.000000000000E+00  0.000000000000E+00  0.000000000000E+00
  0.000000000000E+00  0.000000000000E+00 -0.338397811977E-02  0.000000000000E+00  0.000000000000E+00  0.000000000000E+00  0.000000000000E+00
  0.000000000000E+00  0.000000000000E+00  0.000000000000E+00  0.000000000000E+00  0.000000000000E+00  0.000000000000E+00  0.000000000000E+00
  0.000000000000E+00  0.000000000000E+00  0.000000000000E+00  0.000000000000E+00
  0.250494199996E+01  0.250494199996E+01  0.127822171177E+01  0.146289271009E+01  0.157686156160E+01  0.308372018325E+00  0.261949834539E-01
 -0.122573470438E+01 -0.600232012419E+00  0.250494199996E+01  0.477386199275E+00  0.742988685424E+00 -0.739814786992E+00  0.177790177481E+01
  0.155830813274E+01  0.250494199996E+01 -0.249658902117E+01 -0.154800130438E+01 -0.487811078581E+00  0.250494199996E+01  0.627766083140E+00
 -0.345533899378E+00 -0.178862290564E+01 -0.158811787973E+01  0.125000000000E+01 -0.249658902117E+01 -0.144524380962E+01  0.000000000000E+00
 -0.125000000000E+01 -0.249658902117E+01 -0.249658902117E+01 -0.249658902117E+01
  0.805554723431E-04  0.125000000000E+01  0.823773991683E-04  0.103724302461E+01  0.219251206392E+01  0.922061490191E+00  0.103961330990E-03
  0.342005321779E-04  0.715990576545E+00  0.250000000000E+01  0.202479342020E+01  0.324151231464E+01  0.175434191980E+01  0.310152362409E+01
  0.404200324774E+01  0.375000000000E+01  0.810770666835E-04  0.930412228790E+00  0.299062775774E+01  0.500000000000E+01  0.429310310915E+01
  0.409252726285E+01  0.187029682677E+01  0.284428995242E+01  0.500000000000E+01  0.125000000000E+01  0.394624082883E+01  0.500000000000E+01
  0.500000000000E+01  0.250000000000E+01  0.375000000000E+01  0.500000000000E+01
  0.000000000000E+00  0.447917893104E+00  0.000000000000E+00  0.476275931555E+00  0.468523764258E+00  0.473519703686E+00  0.000000000000E+00
  0.000000000000E+00  0.412988885572E+00  0.477443348003E+00  0.472504673047E+00  0.485153442297E+00  0.492070550375E+00  0.488543839063E+00
  0.491923380125E+00  0.493078169939E+00  0.000000000000E+00  0.471586654448E+00  0.480934095626E+00  0.498012892236E+00  0.493689909582E+00
  0.490409919455E+00  0.456073457024E+00  0.472047037771E+00  0.498545864547E+00  0.449257989219E+00  0.491117573798E+00  0.499470102958E+00
  0.498443302004E+00  0.475665752878E+00  0.492352552841E+00  0.497648492019E+00
  0.104242640687E+01  0.102508330221E+01  0.104242640687E+01  0.103461472126E+01  0.100936211481E+01  0.102707647030E+01  0.104242640687E+01
  0.104242640687E+01  0.104103512175E+01  0.100608607954E+01  0.100935928681E+01  0.100173207642E+01  0.101882157420E+01  0.100399703841E+01
  0.100113916075E+01  0.100201867166E+01  0.104242640687E+01  0.103067303883E+01  0.100321571449E+01  0.100090132497E+01  0.100133271257E+01
  0.100116394826E+01  0.101357751416E+01  0.100469368551E+01  0.100084556817E+01  0.103269876849E+01  0.100165718156E+01  0.100040727367E+01
  0.100050934991E+01  0.100724883558E+01  0.100246497717E+01  0.100085386850E+01
  0.369326255779E+01  0.625130154889E+01  0.451353509511E+01  0.816386440122E+01  0.629376981099E+01  0.483662389656E+01  0.675302278235E+01
  0.334557949582E+01  0.188943247382E+01  0.461795257227E+01  0.816201216048E+01  0.475093468488E+01  0.948777162191E+01  0.356832018218E+01
  0.112261604030E+02  0.931147229996E+01  0.441585548797E+01  0.549838128674E+01  0.475136356299E+01  0.569419756857E+02  0.160850567514E+02
  0.823685593639E+01  0.803594493086E+01  0.493397335464E+01  0.607788105130E+02  0.901037864157E+01  0.625715552850E+01  0.625126601122E+02
  0.457722816578E+02  0.588986162386E+01  0.690982426326E+01  0.382625400747E+02
  0.983396344087E+00  0.258913202539E+01  0.142608093966E+01  0.270849390200E+01  0.237429988168E+01  0.299660483843E+01  0.820764686000E+00
  0.920703108572E+00  0.208716472720E+01  0.191792548538E+01  0.251571768263E+01  0.139588920465E+01  0.275505281469E+01  0.128581878021E+01
  0.222075882951E+01  0.199055763577E+01  0.631067079458E+00  0.261214725814E+01  0.145594158415E+01  0.117851562040E+02  0.324282294920E+01
  0.163175832997E+01  0.250163322073E+01  0.153224063818E+01  0.128121719724E+02  0.239167236070E+01  0.131193349446E+01  0.131877981671E+02
  0.964365383677E+01  0.191163225325E+01  0.172131292666E+01  0.801062502858E+01
  0.163331435795E+00  0.129360171553E+00  0.580500170838E-01  0.404939808728E+00  0.143981950992E+00  0.218329054105E+00  0.393057108826E+00
 -0.193127581193E+00  0.492596432449E+00 -0.864768731692E-03  0.529309706876E+00  0.489892179111E+00  0.592366270702E+00  0.283080954879E+00
  0.368231885832E+00  0.349019328816E-02 -0.287950079223E+00 -0.277566617429E+00  0.519398584855E+00 -0.150446520999E-01  0.312532789314E+00
  0.177955394299E+00  0.410204910599E+00  0.201953635487E+00  0.117026406121E-01 -0.110629984167E+00  0.779951311010E-01  0.196387276224E+00
  0.130266292962E+00 -0.528118978887E-02 -0.325376282385E-01 -0.135203460304E-01
 -0.241469115402E+01 -0.660842676883E+01 -0.315178346452E+01 -0.704867919411E+01 -0.537510582206E+01 -0.992312206093E+01 -0.186695089551E+01
 -0.173875299742E+01 -0.988139938338E+01 -0.536820613205E+01 -0.440626206150E+01 -0.379090186929E+01 -0.314332154227E+01 -0.453595745539E+01
 -0.279628437044E+01 -0.319097944648E+01 -0.115299482933E+01 -0.632172955332E+01 -0.365801470268E+01 -0.119305523667E+01 -0.238491454596E+01
 -0.259741369095E+01 -0.378396016416E+01 -0.366366916037E+01 -0.112675498003E+01 -0.517956702261E+01 -0.257214295009E+01 -0.102875671040E+01
 -0.122405603378E+01 -0.419040411305E+01 -0.277575907479E+01 -0.124246490505E+01
 -0.114166120606E+01 -0.265081297648E+01 -0.170573994016E+01 -0.327188221966E+01 -0.226291267649E+01 -0.240569179892E+01 -0.142296902628E+01
 -0.860277500486E+00 -0.133777184455E+01 -0.159975089687E+01 -0.288118684762E+01 -0.171409797616E+01 -0.333404221507E+01 -0.118351472457E+01
 -0.427891894913E+01 -0.354872352919E+01 -0.103182532399E+01 -0.253495443976E+01 -0.173115130941E+01 -0.235766252862E+02 -0.632211819196E+01
 -0.304567300862E+01 -0.289103324141E+01 -0.177563327475E+01 -0.252224434674E+02 -0.349312552352E+01 -0.221610764585E+01 -0.260214361405E+02
 -0.189507408791E+02 -0.208885300808E+01 -0.256404265158E+01 -0.157375957518E+02
        12        19        11        11
        11         5        12        12
        10        14         5         5
        19        13        11        11
        19        24        13        13
        30        23        24        24
        19        12        22        22
        28        22        21        21
        11        13         6         6
         7         6         9         9
        15        12        14        14
        18        13        23        23
        15        25        21        21
        27        19        22        22
        18         8         9         9
        27        31        24        24
         4        11         6         6
         5        14        12        12
         4         2         5         5
        21        12        15        15
        14        16        15        15
        24        19        27        27
        22        29        27        27
        23        26        18        18
        17         8        18        18
         5        11         4         4
         6         3         4         4
        26        23        30        30
         5         2        10        10
        16        14        10        10
         3         6         7         7
        21        25        28        28
        29        22        28        28
         6        13         9         9
         2         4         1         1
        31        27        32        32
        25        15        20        20
        24        23        13        13
         8         7         9         9
        13        18         9         9
        31        30        24        24
        12        21        22        22
        29        32        27        27
         3         1         4         4
        26        17        18        18
        16        20        15        15
zone t="boundary 2 bc-2", solutiontime= 0.3000000E+02, strandid=1002, i=33, j=48, f=feblock
  0.500195254568E+01  0.375034811445E+01  0.249861145586E+01  0.288036674134E+01  0.124717525353E+01  0.190856697905E+01  0.326577190006E+01
  0.201394855912E+01 -0.338397811977E-02  0.962374243889E+00  0.500000000000E+01  0.403430189815E+01  0.423029563516E+01  0.500000000000E+01
  0.385439188840E+01  0.500000000000E+01  0.398133433219E+01  0.315200081383E+01  0.266958028789E+01  0.154798029748E+01  0.218327860401E+01
  0.893688440126E+00  0.000000000000E+00  0.699009761219E+00  0.964460898511E+00  0.310303671661E+01  0.000000000000E+00  0.000000000000E+00
  0.125000000000E+01  0.500000000000E+01  0.375000000000E+01  0.250000000000E+01  0.000000000000E+00
 -0.249658902117E+01 -0.249658902117E+01 -0.249658902117E+01 -0.249658902117E+01 -0.249658902117E+01 -0.249658902117E+01 -0.249658902117E+01
 -0.249658902117E+01 -0.249658902117E+01 -0.249658902117E+01 -0.249658902117E+01 -0.249658902117E+01 -0.249658902117E+01 -0.249658902117E+01
 -0.249658902117E+01 -0.249658902117E+01 -0.249658902117E+01 -0.249658902117E+01 -0.249658902117E+01 -0.249658902117E+01 -0.249658902117E+01
 -0.249658902117E+01 -0.249658902117E+01 -0.249658902117E+01 -0.249658902117E+01 -0.249658902117E+01 -0.249658902117E+01 -0.249658902117E+01
 -0.249658902117E+01 -0.249658902117E+01 -0.249658902117E+01 -0.249658902117E+01 -0.249658902117E+01
  0.108218470107E-03  0.145871004167E-03  0.100891402352E-03  0.901663364689E+00  0.110859765950E-03  0.714928312394E+00  0.188140647110E+01
  0.175892165293E+01  0.810770666835E-04  0.957504290550E+00  0.125000000000E+01  0.100596696999E+01  0.191313518634E+01  0.250000000000E+01
  0.292898096729E+01  0.375000000000E+01  0.406883369623E+01  0.363389290091E+01  0.284756861229E+01  0.292582308304E+01  0.395754055152E+01
  0.205027257041E+01  0.125000000000E+01  0.306703272778E+01  0.397155766783E+01  0.433068622257E+01  0.250000000000E+01  0.375000000000E+01
  0.500000000000E+01  0.500000000000E+01  0.500000000000E+01  0.500000000000E+01  0.500000000000E+01
  0.000000000000E+00  0.000000000000E+00  0.000000000000E+00  0.384516102379E+00  0.000000000000E+00  0.340285873075E+00  0.586752973058E+00
  0.575426018814E+00  0.000000000000E+00  0.487199378467E+00  0.520641040018E+00  0.445423555755E+00  0.576269221497E+00  0.533962376915E+00
  0.567224534025E+00  0.511735128316E+00  0.508063929882E+00  0.527166122502E+00  0.565842714108E+00  0.531744059128E+00  0.508272212922E+00
  0.522388437205E+00  0.449257989219E+00  0.494521458293E+00  0.495788427676E+00  0.503678485303E+00  0.475665752878E+00  0.492352552841E+00
  0.494346755558E+00  0.491660272583E+00  0.489529542898E+00  0.494638536197E+00  0.497648492019E+00
  0.104242640687E+01  0.104242640687E+01  0.104242640687E+01  0.100355246665E+01  0.104242640687E+01  0.100599607839E+01  0.989008031489E+00
  0.992225316054E+00  0.104242640687E+01  0.997058798899E+00  0.987964542596E+00  0.995589876967E+00  0.989405264241E+00  0.100087323765E+01
  0.997203119671E+00  0.100346283424E+01  0.100053321078E+01  0.999080757420E+00  0.995647250028E+00  0.100095637499E+01  0.999458338897E+00
  0.100692573084E+01  0.103269876849E+01  0.100216635877E+01  0.100130290772E+01  0.999493814466E+00  0.100724883558E+01  0.100246497717E+01
  0.100077487280E+01  0.100026599126E+01  0.999860681535E+00  0.999993717468E+00  0.100085386850E+01
  0.819901809824E+01  0.917961562298E+01  0.741645924860E+01  0.799569612561E+01  0.500419344387E+01  0.782924425017E+01  0.986394893321E+01
  0.855107737404E+01  0.441585548797E+01  0.857472643124E+01  0.118205792742E+02  0.942697594418E+01  0.110579554436E+02  0.944232278361E+01
  0.787793364880E+01  0.630384754457E+01  0.687151567229E+01  0.728973163282E+01  0.837798690103E+01  0.705420745157E+01  0.582189162753E+01
  0.772846302590E+01  0.901037864157E+01  0.529537604012E+01  0.544458523866E+01  0.911316272490E+01  0.588986162386E+01  0.690982426326E+01
  0.248198521194E+02  0.985194950380E+01  0.116572347089E+02  0.369480766091E+01  0.382625400747E+02
 -0.163552038550E+01  0.237466023900E+00  0.536515291328E+00  0.400863134687E+01 -0.427530739209E-01  0.307110174274E+01 -0.133857016869E+01
  0.113682716518E+01  0.631067079458E+00  0.286723045508E+01 -0.271954363478E+01  0.357666952170E+00 -0.259016571590E+01 -0.241711762018E+01
 -0.202681936641E+01 -0.155118059430E+01 -0.157978969727E+01 -0.148852634387E+01 -0.137220765891E+01 -0.126118903338E+00 -0.124653323666E+01
  0.159079333477E+01  0.239167236070E+01  0.504400858975E+00 -0.178738720968E+00 -0.103133773612E+01  0.191163225325E+01  0.172131292666E+01
  0.328797441510E+01  0.652121883448E-01 -0.786234804095E+00 -0.231354536531E+01  0.801062502858E+01
 -0.244180561064E+00 -0.392822076924E+00  0.878925073521E-01  0.381407274518E+00  0.163711394761E+00  0.633760110521E+00 -0.149830179006E+00
 -0.244896526876E+00 -0.287950079223E+00  0.929470889081E-01 -0.769372136368E-01 -0.246091715479E+00  0.569705880761E-01 -0.173118011879E-01
 -0.636217539613E-02  0.245500909725E-01 -0.224572979692E-01  0.106286927251E-01  0.538922764340E-01  0.711849567995E-01  0.631810144138E-03
 -0.153742708954E-01 -0.110629984167E+00 -0.531155119289E-01 -0.503997180256E-01  0.649637475420E-02 -0.528118978887E-02 -0.325376282385E-01
  0.712315590130E-04  0.329982337229E-02  0.170630673308E-02 -0.749241151040E-02 -0.135203460304E-01
 -0.125455109753E+01 -0.221483354363E+01 -0.165865574901E+01 -0.836038333394E+01 -0.163493620395E+01 -0.891364259897E+01 -0.214823017965E+01
 -0.381434680186E+01 -0.115299482933E+01 -0.525871264923E+01 -0.693639496854E+00 -0.350631967984E+01 -0.910790982948E+00 -0.376218047363E+00
 -0.140826530711E+01 -0.463412621069E+00 -0.139898696320E+01 -0.206281522685E+01 -0.251776380272E+01 -0.328617826040E+01 -0.239831971102E+01
 -0.377764120904E+01 -0.517956702261E+01 -0.329292135240E+01 -0.251710163295E+01 -0.205535651016E+01 -0.419040411305E+01 -0.277575907479E+01
 -0.173183386590E+01 -0.804544291003E+00 -0.179787050878E+01 -0.202725304985E+01 -0.124246490505E+01
 -0.859101426621E+00  0.239394953940E-03  0.637842449544E-03 -0.343523456594E+01 -0.206365731819E-01 -0.364666597760E+01 -0.218287391123E+01
 -0.242730848959E+01 -0.103182532399E+01 -0.356912174372E+01 -0.256851818697E+01 -0.262590240417E+01 -0.234093310767E+01 -0.183005935177E+01
 -0.154054238724E+01 -0.124515946068E+01 -0.146083972524E+01 -0.162604534961E+01 -0.200063182059E+01 -0.198086928185E+01 -0.122943538719E+01
 -0.256794739491E+01 -0.349312552352E+01 -0.161824884500E+01 -0.149523134455E+01 -0.247291909092E+01 -0.208885300808E+01 -0.256404265158E+01
 -0.951410976051E+01 -0.323684874892E+01 -0.354659267228E+01 -0.225118348054E+00 -0.157375957518E+02
        15         7        19        19
         8        20        19        19
        18        19        21        21
         7         4         8         8
         3         6         4         4
        19         7         8         8
        19        18        15        15
        14        13        15        15
         8        22        20        20
        27        24        22        22
        19        20        21        21
        32        26        21        21
        17        18        26        26
        17        16        15        15
        25        29        21        21
        12         7        13        13
        10         8         6         6
        25        20        24        24
         4         6         8         8
        12         2         4         4
        10        23        22        22
        26        31        17        17
        30        16        17        17
         4         7        12        12
        13        11        12        12
        21        20        25        25
        24        28        25        25
        22         8        10        10
         6         5        10        10
        31        26        32        32
         4         2         3         3
         5         6         3         3
        11        13        14        14
        22        23        27        27
        28        24        27        27
        15        13         7         7
         2        12         1         1
        29        25        33        33
        23        10         9         9
        21        26        18        18
        16        14        15        15
        18        17        15        15
        29        32        21        21
        22        24        20        20
        28        33        25        25
        11         1        12        12
        31        30        17        17
         5         9        10        10
zone t="boundary 3 bc-3", solutiontime= 0.3000000E+02, strandid=1003, i=33, j=48, f=feblock
  0.375059098656E+01  0.249769607632E+01  0.500322138024E+01  0.403612219886E+01  0.287976772042E+01  0.124541906320E+01  0.190552234483E+01
  0.500000000000E+01  0.326671105081E+01  0.423253757180E+01  0.201271135153E+01 -0.547473807126E-02  0.958895614425E+00  0.500000000000E+01
  0.266968147276E+01  0.385584488388E+01  0.890374186974E+00  0.154654012335E+01  0.000000000000E+00  0.500000000000E+01  0.315261137201E+01
  0.218304199244E+01  0.398195308498E+01  0.000000000000E+00  0.697379936714E+00  0.963757270369E+00  0.125000000000E+01  0.000000000000E+00
  0.500000000000E+01  0.310330738803E+01  0.250000000000E+01  0.375000000000E+01  0.000000000000E+00
  0.250494199996E+01  0.250494199996E+01  0.250494199996E+01  0.250494199996E+01  0.250494199996E+01  0.250494199996E+01  0.250494199996E+01
  0.250494199996E+01  0.250494199996E+01  0.250494199996E+01  0.250494199996E+01  0.250494199996E+01  0.250494199996E+01  0.250494199996E+01
  0.250494199996E+01  0.250494199996E+01  0.250494199996E+01  0.250494199996E+01  0.250494199996E+01  0.250494199996E+01  0.250494199996E+01
  0.250494199996E+01  0.250494199996E+01  0.250494199996E+01  0.250494199996E+01  0.250494199996E+01  0.250494199996E+01  0.250494199996E+01
  0.250494199996E+01  0.250494199996E+01  0.250494199996E+01  0.250494199996E+01  0.250494199996E+01
  0.135804613136E-03  0.110291600138E-03  0.968352231350E-04  0.101756767184E+01  0.908094754977E+00  0.104111048370E-03  0.722629266591E+00
  0.125000000000E+01  0.188965673340E+01  0.191862703991E+01  0.176708252857E+01  0.805554723431E-04  0.969652727894E+00  0.250000000000E+01
  0.285339441809E+01  0.293325064380E+01  0.205656233202E+01  0.293157024791E+01  0.125000000000E+01  0.375000000000E+01  0.363766843533E+01
  0.396069448925E+01  0.407056387650E+01  0.250000000000E+01  0.307031999890E+01  0.397359822904E+01  0.500000000000E+01  0.375000000000E+01
  0.500000000000E+01  0.433260783674E+01  0.500000000000E+01  0.500000000000E+01  0.500000000000E+01
  0.000000000000E+00  0.000000000000E+00  0.000000000000E+00  0.453747912967E+00  0.402545502452E+00  0.000000000000E+00  0.369629009543E+00
  0.520525438577E+00  0.575220780219E+00  0.575502697133E+00  0.558260174274E+00  0.000000000000E+00  0.478252962452E+00  0.530976530200E+00
  0.555830976399E+00  0.562793219653E+00  0.524675235834E+00  0.523282018188E+00  0.447917893104E+00  0.513796076167E+00  0.524673097208E+00
  0.506323914759E+00  0.509686671337E+00  0.477443348003E+00  0.499194823540E+00  0.497912967444E+00  0.492962759870E+00  0.493078169939E+00
  0.493192027983E+00  0.501531684732E+00  0.491169160321E+00  0.488098785874E+00  0.498012892236E+00
  0.104242640687E+01  0.104242640687E+01  0.104242640687E+01  0.992555420605E+00  0.100338777628E+01  0.104242640687E+01  0.100275102529E+01
  0.987610948161E+00  0.990360755947E+00  0.989796153239E+00  0.994453865708E+00  0.104242640687E+01  0.999323382885E+00  0.100158433896E+01
  0.997121320216E+00  0.998147046673E+00  0.100443205293E+01  0.100036233051E+01  0.102508330221E+01  0.100269535219E+01  0.100014129837E+01
  0.999693737614E+00  0.100036856474E+01  0.100608607954E+01  0.100156234007E+01  0.100069385186E+01  0.100096903929E+01  0.100201867166E+01
  0.100024531101E+01  0.999658107118E+00  0.100018113529E+01  0.100002132966E+01  0.100090132497E+01
  0.121078265940E+02  0.753178603613E+01  0.915893723281E+01  0.952347217152E+01  0.911598630859E+01  0.615259367483E+01  0.840852487116E+01
  0.125140960274E+02  0.108568433812E+02  0.112141976998E+02  0.990710032228E+01  0.369326255779E+01  0.920061796650E+01  0.939134148491E+01
  0.830139297774E+01  0.844420689405E+01  0.801554029887E+01  0.638515297031E+01  0.625130154889E+01  0.683142875353E+01  0.605312215126E+01
  0.541433905059E+01  0.529283239825E+01  0.461795257227E+01  0.450088832924E+01  0.103096926356E+02  0.347670115859E+02  0.931147229996E+01
  0.655855577411E+01  0.957154488109E+01  0.135870781718E+02  0.186870463936E+02  0.569419756857E+02
  0.206868385632E+00  0.582469945938E+00 -0.197299868679E+01  0.162898724465E+01  0.421571870466E+01  0.223352681384E+00  0.427137379879E+01
 -0.285906475841E+01 -0.230602666562E+01 -0.300632504117E+01  0.750541649017E-01  0.983396344087E+00  0.347393333651E+01 -0.242730757659E+01
 -0.173129582936E+01 -0.213624210838E+01  0.167424401892E+01 -0.735603657024E+00  0.258913202539E+01 -0.166014652118E+01 -0.191087516871E+01
 -0.161424888271E+01 -0.198325087855E+01  0.191792548538E+01  0.151939248983E+00  0.642519029683E+00  0.532037738304E+01  0.199055763577E+01
 -0.624539411542E+00 -0.107476130910E+01 -0.233058558393E+00  0.576284043270E+00  0.117851562040E+02
 -0.178396918461E-01  0.980014773469E-01  0.863597450194E-01 -0.777378208469E+00 -0.757146778097E+00 -0.824038266865E-01 -0.679753474254E-02
  0.509465845872E-01  0.228354585777E+00  0.347734632492E-01  0.268967308837E+00  0.163331435795E+00  0.234151330795E+00 -0.186668282740E-01
 -0.391353978422E-01  0.164787430988E-01 -0.277345949369E-01 -0.172363216551E+00  0.129360171553E+00 -0.277301818908E-01 -0.127344889091E-01
  0.221260910992E-01  0.448359429600E-02 -0.864768731692E-03  0.385507163937E-01  0.836647408236E-01 -0.272883417633E-01  0.349019328816E-02
 -0.158934821919E-01 -0.135015915838E-02 -0.716070149409E-02 -0.222199680069E-02 -0.150446520999E-01
 -0.285921091298E+01 -0.268677800180E+01 -0.112111466240E+01 -0.822147874690E+01 -0.967932151304E+01 -0.271246918350E+01 -0.991286077755E+01
 -0.450826109263E+00 -0.301425406474E+01 -0.105662551492E+01 -0.440123363421E+01 -0.241469115402E+01 -0.710871359364E+01 -0.466620527098E+00
 -0.303455761389E+01 -0.156159258418E+01 -0.490367754596E+01 -0.409761390999E+01 -0.660842676883E+01 -0.569395741730E+00 -0.216352658770E+01
 -0.273217217352E+01 -0.149296498257E+01 -0.536820613205E+01 -0.426433452632E+01 -0.291657398747E+01 -0.187880549790E+01 -0.319097944648E+01
 -0.752066871552E+00 -0.211109159995E+01 -0.211595435016E+01 -0.183765417383E+01 -0.119305523667E+01
  0.705579290702E-02 -0.282225295183E-01 -0.854659654530E+00 -0.321059075679E+01 -0.380409051966E+01 -0.424241317910E-01 -0.396805651344E+01
 -0.273654738918E+01 -0.219604334244E+01 -0.221004778090E+01 -0.248565599445E+01 -0.114166120606E+01 -0.370080159639E+01 -0.181637883596E+01
 -0.184530263233E+01 -0.168488035507E+01 -0.254035243791E+01 -0.152596027905E+01 -0.265081297648E+01 -0.136164571824E+01 -0.102765472168E+01
 -0.954520405350E+00 -0.773085383826E+00 -0.159975089687E+01 -0.125782065428E+01 -0.347051021953E+01 -0.136344391168E+02 -0.354872352919E+01
 -0.184726437902E+01 -0.261439440656E+01 -0.437672842071E+01 -0.646298904725E+01 -0.235766252862E+02
        15         9        16        16
        15        18        11        11
        22        15        21        21
        11         5         9         9
         5         7         2         2
        11         9        15        15
        16        21        15        15
        16        10        14        14
        18        17        11        11
        17        25        24        24
        22        18        15        15
        22        30        31        31
        30        21        23        23
        16        20        23        23
        22        27        26        26
        10         9         4         4
         7        11        13        13
        25        18        26        26
        11         7         5         5
         5         1         4         4
        17        19        13        13
        23        32        30        30
        23        20        29        29
         4         9         5         5
         4         8        10        10
        26        18        22        22
        26        28        25        25
        13        11        17        17
        13         6         7         7
        31        30        32        32
         2         1         5         5
         2         7         6         6
        14        10         8         8
        24        19        17        17
        24        25        28        28
         9        10        16        16
         3         4         1         1
        33        26        27        27
        12        13        19        19
        21        30        22        22
        16        14        20        20
        16        23        21        21
        22        31        27        27
        18        25        17        17
        26        33        28        28
         4         3         8         8
        23        29        32        32
        13        12         6         6
zone t="boundary 4 bc-4", solutiontime= 0.3000000E+02, strandid=1004, i=32, j=46, f=feblock
  0.125000000000E+01  0.219251206392E+01  0.103724302461E+01  0.500000000000E+01  0.250000000000E+01  0.375000000000E+01  0.404200324774E+01
  0.500000000000E+01  0.000000000000E+00  0.310152362409E+01  0.202479342020E+01  0.324151231464E+01  0.922061490191E+00  0.000000000000E+00
  0.299062775774E+01  0.394624082883E+01  0.500000000000E+01  0.409252726285E+01  0.500000000000E+01  0.429310310915E+01  0.175434191980E+01
  0.284428995242E+01  0.000000000000E+00  0.000000000000E+00  0.715990576545E+00  0.930412228790E+00  0.125000000000E+01  0.187029682677E+01
  0.500000000000E+01  0.375000000000E+01  0.250000000000E+01  0.000000000000E+00
  0.250494199996E+01  0.157686156160E+01  0.146289271009E+01  0.250494199996E+01  0.250494199996E+01  0.250494199996E+01  0.155830813274E+01
  0.125000000000E+01  0.250494199996E+01  0.177790177481E+01  0.477386199275E+00  0.742988685424E+00  0.308372018325E+00  0.125000000000E+01
 -0.487811078581E+00 -0.144524380962E+01 -0.125000000000E+01 -0.345533899378E+00  0.000000000000E+00  0.627766083140E+00 -0.739814786992E+00
 -0.158811787973E+01  0.000000000000E+00 -0.125000000000E+01 -0.600232012419E+00 -0.154800130438E+01 -0.249658902117E+01 -0.178862290564E+01
 -0.249658902117E+01 -0.249658902117E+01 -0.249658902117E+01 -0.249658902117E+01
  0.500000000000E+01  0.500000000000E+01  0.500000000000E+01  0.500000000000E+01  0.500000000000E+01  0.500000000000E+01  0.500000000000E+01
  0.500000000000E+01  0.500000000000E+01  0.500000000000E+01  0.500000000000E+01  0.500000000000E+01  0.500000000000E+01  0.500000000000E+01
  0.500000000000E+01  0.500000000000E+01  0.500000000000E+01  0.500000000000E+01  0.500000000000E+01  0.500000000000E+01  0.500000000000E+01
  0.500000000000E+01  0.500000000000E+01  0.500000000000E+01  0.500000000000E+01  0.500000000000E+01  0.500000000000E+01  0.500000000000E+01
  0.500000000000E+01  0.500000000000E+01  0.500000000000E+01  0.500000000000E+01
  0.492962759870E+00  0.493501811671E+00  0.494482154831E+00  0.493192027983E+00  0.491169160321E+00  0.488098785874E+00  0.488213915627E+00
  0.494128983540E+00  0.498012892236E+00  0.490743060293E+00  0.492687813004E+00  0.491182349969E+00  0.497494162823E+00  0.498545864547E+00
  0.492035510719E+00  0.486141829064E+00  0.492132924673E+00  0.489715881183E+00  0.494539390222E+00  0.490046920039E+00  0.494491364915E+00
  0.492624363644E+00  0.499470102958E+00  0.498443302004E+00  0.498085503858E+00  0.496394045645E+00  0.494346755558E+00  0.494728908771E+00
  0.491660272583E+00  0.489529542898E+00  0.494638536197E+00  0.497648492019E+00
  0.100096903929E+01  0.100040310406E+01  0.100072208318E+01  0.100024531101E+01  0.100018113529E+01  0.100002132966E+01  0.999888523338E+00
  0.100031159626E+01  0.100090132497E+01  0.100020963142E+01  0.100030894110E+01  0.999990940255E+00  0.100060759990E+01  0.100084556817E+01
  0.100008167760E+01  0.999676407531E+00  0.100057119101E+01  0.999878618045E+00  0.100042307878E+01  0.999981274937E+00  0.100055778173E+01
  0.999986005540E+00  0.100040727367E+01  0.100050934991E+01  0.100040913615E+01  0.100074102371E+01  0.100077487280E+01  0.100045005174E+01
  0.100026599126E+01  0.999860681535E+00  0.999993717468E+00  0.100085386850E+01
  0.347670115859E+02  0.340266862303E+02  0.402074700645E+02  0.655855577411E+01  0.135870781718E+02  0.186870463936E+02  0.241822735139E+02
  0.550007137597E+01  0.569419756857E+02  0.218532317596E+02  0.340685633473E+02  0.189722841420E+02  0.463029972593E+02  0.607788105130E+02
  0.837272136330E+01  0.101050858355E+02  0.871786259543E+01  0.117519210068E+02  0.691407279239E+01  0.298719698249E+02  0.352687386732E+02
  0.725000296042E+01  0.625126601122E+02  0.457722816578E+02  0.513808798489E+02  0.321968225387E+02  0.248198521194E+02  0.234868517404E+02
  0.985194950380E+01  0.116572347089E+02  0.369480766091E+01  0.382625400747E+02