title="tecplot geometry and solution file"
variables = x y z rho u v w p mach temperature
zone t="boundary 1 bc-1", solutiontime= 0.1000000E+03, strandid=1001, i=32, j=46, f=feblock
 -0.547468544169E-02  0.000000000000E+00 -0.567606031243E-02  0.000000000000E+00  0.000000000000E+00  0.000000000000E+00 -0.525159244851E-02
 -0.425776897977E-02  0.000000000000E+00  0.000000000000E+00  0.000000000000E+00  0.000000000000E+00  0.000000000000E+00  0.000000000000E+00
  0.000000000000E+00  0.000000000000E+00 -0.338395986572E-02  0.000000000000E+00  0.000000000000E+00  0.000000000000E+00  0.000000000000E+00
  0.000000000000E+00  0.000000000000E+00  0.000000000000E+00  0.000000000000E+00  0.000000000000E+00  0.000000000000E+00  0.000000000000E+00
  0.000000000000E+00  0.000000000000E+00  0.000000000000E+00  0.000000000000E+00
  0.250494197117E+01  0.250494197117E+01  0.127822156907E+01  0.146289271009E+01  0.157686156160E+01  0.308372018325E+00  0.261948602442E-01
 -0.122573481164E+01 -0.600232012419E+00  0.250494197117E+01  0.477386199275E+00  0.742988685424E+00 -0.739814786992E+00  0.177790177481E+01
  0.155830813274E+01  0.250494197117E+01 -0.249658903664E+01 -0.154800130438E+01 -0.487811078581E+00  0.250494197117E+01  0.627766083140E+00
 -0.345533899378E+00 -0.178862290564E+01 -0.158811787973E+01  0.125000000000E+01 -0.249658903664E+01 -0.144524380962E+01  0.000000000000E+00
 -0.125000000000E+01 -0.249658903664E+01 -0.249658903664E+01 -0.249658903664E+01
  0.803813859866E-04  0.125000000000E+01  0.822460170216E-04  0.103724302461E+01  0.219251206392E+01  0.922061490191E+00  0.103872438719E-03
  0.341545874234E-04  0.715990576545E+00  0.250000000000E+01  0.202479342020E+01  0.324151231464E+01  0.175434191980E+01  0.310152362409E+01
  0.404200324774E+01  0.375000000000E+01  0.810725962649E-04  0.930412228790E+00  0.299062775774E+01  0.500000000000E+01  0.429310310915E+01
  0.409252726285E+01  0.187029682677E+01  0.284428995242E+01  0.500000000000E+01  0.125000000000E+01  0.394624082883E+01  0.500000000000E+01
  0.500000000000E+01  0.250000000000E+01  0.375000000000E+01  0.500000000000E+01
  0.134612569480E+01  0.106375187532E+01  0.142660805888E+01  0.108602600453E+01  0.103229532420E+01  0.120170301292E+01  0.164675492839E+01
  0.149542184075E+01  0.123514381121E+01  0.102386744307E+01  0.102822215103E+01  0.101305360864E+01  0.103253623293E+01  0.101467112533E+01
  0.100662677410E+01  0.100826784388E+01  0.144848020889E+01  0.116397947430E+01  0.101464148357E+01  0.100424981385E+01  0.100679674695E+01
  0.100725266464E+01  0.104656772893E+01  0.101934264443E+01  0.100423996849E+01  0.106449058149E+01  0.100790839897E+01  0.100288628363E+01
  0.100335078889E+01  0.102844578097E+01  0.100960760315E+01  0.100399891207E+01
  0.000000000000E+00  0.444892689959E+00  0.000000000000E+00  0.468179961077E+00  0.462188448132E+00  0.443238535526E+00  0.000000000000E+00
  0.000000000000E+00  0.379430231251E+00  0.471809759842E+00  0.466360229888E+00  0.479394631936E+00  0.490369742117E+00  0.484572917922E+00
  0.488598086623E+00  0.489901612831E+00  0.000000000000E+00  0.451028641222E+00  0.474777426841E+00  0.495801437686E+00  0.490926753315E+00
  0.486825375807E+00  0.448792917462E+00  0.465788465321E+00  0.496535909363E+00  0.444902202641E+00  0.487664897524E+00  0.497536162058E+00
  0.496380750945E+00  0.470009966405E+00  0.489175620175E+00  0.495514477462E+00
  0.000000000000E+00  0.000000000000E+00  0.000000000000E+00  0.182125912610E-01 -0.276656587040E-02  0.330059427058E-01  0.000000000000E+00
  0.000000000000E+00 -0.635746232235E-02  0.000000000000E+00  0.362928748820E-02 -0.561367177272E-02 -0.432718603796E-02  0.439452982908E-04
 -0.103560149645E-02  0.000000000000E+00  0.000000000000E+00 -0.778994422435E-02  0.391035875642E-03  0.000000000000E+00 -0.202845694701E-02
 -0.137709822224E-02  0.151779374308E-02 -0.162047438108E-02 -0.665069215894E-04  0.000000000000E+00 -0.290241697122E-04 -0.202461878241E-03
  0.805204190268E-03  0.000000000000E+00  0.000000000000E+00  0.000000000000E+00
  0.000000000000E+00  0.453333607013E-01  0.000000000000E+00  0.123662653639E+00  0.245708284627E-01  0.166131305147E+00  0.000000000000E+00
  0.000000000000E+00  0.155939404048E+00  0.352838723305E-02  0.259087842384E-01 -0.647782683825E-02  0.752860432844E-01  0.371619364447E-02
 -0.127428529877E-03  0.472064722228E-03  0.000000000000E+00  0.141090397983E+00 -0.806989847130E-02  0.236429940258E-02 -0.280461279194E-03
 -0.438313624745E-02  0.256755069508E-01 -0.189559871395E-02  0.307398981211E-02  0.838626035465E-01 -0.122886773533E-02  0.268517514771E-02
  0.264470307877E-02  0.283248096433E-02 -0.846929658118E-03  0.345740437478E-02
  0.961509027046E+00  0.782488054105E+00  0.101899634339E+01  0.808635076192E+00  0.746111083644E+00  0.879959053496E+00  0.117624342867E+01
  0.106815009513E+01  0.916497223912E+00  0.737373210319E+00  0.743650919172E+00  0.725792457160E+00  0.757480338522E+00  0.729143499137E+00
  0.720777359313E+00  0.722746682982E+00  0.103462119287E+01  0.858102229768E+00  0.728073577166E+00  0.718602615120E+00  0.721012647099E+00
  0.721155106676E+00  0.759936509742E+00  0.732620569005E+00  0.718522001868E+00  0.790954588481E+00  0.722119412227E+00  0.717197802052E+00
  0.717642723478E+00  0.741777245478E+00  0.724073512137E+00  0.718407356335E+00
  0.000000000000E+00  0.440672136512E+00  0.000000000000E+00  0.474618025820E+00  0.460125068601E+00  0.468639320143E+00  0.000000000000E+00
  0.000000000000E+00  0.402534623939E+00  0.469886789982E+00  0.464193107367E+00  0.478749739491E+00  0.489555756507E+00  0.483130037990E+00
  0.488002902366E+00  0.489035017215E+00  0.000000000000E+00  0.465237698331E+00  0.473759127176E+00  0.495364848064E+00  0.490293257191E+00
  0.486276632093E+00  0.445850265191E+00  0.464356446519E+00  0.496127940578E+00  0.443891909404E+00  0.486928147025E+00  0.497248366859E+00
  0.496055083747E+00  0.467740399690E+00  0.488187228171E+00  0.495089980244E+00
  0.999990300362E+00  0.102982970104E+01  0.999990762612E+00  0.104241436388E+01  0.101187663318E+01  0.102516400612E+01  0.999991420552E+00
  0.999992171067E+00  0.103882325429E+01  0.100825795511E+01  0.101253536096E+01  0.100301645575E+01  0.102705594255E+01  0.100604114309E+01
  0.100244532432E+01  0.100354817652E+01  0.999992724186E+00  0.103209991946E+01  0.100459425771E+01  0.100178625606E+01  0.100260326526E+01
  0.100234745937E+01  0.101657167924E+01  0.100620610961E+01  0.100168369530E+01  0.104025009063E+01  0.100303477791E+01  0.100118721261E+01
  0.100134451878E+01  0.100976460100E+01  0.100405634212E+01  0.100176433139E+01
        12        19        11        11
        11         5        12        12
        10        14         5         5
        19        13        11        11
        19        24        13        13
        30        23        24        24
        19        12        22        22
        28        22        21        21
        11        13         6         6
         7         6         9         9
        15        12        14        14
        18        13        23        23
        15        25        21        21
        27        19        22        22
        18         8         9         9
        27        31        24        24
         4        11         6         6
         5        14        12        12
         4         2         5         5
        21        12        15        15
        14        16        15        15
        24        19        27        27
        22        29        27        27
        23        26        18        18
        17         8        18        18
         5        11         4         4
         6         3         4         4
        26        23        30        30
         5         2        10        10
        16        14        10        10
         3         6         7         7
        21        25        28        28
        29        22        28        28
         6        13         9         9
         2         4         1         1
        31        27        32        32
        25        15        20        20
        24        23        13        13
         8         7         9         9
        13        18         9         9
        31        30        24        24
        12        21        22        22
        29        32        27        27
         3         1         4         4
        26        17        18        18
        16        20        15        15
zone t="boundary 2 bc-2", solutiontime= 0.1000000E+03, strandid=1002, i=33, j=48, f=feblock
  0.500195253374E+01  0.375034811161E+01  0.249861146299E+01  0.288036674177E+01  0.124717526933E+01  0.190856698521E+01  0.326577190273E+01
  0.201394856120E+01 -0.338395986572E-02  0.962374249381E+00  0.500000000000E+01  0.403430190008E+01  0.423029563807E+01  0.500000000000E+01
  0.385439188940E+01  0.500000000000E+01  0.398133433176E+01  0.315200081417E+01  0.266958028869E+01  0.154798029824E+01  0.218327860466E+01
  0.893688440338E+00  0.000000000000E+00  0.699009761768E+00  0.964460899052E+00  0.310303671659E+01  0.000000000000E+00  0.000000000000E+00
  0.125000000000E+01  0.500000000000E+01  0.375000000000E+01  0.250000000000E+01  0.000000000000E+00
 -0.249658903664E+01 -0.249658903664E+01 -0.249658903664E+01 -0.249658903664E+01 -0.249658903664E+01 -0.249658903664E+01 -0.249658903664E+01
 -0.249658903664E+01 -0.249658903664E+01 -0.249658903664E+01 -0.249658903664E+01 -0.249658903664E+01 -0.249658903664E+01 -0.249658903664E+01
 -0.249658903664E+01 -0.249658903664E+01 -0.249658903664E+01 -0.249658903664E+01 -0.249658903664E+01 -0.249658903664E+01 -0.249658903664E+01
 -0.249658903664E+01 -0.249658903664E+01 -0.249658903664E+01 -0.249658903664E+01 -0.249658903664E+01 -0.249658903664E+01 -0.249658903664E+01
 -0.249658903664E+01 -0.249658903664E+01 -0.249658903664E+01 -0.249658903664E+01 -0.249658903664E+01
  0.108225889031E-03  0.145875369682E-03  0.100893326425E-03  0.901663374396E+00  0.110858761917E-03  0.714928318829E+00  0.188140648011E+01
  0.175892165504E+01  0.810725962649E-04  0.957504300331E+00  0.125000000000E+01  0.100596698996E+01  0.191313519089E+01  0.250000000000E+01
  0.292898096716E+01  0.375000000000E+01  0.406883369524E+01  0.363389289944E+01  0.284756860985E+01  0.292582308120E+01  0.395754054931E+01
  0.205027256979E+01  0.125000000000E+01  0.306703272692E+01  0.397155766662E+01  0.433068622168E+01  0.250000000000E+01  0.375000000000E+01
  0.500000000000E+01  0.500000000000E+01  0.500000000000E+01  0.500000000000E+01  0.500000000000E+01
  0.831048170337E+00  0.935360819767E+00  0.934403638396E+00  0.968071342730E+00  0.961589887647E+00  0.964865491470E+00  0.984198579771E+00
  0.991414919081E+00  0.144848020889E+01  0.102900225777E+01  0.956084999071E+00  0.960783058082E+00  0.981507057935E+00  0.100649931175E+01
  0.997931723532E+00  0.100981497283E+01  0.100200281848E+01  0.998068369944E+00  0.991091647922E+00  0.100132695401E+01  0.100094043643E+01
  0.101223727323E+01  0.106449058149E+01  0.101080086839E+01  0.100685970696E+01  0.100119195673E+01  0.102844578097E+01  0.100960760315E+01
  0.100511670025E+01  0.100179321949E+01  0.100266918370E+01  0.100322418326E+01  0.100399891207E+01
  0.000000000000E+00  0.000000000000E+00  0.000000000000E+00  0.378543268556E+00  0.000000000000E+00  0.340245249060E+00  0.582137361861E+00
  0.575309128334E+00  0.000000000000E+00  0.489361311201E+00  0.495121360788E+00  0.430490428709E+00  0.569150370022E+00  0.536358893242E+00
  0.569063632047E+00  0.516261162890E+00  0.508568147424E+00  0.527503991842E+00  0.566854724707E+00  0.532031618510E+00  0.506131982805E+00
  0.520940440468E+00  0.444902202641E+00  0.491382650172E+00  0.492728075390E+00  0.501504779516E+00  0.470009966405E+00  0.489175620175E+00
  0.490415188741E+00  0.491399178628E+00  0.486162650332E+00  0.490249147903E+00  0.495514477462E+00
  0.000000000000E+00  0.000000000000E+00  0.000000000000E+00  0.000000000000E+00  0.000000000000E+00  0.000000000000E+00  0.000000000000E+00
  0.000000000000E+00  0.000000000000E+00  0.000000000000E+00  0.000000000000E+00  0.000000000000E+00  0.000000000000E+00  0.000000000000E+00
  0.000000000000E+00  0.000000000000E+00  0.000000000000E+00  0.000000000000E+00  0.000000000000E+00  0.000000000000E+00  0.000000000000E+00
  0.000000000000E+00  0.000000000000E+00  0.000000000000E+00  0.000000000000E+00  0.000000000000E+00  0.000000000000E+00  0.000000000000E+00
  0.000000000000E+00  0.000000000000E+00  0.000000000000E+00  0.000000000000E+00  0.000000000000E+00
  0.000000000000E+00  0.000000000000E+00  0.000000000000E+00 -0.231452698495E-02  0.000000000000E+00  0.182378816681E-01  0.121295110850E-01
  0.454078962390E-01  0.000000000000E+00  0.867522182650E-01 -0.992710431785E-01 -0.210113113765E-01 -0.304767771837E-01 -0.412776973406E-01
 -0.131932289421E-02  0.269530930756E-02  0.638233084380E-03  0.540549592995E-03  0.151257448797E-01  0.284080245487E-01  0.565445950163E-02
  0.554043236860E-01  0.838626035465E-01  0.110586910887E-01  0.679302101664E-02 -0.738217889969E-03  0.283248096433E-02 -0.846929658118E-03
  0.399852929852E-02  0.605671840934E-02 -0.135543237761E-03  0.119987651947E-02  0.345740437478E-02
  0.593601970681E+00  0.668110656087E+00  0.667426861509E+00  0.684285843602E+00  0.686845207307E+00  0.679268125489E+00  0.695856156518E+00
  0.702297521491E+00  0.103462119287E+01  0.723403572079E+00  0.672769684746E+00  0.675854409666E+00  0.694112310777E+00  0.721030044555E+00
  0.712706963702E+00  0.724811060685E+00  0.716594660086E+00  0.713312219521E+00  0.706427655026E+00  0.717743594900E+00  0.715381892047E+00
  0.730912728873E+00  0.790954588481E+00  0.724368491588E+00  0.721019088048E+00  0.715471828814E+00  0.741777245478E+00  0.724073512137E+00
  0.719323440903E+00  0.715894510095E+00  0.716614449551E+00  0.717377605538E+00  0.718407356335E+00
  0.000000000000E+00  0.000000000000E+00  0.000000000000E+00  0.380534933893E+00  0.000000000000E+00  0.343213081171E+00  0.585244496925E+00
  0.579499344205E+00  0.000000000000E+00  0.500959578913E+00  0.508769460148E+00  0.434312419771E+00  0.572817919451E+00  0.537160208080E+00
  0.569105645782E+00  0.515014970171E+00  0.508256765061E+00  0.527354036988E+00  0.567656182489E+00  0.531857069084E+00  0.506013391179E+00
  0.521044573739E+00  0.443891909404E+00  0.490703078146E+00  0.492147926412E+00  0.501388000320E+00  0.467740399690E+00  0.488187228171E+00
  0.489959820989E+00  0.491323935798E+00  0.486019442841E+00  0.489980976742E+00  0.495089980244E+00
  0.999993488485E+00  0.999993690942E+00  0.999993544242E+00  0.989596674085E+00  0.999993139053E+00  0.985604091028E+00  0.989839488847E+00
  0.991730617690E+00  0.999992724186E+00  0.984220387528E+00  0.985139981863E+00  0.984817712566E+00  0.990066477090E+00  0.100292374828E+01
  0.999857731400E+00  0.100487268684E+01  0.100122724769E+01  0.100056983810E+01  0.997888256964E+00  0.100350942201E+01  0.100059365414E+01
  0.101090707434E+01  0.104025009063E+01  0.100327959733E+01  0.100254952730E+01  0.100046804572E+01  0.100976460100E+01  0.100405634212E+01
  0.100192626091E+01  0.100045827286E+01  0.100058947226E+01  0.100110091494E+01  0.100176433139E+01
        15         7        19        19
         8        20        19        19
        18        19        21        21
         7         4         8         8
         3         6         4         4
        19         7         8         8
        19        18        15        15
        14        13        15        15
         8        22        20        20
        27        24        22        22
        19        20        21        21
        32        26        21        21
        17        18        26        26
        17        16        15        15
        25        29        21        21
        12         7        13        13
        10         8         6         6
        25        20        24        24
         4         6         8         8
        12         2         4         4
        10        23        22        22
        26        31        17        17
        30        16        17        17
         4         7        12        12
        13        11        12        12
        21        20        25        25
        24        28        25        25
        22         8        10        10
         6         5        10        10
        31        26        32        32
         4         2         3         3
         5         6         3         3
        11        13        14        14
        22        23        27        27
        28        24        27        27
        15        13         7         7
         2        12         1         1
        29        25        33        33
        23        10         9         9
        21        26        18        18
        16        14        15        15
        18        17        15        15
        29        32        21        21
        22        24        20        20
        28        33        25        25
        11         1        12        12
        31        30        17        17
         5         9        10        10
zone t="boundary 3 bc-3", solutiontime= 0.1000000E+03, strandid=1003, i=33, j=48, f=feblock
  0.375059096892E+01  0.249769609313E+01  0.500322133174E+01  0.403612218725E+01  0.287976772365E+01  0.124541910518E+01  0.190552237404E+01
  0.500000000000E+01  0.326671104552E+01  0.423253755448E+01  0.201271136506E+01 -0.547468544169E-02  0.958895643487E+00  0.500000000000E+01
  0.266968147299E+01  0.385584487271E+01  0.890374214836E+00  0.154654013699E+01  0.000000000000E+00  0.500000000000E+01  0.315261136744E+01
  0.218304199515E+01  0.398195307895E+01  0.000000000000E+00  0.697379952124E+00  0.963757277315E+00  0.125000000000E+01  0.000000000000E+00
  0.500000000000E+01  0.310330738524E+01  0.250000000000E+01  0.375000000000E+01  0.000000000000E+00
  0.250494197117E+01  0.250494197117E+01  0.250494197117E+01  0.250494197117E+01  0.250494197117E+01  0.250494197117E+01  0.250494197117E+01
  0.250494197117E+01  0.250494197117E+01  0.250494197117E+01  0.250494197117E+01  0.250494197117E+01  0.250494197117E+01  0.250494197117E+01
  0.250494197117E+01  0.250494197117E+01  0.250494197117E+01  0.250494197117E+01  0.250494197117E+01  0.250494197117E+01  0.250494197117E+01
  0.250494197117E+01  0.250494197117E+01  0.250494197117E+01  0.250494197117E+01  0.250494197117E+01  0.250494197117E+01  0.250494197117E+01
  0.250494197117E+01  0.250494197117E+01  0.250494197117E+01  0.250494197117E+01  0.250494197117E+01
  0.135649900494E-03  0.110129816467E-03  0.966887303890E-04  0.101756752009E+01  0.908094589218E+00  0.103942505801E-03  0.722629083213E+00
  0.125000000000E+01  0.188965661746E+01  0.191862696980E+01  0.176708239098E+01  0.803813859866E-04  0.969652551954E+00  0.250000000000E+01
  0.285339433501E+01  0.293325058812E+01  0.205656223819E+01  0.293157016932E+01  0.125000000000E+01  0.375000000000E+01  0.363766838842E+01
  0.396069444983E+01  0.407056385475E+01  0.250000000000E+01  0.307031995245E+01  0.397359820314E+01  0.500000000000E+01  0.375000000000E+01
  0.500000000000E+01  0.433260781310E+01  0.500000000000E+01  0.500000000000E+01  0.500000000000E+01
  0.942183307751E+00  0.946102063908E+00  0.843610078591E+00  0.964597523396E+00  0.979042392242E+00  0.957208452765E+00  0.983429250293E+00
  0.963721725555E+00  0.982810781095E+00  0.984401104169E+00  0.990479879691E+00  0.134612569480E+01  0.101938618716E+01  0.100836257777E+01
  0.993522489389E+00  0.998022468279E+00  0.100803247514E+01  0.100074557832E+01  0.106375187532E+01  0.100671336498E+01  0.100059444060E+01
  0.100235465088E+01  0.100177893411E+01  0.102386744307E+01  0.100869510481E+01  0.100526311053E+01  0.100520799265E+01  0.100826784388E+01
  0.100195924055E+01  0.100162153759E+01  0.100412053808E+01  0.100321831628E+01  0.100424981385E+01
  0.000000000000E+00  0.000000000000E+00  0.000000000000E+00  0.440215710739E+00  0.400393533729E+00  0.000000000000E+00  0.375212968056E+00
  0.494608439040E+00  0.572938484806E+00  0.569372071428E+00  0.559962250029E+00  0.000000000000E+00  0.484442591027E+00  0.533629622940E+00
  0.556227675909E+00  0.564435214017E+00  0.522387781404E+00  0.522298175740E+00  0.444892689959E+00  0.518273728874E+00  0.524586223927E+00
  0.503813410499E+00  0.509767210915E+00  0.471809759842E+00  0.496276133516E+00  0.494958458726E+00  0.489142909822E+00  0.489901612831E+00
  0.493069697572E+00  0.499094695570E+00  0.486810813622E+00  0.484771811941E+00  0.495801437686E+00
  0.000000000000E+00  0.000000000000E+00  0.000000000000E+00  0.000000000000E+00  0.000000000000E+00  0.000000000000E+00  0.000000000000E+00
  0.000000000000E+00  0.000000000000E+00  0.000000000000E+00  0.000000000000E+00  0.000000000000E+00  0.000000000000E+00  0.000000000000E+00
  0.000000000000E+00  0.000000000000E+00  0.000000000000E+00  0.000000000000E+00  0.000000000000E+00  0.000000000000E+00  0.000000000000E+00
  0.000000000000E+00  0.000000000000E+00  0.000000000000E+00  0.000000000000E+00  0.000000000000E+00  0.000000000000E+00  0.000000000000E+00
  0.000000000000E+00  0.000000000000E+00  0.000000000000E+00  0.000000000000E+00  0.000000000000E+00
  0.000000000000E+00  0.000000000000E+00  0.000000000000E+00 -0.226613231741E-01  0.112044606978E-01  0.000000000000E+00  0.182027358410E-01
 -0.100724185892E+00  0.384685234936E-02 -0.389363525229E-01  0.339577404604E-01  0.000000000000E+00  0.656339747981E-01 -0.424552862058E-01
  0.838019141544E-02 -0.653499969324E-02  0.487083420371E-01  0.134197017360E-01  0.453333607013E-01  0.715875361513E-03 -0.737243372128E-03
  0.238155173522E-02  0.838412426641E-03  0.352838723305E-02  0.102975071030E-01  0.427106497606E-02  0.337260479800E-02  0.472064722228E-03
  0.570494355837E-02  0.305637587081E-03  0.160687824280E-02  0.568495291183E-03  0.236429940258E-02
  0.672980906659E+00  0.675780035225E+00  0.602572380386E+00  0.676166118070E+00  0.691394599734E+00  0.683713371973E+00  0.689996363888E+00
  0.677410770003E+00  0.695272675919E+00  0.696337278891E+00  0.703516868456E+00  0.961509027046E+00  0.719936709451E+00  0.722890743704E+00
  0.709498961955E+00  0.713711030309E+00  0.725999947791E+00  0.716614563664E+00  0.782488054105E+00  0.722259702143E+00  0.716134598793E+00
  0.716554663614E+00  0.716543540013E+00  0.737373210319E+00  0.722639099529E+00  0.719421658380E+00  0.719547914766E+00  0.722746682982E+00
  0.716025604782E+00  0.715848710995E+00  0.718137823812E+00  0.717062968578E+00  0.718602615120E+00
  0.000000000000E+00  0.000000000000E+00  0.000000000000E+00  0.444961626928E+00  0.402838316190E+00  0.000000000000E+00  0.379029001549E+00
  0.508827846411E+00  0.575719767468E+00  0.573484231916E+00  0.562571091033E+00  0.000000000000E+00  0.491643474339E+00  0.534340493553E+00
  0.556353506125E+00  0.564141623675E+00  0.522489639030E+00  0.521815314100E+00  0.440672136512E+00  0.517132480923E+00  0.524064820256E+00
  0.503612613683E+00  0.509416634110E+00  0.469886789982E+00  0.495646532245E+00  0.494503101969E+00  0.488630053423E+00  0.489035017215E+00
  0.492985464012E+00  0.498953669977E+00  0.486505314975E+00  0.484610387305E+00  0.495364848064E+00
  0.999989345567E+00  0.999989414891E+00  0.999989632591E+00  0.981375695393E+00  0.988672653297E+00  0.999989832933E+00  0.982271891095E+00
  0.984075644303E+00  0.990406052732E+00  0.990320090376E+00  0.994390331428E+00  0.999990300362E+00  0.988743428079E+00  0.100365390733E+01
  0.999774597300E+00  0.100117529834E+01  0.100830077599E+01  0.100251293722E+01  0.102982970104E+01  0.100442054131E+01  0.100199281310E+01
  0.100081994749E+01  0.100137956774E+01  0.100825795511E+01  0.100297377722E+01  0.100191712118E+01  0.100214790177E+01  0.100354817652E+01
  0.100047567419E+01  0.100056574043E+01  0.100126719373E+01  0.100066769089E+01  0.100178625606E+01
        15         9        16        16
        15        18        11        11
        22        15        21        21
        11         5         9         9
         5         7         2         2
        11         9        15        15
        16        21        15        15
        16        10        14        14
        18        17        11        11
        17        25        24        24
        22        18        15        15
        22        30        31        31
        30        21        23        23
        16        20        23        23
        22        27        26        26
        10         9         4         4
         7        11        13        13
        25        18        26        26
        11         7         5         5
         5         1         4         4
        17        19        13        13
        23        32        30        30
        23        20        29        29
         4         9         5         5
         4         8        10        10
        26        18        22        22
        26        28        25        25
        13        11        17        17
        13         6         7         7
        31        30        32        32
         2         1         5         5
         2         7         6         6
        14        10         8         8
        24        19        17        17
        24        25        28        28
         9        10        16        16
         3         4         1         1
        33        26        27        27
        12        13        19        19
        21        30        22        22
        16        14        20        20
        16        23        21        21
        22        31        27        27
        18        25        17        17
        26        33        28        28
         4         3         8         8
        23        29        32        32
        13        12         6         6
zone t="boundary 4 bc-4", solutiontime= 0.1000000E+03, strandid=1004, i=32, j=46, f=feblock
  0.125000000000E+01  0.219251206392E+01  0.103724302461E+01  0.500000000000E+01  0.250000000000E+01  0.375000000000E+01  0.404200324774E+01
  0.500000000000E+01  0.000000000000E+00  0.310152362409E+01  0.202479342020E+01  0.324151231464E+01  0.922061490191E+00  0.000000000000E+00
  0.299062775774E+01  0.394624082883E+01  0.500000000000E+01  0.409252726285E+01  0.500000000000E+01  0.429310310915E+01  0.175434191980E+01
  0.284428995242E+01  0.000000000000E+00  0.000000000000E+00  0.715990576545E+00  0.930412228790E+00  0.125000000000E+01  0.187029682677E+01
  0.500000000000E+01  0.375000000000E+01  0.250000000000E+01  0.000000000000E+00
  0.250494197117E+01  0.157686156160E+01  0.146289271009E+01  0.250494197117E+01  0.250494197117E+01  0.250494197117E+01  0.155830813274E+01
  0.125000000000E+01  0.250494197117E+01  0.177790177481E+01  0.477386199275E+00  0.742988685424E+00  0.308372018325E+00  0.125000000000E+01
 -0.487811078581E+00 -0.144524380962E+01 -0.125000000000E+01 -0.345533899378E+00  0.000000000000E+00  0.627766083140E+00 -0.739814786992E+00
 -0.158811787973E+01  0.000000000000E+00 -0.125000000000E+01 -0.600232012419E+00 -0.154800130438E+01 -0.249658903664E+01 -0.178862290564E+01
 -0.249658903664E+01 -0.249658903664E+01 -0.249658903664E+01 -0.249658903664E+01
  0.500000000000E+01  0.500000000000E+01  0.500000000000E+01  0.500000000000E+01  0.500000000000E+01  0.500000000000E+01  0.500000000000E+01
  0.500000000000E+01  0.500000000000E+01  0.500000000000E+01  0.500000000000E+01  0.500000000000E+01  0.500000000000E+01  0.500000000000E+01
  0.500000000000E+01  0.500000000000E+01  0.500000000000E+01  0.500000000000E+01  0.500000000000E+01  0.500000000000E+01  0.500000000000E+01
  0.500000000000E+01  0.500000000000E+01  0.500000000000E+01  0.500000000000E+01  0.500000000000E+01  0.500000000000E+01  0.500000000000E+01
  0.500000000000E+01  0.500000000000E+01  0.500000000000E+01  0.500000000000E+01
  0.100520799265E+01  0.100431953414E+01  0.100430493793E+01  0.100195924055E+01  0.100412053808E+01  0.100321831628E+01  0.100259025585E+01
  0.100200910348E+01  0.100424981385E+01  0.100371919186E+01  0.100446315550E+01  0.100347264157E+01  0.100365337948E+01  0.100423996849E+01
  0.100362998060E+01  0.100164303603E+01  0.100227303358E+01  0.100227935732E+01  0.100213231200E+01  0.100254724878E+01  0.100443085429E+01
  0.100338093108E+01  0.100288628363E+01  0.100335078889E+01  0.100323377657E+01  0.100407000466E+01  0.100511670025E+01  0.100432528320E+01
  0.100179321949E+01  0.100266918370E+01  0.100322418326E+01  0.100399891207E+01
  0.489142909822E+00  0.489272055710E+00  0.491032923453E+00  0.493069697572E+00  0.486810813622E+00  0.484771811941E+00  0.485403773949E+00
  0.494263117408E+00  0.495801437686E+00  0.486816339768E+00  0.488145537881E+00  0.487229403657E+00  0.494434685969E+00  0.496535909363E+00
  0.487824518454E+00  0.483169831670E+00  0.492563478216E+00  0.487246960554E+00  0.494865403838E+00  0.488001096940E+00  0.490070580952E+00
  0.488216021183E+00  0.497536162058E+00  0.496380750945E+00  0.495256736610E+00  0.493194138056E+00  0.490415188741E+00  0.490358126731E+00
  0.491399178628E+00  0.486162650332E+00  0.490249147903E+00  0.495514477462E+00
  0.000000000000E+00 -0.571022316330E-04 -0.127312504185E-02  0.000000000000E+00  0.000000000000E+00  0.000000000000E+00  0.474732865318E-03
  0.851395536043E-03  0.000000000000E+00  0.314640556165E-03 -0.889051461810E-03 -0.750264041178E-03 -0.173000224843E-02 -0.665069215894E-04
 -0.105208735379E-02 -0.997771776727E-03 -0.129374719640E-02 -0.207642854426E-02 -0.126264602307E-02 -0.996061548517E-03 -0.596623599354E-03
 -0.741934092614E-03 -0.202461878241E-03  0.805204190268E-03  0.605538186604E-04  0.162402289031E-02  0.000000000000E+00  0.804102199572E-03
  0.000000000000E+00  0.000000000000E+00  0.000000000000E+00  0.000000000000E+00