# vtk DataFile Version 2.0
FUN3D:global_image_vtk
ASCII
DATASET UNSTRUCTURED_GRID
POINTS 213 double
   -0.5474685441690944E-02    0.2504941971167291E+01    0.8038138598653882E-04
    0.1245419105183470E+01    0.2504941971167291E+01    0.1039425058011467E-03
    0.2497696093128781E+01    0.2504941971167291E+01    0.1101298164664654E-03
    0.3750590968915823E+01    0.2504941971167291E+01    0.1356499004943063E-03
    0.5003221331742151E+01    0.2504941971167291E+01    0.9668873038859315E-04
    0.5004676687979097E+01    0.1281291202167039E+01    0.1638053019382128E-03
    0.5004772673778115E+01    0.2775079906482937E-01    0.1903478008451476E-03
    0.5003581183341212E+01   -0.1225853508883529E+01    0.1607765204484354E-03
    0.5001952533742189E+01   -0.2496589036641631E+01    0.1082258890298664E-03
    0.3750348111606544E+01   -0.2496589036641631E+01    0.1458753696815253E-03
    0.2498611462994928E+01   -0.2496589036641631E+01    0.1008933264248784E-03
    0.1247175269333275E+01   -0.2496589036641631E+01    0.1108587619168545E-03
   -0.3383959865717039E-02   -0.2496589036641631E+01    0.8107259626499693E-04
   -0.4257768979767376E-02   -0.1225734811642590E+01    0.3415458742295118E-04
   -0.5251592448511476E-02    0.2619486024420475E-01    0.1038724387188997E-03
   -0.5676060312424176E-02    0.1278221569065708E+01    0.8224601702178120E-04
    0.9003209617952567E+00    0.1608979112280158E+01    0.8704140727638896E-04
    0.3983172210692289E+01   -0.1561211904840279E+01    0.1757116720369489E-03
    0.4035602039224468E+01    0.1486760030415519E+01    0.1713312862103859E-03
    0.1036613723302903E+01   -0.1455626429916847E+01    0.1047189301529583E-03
    0.1094353480630802E+01   -0.2964622010671856E+00    0.1260590236916158E-03
    0.7298400267479992E+00    0.6874684746719113E+00    0.1044598640543285E-03
    0.1617018659308945E+01    0.8553208024939360E+00    0.1529810904972169E-03
    0.2143199662875791E+01   -0.1627128509216730E+01    0.1606170425225158E-03
    0.4088840445400889E+01   -0.4351047825936264E+00    0.2719933294108577E-03
    0.2977916511248925E+01   -0.8334991483094498E+00    0.2245596931857436E-03
    0.3044093241383419E+01   -0.1814361225108581E+01    0.1617000112423283E-03
    0.3427866614805211E+01    0.3813904839972496E+00    0.2936955483431871E-03
    0.4313225355351750E+01    0.5489133376342494E+00    0.2313009573591816E-03
    0.1823032737597358E+01    0.1771265193544255E+01    0.1836202887150474E-03
    0.2806311152168375E+01    0.1358629373600681E+01    0.1943492163984373E-03
    0.1891860875936711E+01   -0.8481310365607539E+00    0.1670645501813957E-03
    0.2268769200166910E+01    0.7723691819196565E-01    0.2072307783085318E-03
    0.5000000000000000E+01    0.2504941971167291E+01    0.1250000000000000E+01
    0.5000000000000000E+01    0.2504941971167291E+01    0.2500000000000000E+01
    0.5000000000000000E+01    0.2504941971167291E+01    0.3750000000000000E+01
    0.5000000000000000E+01    0.2504941971167291E+01    0.5000000000000000E+01
    0.3750000000000000E+01    0.2504941971167291E+01    0.5000000000000000E+01
    0.2500000000000000E+01    0.2504941971167291E+01    0.5000000000000000E+01
    0.1250000000000000E+01    0.2504941971167291E+01    0.5000000000000000E+01
    0.0000000000000000E+00    0.2504941971167291E+01    0.5000000000000000E+01
    0.0000000000000000E+00    0.2504941971167291E+01    0.3750000000000000E+01
    0.0000000000000000E+00    0.2504941971167291E+01    0.2500000000000000E+01
    0.0000000000000000E+00    0.2504941971167291E+01    0.1250000000000000E+01
    0.9588956434871083E+00    0.2504941971167291E+01    0.9696525519543873E+00
    0.3981953078951402E+01    0.2504941971167291E+01    0.4070563854751271E+01
    0.4036122187252336E+01    0.2504941971167291E+01    0.1017567520094671E+01
    0.9637572773153888E+00    0.2504941971167291E+01    0.3973598203142229E+01
    0.1546540136992396E+01    0.2504941971167291E+01    0.2931570169315600E+01
    0.6973799521244312E+00    0.2504941971167291E+01    0.3070319952453756E+01
    0.8903742148356882E+00    0.2504941971167291E+01    0.2056562238187738E+01
    0.2183041995146012E+01    0.2504941971167291E+01    0.3960694449828019E+01
    0.3855844872709870E+01    0.2504941971167291E+01    0.2933250588118630E+01
    0.3152611367438029E+01    0.2504941971167291E+01    0.3637668388416195E+01
    0.3103307385241870E+01    0.2504941971167291E+01    0.4332607813099731E+01
    0.3266711045517939E+01    0.2504941971167291E+01    0.1889656617463738E+01
    0.4232537554484796E+01    0.2504941971167291E+01    0.1918626969802351E+01
    0.1905522374036519E+01    0.2504941971167291E+01    0.7226290832134605E+00
    0.2879767723645805E+01    0.2504941971167291E+01    0.9080945892181981E+00
    0.2012711365064515E+01    0.2504941971167291E+01    0.1767082390977754E+01
    0.2669681472994637E+01    0.2504941971167291E+01    0.2853394335010791E+01
    0.5000000000000000E+01    0.1250000000000000E+01    0.5000000000000000E+01
    0.5000000000000000E+01    0.0000000000000000E+00    0.5000000000000000E+01
    0.5000000000000000E+01   -0.1250000000000000E+01    0.5000000000000000E+01
    0.5000000000000000E+01   -0.2496589036641631E+01    0.5000000000000000E+01
    0.5000000000000000E+01   -0.2496589036641631E+01    0.3750000000000000E+01
    0.5000000000000000E+01   -0.2496589036641631E+01    0.2500000000000000E+01
    0.5000000000000000E+01   -0.2496589036641631E+01    0.1250000000000000E+01
    0.5000000000000000E+01    0.1578994732800803E+01    0.9058375365086910E+00
    0.5000000000000000E+01   -0.1583989954232354E+01    0.3982050490726493E+01
    0.5000000000000000E+01    0.1453322699199022E+01    0.4033849428301197E+01
    0.5000000000000000E+01   -0.1479596339503735E+01    0.1040505887381675E+01
    0.5000000000000000E+01   -0.3227322616384110E+00    0.1099454400140349E+01
    0.5000000000000000E+01    0.6593508822075582E+00    0.7354504170366591E+00
    0.5000000000000000E+01    0.8256214013940779E+00    0.1622302608453282E+01
    0.5000000000000000E+01   -0.1650070333782557E+01    0.2145871574390382E+01
    0.5000000000000000E+01   -0.4612828702537229E+00    0.4086422318222992E+01
    0.5000000000000000E+01   -0.8579242121530853E+00    0.2979540174134984E+01
    0.5000000000000000E+01   -0.1836846154397680E+01    0.3045064261640043E+01
    0.5000000000000000E+01    0.3508002863614053E+00    0.3428197553792836E+01
    0.5000000000000000E+01    0.5185680230613409E+00    0.4309693860063405E+01
    0.5000000000000000E+01    0.1738996113203182E+01    0.1827272193562204E+01
    0.5000000000000000E+01    0.1325493893339706E+01    0.2808563282768077E+01
    0.5000000000000000E+01   -0.8731419609589618E+00    0.1895995683864404E+01
    0.5000000000000000E+01    0.4906150219227333E-01    0.2273179336307740E+01
    0.0000000000000000E+00    0.1250000000000000E+01    0.5000000000000000E+01
    0.0000000000000000E+00    0.0000000000000000E+00    0.5000000000000000E+01
    0.0000000000000000E+00   -0.1250000000000000E+01    0.5000000000000000E+01
    0.0000000000000000E+00   -0.2496589036641631E+01    0.5000000000000000E+01
    0.1250000000000000E+01   -0.2496589036641631E+01    0.5000000000000000E+01
    0.2500000000000000E+01   -0.2496589036641631E+01    0.5000000000000000E+01
    0.3750000000000000E+01   -0.2496589036641631E+01    0.5000000000000000E+01
    0.4042003247744892E+01    0.1558308132739014E+01    0.5000000000000000E+01
    0.9304122287900499E+00   -0.1548001304379777E+01    0.5000000000000000E+01
    0.1037243024609388E+01    0.1462892710085612E+01    0.5000000000000000E+01
    0.3946240828834967E+01   -0.1445243809615570E+01    0.5000000000000000E+01
    0.4092527262848217E+01   -0.3455338993778935E+00    0.5000000000000000E+01
    0.4293103109154542E+01    0.6277660831404320E+00    0.5000000000000000E+01
    0.3241512314643519E+01    0.7429886854239611E+00    0.5000000000000000E+01
    0.2844289952419609E+01   -0.1588117879734118E+01    0.5000000000000000E+01
    0.7159905765450471E+00   -0.6002320124191652E+00    0.5000000000000000E+01
    0.1754341919796891E+01   -0.7398147869923652E+00    0.5000000000000000E+01
    0.1870296826774691E+01   -0.1788622905643739E+01    0.5000000000000000E+01
    0.9220614901912976E+00    0.3083720183248586E+00    0.5000000000000000E+01
    0.3101523624086016E+01    0.1777901774806180E+01    0.5000000000000000E+01
    0.2192512063922564E+01    0.1576861561598471E+01    0.5000000000000000E+01
    0.2024793420196460E+01    0.4773861992750707E+00    0.5000000000000000E+01
    0.2990627757741975E+01   -0.4878110785814084E+00    0.5000000000000000E+01
    0.0000000000000000E+00   -0.2496589036641631E+01    0.1250000000000000E+01
    0.0000000000000000E+00   -0.2496589036641631E+01    0.2500000000000000E+01
    0.0000000000000000E+00   -0.2496589036641631E+01    0.3750000000000000E+01
    0.0000000000000000E+00    0.1558308132739014E+01    0.4042003247744892E+01
    0.0000000000000000E+00   -0.1548001304379777E+01    0.9304122287900499E+00
    0.0000000000000000E+00    0.1462892710085612E+01    0.1037243024609388E+01
    0.0000000000000000E+00   -0.1445243809615570E+01    0.3946240828834967E+01
    0.0000000000000000E+00   -0.3455338993778935E+00    0.4092527262848217E+01
    0.0000000000000000E+00    0.6277660831404320E+00    0.4293103109154542E+01
    0.0000000000000000E+00    0.7429886854239611E+00    0.3241512314643519E+01
    0.0000000000000000E+00   -0.1588117879734118E+01    0.2844289952419609E+01
    0.0000000000000000E+00   -0.6002320124191652E+00    0.7159905765450471E+00
    0.0000000000000000E+00   -0.7398147869923652E+00    0.1754341919796891E+01
    0.0000000000000000E+00   -0.1788622905643739E+01    0.1870296826774691E+01
    0.0000000000000000E+00    0.3083720183248586E+00    0.9220614901912976E+00
    0.0000000000000000E+00    0.1777901774806180E+01    0.3101523624086016E+01
    0.0000000000000000E+00    0.1576861561598471E+01    0.2192512063922564E+01
[...]
POINT_DATA 213
SCALARS rho double 1
LOOKUP_TABLE default
   0.1346125694799487E+01
   0.9572084527698856E+00
   0.9461020639211358E+00
   0.9421833078005959E+00
   0.8436100786780303E+00
   0.7742024922847149E+00
   0.7627632914266760E+00
   0.7661496233439399E+00
   0.8310481703386773E+00
   0.9353608197736558E+00
   0.9344036384018163E+00
   0.9615898876554421E+00
   0.1448480208898695E+01
   0.1495421840749721E+01
   0.1646754928392573E+01
   0.1426608058879071E+01
   0.1009808068726071E+01
   0.9511456929649179E+00
   0.9438291099791507E+00
   0.9574489508665580E+00
   0.9414832416692103E+00
   0.1037118221429511E+01
   0.9258147537236350E+00
   0.9322497228234226E+00
   0.9538141799817758E+00
   0.9520438484286473E+00
   0.9350971720266290E+00
   0.9565537237247201E+00
   0.9378700247643850E+00
   0.9303318784960896E+00
   0.9446515867341664E+00
   0.8862352513714588E+00
   0.9424046836504067E+00
   0.9637217258767009E+00
   0.1008362577746411E+01
   0.1006713364964686E+01
   0.1001959240598341E+01
   0.1003218316303130E+01
   0.1004120538097120E+01
   0.1005207992648869E+01
   0.1004249813844999E+01
   0.1008267843887174E+01
   0.1023867443071860E+01
   0.1063751875329062E+01
   0.1019386187167997E+01
   0.1001778934105113E+01
   0.9645975238514622E+00
   0.1005263110533507E+01
   0.1000745578325699E+01
   0.1008695104818922E+01
   0.1008032475148545E+01
   0.1002354650887902E+01
   0.9980224682756362E+00
   0.1000594440613364E+01
   0.1001621537595630E+01
   0.9828107810759764E+00
   0.9844011042080307E+00
   0.9834292502878226E+00
   0.9790423922949226E+00
   0.9904798796879875E+00
   0.9935224893985900E+00
   0.1002009103548679E+01
   0.1002132312054539E+01
   0.1002273033588855E+01
   0.1001793219496492E+01
   0.1009814972853568E+01
   0.1006499311750843E+01
   0.9560849991010071E+00
   0.9252996567744327E+00
   0.1007053712664341E+01
   0.1004491538496514E+01
   0.9144889717410853E+00
   0.9091476761103952E+00
   0.8752502590497059E+00
   0.9768039036236529E+00
   0.1000530366596376E+01
   0.1005826553461340E+01
   0.1012895293772604E+01
   0.1011677102428339E+01
   0.1010415988345227E+01
   0.1005456560094548E+01
   0.9909260254556815E+00
   0.1005152543422404E+01
   0.9860803849557831E+00
   0.1005592650639126E+01
   0.1004239968493898E+01
   0.1002886283630868E+01
   0.1003350788890112E+01
   0.1003998912070560E+01
   0.1005116700255501E+01
   0.1003224183260919E+01
   0.1002669183692499E+01
   0.1002590255900665E+01
   0.1004070004663921E+01
   0.1004304937934243E+01
   0.1001643036014984E+01
   0.1002279357350936E+01
   0.1002547248849731E+01
   0.1003472641583546E+01
   0.1003380931079370E+01
   0.1003233776575619E+01
   0.1004430854294987E+01
   0.1004325283195159E+01
   0.1003653379482932E+01
   0.1003719191866065E+01
   0.1004319534146519E+01
   0.1004463155507312E+01
   0.1003629980588780E+01
   0.1064490581512264E+01
   0.1028445780971712E+01
   0.1009607603151313E+01
   0.1006626774105417E+01
   0.1163979474294729E+01
   0.1086026004524933E+01
   0.1007908398974532E+01
   0.1007252664643175E+01
   0.1006796746944592E+01
   0.1013053608650708E+01
   0.1019342644428733E+01
   0.1235143811208750E+01
   0.1032536232941683E+01
   0.1046567728936133E+01
   0.1201703012929560E+01
   0.1014671125335846E+01
   0.1032295324204662E+01
   0.1028222151039542E+01
   0.1014641483576520E+01
   0.1029002257775232E+01
   0.1002002818487251E+01
   0.9607830581123261E+00
   0.1006859706960943E+01
   0.1001326954017767E+01
   0.1010800868394603E+01
   0.1012237273239349E+01
   0.1000940436430093E+01
   0.9979317235363304E+00
   0.9980683699399020E+00
   0.1001191956731895E+01
   0.9841985797788591E+00
   0.9815070579491285E+00
   0.9648654914823270E+00
   0.9680713427468232E+00
   0.9914149190848984E+00
   0.9910916479258615E+00
   0.9925598184554909E+00
   0.1001728510390165E+01
   0.9993250772522969E+00
   0.9941444029326857E+00
   0.1006981383549104E+01
   0.1022611654055051E+01
   0.1001121691838408E+01
   0.1008784265590432E+01
   0.1004775043990768E+01
   0.1009029447312611E+01
   0.9967197949835590E+00
   0.1005567613157460E+01
   0.1003325685875792E+01
   0.9949865129989317E+00
   0.9833521892985309E+00
   0.9944521638662726E+00
   0.9973482230933386E+00
   0.9932519263826584E+00
   0.1001312608257805E+01
   0.1003001448729935E+01
   0.1002189173489839E+01
   0.9947119516208365E+00
   0.9937839725528606E+00
   0.1004862069434489E+01
   0.1020102936715140E+01
   0.1005341234396261E+01
   0.9817063601323959E+00
   0.1004975501330321E+01
   0.1012376568818132E+01
   0.9873747459367840E+00
   0.9551282272201773E+00
   0.9865280377092391E+00
   0.9865952832725753E+00
   0.9920084248913112E+00
   0.9934470865515086E+00
   0.9960657346574086E+00
   0.1037405690911545E+01
   0.1033165796318661E+01
   0.1001443358076245E+01
   0.1001929574477501E+01
   0.9912286695833534E+00
   0.9911121698791683E+00
   0.9649300819276659E+00
   0.9933729920336426E+00
   0.1006089075114567E+01
   0.1001962080818380E+01
   0.9908628495099959E+00
   0.9742274508258598E+00
   0.9420781785273924E+00
   0.9821604770980679E+00
   0.9794777371330615E+00
   0.9704352201628057E+00
   0.9720842372307915E+00
   0.9557868488255793E+00
   0.9497981758166572E+00
   0.9529847958428814E+00
   0.1002637256815714E+01
   0.1002476301971339E+01
   0.1000513242293297E+01
   0.1001675737927712E+01
   0.9610108169555054E+00
   0.9492469479945096E+00
   0.9586432519823792E+00
   0.1001121462572087E+01
   0.1000500591165822E+01
   0.1001161102498034E+01
   0.9807429277002102E+00
   0.9805608284057311E+00
   0.9629214371749769E+00
SCALARS u double 1
LOOKUP_TABLE default
   0.0000000000000000E+00
   0.0000000000000000E+00
   0.0000000000000000E+00
   0.0000000000000000E+00
   0.0000000000000000E+00
   0.0000000000000000E+00
   0.0000000000000000E+00
   0.0000000000000000E+00
   0.0000000000000000E+00
   0.0000000000000000E+00
   0.0000000000000000E+00
   0.0000000000000000E+00
   0.0000000000000000E+00
   0.0000000000000000E+00
   0.0000000000000000E+00
   0.0000000000000000E+00
   0.0000000000000000E+00
   0.0000000000000000E+00
   0.0000000000000000E+00
   0.0000000000000000E+00
   0.0000000000000000E+00
   0.0000000000000000E+00
   0.0000000000000000E+00
   0.0000000000000000E+00
   0.0000000000000000E+00
   0.0000000000000000E+00
   0.0000000000000000E+00
   0.0000000000000000E+00
   0.0000000000000000E+00
   0.0000000000000000E+00
   0.0000000000000000E+00
   0.0000000000000000E+00
   0.0000000000000000E+00
   0.4946084386993519E+00
   0.5336296229756911E+00
   0.5182737288498387E+00
   0.4930696975865623E+00
   0.4847718119881862E+00
   0.4868108136442079E+00
   0.4891429098093133E+00
   0.4958014376696506E+00
   0.4899016128297540E+00
   0.4718097598371849E+00
   0.4448926899542652E+00
   0.4844425910253510E+00
   0.5097672108167693E+00
   0.4402157107713947E+00
   0.4949584587177299E+00
   0.5222981757325366E+00
   0.4962761335115220E+00
   0.5223877813981996E+00
   0.5038134104745512E+00
   0.5644352140018456E+00
   0.5245862238886803E+00
   0.4990946955319628E+00
   0.5729384847979159E+00
   0.5693720713982601E+00
   0.3752129680642814E+00
   0.4003935337901756E+00
   0.5599622500294611E+00
   0.5562276758869653E+00
   0.4942631174520399E+00
   0.4948654038981127E+00
   0.4925634782339313E+00
   0.4913991786263613E+00
   0.5162611628861955E+00
   0.5363588932426847E+00
   0.4951213607565108E+00
   0.4520531594596800E+00
   0.5129024774485864E+00
   0.5117690526057183E+00
   0.4786251287357773E+00
   0.4931155293895129E+00
   0.4600306954847106E+00
   0.5242629199214056E+00
   0.5299866667556206E+00
   0.5129711999011741E+00
   0.5328938855257167E+00
   0.5309772093607885E+00
   0.5309771259842835E+00
   0.5063651410030051E+00
   0.5279605766316232E+00
   0.5409254473562256E+00
   0.5363677255219772E+00
   0.5374194372006750E+00
   0.4965359093572006E+00
   0.4975361620511637E+00
   0.4963807509414337E+00
   0.4955144774570577E+00
   0.4904151887311849E+00
   0.4902491479130295E+00
   0.4861626503328906E+00
   0.4854037740486242E+00
   0.4931941380540749E+00
   0.4910329234573698E+00
   0.4831698316999530E+00
   0.4872469606633579E+00
   0.4880010970938754E+00
   0.4872294037415690E+00
   0.4882160211846449E+00
   0.4952567366074462E+00
   0.4900705809563705E+00
   0.4903581267292219E+00
   0.4944346859737087E+00
   0.4868163398039215E+00
   0.4892720557337948E+00
   0.4881455379228199E+00
   0.4878245185054129E+00
   0.4449022026058367E+00
   0.4700099664054332E+00
   0.4891756201711643E+00
   0.4885980866242063E+00
   0.4510286412384681E+00
   0.4681799610870997E+00
   0.4876648975168913E+00
   0.4868253758020697E+00
   0.4909267533067792E+00
   0.4793946319309053E+00
   0.4657884653235311E+00
   0.3794302312466281E+00
   0.4903697421068036E+00
   0.4487929174591139E+00
   0.4432385355146527E+00
   0.4845729179180124E+00
   0.4621884481230255E+00
   0.4663602298821453E+00
   0.4747774268384312E+00
   0.4893613111949479E+00
   0.5085681474525519E+00
   0.4304904287052720E+00
   0.4927280753845447E+00
   0.5320316185122079E+00
   0.4913826501723771E+00
   0.5209404404611955E+00
   0.5061319828037623E+00
   0.5690636320484882E+00
   0.5275039918499674E+00
   0.5015047795271235E+00
   0.5821373618550293E+00
   0.5691503700150760E+00
   0.3402452490584021E+00
   0.3785432685513290E+00
   0.5753091283257330E+00
   0.5668547247078699E+00
   0.5703055450884126E+00
   0.5291879661538431E+00
   0.5449833828586481E+00
   0.5719093999180257E+00
   0.5385694587039089E+00
   0.5475896936818100E+00
   0.5821565652872551E+00
   0.4925313045941638E+00
   0.5041557177606207E+00
   0.4961299804084141E+00
   0.5562803684715480E+00
   0.4757814624136991E+00
   0.4950174786287628E+00
   0.5496174671906475E+00
   0.5889519110689349E+00
   0.5839568630927728E+00
   0.5468163497855141E+00
   0.5803877175562165E+00
   0.5106055693623712E+00
   0.5029532236583070E+00
   0.5033085380544349E+00
   0.5676232052848272E+00
   0.5564629528825710E+00
   0.4947135441238647E+00
   0.5506799461272125E+00
   0.5513545696792003E+00
   0.5658254157185996E+00
   0.4919953536772944E+00
   0.4927852057903971E+00
   0.3865438337967250E+00
   0.3687907202028810E+00
   0.5574381187301709E+00
   0.5761778935204245E+00
   0.4194381851592960E+00
   0.5822999347170670E+00
   0.4268238595714783E+00
   0.5397390504891441E+00
   0.5016174621411372E+00
   0.5119228250841903E+00
   0.5048434167804972E+00
   0.5752768158075114E+00
   0.5878367583815464E+00
   0.5382358738597794E+00
   0.5679645541080491E+00
   0.5352016964044968E+00
   0.5338463699411077E+00
   0.5582293100211124E+00
   0.5511563292970181E+00
   0.4256775843158037E+00
   0.5272986084049548E+00
   0.5796794667547097E+00
   0.3318312940171050E+00
   0.4761441131745593E+00
   0.5446494937214384E+00
   0.4800669226999171E+00
   0.3006201115511710E+00
   0.5031625243238605E+00
   0.5017180912986862E+00
   0.5129133729564779E+00
   0.5414117117759619E+00
   0.3435217014693036E+00
   0.3398080158406893E+00
   0.3190194433768540E+00
   0.5066187044992899E+00
   0.5123864689663078E+00
   0.5329068385987618E+00
   0.5881307275852028E+00
   0.4644883168895532E+00
   0.3529622376732487E+00
SCALARS v double 1
LOOKUP_TABLE default
   0.0000000000000000E+00
   0.0000000000000000E+00
   0.0000000000000000E+00
   0.0000000000000000E+00
   0.0000000000000000E+00
   0.0000000000000000E+00
   0.0000000000000000E+00
   0.0000000000000000E+00
   0.0000000000000000E+00
   0.0000000000000000E+00
   0.0000000000000000E+00
   0.0000000000000000E+00
   0.0000000000000000E+00
   0.0000000000000000E+00
   0.0000000000000000E+00
   0.0000000000000000E+00
   0.0000000000000000E+00
   0.0000000000000000E+00
   0.0000000000000000E+00
   0.0000000000000000E+00
   0.0000000000000000E+00
   0.0000000000000000E+00
   0.0000000000000000E+00
   0.0000000000000000E+00
   0.0000000000000000E+00
   0.0000000000000000E+00
   0.0000000000000000E+00
   0.0000000000000000E+00
   0.0000000000000000E+00
   0.0000000000000000E+00
   0.0000000000000000E+00
   0.0000000000000000E+00
   0.0000000000000000E+00
   0.0000000000000000E+00
   0.0000000000000000E+00
   0.0000000000000000E+00
   0.0000000000000000E+00
   0.0000000000000000E+00
   0.0000000000000000E+00
   0.0000000000000000E+00
   0.0000000000000000E+00
   0.0000000000000000E+00
   0.0000000000000000E+00
   0.0000000000000000E+00
   0.0000000000000000E+00
   0.0000000000000000E+00
   0.0000000000000000E+00
   0.0000000000000000E+00
   0.0000000000000000E+00
   0.0000000000000000E+00
   0.0000000000000000E+00
   0.0000000000000000E+00
   0.0000000000000000E+00
   0.0000000000000000E+00
   0.0000000000000000E+00
   0.0000000000000000E+00
   0.0000000000000000E+00
   0.0000000000000000E+00
   0.0000000000000000E+00
   0.0000000000000000E+00
   0.0000000000000000E+00
   0.8513955811866611E-03
  -0.1262645973794102E-02
  -0.1293747166382556E-02
   0.0000000000000000E+00
   0.0000000000000000E+00
   0.0000000000000000E+00
   0.0000000000000000E+00
  -0.1933774508436250E-01
   0.5035656894058926E-03
   0.2213150714502819E-02
   0.1419313535297090E-01
  -0.6753674560649296E-02
  -0.8171004500861643E-02
  -0.1325788721839153E-01
   0.4993929179315701E-02
   0.7358933660184967E-03
   0.3478388746655097E-02
   0.1946723825224481E-02
   0.3168072237641801E-02
   0.1755557768422587E-02
  -0.7295454669116619E-02
  -0.6912294741389496E-04
   0.4552258090853213E-02
  -0.4165983997965162E-03
  -0.6650692316142102E-04
  -0.2024618789877132E-03
   0.8052041918872537E-03
   0.0000000000000000E+00
   0.0000000000000000E+00
   0.0000000000000000E+00
   0.0000000000000000E+00
   0.4747329015419344E-03
   0.1624022890335110E-02
  -0.1273125039758509E-02
  -0.9977717355666284E-03
  -0.2076428489908410E-02
  -0.9960614931511279E-03
  -0.7502640188196644E-03
  -0.7419340521056082E-03
   0.6055382081756554E-04
  -0.5966235828531953E-03
   0.8041021996299177E-03
  -0.1730002246123442E-02
   0.3146405610928257E-03
  -0.5710222946337741E-04
  -0.8890514588979590E-03
  -0.1052087314100089E-02
   0.0000000000000000E+00
   0.0000000000000000E+00
   0.0000000000000000E+00
  -0.1035601499315867E-02
  -0.7789944219966323E-02
   0.1821259126430263E-01
  -0.2902416832233614E-04
  -0.1377098223158210E-02
  -0.2028456949801015E-02
  -0.5613671771399423E-02
  -0.1620474384733299E-02
  -0.6357462323777973E-02
  -0.4327186040470055E-02
   0.1517793742393796E-02
   0.3300594270725443E-01
   0.4394529891657124E-04
  -0.2766565870048014E-02
   0.3629287490323844E-02
   0.3910358759834279E-03
   0.0000000000000000E+00
   0.0000000000000000E+00
   0.0000000000000000E+00
   0.0000000000000000E+00
   0.0000000000000000E+00
   0.0000000000000000E+00
   0.0000000000000000E+00
   0.0000000000000000E+00
   0.0000000000000000E+00
   0.0000000000000000E+00
   0.0000000000000000E+00
   0.0000000000000000E+00
   0.0000000000000000E+00
   0.0000000000000000E+00
   0.0000000000000000E+00
   0.0000000000000000E+00
   0.0000000000000000E+00
   0.5001778194301294E-02
   0.3214065062862422E-02
   0.8126045452904468E-02
   0.6096300950571831E-02
   0.1117411732824419E-01
   0.1403811528301650E-01
  -0.3216221136259711E-03
   0.5161911442166097E-02
   0.2930107582919872E-02
   0.3378096199376252E-02
   0.3728544905164347E-02
  -0.1469573980003360E-01
  -0.6136953940138452E-03
   0.6639776175211599E-02
   0.1457244625618000E-02
   0.1959300742850514E-02
   0.4263980416918549E-02
  -0.2812426141706462E-02
   0.1267609559344272E-02
   0.2851959406488764E-02
   0.1534868024483082E-02
   0.2563344858223863E-02
   0.2013569090148970E-02
   0.2154333993445540E-02
   0.8583998694220064E-02
  -0.3830083254552254E-02
   0.6155698672104665E-02
   0.4725666726730175E-04
  -0.4231582261536121E-03
  -0.1674129340079618E-01
  -0.4996659886774913E-02
  -0.4827349433998067E-02
   0.3399378243965473E-02
  -0.6077437480017774E-02
   0.3194967651233255E-04
  -0.3284948881620140E-01
  -0.3181989492213658E-02
   0.4581319064856246E-02
   0.9682240425780784E-03
   0.2133486655380246E-02
   0.4530687694528595E-02
   0.2692787736068512E-02
   0.3243073205161267E-02
   0.5223605123714533E-02
   0.1957627585405942E-02
   0.7485460432739014E-03
  -0.5693750600007376E-04
  -0.5322690150728018E-02
  -0.6972866683316493E-02
  -0.9635302968118005E-03
   0.1062718468046960E-02
  -0.2106021481895174E-02
  -0.3219291746158862E-02
  -0.2544864643407723E-02
  -0.4131306126131475E-02
  -0.7566170046231690E-02
  -0.2012358478751742E-02
   0.6515130058578902E-03
  -0.1916276745359259E-03
   0.1227816732432697E-02
  -0.3502806487757808E-02
   0.4846684259775698E-02
  -0.8642681612877094E-02
   0.3341928697673334E-04
  -0.3327777782653255E-03
   0.2558606052206387E-02
   0.1615750369082669E-02
   0.2039006090963952E-02
  -0.5641501457436235E-02
SCALARS w double 1
LOOKUP_TABLE default
   0.0000000000000000E+00
   0.0000000000000000E+00
   0.0000000000000000E+00
   0.0000000000000000E+00
   0.0000000000000000E+00
   0.0000000000000000E+00
   0.0000000000000000E+00
   0.0000000000000000E+00
   0.0000000000000000E+00
   0.0000000000000000E+00
   0.0000000000000000E+00
   0.0000000000000000E+00
   0.0000000000000000E+00
   0.0000000000000000E+00
   0.0000000000000000E+00
   0.0000000000000000E+00
   0.0000000000000000E+00
   0.0000000000000000E+00
   0.0000000000000000E+00
   0.0000000000000000E+00
   0.0000000000000000E+00
   0.0000000000000000E+00
   0.0000000000000000E+00
   0.0000000000000000E+00
   0.0000000000000000E+00
   0.0000000000000000E+00
   0.0000000000000000E+00
   0.0000000000000000E+00
   0.0000000000000000E+00
   0.0000000000000000E+00
   0.0000000000000000E+00
   0.0000000000000000E+00
   0.0000000000000000E+00
  -0.1007241857811198E+00
  -0.4245528614456132E-01
   0.7158753342150932E-03
   0.5704943508374664E-02
   0.5684952988010208E-03
   0.1606878236920128E-02
   0.3372604809870992E-02
   0.2364299407727176E-02
   0.4720647231030701E-03
   0.3528387233239782E-02
   0.4533336069993740E-01
   0.6563397479780790E-01
   0.8384124288460579E-03
  -0.2266132320856946E-01
   0.4271064981877386E-02
   0.1341970173203388E-01
   0.1029750710247937E-01
   0.4870834203597348E-01
   0.2381551739849094E-02
  -0.6534999688325504E-02
  -0.7372433809067007E-03
   0.3056375843519168E-03
   0.3846852337443286E-02
  -0.3893635248438049E-01
   0.1820273583950064E-01
   0.1120446067346051E-01
   0.3395774044575652E-01
   0.8380191409742900E-02
   0.4924617809260832E-02
   0.4973761374241498E-02
   0.4900522942013969E-02
   0.6056718439472905E-02
   0.2695309328971354E-02
  -0.4127769733683345E-01
  -0.9927104317521868E-01
  -0.1120360380747825E+00
   0.5144525321907803E-02
   0.4216388373211271E-02
  -0.1002595860498188E+00
  -0.9892594348324177E-01
  -0.9835483711117746E-01
  -0.9443969380244484E-01
  -0.6790972039233641E-01
   0.5196996599531144E-02
  -0.1927315221811576E-01
  -0.1563508313440385E-01
  -0.5964345942557657E-02
   0.6822779742895806E-02
  -0.7999951889478069E-01
  -0.2776431479536574E-01
  -0.8086526756697653E-01
  -0.5863339145969088E-01
   0.3073989813231592E-02
   0.2685175153804561E-02
   0.2644703083898977E-02
   0.3457404378213327E-02
   0.3998529301713304E-02
   0.1199876503920774E-02
  -0.1355432423736724E-03
   0.2028966161416071E-02
   0.4894373679366504E-02
   0.3864560761516743E-02
   0.1126430746216995E-02
   0.1188310616217492E-02
   0.1460245279956230E-02
  -0.2199458705900299E-04
   0.9121998183375125E-04
   0.4387187200569347E-02
   0.2712579861042225E-02
   0.2317255087092705E-02
   0.5007037340839840E-02
   0.1069971415961643E-02
   0.2707114403227016E-02
   0.2010664720080013E-02
   0.3391929619248435E-04
   0.8386260353138086E-01
   0.2832480963933110E-02
  -0.8469296579373346E-03
  -0.1274285268558888E-03
   0.1410903979832558E+00
   0.1236626536424301E+00
  -0.1228867734423964E-02
  -0.4383136242954545E-02
  -0.2804612760073818E-03
  -0.6477826836595505E-02
  -0.1895598713362212E-02
   0.1559394040485169E+00
   0.7528604328466004E-01
   0.2567550695143375E-01
   0.1661313051479512E+00