title="tecplot geometry and solution file"
variables = x y z mach temperature lambda1 lambda2 lambda3 lambda4 lambda5
zone t="boundary 1 bc-1", solutiontime= 0.2000000E+02, strandid=1001, i=32, j=46, f=feblock
 -0.547468544169E-02  0.000000000000E+00 -0.567606031243E-02  0.000000000000E+00  0.000000000000E+00  0.000000000000E+00 -0.525159244851E-02
 -0.425776897977E-02  0.000000000000E+00  0.000000000000E+00  0.000000000000E+00  0.000000000000E+00  0.000000000000E+00  0.000000000000E+00
  0.000000000000E+00  0.000000000000E+00 -0.338395986572E-02  0.000000000000E+00  0.000000000000E+00  0.000000000000E+00  0.000000000000E+00
  0.000000000000E+00  0.000000000000E+00  0.000000000000E+00  0.000000000000E+00  0.000000000000E+00  0.000000000000E+00  0.000000000000E+00
  0.000000000000E+00  0.000000000000E+00  0.000000000000E+00  0.000000000000E+00
  0.250494197117E+01  0.250494197117E+01  0.127822156907E+01  0.146289271009E+01  0.157686156160E+01  0.308372018325E+00  0.261948602442E-01
 -0.122573481164E+01 -0.600232012419E+00  0.250494197117E+01  0.477386199275E+00  0.742988685424E+00 -0.739814786992E+00  0.177790177481E+01
  0.155830813274E+01  0.250494197117E+01 -0.249658903664E+01 -0.154800130438E+01 -0.487811078581E+00  0.250494197117E+01  0.627766083140E+00
 -0.345533899378E+00 -0.178862290564E+01 -0.158811787973E+01  0.125000000000E+01 -0.249658903664E+01 -0.144524380962E+01  0.000000000000E+00
 -0.125000000000E+01 -0.249658903664E+01 -0.249658903664E+01 -0.249658903664E+01
  0.803813859867E-04  0.125000000000E+01  0.822460170215E-04  0.103724302461E+01  0.219251206392E+01  0.922061490191E+00  0.103872438719E-03
  0.341545874230E-04  0.715990576545E+00  0.250000000000E+01  0.202479342020E+01  0.324151231464E+01  0.175434191980E+01  0.310152362409E+01
  0.404200324774E+01  0.375000000000E+01  0.810725962649E-04  0.930412228790E+00  0.299062775774E+01  0.500000000000E+01  0.429310310915E+01
  0.409252726285E+01  0.187029682677E+01  0.284428995242E+01  0.500000000000E+01  0.125000000000E+01  0.394624082883E+01  0.500000000000E+01
  0.500000000000E+01  0.250000000000E+01  0.375000000000E+01  0.500000000000E+01
  0.000000000000E+00  0.440672136512E+00  0.000000000000E+00  0.474618025820E+00  0.460125068601E+00  0.468639320143E+00  0.000000000000E+00
  0.000000000000E+00  0.402534623939E+00  0.469886789982E+00  0.464193107367E+00  0.478749739491E+00  0.489555756507E+00  0.483130037990E+00
  0.488002902366E+00  0.489035017215E+00  0.000000000000E+00  0.465237698331E+00  0.473759127176E+00  0.495364848064E+00  0.490293257191E+00
  0.486276632093E+00  0.445850265191E+00  0.464356446519E+00  0.496127940578E+00  0.443891909404E+00  0.486928147025E+00  0.497248366859E+00
  0.496055083747E+00  0.467740399690E+00  0.488187228171E+00  0.495089980244E+00
  0.999990300362E+00  0.102982970104E+01  0.999990762612E+00  0.104241436388E+01  0.101187663318E+01  0.102516400612E+01  0.999991420552E+00
  0.999992171067E+00  0.103882325429E+01  0.100825795511E+01  0.101253536096E+01  0.100301645575E+01  0.102705594255E+01  0.100604114309E+01
  0.100244532432E+01  0.100354817652E+01  0.999992724186E+00  0.103209991946E+01  0.100459425771E+01  0.100178625606E+01  0.100260326526E+01
  0.100234745937E+01  0.101657167924E+01  0.100620610961E+01  0.100168369530E+01  0.104025009063E+01  0.100303477791E+01  0.100118721261E+01
  0.100134451878E+01  0.100976460100E+01  0.100405634212E+01  0.100176433139E+01
  0.606291896062E-02  0.287431469395E-01  0.702987202243E-02  0.475257896044E-01  0.543539896337E-02  0.581840068477E-01  0.510281148628E-02
  0.162806480737E-02  0.573205796595E-01  0.112705646252E-03  0.638458945259E-02 -0.694260168653E-02  0.562382913969E-02 -0.371063733859E-02
 -0.144904104140E-01 -0.104422530032E-01  0.295577603531E-02  0.368467103484E-01 -0.423812260706E-02 -0.263377834280E-01 -0.178432585280E-01
 -0.123967908022E-01  0.294940991489E-02 -0.376232823241E-02 -0.285034504827E-01  0.239163418954E-01 -0.100060549955E-01 -0.291669248912E-01
 -0.290842031449E-01 -0.166378688502E-02 -0.823460552919E-02 -0.295911278141E-01
  0.236195188892E-03  0.415757537900E-02  0.348995726978E-03  0.601290205048E-02  0.603790956980E-03  0.858810205881E-02  0.357603360401E-03
  0.315810105811E-03  0.838501571875E-02 -0.442996841448E-03  0.910790687906E-03 -0.156713570504E-02  0.430848499170E-03 -0.120942477260E-02
 -0.308110926446E-02 -0.246694833695E-02  0.273896561184E-03  0.567195504828E-02 -0.894176442479E-03 -0.504789197392E-02 -0.374915446858E-02
 -0.263692593163E-02  0.544502918933E-04 -0.802036297299E-03 -0.576022860476E-02  0.294118365432E-02 -0.217969229451E-02 -0.595281609617E-02
 -0.591006750475E-02 -0.541029914324E-03 -0.184587474193E-02 -0.596799655300E-02
  0.392295156726E-03  0.121938654346E-03  0.526338806998E-03  0.124358484615E-02  0.220869165977E-03  0.771573951782E-03  0.489752111468E-03
 -0.162848262655E-03  0.691275422305E-05 -0.111705782462E-04  0.121046829417E-03  0.155146024733E-03 -0.201691159527E-03  0.799367717527E-04
 -0.692906402236E-04 -0.181808763523E-04 -0.243503541486E-03 -0.857724898481E-03 -0.231573017181E-04 -0.203242421791E-04 -0.338982593755E-04
  0.828334030149E-05 -0.664916876195E-04 -0.140178018001E-03 -0.370401348106E-04 -0.992994504321E-04 -0.240967917021E-04 -0.480418733129E-05
 -0.373157538424E-04 -0.155818480995E-04  0.104152176112E-04  0.142695894791E-04
 -0.145959115014E-02 -0.155452188906E-02 -0.161062484238E-02 -0.601436963067E-04  0.138140021738E-02  0.159210848816E-02 -0.889326307718E-03
 -0.748389116980E-03  0.111958271885E-02  0.140997109600E-02  0.302964455445E-02  0.174565317885E-02  0.324143074017E-02  0.152410967147E-02
  0.101105584221E-02  0.125120379123E-02 -0.592214256413E-03  0.938955136220E-03  0.199729250866E-02  0.407571768368E-03  0.832419473392E-03
  0.114644730856E-02  0.219008185591E-02  0.159012015600E-02  0.286670095875E-03  0.120083980192E-02  0.105177074540E-02  0.254452865834E-03
  0.335765028993E-03  0.172061844965E-02  0.109979842899E-02  0.394547032039E-03
 -0.481996114111E-02 -0.118484591767E-01 -0.668769095068E-02 -0.189967541095E-01 -0.226557945100E-02 -0.241329816572E-01  0.366651881992E-03
  0.114293607955E-02 -0.238079784963E-01 -0.745412266709E-04 -0.275418775198E-02  0.272297654482E-02 -0.241994247548E-02  0.146876152894E-02
  0.596792900280E-02  0.427155678793E-02 -0.957663065934E-03 -0.154089741459E-01  0.153149473097E-02  0.108009304644E-01  0.738841924194E-02
  0.508912272705E-02 -0.135201867611E-02  0.133237057596E-02  0.118036057097E-01 -0.975026973806E-02  0.407134607976E-02  0.120971903338E-01
  0.120330433125E-01  0.505915021543E-03  0.331778636380E-02  0.122215438923E-01
        12        19        11        11
        11         5        12        12
        10        14         5         5
        19        13        11        11
        19        24        13        13
        30        23        24        24
        19        12        22        22
        28        22        21        21
        11        13         6         6
         7         6         9         9
        15        12        14        14
        18        13        23        23
        15        25        21        21
        27        19        22        22
        18         8         9         9
        27        31        24        24
         4        11         6         6
         5        14        12        12
         4         2         5         5
        21        12        15        15
        14        16        15        15
        24        19        27        27
        22        29        27        27
        23        26        18        18
        17         8        18        18
         5        11         4         4
         6         3         4         4
        26        23        30        30
         5         2        10        10
        16        14        10        10
         3         6         7         7
        21        25        28        28
        29        22        28        28
         6        13         9         9
         2         4         1         1
        31        27        32        32
        25        15        20        20
        24        23        13        13
         8         7         9         9
        13        18         9         9
        31        30        24        24
        12        21        22        22
        29        32        27        27
         3         1         4         4
        26        17        18        18
        16        20        15        15
zone t="boundary 2 bc-2", solutiontime= 0.2000000E+02, strandid=1002, i=33, j=48, f=feblock
  0.500195253374E+01  0.375034811161E+01  0.249861146299E+01  0.288036674177E+01  0.124717526933E+01  0.190856698521E+01  0.326577190273E+01
  0.201394856120E+01 -0.338395986572E-02  0.962374249381E+00  0.500000000000E+01  0.403430190008E+01  0.423029563807E+01  0.500000000000E+01
  0.385439188940E+01  0.500000000000E+01  0.398133433176E+01  0.315200081417E+01  0.266958028869E+01  0.154798029824E+01  0.218327860466E+01
  0.893688440338E+00  0.000000000000E+00  0.699009761768E+00  0.964460899052E+00  0.310303671659E+01  0.000000000000E+00  0.000000000000E+00
  0.125000000000E+01  0.500000000000E+01  0.375000000000E+01  0.250000000000E+01  0.000000000000E+00
 -0.249658903664E+01 -0.249658903664E+01 -0.249658903664E+01 -0.249658903664E+01 -0.249658903664E+01 -0.249658903664E+01 -0.249658903664E+01
 -0.249658903664E+01 -0.249658903664E+01 -0.249658903664E+01 -0.249658903664E+01 -0.249658903664E+01 -0.249658903664E+01 -0.249658903664E+01
 -0.249658903664E+01 -0.249658903664E+01 -0.249658903664E+01 -0.249658903664E+01 -0.249658903664E+01 -0.249658903664E+01 -0.249658903664E+01
 -0.249658903664E+01 -0.249658903664E+01 -0.249658903664E+01 -0.249658903664E+01 -0.249658903664E+01 -0.249658903664E+01 -0.249658903664E+01
 -0.249658903664E+01 -0.249658903664E+01 -0.249658903664E+01 -0.249658903664E+01 -0.249658903664E+01
  0.108225889030E-03  0.145875369682E-03  0.100893326425E-03  0.901663374396E+00  0.110858761917E-03  0.714928318829E+00  0.188140648011E+01
  0.175892165504E+01  0.810725962649E-04  0.957504300331E+00  0.125000000000E+01  0.100596698996E+01  0.191313519089E+01  0.250000000000E+01
  0.292898096716E+01  0.375000000000E+01  0.406883369524E+01  0.363389289944E+01  0.284756860985E+01  0.292582308120E+01  0.395754054931E+01
  0.205027256979E+01  0.125000000000E+01  0.306703272692E+01  0.397155766662E+01  0.433068622168E+01  0.250000000000E+01  0.375000000000E+01
  0.500000000000E+01  0.500000000000E+01  0.500000000000E+01  0.500000000000E+01  0.500000000000E+01
  0.000000000000E+00  0.000000000000E+00  0.000000000000E+00  0.380534933893E+00  0.000000000000E+00  0.343213081171E+00  0.585244496925E+00
  0.579499344205E+00  0.000000000000E+00  0.500959578913E+00  0.508769460148E+00  0.434312419771E+00  0.572817919451E+00  0.537160208080E+00
  0.569105645782E+00  0.515014970171E+00  0.508256765061E+00  0.527354036988E+00  0.567656182489E+00  0.531857069084E+00  0.506013391179E+00
  0.521044573739E+00  0.443891909404E+00  0.490703078146E+00  0.492147926412E+00  0.501388000320E+00  0.467740399690E+00  0.488187228171E+00
  0.489959820989E+00  0.491323935798E+00  0.486019442841E+00  0.489980976742E+00  0.495089980244E+00
  0.999993488485E+00  0.999993690942E+00  0.999993544242E+00  0.989596674085E+00  0.999993139053E+00  0.985604091028E+00  0.989839488847E+00
  0.991730617690E+00  0.999992724186E+00  0.984220387528E+00  0.985139981863E+00  0.984817712566E+00  0.990066477090E+00  0.100292374828E+01
  0.999857731400E+00  0.100487268684E+01  0.100122724769E+01  0.100056983810E+01  0.997888256964E+00  0.100350942201E+01  0.100059365414E+01
  0.101090707434E+01  0.104025009063E+01  0.100327959733E+01  0.100254952730E+01  0.100046804572E+01  0.100976460100E+01  0.100405634212E+01
  0.100192626091E+01  0.100045827286E+01  0.100058947226E+01  0.100110091494E+01  0.100176433139E+01
 -0.247046634544E-02 -0.196457536168E-02 -0.115299960755E-02  0.245752235463E-01  0.227413508800E-02  0.743628237654E-01 -0.473274211106E-02
  0.149911872593E-02  0.295577603531E-02  0.355461165833E-01 -0.677289749517E-02 -0.578772599492E-02 -0.544179434672E-02 -0.438036695148E-02
 -0.325589165952E-02 -0.292467773707E-02 -0.223403261874E-02 -0.262754146641E-02 -0.401345102847E-02 -0.529246754369E-02 -0.345457582450E-02
  0.195746643798E-02  0.239163418954E-01 -0.170606214168E-02 -0.580502826972E-02 -0.440494779850E-02 -0.166378688502E-02 -0.823460552919E-02
 -0.301559077916E-01 -0.348635122739E-02 -0.134866490731E-01 -0.251947623867E-01 -0.295911278141E-01
  0.676582333542E-03 -0.184235793565E-03  0.271217151507E-04  0.422258507620E-02 -0.410919325707E-03  0.925281526687E-02  0.288688806279E-04
 -0.213170013987E-03  0.273896561184E-03  0.428369346780E-02  0.142907708319E-02  0.418569951768E-03  0.674193072424E-03  0.113001698203E-02
  0.754221579982E-03  0.696523552208E-03  0.810130314430E-03  0.672752844530E-03  0.307739017707E-03 -0.497983690213E-03  0.200368933232E-03
 -0.643656532330E-04  0.294118365432E-02  0.833305892525E-04 -0.802367120069E-03  0.292262824467E-03 -0.541029914324E-03 -0.184587474193E-02
 -0.530311954065E-02  0.171984068179E-03 -0.135262445040E-02 -0.378591364395E-02 -0.596799655300E-02
 -0.160364289768E-03  0.361473045106E-04  0.234939557598E-03  0.560237142979E-03  0.122477872277E-03  0.955596877184E-03 -0.713000905230E-04
  0.106896304330E-04 -0.243503541486E-03  0.386323151998E-03 -0.883582140758E-04 -0.270281789761E-03  0.255240159764E-05  0.850453616085E-05
  0.706394668065E-05 -0.126128274484E-04  0.290509223620E-05 -0.171752524477E-05  0.168021158836E-04  0.249739482880E-04 -0.179440263246E-04
  0.414089030002E-04 -0.992994504321E-04  0.163775533513E-04 -0.707139308945E-05 -0.566251988586E-05 -0.155818480995E-04  0.104152176112E-04
 -0.121226556166E-04 -0.116154044010E-05  0.554640876430E-06 -0.180967810604E-05  0.142695894791E-04
 -0.196876550007E-03 -0.205112446218E-03 -0.318801097894E-03  0.949615507807E-03 -0.695079477387E-03  0.159411040120E-03  0.154117393350E-02
  0.204691669703E-02 -0.592214256413E-03  0.936512837807E-03  0.294962304405E-03  0.992466542483E-03  0.625998405905E-03  0.281739092327E-03
  0.648063862310E-03  0.240571702903E-03  0.623994748869E-03  0.892401596612E-03  0.104615410255E-02  0.113137672419E-02  0.983571386895E-03
  0.154382934695E-02  0.120083980192E-02  0.117425584419E-02  0.997809969906E-03  0.835988026137E-03  0.172061844965E-02  0.109979842899E-02
  0.693649513641E-03  0.373501572202E-03  0.798528013752E-03  0.878545472697E-03  0.394547032039E-03
  0.689304397051E-03  0.196524156670E-02  0.337192232692E-02 -0.111793425345E-01  0.410456977559E-02 -0.318982489632E-01  0.136433033009E-02
 -0.740538844326E-03 -0.957663065934E-03 -0.147587634933E-01  0.151422960514E-02  0.152014499541E-02  0.139629598361E-02  0.835025899518E-03
  0.637136536109E-03  0.586263690651E-03  0.325958263901E-03  0.501857815858E-03  0.107095465823E-02  0.182411983343E-02  0.965149105158E-03
 -0.903090125416E-03 -0.975026973806E-02  0.384393508681E-03  0.213589857676E-02  0.128039625435E-02  0.505915021543E-03  0.331778636380E-02
  0.122416922147E-01  0.105510180915E-02  0.506530660540E-02  0.997859730132E-02  0.122215438923E-01
        15         7        19        19
         8        20        19        19
        18        19        21        21
         7         4         8         8
         3         6         4         4
        19         7         8         8
        19        18        15        15
        14        13        15        15
         8        22        20        20
        27        24        22        22
        19        20        21        21
        32        26        21        21
        17        18        26        26
        17        16        15        15
        25        29        21        21
        12         7        13        13
        10         8         6         6
        25        20        24        24
         4         6         8         8
        12         2         4         4
        10        23        22        22
        26        31        17        17
        30        16        17        17
         4         7        12        12
        13        11        12        12
        21        20        25        25
        24        28        25        25
        22         8        10        10
         6         5        10        10
        31        26        32        32
         4         2         3         3
         5         6         3         3
        11        13        14        14
        22        23        27        27
        28        24        27        27
        15        13         7         7
         2        12         1         1
        29        25        33        33
        23        10         9         9
        21        26        18        18
        16        14        15        15
        18        17        15        15
        29        32        21        21
        22        24        20        20
        28        33        25        25
        11         1        12        12
        31        30        17        17
         5         9        10        10
zone t="boundary 3 bc-3", solutiontime= 0.2000000E+02, strandid=1003, i=33, j=48, f=feblock
  0.375059096892E+01  0.249769609313E+01  0.500322133174E+01  0.403612218725E+01  0.287976772365E+01  0.124541910518E+01  0.190552237404E+01
  0.500000000000E+01  0.326671104552E+01  0.423253755448E+01  0.201271136506E+01 -0.547468544169E-02  0.958895643487E+00  0.500000000000E+01
  0.266968147299E+01  0.385584487271E+01  0.890374214836E+00  0.154654013699E+01  0.000000000000E+00  0.500000000000E+01  0.315261136744E+01
  0.218304199515E+01  0.398195307895E+01  0.000000000000E+00  0.697379952124E+00  0.963757277315E+00  0.125000000000E+01  0.000000000000E+00
  0.500000000000E+01  0.310330738524E+01  0.250000000000E+01  0.375000000000E+01  0.000000000000E+00
  0.250494197117E+01  0.250494197117E+01  0.250494197117E+01  0.250494197117E+01  0.250494197117E+01  0.250494197117E+01  0.250494197117E+01
  0.250494197117E+01  0.250494197117E+01  0.250494197117E+01  0.250494197117E+01  0.250494197117E+01  0.250494197117E+01  0.250494197117E+01
  0.250494197117E+01  0.250494197117E+01  0.250494197117E+01  0.250494197117E+01  0.250494197117E+01  0.250494197117E+01  0.250494197117E+01
  0.250494197117E+01  0.250494197117E+01  0.250494197117E+01  0.250494197117E+01  0.250494197117E+01  0.250494197117E+01  0.250494197117E+01
  0.250494197117E+01  0.250494197117E+01  0.250494197117E+01  0.250494197117E+01  0.250494197117E+01
  0.135649900494E-03  0.110129816467E-03  0.966887303890E-04  0.101756752009E+01  0.908094589218E+00  0.103942505801E-03  0.722629083213E+00
  0.125000000000E+01  0.188965661746E+01  0.191862696980E+01  0.176708239098E+01  0.803813859867E-04  0.969652551954E+00  0.250000000000E+01
  0.285339433501E+01  0.293325058812E+01  0.205656223819E+01  0.293157016932E+01  0.125000000000E+01  0.375000000000E+01  0.363766838842E+01
  0.396069444983E+01  0.407056385475E+01  0.250000000000E+01  0.307031995245E+01  0.397359820314E+01  0.500000000000E+01  0.375000000000E+01
  0.500000000000E+01  0.433260781310E+01  0.500000000000E+01  0.500000000000E+01  0.500000000000E+01
  0.000000000000E+00  0.000000000000E+00  0.000000000000E+00  0.444961626928E+00  0.402838316190E+00  0.000000000000E+00  0.379029001549E+00
  0.508827846411E+00  0.575719767468E+00  0.573484231916E+00  0.562571091033E+00  0.000000000000E+00  0.491643474339E+00  0.534340493553E+00
  0.556353506125E+00  0.564141623675E+00  0.522489639030E+00  0.521815314100E+00  0.440672136512E+00  0.517132480923E+00  0.524064820256E+00
  0.503612613683E+00  0.509416634110E+00  0.469886789982E+00  0.495646532245E+00  0.494503101969E+00  0.488630053423E+00  0.489035017215E+00
  0.492985464012E+00  0.498953669977E+00  0.486505314975E+00  0.484610387305E+00  0.495364848064E+00
  0.999989345567E+00  0.999989414891E+00  0.999989632591E+00  0.981375695393E+00  0.988672653297E+00  0.999989832933E+00  0.982271891095E+00
  0.984075644303E+00  0.990406052732E+00  0.990320090376E+00  0.994390331428E+00  0.999990300362E+00  0.988743428079E+00  0.100365390733E+01
  0.999774597300E+00  0.100117529834E+01  0.100830077599E+01  0.100251293722E+01  0.102982970104E+01  0.100442054131E+01  0.100199281310E+01
  0.100081994749E+01  0.100137956774E+01  0.100825795511E+01  0.100297377722E+01  0.100191712118E+01  0.100214790177E+01  0.100354817652E+01
  0.100047567419E+01  0.100056574043E+01  0.100126719373E+01  0.100066769089E+01  0.100178625606E+01
 -0.162326162385E-02  0.118586260007E-02 -0.282410166960E-02  0.168380438889E-01  0.568098382086E-01  0.372969377765E-02  0.568471101803E-01
 -0.995602326426E-02 -0.407857800167E-02 -0.624546585930E-02  0.966471454740E-02  0.606291896062E-02  0.386465144407E-01 -0.457031658392E-02
 -0.554368910401E-02 -0.384227277177E-02  0.706009095068E-03 -0.476064413966E-02  0.287431469395E-01 -0.310465837507E-02 -0.253119489588E-02
 -0.275176809497E-02 -0.234835009451E-02  0.112705646252E-03 -0.312399690490E-02 -0.837951633198E-02 -0.290560307482E-01 -0.104422530032E-01
 -0.289967350328E-02 -0.404236873115E-02 -0.234202474499E-01 -0.133762909252E-01 -0.263377834280E-01
 -0.373016586037E-03 -0.328038112911E-03  0.676060720117E-03  0.464000029432E-02  0.780173366023E-02 -0.797281878725E-03  0.691280217814E-02
  0.149932757442E-02  0.381122789846E-04  0.774504389151E-03  0.144551957156E-03  0.236195188892E-03  0.277465201565E-02  0.121520327468E-02
 -0.170735461169E-03  0.615614820145E-03 -0.110797503203E-02 -0.548429130045E-03  0.415757537900E-02  0.771974157797E-03  0.636510029338E-03
  0.353513257449E-03  0.771520511146E-03 -0.442996841448E-03 -0.868712706920E-03 -0.124927291289E-02 -0.503002615587E-02 -0.246694833695E-02
  0.291663121209E-03  0.311970390973E-03 -0.344687661058E-02 -0.136521752404E-02 -0.504789197392E-02
 -0.724392689181E-04  0.406388337086E-04  0.871645170931E-04 -0.300683777697E-03 -0.814409955964E-03  0.338117006722E-03  0.372362038601E-06
  0.266291155034E-05 -0.947324583706E-04  0.191775650284E-04 -0.684812609720E-04  0.392295156726E-03  0.461987602978E-03  0.355313228151E-04
 -0.608216179588E-05  0.300471682314E-05 -0.174461871397E-03 -0.597903558697E-04  0.121938654346E-03  0.185642237410E-04  0.861375852639E-05
  0.368805177686E-04  0.564994788674E-06 -0.111705782462E-04 -0.457688218690E-04  0.986944063338E-05  0.305138552536E-04 -0.181808763523E-04
  0.606597440690E-05  0.457388339602E-05  0.476175211237E-05  0.198755786076E-05 -0.203242421791E-04
 -0.474175932894E-03 -0.822398987418E-03 -0.228533666227E-03  0.536154416235E-03  0.973129259564E-03 -0.808076862781E-03  0.345603218689E-03
  0.398512898176E-03  0.190905960380E-02  0.941403572852E-03  0.266511662161E-02 -0.145959115014E-02  0.782605818015E-03  0.366578616971E-03
  0.993909362377E-03  0.820792817083E-03  0.214787004473E-02  0.107918358183E-02 -0.155452188906E-02  0.333625283713E-03  0.934344699056E-03
  0.936883921835E-03  0.711428077424E-03  0.140997109600E-02  0.142787841640E-02  0.985788674746E-03  0.701834152297E-03  0.125120379123E-02
  0.354932329850E-03  0.870708578143E-03  0.879978479084E-03  0.798584503328E-03  0.407571768368E-03
  0.698330613652E-02  0.307107468546E-02  0.136198198565E-02 -0.864594104067E-02 -0.246427785388E-01  0.252417530034E-03 -0.238640901197E-01
  0.260120187929E-02  0.117900271278E-02  0.165132226367E-02 -0.377402820424E-02 -0.481996114111E-02 -0.151795740899E-01  0.850588247684E-03
  0.178676841132E-02  0.883618106146E-03 -0.185077726459E-03  0.163501967158E-02 -0.118484591767E-01  0.602574492820E-03  0.475613706962E-03
  0.662468205366E-03  0.375180287214E-03 -0.745412266709E-04  0.108561755295E-02  0.320538595596E-02  0.117691936195E-01  0.427155678793E-02
  0.807782060958E-03  0.114115226597E-02  0.924136726836E-02  0.502364035228E-02  0.108009304644E-01
        15         9        16        16
        15        18        11        11
        22        15        21        21
        11         5         9         9
         5         7         2         2
        11         9        15        15
        16        21        15        15
        16        10        14        14
        18        17        11        11
        17        25        24        24
        22        18        15        15
        22        30        31        31
        30        21        23        23
        16        20        23        23
        22        27        26        26
        10         9         4         4
         7        11        13        13
        25        18        26        26
        11         7         5         5
         5         1         4         4
        17        19        13        13
        23        32        30        30
        23        20        29        29
         4         9         5         5
         4         8        10        10
        26        18        22        22
        26        28        25        25
        13        11        17        17
        13         6         7         7
        31        30        32        32
         2         1         5         5
         2         7         6         6
        14        10         8         8
        24        19        17        17
        24        25        28        28
         9        10        16        16
         3         4         1         1
        33        26        27        27
        12        13        19        19
        21        30        22        22
        16        14        20        20
        16        23        21        21
        22        31        27        27
        18        25        17        17
        26        33        28        28
         4         3         8         8
        23        29        32        32
        13        12         6         6
zone t="boundary 4 bc-4", solutiontime= 0.2000000E+02, strandid=1004, i=32, j=46, f=feblock
  0.125000000000E+01  0.219251206392E+01  0.103724302461E+01  0.500000000000E+01  0.250000000000E+01  0.375000000000E+01  0.404200324774E+01
  0.500000000000E+01  0.000000000000E+00  0.310152362409E+01  0.202479342020E+01  0.324151231464E+01  0.922061490191E+00  0.000000000000E+00
  0.299062775774E+01  0.394624082883E+01  0.500000000000E+01  0.409252726285E+01  0.500000000000E+01  0.429310310915E+01  0.175434191980E+01
  0.284428995242E+01  0.000000000000E+00  0.000000000000E+00  0.715990576545E+00  0.930412228790E+00  0.125000000000E+01  0.187029682677E+01
  0.500000000000E+01  0.375000000000E+01  0.250000000000E+01  0.000000000000E+00
  0.250494197117E+01  0.157686156160E+01  0.146289271009E+01  0.250494197117E+01  0.250494197117E+01  0.250494197117E+01  0.155830813274E+01
  0.125000000000E+01  0.250494197117E+01  0.177790177481E+01  0.477386199275E+00  0.742988685424E+00  0.308372018325E+00  0.125000000000E+01
 -0.487811078581E+00 -0.144524380962E+01 -0.125000000000E+01 -0.345533899378E+00  0.000000000000E+00  0.627766083140E+00 -0.739814786992E+00
 -0.158811787973E+01  0.000000000000E+00 -0.125000000000E+01 -0.600232012419E+00 -0.154800130438E+01 -0.249658903664E+01 -0.178862290564E+01
 -0.249658903664E+01 -0.249658903664E+01 -0.249658903664E+01 -0.249658903664E+01
  0.500000000000E+01  0.500000000000E+01  0.500000000000E+01  0.500000000000E+01  0.500000000000E+01  0.500000000000E+01  0.500000000000E+01
  0.500000000000E+01  0.500000000000E+01  0.500000000000E+01  0.500000000000E+01  0.500000000000E+01  0.500000000000E+01  0.500000000000E+01
  0.500000000000E+01  0.500000000000E+01  0.500000000000E+01  0.500000000000E+01  0.500000000000E+01  0.500000000000E+01  0.500000000000E+01
  0.500000000000E+01  0.500000000000E+01  0.500000000000E+01  0.500000000000E+01  0.500000000000E+01  0.500000000000E+01  0.500000000000E+01
  0.500000000000E+01  0.500000000000E+01  0.500000000000E+01  0.500000000000E+01
  0.488630053423E+00  0.488907200673E+00  0.490613524454E+00  0.492985464012E+00  0.486505314975E+00  0.484610387305E+00  0.485346346417E+00
  0.494164094826E+00  0.495364848064E+00  0.486544301825E+00  0.487826539497E+00  0.487053944491E+00  0.494057895498E+00  0.496127940578E+00
  0.487590739712E+00  0.483169495133E+00  0.492384717662E+00  0.487198320547E+00  0.494738341209E+00  0.487947262281E+00  0.489650836219E+00
  0.487975047811E+00  0.497248366859E+00  0.496055083747E+00  0.494947818077E+00  0.492777844524E+00  0.489959820989E+00  0.489963118744E+00
  0.491323935798E+00  0.486019442841E+00  0.489980976742E+00  0.495089980244E+00
  0.100214790177E+01  0.100152376261E+01  0.100177920363E+01  0.100047567419E+01  0.100126719373E+01  0.100066769089E+01  0.100025509248E+01
  0.100050308878E+01  0.100178625606E+01  0.100112381228E+01  0.100132857256E+01  0.100072299640E+01  0.100164084009E+01  0.100168369530E+01
  0.100096380429E+01  0.100001109262E+01  0.100083219162E+01  0.100022379580E+01  0.100062130449E+01  0.100023379273E+01  0.100174737467E+01
  0.100099023681E+01  0.100118721261E+01  0.100134451878E+01  0.100132726122E+01  0.100179980273E+01  0.100192626091E+01  0.100163810987E+01
  0.100045827286E+01  0.100058947226E+01  0.100110091494E+01  0.100176433139E+01
 -0.290560307482E-01 -0.244679877791E-01 -0.259395128014E-01 -0.289967350328E-02 -0.234202474499E-01 -0.133762909252E-01 -0.909488960236E-02
 -0.292680718689E-02 -0.263377834280E-01 -0.198451254293E-01 -0.271739211930E-01 -0.190201382194E-01 -0.283109564610E-01 -0.285034504827E-01
 -0.210143882298E-01 -0.872770908472E-02 -0.338020872619E-02 -0.113698184655E-01 -0.270036428294E-02 -0.110968225167E-01 -0.328684699200E-01
 -0.192479431473E-01 -0.291669248912E-01 -0.290842031449E-01 -0.341564368550E-01 -0.291473590939E-01 -0.301559077916E-01 -0.294345328962E-01
 -0.348635122739E-02 -0.134866490731E-01 -0.251947623867E-01 -0.295911278141E-01