# vtk DataFile Version 2.0
FUN3D:global_image_vtk
ASCII
DATASET UNSTRUCTURED_GRID
POINTS 213 double
   -0.5474685441687832E-02    0.2504941971167291E+01    0.8038138598670525E-04
    0.1245419105183472E+01    0.2504941971167291E+01    0.1039425058013133E-03
    0.2497696093128780E+01    0.2504941971167291E+01    0.1101298164665757E-03
    0.3750590968915824E+01    0.2504941971167291E+01    0.1356499004941392E-03
    0.5003221331742151E+01    0.2504941971167291E+01    0.9668873038898301E-04
    0.5004676687979097E+01    0.1281291202167040E+01    0.1638053019384359E-03
    0.5004772673778115E+01    0.2775079906482894E-01    0.1903478008447576E-03
    0.5003581183341212E+01   -0.1225853508883530E+01    0.1607765204486580E-03
    0.5001952533742191E+01   -0.2496589036641631E+01    0.1082258890302555E-03
    0.3750348111606544E+01   -0.2496589036641631E+01    0.1458753696815807E-03
    0.2498611462994928E+01   -0.2496589036641631E+01    0.1008933264248224E-03
    0.1247175269333276E+01   -0.2496589036641631E+01    0.1108587619169655E-03
   -0.3383959865719266E-02   -0.2496589036641631E+01    0.8107259626488611E-04
   -0.4257768979765597E-02   -0.1225734811642590E+01    0.3415458742295202E-04
   -0.5251592448509257E-02    0.2619486024420451E-01    0.1038724387187881E-03
   -0.5676060312426845E-02    0.1278221569065707E+01    0.8224601702150348E-04
    0.9003209617952581E+00    0.1608979112280158E+01    0.8704140727666723E-04
    0.3983172210692289E+01   -0.1561211904840279E+01    0.1757116720370596E-03
    0.4035602039224469E+01    0.1486760030415520E+01    0.1713312862106636E-03
    0.1036613723302902E+01   -0.1455626429916848E+01    0.1047189301532914E-03
    0.1094353480630802E+01   -0.2964622010671852E+00    0.1260590236917275E-03
    0.7298400267480001E+00    0.6874684746719117E+00    0.1044598640544963E-03
    0.1617018659308944E+01    0.8553208024939369E+00    0.1529810904974396E-03
    0.2143199662875790E+01   -0.1627128509216731E+01    0.1606170425226814E-03
    0.4088840445400889E+01   -0.4351047825936264E+00    0.2719933294109134E-03
    0.2977916511248925E+01   -0.8334991483094500E+00    0.2245596931860774E-03
    0.3044093241383418E+01   -0.1814361225108581E+01    0.1617000112420494E-03
    0.3427866614805211E+01    0.3813904839972491E+00    0.2936955483422434E-03
    0.4313225355351749E+01    0.5489133376342501E+00    0.2313009573592373E-03
    0.1823032737597358E+01    0.1771265193544254E+01    0.1836202887151583E-03
    0.2806311152168375E+01    0.1358629373600680E+01    0.1943492163983820E-03
    0.1891860875936711E+01   -0.8481310365607546E+00    0.1670645501816170E-03
    0.2268769200166909E+01    0.7723691819196567E-01    0.2072307783085873E-03
    0.5000000000000000E+01    0.2504941971167291E+01    0.1250000000000000E+01
    0.5000000000000000E+01    0.2504941971167291E+01    0.2500000000000000E+01
    0.5000000000000000E+01    0.2504941971167291E+01    0.3750000000000000E+01
    0.5000000000000000E+01    0.2504941971167291E+01    0.5000000000000000E+01
    0.3750000000000000E+01    0.2504941971167291E+01    0.5000000000000000E+01
    0.2500000000000000E+01    0.2504941971167291E+01    0.5000000000000000E+01
    0.1250000000000000E+01    0.2504941971167291E+01    0.5000000000000000E+01
    0.0000000000000000E+00    0.2504941971167291E+01    0.5000000000000000E+01
    0.0000000000000000E+00    0.2504941971167291E+01    0.3750000000000000E+01
    0.0000000000000000E+00    0.2504941971167291E+01    0.2500000000000000E+01
    0.0000000000000000E+00    0.2504941971167291E+01    0.1250000000000000E+01
    0.9588956434871094E+00    0.2504941971167291E+01    0.9696525519543870E+00
    0.3981953078951402E+01    0.2504941971167291E+01    0.4070563854751271E+01
    0.4036122187252336E+01    0.2504941971167291E+01    0.1017567520094671E+01
    0.9637572773153890E+00    0.2504941971167291E+01    0.3973598203142229E+01
    0.1546540136992396E+01    0.2504941971167291E+01    0.2931570169315600E+01
    0.6973799521244313E+00    0.2504941971167291E+01    0.3070319952453756E+01
    0.8903742148356883E+00    0.2504941971167291E+01    0.2056562238187738E+01
    0.2183041995146012E+01    0.2504941971167291E+01    0.3960694449828019E+01
    0.3855844872709870E+01    0.2504941971167291E+01    0.2933250588118630E+01
    0.3152611367438029E+01    0.2504941971167291E+01    0.3637668388416195E+01
    0.3103307385241870E+01    0.2504941971167291E+01    0.4332607813099731E+01
    0.3266711045517939E+01    0.2504941971167291E+01    0.1889656617463738E+01
    0.4232537554484796E+01    0.2504941971167291E+01    0.1918626969802351E+01
    0.1905522374036519E+01    0.2504941971167291E+01    0.7226290832134606E+00
    0.2879767723645805E+01    0.2504941971167291E+01    0.9080945892181979E+00
    0.2012711365064515E+01    0.2504941971167291E+01    0.1767082390977754E+01
    0.2669681472994637E+01    0.2504941971167291E+01    0.2853394335010791E+01
    0.5000000000000000E+01    0.1250000000000000E+01    0.5000000000000000E+01
    0.5000000000000000E+01    0.0000000000000000E+00    0.5000000000000000E+01
    0.5000000000000000E+01   -0.1250000000000000E+01    0.5000000000000000E+01
    0.5000000000000000E+01   -0.2496589036641631E+01    0.5000000000000000E+01
    0.5000000000000000E+01   -0.2496589036641631E+01    0.3750000000000000E+01
    0.5000000000000000E+01   -0.2496589036641631E+01    0.2500000000000000E+01
    0.5000000000000000E+01   -0.2496589036641631E+01    0.1250000000000000E+01
    0.5000000000000000E+01    0.1578994732800803E+01    0.9058375365086910E+00
    0.5000000000000000E+01   -0.1583989954232354E+01    0.3982050490726493E+01
    0.5000000000000000E+01    0.1453322699199022E+01    0.4033849428301197E+01
    0.5000000000000000E+01   -0.1479596339503735E+01    0.1040505887381675E+01
    0.5000000000000000E+01   -0.3227322616384110E+00    0.1099454400140349E+01
    0.5000000000000000E+01    0.6593508822075582E+00    0.7354504170366591E+00
    0.5000000000000000E+01    0.8256214013940779E+00    0.1622302608453282E+01
    0.5000000000000000E+01   -0.1650070333782557E+01    0.2145871574390382E+01
    0.5000000000000000E+01   -0.4612828702537229E+00    0.4086422318222992E+01
    0.5000000000000000E+01   -0.8579242121530853E+00    0.2979540174134984E+01
    0.5000000000000000E+01   -0.1836846154397680E+01    0.3045064261640043E+01
    0.5000000000000000E+01    0.3508002863614053E+00    0.3428197553792836E+01
    0.5000000000000000E+01    0.5185680230613409E+00    0.4309693860063405E+01
    0.5000000000000000E+01    0.1738996113203182E+01    0.1827272193562204E+01
    0.5000000000000000E+01    0.1325493893339706E+01    0.2808563282768077E+01
    0.5000000000000000E+01   -0.8731419609589618E+00    0.1895995683864404E+01
    0.5000000000000000E+01    0.4906150219227333E-01    0.2273179336307740E+01
    0.0000000000000000E+00    0.1250000000000000E+01    0.5000000000000000E+01
    0.0000000000000000E+00    0.0000000000000000E+00    0.5000000000000000E+01
    0.0000000000000000E+00   -0.1250000000000000E+01    0.5000000000000000E+01
    0.0000000000000000E+00   -0.2496589036641631E+01    0.5000000000000000E+01
    0.1250000000000000E+01   -0.2496589036641631E+01    0.5000000000000000E+01
    0.2500000000000000E+01   -0.2496589036641631E+01    0.5000000000000000E+01
    0.3750000000000000E+01   -0.2496589036641631E+01    0.5000000000000000E+01
    0.4042003247744892E+01    0.1558308132739014E+01    0.5000000000000000E+01
    0.9304122287900499E+00   -0.1548001304379777E+01    0.5000000000000000E+01
    0.1037243024609388E+01    0.1462892710085612E+01    0.5000000000000000E+01
    0.3946240828834967E+01   -0.1445243809615570E+01    0.5000000000000000E+01
    0.4092527262848217E+01   -0.3455338993778935E+00    0.5000000000000000E+01
    0.4293103109154542E+01    0.6277660831404320E+00    0.5000000000000000E+01
    0.3241512314643519E+01    0.7429886854239611E+00    0.5000000000000000E+01
    0.2844289952419609E+01   -0.1588117879734118E+01    0.5000000000000000E+01
    0.7159905765450471E+00   -0.6002320124191652E+00    0.5000000000000000E+01
    0.1754341919796891E+01   -0.7398147869923652E+00    0.5000000000000000E+01
    0.1870296826774691E+01   -0.1788622905643739E+01    0.5000000000000000E+01
    0.9220614901912976E+00    0.3083720183248586E+00    0.5000000000000000E+01
    0.3101523624086016E+01    0.1777901774806180E+01    0.5000000000000000E+01
    0.2192512063922564E+01    0.1576861561598471E+01    0.5000000000000000E+01
    0.2024793420196460E+01    0.4773861992750707E+00    0.5000000000000000E+01
    0.2990627757741975E+01   -0.4878110785814084E+00    0.5000000000000000E+01
    0.0000000000000000E+00   -0.2496589036641631E+01    0.1250000000000000E+01
    0.0000000000000000E+00   -0.2496589036641631E+01    0.2500000000000000E+01
    0.0000000000000000E+00   -0.2496589036641631E+01    0.3750000000000000E+01
    0.0000000000000000E+00    0.1558308132739014E+01    0.4042003247744892E+01
    0.0000000000000000E+00   -0.1548001304379777E+01    0.9304122287900499E+00
    0.0000000000000000E+00    0.1462892710085612E+01    0.1037243024609388E+01
    0.0000000000000000E+00   -0.1445243809615570E+01    0.3946240828834967E+01
    0.0000000000000000E+00   -0.3455338993778935E+00    0.4092527262848217E+01
    0.0000000000000000E+00    0.6277660831404320E+00    0.4293103109154542E+01
    0.0000000000000000E+00    0.7429886854239611E+00    0.3241512314643519E+01
    0.0000000000000000E+00   -0.1588117879734118E+01    0.2844289952419609E+01
    0.0000000000000000E+00   -0.6002320124191652E+00    0.7159905765450471E+00
    0.0000000000000000E+00   -0.7398147869923652E+00    0.1754341919796891E+01
    0.0000000000000000E+00   -0.1788622905643739E+01    0.1870296826774691E+01
    0.0000000000000000E+00    0.3083720183248586E+00    0.9220614901912976E+00
    0.0000000000000000E+00    0.1777901774806180E+01    0.3101523624086016E+01
    0.0000000000000000E+00    0.1576861561598471E+01    0.2192512063922564E+01
[...]
POINT_DATA 213
SCALARS rho double 1
LOOKUP_TABLE default
   0.1346125694796165E+01
   0.9572084527647157E+00
   0.9461020639078307E+00
   0.9421833077515451E+00
   0.8436100785905989E+00
   0.7742024922725292E+00
   0.7627632914204223E+00
   0.7661496233415084E+00
   0.8310481703367283E+00
   0.9353608197671169E+00
   0.9344036383958128E+00
   0.9615898876470120E+00
   0.1448480208888134E+01
   0.1495421840745496E+01
   0.1646754928386009E+01
   0.1426608058877440E+01
   0.1009808068720545E+01
   0.9511456929613189E+00
   0.9438291099370735E+00
   0.9574489508573062E+00
   0.9414832416640712E+00
   0.1037118221425502E+01
   0.9258147537148589E+00
   0.9322497228174008E+00
   0.9538141799783560E+00
   0.9520438484218463E+00
   0.9350971720205303E+00
   0.9565537237118985E+00
   0.9378700247679992E+00
   0.9303318784868150E+00
   0.9446515867126765E+00
   0.8862352513653095E+00
   0.9424046836435385E+00
   0.9637217255547947E+00
   0.1008362577771464E+01
   0.1006713364979943E+01
   0.1001959240549324E+01
   0.1003218316276318E+01
   0.1004120538082306E+01
   0.1005207992650283E+01
   0.1004249813847906E+01
   0.1008267843881786E+01
   0.1023867443067886E+01
   0.1063751875324940E+01
   0.1019386187162550E+01
   0.1001778934113195E+01
   0.9645975233962126E+00
   0.1005263110528871E+01
   0.1000745578316714E+01
   0.1008695104813589E+01
   0.1008032475142375E+01
   0.1002354650880929E+01
   0.9980224682790700E+00
   0.1000594440604983E+01
   0.1001621537589709E+01
   0.9828107810948173E+00
   0.9844011041687805E+00
   0.9834292502931191E+00
   0.9790423922415001E+00
   0.9904798796909376E+00
   0.9935224893886284E+00
   0.1002009103475691E+01
   0.1002132311998061E+01
   0.1002273033582344E+01
   0.1001793219489185E+01
   0.1009814972833390E+01
   0.1006499311746365E+01
   0.9560849990714441E+00
   0.9252996566846686E+00
   0.1007053712651856E+01
   0.1004491538498334E+01
   0.9144889717496781E+00
   0.9091476761027119E+00
   0.8752502590928556E+00
   0.9768039036524946E+00
   0.1000530366597904E+01
   0.1005826553460160E+01
   0.1012895293779664E+01
   0.1011677102427483E+01
   0.1010415988351583E+01
   0.1005456560095682E+01
   0.9909260255109620E+00
   0.1005152543423375E+01
   0.9860803849583142E+00
   0.1005592650627473E+01
   0.1004239968494959E+01
   0.1002886283632250E+01
   0.1003350788888627E+01
   0.1003998912068581E+01
   0.1005116700254017E+01
   0.1003224183257989E+01
   0.1002669183700806E+01
   0.1002590255848429E+01
   0.1004070004659134E+01
   0.1004304937933147E+01
   0.1001643036025514E+01
   0.1002279357321934E+01
   0.1002547248782046E+01
   0.1003472641567354E+01
   0.1003380931080911E+01
   0.1003233776571534E+01
   0.1004430854293410E+01
   0.1004325283197202E+01
   0.1003653379478008E+01
   0.1003719191863770E+01
   0.1004319534138416E+01
   0.1004463155501094E+01
   0.1003629980599652E+01
   0.1064490581493570E+01
   0.1028445780971466E+01
   0.1009607603147358E+01
   0.1006626774102680E+01
   0.1163979474301360E+01
   0.1086026004530846E+01
   0.1007908398971680E+01
   0.1007252664643617E+01
   0.1006796746946194E+01
   0.1013053608644301E+01
   0.1019342644427340E+01
   0.1235143811205291E+01
   0.1032536232933641E+01
   0.1046567728934203E+01
   0.1201703012923373E+01
   0.1014671125332396E+01
   0.1032295324199356E+01
   0.1028222151031624E+01
   0.1014641483573336E+01
   0.1029002257770451E+01
   0.1002002818476376E+01
   0.9607830580820347E+00
   0.1006859706957375E+01
   0.1001326954010046E+01
   0.1010800868392035E+01
   0.1012237273234308E+01
   0.1000940436429749E+01
   0.9979317235317272E+00
   0.9980683699440459E+00
   0.1001191956733438E+01
   0.9841985797708351E+00
   0.9815070579349667E+00
   0.9648654914695902E+00
   0.9680713427303040E+00
   0.9914149190810139E+00
   0.9910916479216348E+00
   0.9925598184526015E+00
   0.1001728510387253E+01
   0.9993250772469902E+00
   0.9941444029265194E+00
   0.1006981383545160E+01
   0.1022611654050737E+01
   0.1001121691833201E+01
   0.1008784265586801E+01
   0.1004775043985264E+01
   0.1009029447306730E+01
   0.9967197949768098E+00
   0.1005567613152642E+01
   0.1003325685873309E+01
   0.9949865129967045E+00
   0.9833521892790748E+00
   0.9944521638504359E+00
   0.9973482230863624E+00
   0.9932519263849637E+00
   0.1001312608249057E+01
   0.1003001448725940E+01
   0.1002189173482844E+01
   0.9947119516184405E+00
   0.9937839725485382E+00
   0.1004862069432108E+01
   0.1020102936709555E+01
   0.1005341234391232E+01
   0.9817063601277446E+00
   0.1004975501327933E+01
   0.1012376568815320E+01
   0.9873747459242644E+00
   0.9551282272141182E+00
   0.9865280377056446E+00
   0.9865952832622921E+00
   0.9920084248960106E+00
   0.9934470865439963E+00
   0.9960657346530506E+00
   0.1037405690909355E+01
   0.1033165796316029E+01
   0.1001443358073557E+01
   0.1001929574473313E+01
   0.9912286695852792E+00
   0.9911121698768767E+00
   0.9649300819288685E+00
   0.9933729920342980E+00
   0.1006089075111740E+01
   0.1001962080811795E+01
   0.9908628495068645E+00
   0.9742274508734281E+00
   0.9420781785086676E+00
   0.9821604770833582E+00
   0.9794777371334428E+00
   0.9704352201666976E+00
   0.9720842372276951E+00
   0.9557868488075461E+00
   0.9497981758175190E+00
   0.9529847958460913E+00
   0.1002637256815283E+01
   0.1002476301970761E+01
   0.1000513242287924E+01
   0.1001675737919766E+01
   0.9610108169557123E+00
   0.9492469479940560E+00
   0.9586432519906016E+00
   0.1001121462568691E+01
   0.1000500591166407E+01
   0.1001161102485536E+01
   0.9807429276960826E+00
   0.9805608284045635E+00
   0.9629214371680950E+00
SCALARS u double 1
LOOKUP_TABLE default
   0.0000000000000000E+00
   0.0000000000000000E+00
   0.0000000000000000E+00
   0.0000000000000000E+00
   0.0000000000000000E+00
   0.0000000000000000E+00
   0.0000000000000000E+00
   0.0000000000000000E+00
   0.0000000000000000E+00
   0.0000000000000000E+00
   0.0000000000000000E+00
   0.0000000000000000E+00
   0.0000000000000000E+00
   0.0000000000000000E+00
   0.0000000000000000E+00
   0.0000000000000000E+00
   0.0000000000000000E+00
   0.0000000000000000E+00
   0.0000000000000000E+00
   0.0000000000000000E+00
   0.0000000000000000E+00
   0.0000000000000000E+00
   0.0000000000000000E+00
   0.0000000000000000E+00
   0.0000000000000000E+00
   0.0000000000000000E+00
   0.0000000000000000E+00
   0.0000000000000000E+00
   0.0000000000000000E+00
   0.0000000000000000E+00
   0.0000000000000000E+00
   0.0000000000000000E+00
   0.0000000000000000E+00
   0.4946084390401927E+00
   0.5336296229396320E+00
   0.5182737288741460E+00
   0.4930696975717616E+00
   0.4847718119407546E+00
   0.4868108136215563E+00
   0.4891429098222750E+00
   0.4958014376856488E+00
   0.4899016128305099E+00
   0.4718097598415644E+00
   0.4448926899587116E+00
   0.4844425910270790E+00
   0.5097672109152417E+00
   0.4402157107391101E+00
   0.4949584587264894E+00
   0.5222981757400214E+00
   0.4962761335160877E+00
   0.5223877814044876E+00
   0.5038134104987477E+00
   0.5644352140168808E+00
   0.5245862239270024E+00
   0.4990946955700002E+00
   0.5729384848058962E+00
   0.5693720714277727E+00
   0.3752129680555752E+00
   0.4003935337290808E+00
   0.5599622500290192E+00
   0.5562276759088146E+00
   0.4942631174082617E+00
   0.4948654038379111E+00
   0.4925634782160047E+00
   0.4913991786278304E+00
   0.5162611628896594E+00
   0.5363588932424804E+00
   0.4951213607874805E+00
   0.4520531595291144E+00
   0.5129024774602050E+00
   0.5117690526466804E+00
   0.4786251287212250E+00
   0.4931155293858655E+00
   0.4600306954373685E+00
   0.5242629198942731E+00
   0.5299866667529154E+00
   0.5129711999262238E+00
   0.5328938855274256E+00
   0.5309772093587961E+00
   0.5309771260032808E+00
   0.5063651410168180E+00
   0.5279605765590214E+00
   0.5409254473520537E+00
   0.5363677255166563E+00
   0.5374194372046542E+00
   0.4965359093627197E+00
   0.4975361620576705E+00
   0.4963807509447998E+00
   0.4955144774623539E+00
   0.4904151887411463E+00
   0.4902491479027324E+00
   0.4861626503315031E+00
   0.4854037739485385E+00
   0.4931941380558054E+00
   0.4910329234529665E+00
   0.4831698316704344E+00
   0.4872469605538906E+00
   0.4880010969404512E+00
   0.4872294036566421E+00
   0.4882160211825333E+00
   0.4952567366102063E+00
   0.4900705809522769E+00
   0.4903581267311218E+00
   0.4944346859692928E+00
   0.4868163397682272E+00
   0.4892720557095896E+00
   0.4881455378810285E+00
   0.4878245184535989E+00
   0.4449022026405863E+00
   0.4700099664047623E+00
   0.4891756201751425E+00
   0.4885980866227727E+00
   0.4510286412221488E+00
   0.4681799610771297E+00
   0.4876648975240542E+00
   0.4868253758067069E+00
   0.4909267533148869E+00
   0.4793946319363150E+00
   0.4657884653213644E+00
   0.3794302312506632E+00
   0.4903697421167625E+00
   0.4487929174615807E+00
   0.4432385355260768E+00
   0.4845729179217861E+00
   0.4621884481320243E+00
   0.4663602298884554E+00
   0.4747774268406409E+00
   0.4893613112006145E+00
   0.5085681474237944E+00
   0.4304904287089620E+00
   0.4927280753895678E+00
   0.5320316185099400E+00
   0.4913826501723279E+00
   0.5209404404684700E+00
   0.5061319828047621E+00
   0.5690636320469998E+00
   0.5275039918421972E+00
   0.5015047795155717E+00
   0.5821373618613741E+00
   0.5691503700217366E+00
   0.3402452490602699E+00
   0.3785432685556890E+00
   0.5753091283338612E+00
   0.5668547247073807E+00
   0.5703055450940462E+00
   0.5291879661617315E+00
   0.5449833828652827E+00
   0.5719093999232506E+00
   0.5385694587091785E+00
   0.5475896936889235E+00
   0.5821565652939793E+00
   0.4925313046001145E+00
   0.5041557177772594E+00
   0.4961299804140853E+00
   0.5562803684740065E+00
   0.4757814624157559E+00
   0.4950174786318813E+00
   0.5496174672072691E+00
   0.5889519110818054E+00
   0.5839568631087028E+00
   0.5468163498067875E+00
   0.5803877175568929E+00
   0.5106055693788721E+00
   0.5029532236716112E+00
   0.5033085380851181E+00
   0.5676232052870217E+00
   0.5564629528967060E+00
   0.4947135441323400E+00
   0.5506799461326911E+00
   0.5513545696829824E+00
   0.5658254157230906E+00
   0.4919953536842075E+00
   0.4927852057935224E+00
   0.3865438338108344E+00
   0.3687907202102801E+00
   0.5574381187364817E+00
   0.5761778935277737E+00
   0.4194381851565694E+00
   0.5822999347244130E+00
   0.4268238595782663E+00
   0.5397390504913869E+00
   0.5016174621437450E+00
   0.5119228251417621E+00
   0.5048434168007256E+00
   0.5752768158184703E+00
   0.5878367583822596E+00
   0.5382358738623371E+00
   0.5679645541100953E+00
   0.5352016964049837E+00
   0.5338463699699343E+00
   0.5582293100247283E+00
   0.5511563293009520E+00
   0.4256775843519338E+00
   0.5272986084059110E+00
   0.5796794667591857E+00
   0.3318312940208976E+00
   0.4761441131774725E+00
   0.5446494937269466E+00
   0.4800669226981725E+00
   0.3006201115470323E+00
   0.5031625243250759E+00
   0.5017180913079211E+00
   0.5129133729796854E+00
   0.5414117118086904E+00
   0.3435217015008051E+00
   0.3398080158395612E+00
   0.3190194433778126E+00
   0.5066187045011808E+00
   0.5123864689540891E+00
   0.5329068386150757E+00
   0.5881307275880229E+00
   0.4644883168924288E+00
   0.3529622376807662E+00
SCALARS v double 1
LOOKUP_TABLE default
   0.0000000000000000E+00
   0.0000000000000000E+00
   0.0000000000000000E+00
   0.0000000000000000E+00
   0.0000000000000000E+00
   0.0000000000000000E+00
   0.0000000000000000E+00
   0.0000000000000000E+00
   0.0000000000000000E+00
   0.0000000000000000E+00
   0.0000000000000000E+00
   0.0000000000000000E+00
   0.0000000000000000E+00
   0.0000000000000000E+00
   0.0000000000000000E+00
   0.0000000000000000E+00
   0.0000000000000000E+00
   0.0000000000000000E+00
   0.0000000000000000E+00
   0.0000000000000000E+00
   0.0000000000000000E+00
   0.0000000000000000E+00
   0.0000000000000000E+00
   0.0000000000000000E+00
   0.0000000000000000E+00
   0.0000000000000000E+00
   0.0000000000000000E+00
   0.0000000000000000E+00
   0.0000000000000000E+00
   0.0000000000000000E+00
   0.0000000000000000E+00
   0.0000000000000000E+00
   0.0000000000000000E+00
   0.0000000000000000E+00
   0.0000000000000000E+00
   0.0000000000000000E+00
   0.0000000000000000E+00
   0.0000000000000000E+00
   0.0000000000000000E+00
   0.0000000000000000E+00
   0.0000000000000000E+00
   0.0000000000000000E+00
   0.0000000000000000E+00
   0.0000000000000000E+00
   0.0000000000000000E+00
   0.0000000000000000E+00
   0.0000000000000000E+00
   0.0000000000000000E+00
   0.0000000000000000E+00
   0.0000000000000000E+00
   0.0000000000000000E+00
   0.0000000000000000E+00
   0.0000000000000000E+00
   0.0000000000000000E+00
   0.0000000000000000E+00
   0.0000000000000000E+00
   0.0000000000000000E+00
   0.0000000000000000E+00
   0.0000000000000000E+00
   0.0000000000000000E+00
   0.0000000000000000E+00
   0.8513955361176565E-03
  -0.1262646023073490E-02
  -0.1293747196427813E-02
   0.0000000000000000E+00
   0.0000000000000000E+00
   0.0000000000000000E+00
   0.0000000000000000E+00
  -0.1933774494556613E-01
   0.5035656971416784E-03
   0.2213150726908651E-02
   0.1419313534929402E-01
  -0.6753674551784105E-02
  -0.8171004421051967E-02
  -0.1325788718023512E-01
   0.4993929178394742E-02
   0.7358934070586480E-03
   0.3478388764905048E-02
   0.1946723832698439E-02
   0.3168072266652100E-02
   0.1755557793782510E-02
  -0.7295454604917344E-02
  -0.6912294257402531E-04
   0.4552258095464191E-02
  -0.4165984000190500E-03
  -0.6650692158951610E-04
  -0.2024618782406799E-03
   0.8052041902672898E-03
   0.0000000000000000E+00
   0.0000000000000000E+00
   0.0000000000000000E+00
   0.0000000000000000E+00
   0.4747328653851497E-03
   0.1624022890303776E-02
  -0.1273125041853061E-02
  -0.9977717767301300E-03
  -0.2076428544271204E-02
  -0.9960615484766418E-03
  -0.7502640411584320E-03
  -0.7419340926187950E-03
   0.6055381865940217E-04
  -0.5966235993547623E-03
   0.8041021995613047E-03
  -0.1730002248430111E-02
   0.3146405561774503E-03
  -0.5710223162570324E-04
  -0.8890514618021531E-03
  -0.1052087353778071E-02
   0.0000000000000000E+00
   0.0000000000000000E+00
   0.0000000000000000E+00
  -0.1035601496447427E-02
  -0.7789944224346836E-02
   0.1821259126100346E-01
  -0.2902416971040193E-04
  -0.1377098222242088E-02
  -0.2028456947008043E-02
  -0.5613671772719531E-02
  -0.1620474381082678E-02
  -0.6357462322351942E-02
  -0.4327186037960860E-02
   0.1517793743078603E-02
   0.3300594270581651E-01
   0.4394529829125042E-04
  -0.2766565870398428E-02
   0.3629287488198188E-02
   0.3910358756430398E-03
   0.0000000000000000E+00
   0.0000000000000000E+00
   0.0000000000000000E+00
   0.0000000000000000E+00
   0.0000000000000000E+00
   0.0000000000000000E+00
   0.0000000000000000E+00
   0.0000000000000000E+00
   0.0000000000000000E+00
   0.0000000000000000E+00
   0.0000000000000000E+00
   0.0000000000000000E+00
   0.0000000000000000E+00
   0.0000000000000000E+00
   0.0000000000000000E+00
   0.0000000000000000E+00
   0.0000000000000000E+00
   0.5001778196297557E-02
   0.3214065065724343E-02
   0.8126045455210989E-02
   0.6096300950009776E-02
   0.1117411732735701E-01
   0.1403811528123926E-01
  -0.3216221144896048E-03
   0.5161911444150562E-02
   0.2930107585325487E-02
   0.3378096200238627E-02
   0.3728544903386750E-02
  -0.1469573980207355E-01
  -0.6136953896365034E-03
   0.6639776179997262E-02
   0.1457244614340726E-02
   0.1959300739027536E-02
   0.4263980430200535E-02
  -0.2812426158118997E-02
   0.1267609577193331E-02
   0.2851959414345392E-02
   0.1534868031413879E-02
   0.2563344866182753E-02
   0.2013569101298094E-02
   0.2154333995321768E-02
   0.8583998694346066E-02
  -0.3830083253381677E-02
   0.6155698670903452E-02
   0.4725666910429107E-04
  -0.4231582248171903E-03
  -0.1674129340540896E-01
  -0.4996659887241153E-02
  -0.4827349435058990E-02
   0.3399378242604867E-02
  -0.6077437487919934E-02
   0.3194967242606770E-04
  -0.3284948881754063E-01
  -0.3181989491007420E-02
   0.4581319063921961E-02
   0.9682240723880145E-03
   0.2133486665785173E-02
   0.4530687697951449E-02
   0.2692787741503179E-02
   0.3243073203976547E-02
   0.5223605127046134E-02
   0.1957627594942616E-02
   0.7485460677543166E-03
  -0.5693750210181378E-04
  -0.5322690140554042E-02
  -0.6972866624944006E-02
  -0.9635303160090763E-03
   0.1062718465647547E-02
  -0.2106021482048050E-02
  -0.3219291745886760E-02
  -0.2544864648764200E-02
  -0.4131306124126795E-02
  -0.7566170041725709E-02
  -0.2012358476862208E-02
   0.6515130175073657E-03
  -0.1916276468321797E-03
   0.1227816750971319E-02
  -0.3502806472664672E-02
   0.4846684277725370E-02
  -0.8642681610464250E-02
   0.3341930296727873E-04
  -0.3327777675304141E-03
   0.2558606058705207E-02
   0.1615750370951288E-02
   0.2039006090882827E-02
  -0.5641501447136647E-02
SCALARS w double 1
LOOKUP_TABLE default
   0.0000000000000000E+00
   0.0000000000000000E+00
   0.0000000000000000E+00
   0.0000000000000000E+00
   0.0000000000000000E+00
   0.0000000000000000E+00
   0.0000000000000000E+00
   0.0000000000000000E+00
   0.0000000000000000E+00
   0.0000000000000000E+00
   0.0000000000000000E+00
   0.0000000000000000E+00
   0.0000000000000000E+00
   0.0000000000000000E+00
   0.0000000000000000E+00
   0.0000000000000000E+00
   0.0000000000000000E+00
   0.0000000000000000E+00
   0.0000000000000000E+00
   0.0000000000000000E+00
   0.0000000000000000E+00
   0.0000000000000000E+00
   0.0000000000000000E+00
   0.0000000000000000E+00
   0.0000000000000000E+00
   0.0000000000000000E+00
   0.0000000000000000E+00
   0.0000000000000000E+00
   0.0000000000000000E+00
   0.0000000000000000E+00
   0.0000000000000000E+00
   0.0000000000000000E+00
   0.0000000000000000E+00
  -0.1007241858921598E+00
  -0.4245528620579018E-01
   0.7158753615161951E-03
   0.5704943558356761E-02
   0.5684952912206814E-03
   0.1606878242817945E-02
   0.3372604798010463E-02
   0.2364299402582089E-02
   0.4720647222298111E-03
   0.3528387233048744E-02
   0.4533336070130940E-01
   0.6563397479811586E-01
   0.8384124266389143E-03
  -0.2266132317408939E-01
   0.4271064976066575E-02
   0.1341970173599876E-01
   0.1029750710298358E-01
   0.4870834203713942E-01
   0.2381551735221576E-02
  -0.6534999693249148E-02
  -0.7372433721336137E-03
   0.3056375870742065E-03
   0.3846852349330229E-02
  -0.3893635252289625E-01
   0.1820273584096603E-01
   0.1120446069779695E-01
   0.3395774046041389E-01
   0.8380191415436975E-02
   0.4924617876884575E-02
   0.4973761413351058E-02
   0.4900522917433985E-02
   0.6056718409335944E-02
   0.2695309307555849E-02
  -0.4127769734062431E-01
  -0.9927104317848331E-01
  -0.1120360380853562E+00
   0.5144525313298998E-02
   0.4216388428284963E-02
  -0.1002595860482311E+00
  -0.9892594349068368E-01
  -0.9835483711505220E-01
  -0.9443969382455991E-01
  -0.6790972039198286E-01
   0.5196996620952353E-02
  -0.1927315220196275E-01
  -0.1563508313095658E-01
  -0.5964345919511753E-02
   0.6822779802408001E-02
  -0.7999951897205354E-01
  -0.2776431479434432E-01
  -0.8086526756576325E-01
  -0.5863339146028432E-01
   0.3073989812117974E-02
   0.2685175147707666E-02
   0.2644703078773932E-02
   0.3457404374786182E-02
   0.3998529298527248E-02
   0.1199876519489708E-02
  -0.1355432377573077E-03
   0.2028966191349118E-02
   0.4894373680666632E-02
   0.3864560753660481E-02
   0.1126430713200877E-02
   0.1188310627252954E-02
   0.1460245323188552E-02
  -0.2199459240856307E-04
   0.9121998348809764E-04
   0.4387187200719212E-02
   0.2712579859882102E-02
   0.2317255083772758E-02
   0.5007037344023520E-02
   0.1069971393927873E-02
   0.2707114404577775E-02
   0.2010664724075724E-02
   0.3391927295944449E-04
   0.8386260354650135E-01
   0.2832480964333395E-02
  -0.8469296581163618E-03
  -0.1274285298752588E-03
   0.1410903979825485E+00
   0.1236626536393946E+00
  -0.1228867735326464E-02
  -0.4383136247455598E-02
  -0.2804612791954567E-03
  -0.6477826838253146E-02
  -0.1895598713950385E-02
   0.1559394040483232E+00
   0.7528604328438819E-01
   0.2567550695077199E-01
   0.1661313051472780E+00