# vtk DataFile Version 2.0
FUN3D:global_image_vtk
ASCII
DATASET UNSTRUCTURED_GRID
POINTS 213 double
   -0.5474685438220378E-02    0.2504941971165485E+01    0.8038139422967926E-04
    0.1245419105186371E+01    0.2504941971165485E+01    0.1039425138664848E-03
    0.2497696093130313E+01    0.2504941971165485E+01    0.1101298243385123E-03
    0.3750590968915477E+01    0.2504941971165485E+01    0.1356499081138886E-03
    0.5003221331740107E+01    0.2504941971165485E+01    0.9668873779401495E-04
    0.5004676687976413E+01    0.1281291202155759E+01    0.1638053072896629E-03
    0.5004772673775726E+01    0.2775079905532251E-01    0.1903478042354962E-03
    0.5003581183339734E+01   -0.1225853508891395E+01    0.1607765219616719E-03
    0.5001952533741638E+01   -0.2496589036642705E+01    0.1082258886781479E-03
    0.3750348111606489E+01   -0.2496589036642705E+01    0.1458753694180688E-03
    0.2498611462995409E+01   -0.2496589036642705E+01    0.1008933262505726E-03
    0.1247175269334220E+01   -0.2496589036642705E+01    0.1108587618248167E-03
   -0.3383959864651230E-02   -0.2496589036642705E+01    0.8107259628281624E-04
   -0.4257768977922624E-02   -0.1225734811649804E+01    0.3415458946343391E-04
   -0.5251592445770110E-02    0.2619486023614125E-01    0.1038724427961439E-03
   -0.5676060309057979E-02    0.1278221569056601E+01    0.8224602319007804E-04
    0.9003209617986518E+00    0.1608979112269835E+01    0.8704141386701581E-04
    0.3983172210691884E+01   -0.1561211904847755E+01    0.1757116731322411E-03
    0.4035602039223490E+01    0.1486760030402969E+01    0.1713312920527763E-03
    0.1036613723304492E+01   -0.1455626429924350E+01    0.1047189316918962E-03
    0.1094353480633342E+01   -0.2964622010757078E+00    0.1260590270859612E-03
    0.7298400267511735E+00    0.6874684746626459E+00    0.1044598691311090E-03
    0.1617018659311988E+01    0.8553208024835457E+00    0.1529810957003406E-03
    0.2143199662876900E+01   -0.1627128509224141E+01    0.1606170436690996E-03
    0.4088840445399776E+01   -0.4351047826026347E+00    0.2719933321616060E-03
    0.2977916511249719E+01   -0.8334991483176311E+00    0.2245596954619267E-03
    0.3044093241383834E+01   -0.1814361225115967E+01    0.1617000120313084E-03
    0.3427866614805438E+01    0.3813904839861595E+00    0.2936955524500189E-03
    0.4313225355349884E+01    0.5489133376232667E+00    0.2313009616367663E-03
    0.1823032737599955E+01    0.1771265193532498E+01    0.1836202953985997E-03
    0.2806311152169731E+01    0.1358629373588292E+01    0.1943492222290041E-03
    0.1891860875938631E+01   -0.8481310365690164E+00    0.1670645525760385E-03
    0.2268769200169219E+01    0.7723691818209745E-01    0.2072307821289810E-03
    0.5000000000000000E+01    0.2504941971165485E+01    0.1250000000000000E+01
    0.5000000000000000E+01    0.2504941971165485E+01    0.2500000000000000E+01
    0.5000000000000000E+01    0.2504941971165485E+01    0.3750000000000000E+01
    0.5000000000000000E+01    0.2504941971165485E+01    0.5000000000000000E+01
    0.3750000000000000E+01    0.2504941971165485E+01    0.5000000000000000E+01
    0.2500000000000000E+01    0.2504941971165485E+01    0.5000000000000000E+01
    0.1250000000000000E+01    0.2504941971165485E+01    0.5000000000000000E+01
    0.0000000000000000E+00    0.2504941971165485E+01    0.5000000000000000E+01
    0.0000000000000000E+00    0.2504941971165485E+01    0.3750000000000000E+01
    0.0000000000000000E+00    0.2504941971165485E+01    0.2500000000000000E+01
    0.0000000000000000E+00    0.2504941971165485E+01    0.1250000000000000E+01
    0.9588956434896695E+00    0.2504941971165485E+01    0.9696525519578332E+00
    0.3981953078951595E+01    0.2504941971165485E+01    0.4070563854751879E+01
    0.4036122187252053E+01    0.2504941971165485E+01    0.1017567520098704E+01
    0.9637572773153283E+00    0.2504941971165485E+01    0.3973598203142784E+01
    0.1546540136992696E+01    0.2504941971165485E+01    0.2931570169317361E+01
    0.6973799521245156E+00    0.2504941971165485E+01    0.3070319952454722E+01
    0.8903742148364541E+00    0.2504941971165485E+01    0.2056562238189727E+01
    0.2183041995146080E+01    0.2504941971165485E+01    0.3960694449828992E+01
    0.3855844872710175E+01    0.2504941971165485E+01    0.2933250588120182E+01
    0.3152611367438256E+01    0.2504941971165485E+01    0.3637668388417448E+01
    0.3103307385242002E+01    0.2504941971165485E+01    0.4332607813100358E+01
    0.3266711045518477E+01    0.2504941971165485E+01    0.1889656617467324E+01
    0.4232537554485033E+01    0.2504941971165485E+01    0.1918626969804105E+01
    0.1905522374039041E+01    0.2504941971165485E+01    0.7226290832187846E+00
    0.2879767723646653E+01    0.2504941971165485E+01    0.9080945892241993E+00
    0.2012711365065439E+01    0.2504941971165485E+01    0.1767082390981646E+01
    0.2669681472994992E+01    0.2504941971165485E+01    0.2853394335013179E+01
    0.5000000000000000E+01    0.1250000000000000E+01    0.5000000000000000E+01
    0.5000000000000000E+01    0.0000000000000000E+00    0.5000000000000000E+01
    0.5000000000000000E+01   -0.1250000000000000E+01    0.5000000000000000E+01
    0.5000000000000000E+01   -0.2496589036642705E+01    0.5000000000000000E+01
    0.5000000000000000E+01   -0.2496589036642705E+01    0.3750000000000000E+01
    0.5000000000000000E+01   -0.2496589036642705E+01    0.2500000000000000E+01
    0.5000000000000000E+01   -0.2496589036642705E+01    0.1250000000000000E+01
    0.5000000000000000E+01    0.1578994732800803E+01    0.9058375365086910E+00
    0.5000000000000000E+01   -0.1583989954232354E+01    0.3982050490726493E+01
    0.5000000000000000E+01    0.1453322699199022E+01    0.4033849428301197E+01
    0.5000000000000000E+01   -0.1479596339503735E+01    0.1040505887381675E+01
    0.5000000000000000E+01   -0.3227322616384110E+00    0.1099454400140349E+01
    0.5000000000000000E+01    0.6593508822075582E+00    0.7354504170366591E+00
    0.5000000000000000E+01    0.8256214013940779E+00    0.1622302608453282E+01
    0.5000000000000000E+01   -0.1650070333782557E+01    0.2145871574390382E+01
    0.5000000000000000E+01   -0.4612828702537229E+00    0.4086422318222992E+01
    0.5000000000000000E+01   -0.8579242121530853E+00    0.2979540174134984E+01
    0.5000000000000000E+01   -0.1836846154397680E+01    0.3045064261640043E+01
    0.5000000000000000E+01    0.3508002863614053E+00    0.3428197553792836E+01
    0.5000000000000000E+01    0.5185680230613409E+00    0.4309693860063405E+01
    0.5000000000000000E+01    0.1738996113203182E+01    0.1827272193562204E+01
    0.5000000000000000E+01    0.1325493893339706E+01    0.2808563282768077E+01
    0.5000000000000000E+01   -0.8731419609589618E+00    0.1895995683864404E+01
    0.5000000000000000E+01    0.4906150219227333E-01    0.2273179336307740E+01
    0.0000000000000000E+00    0.1250000000000000E+01    0.5000000000000000E+01
    0.0000000000000000E+00    0.0000000000000000E+00    0.5000000000000000E+01
    0.0000000000000000E+00   -0.1250000000000000E+01    0.5000000000000000E+01
    0.0000000000000000E+00   -0.2496589036642705E+01    0.5000000000000000E+01
    0.1250000000000000E+01   -0.2496589036642705E+01    0.5000000000000000E+01
    0.2500000000000000E+01   -0.2496589036642705E+01    0.5000000000000000E+01
    0.3750000000000000E+01   -0.2496589036642705E+01    0.5000000000000000E+01
    0.4042003247744892E+01    0.1558308132739014E+01    0.5000000000000000E+01
    0.9304122287900499E+00   -0.1548001304379777E+01    0.5000000000000000E+01
    0.1037243024609388E+01    0.1462892710085612E+01    0.5000000000000000E+01
    0.3946240828834967E+01   -0.1445243809615570E+01    0.5000000000000000E+01
    0.4092527262848217E+01   -0.3455338993778935E+00    0.5000000000000000E+01
    0.4293103109154542E+01    0.6277660831404320E+00    0.5000000000000000E+01
    0.3241512314643519E+01    0.7429886854239611E+00    0.5000000000000000E+01
    0.2844289952419609E+01   -0.1588117879734118E+01    0.5000000000000000E+01
    0.7159905765450471E+00   -0.6002320124191652E+00    0.5000000000000000E+01
    0.1754341919796891E+01   -0.7398147869923652E+00    0.5000000000000000E+01
    0.1870296826774691E+01   -0.1788622905643739E+01    0.5000000000000000E+01
    0.9220614901912976E+00    0.3083720183248586E+00    0.5000000000000000E+01
    0.3101523624086016E+01    0.1777901774806180E+01    0.5000000000000000E+01
    0.2192512063922564E+01    0.1576861561598471E+01    0.5000000000000000E+01
    0.2024793420196460E+01    0.4773861992750707E+00    0.5000000000000000E+01
    0.2990627757741975E+01   -0.4878110785814084E+00    0.5000000000000000E+01
    0.0000000000000000E+00   -0.2496589036642705E+01    0.1250000000000000E+01
    0.0000000000000000E+00   -0.2496589036642705E+01    0.2500000000000000E+01
    0.0000000000000000E+00   -0.2496589036642705E+01    0.3750000000000000E+01
    0.0000000000000000E+00    0.1558308132739014E+01    0.4042003247744892E+01
    0.0000000000000000E+00   -0.1548001304379777E+01    0.9304122287900499E+00
    0.0000000000000000E+00    0.1462892710085612E+01    0.1037243024609388E+01
    0.0000000000000000E+00   -0.1445243809615570E+01    0.3946240828834967E+01
    0.0000000000000000E+00   -0.3455338993778935E+00    0.4092527262848217E+01
    0.0000000000000000E+00    0.6277660831404320E+00    0.4293103109154542E+01
    0.0000000000000000E+00    0.7429886854239611E+00    0.3241512314643519E+01
    0.0000000000000000E+00   -0.1588117879734118E+01    0.2844289952419609E+01
    0.0000000000000000E+00   -0.6002320124191652E+00    0.7159905765450471E+00
    0.0000000000000000E+00   -0.7398147869923652E+00    0.1754341919796891E+01
    0.0000000000000000E+00   -0.1788622905643739E+01    0.1870296826774691E+01
    0.0000000000000000E+00    0.3083720183248586E+00    0.9220614901912976E+00
    0.0000000000000000E+00    0.1777901774806180E+01    0.3101523624086016E+01
    0.0000000000000000E+00    0.1576861561598471E+01    0.2192512063922564E+01
[...]
POINT_DATA 213
SCALARS rho double 1
LOOKUP_TABLE default
   0.1346125454348765E+01
   0.9572079204764193E+00
   0.9461014735063685E+00
   0.9421827734980953E+00
   0.8436099990784791E+00
   0.7742020246832405E+00
   0.7627627010242952E+00
   0.7661484592263935E+00
   0.8310478320508806E+00
   0.9353607033366557E+00
   0.9344031119341573E+00
   0.9615892381727086E+00
   0.1448479787031608E+01
   0.1495421336027679E+01
   0.1646754521596489E+01
   0.1426607839843572E+01
   0.1009807573745856E+01
   0.9511452824616453E+00
   0.9438288710223781E+00
   0.9574484738724856E+00
   0.9414827254634803E+00
   0.1037117790803531E+01
   0.9258141539545569E+00
   0.9322491002390938E+00
   0.9538138718259607E+00
   0.9520435503895952E+00
   0.9350967943805876E+00
   0.9565535530928670E+00
   0.9378698048239021E+00
   0.9303313050016884E+00
   0.9446511008940803E+00
   0.8862346329182295E+00
   0.9424042956442820E+00
   0.9637263019127269E+00
   0.1008361093204637E+01
   0.1006714602051671E+01
   0.1001957226680181E+01
   0.1003216266944464E+01
   0.1004119991815538E+01
   0.1005207394718597E+01
   0.1004249481234556E+01
   0.1008267466074943E+01
   0.1023866978432772E+01
   0.1063751299093605E+01
   0.1019385864981021E+01
   0.1001779990666032E+01
   0.9646034864522385E+00
   0.1005262616981761E+01
   0.1000745002589285E+01
   0.1008694639432434E+01
   0.1008032001920798E+01
   0.1002353916995332E+01
   0.9980214295785957E+00
   0.1000593677670955E+01
   0.1001621102737945E+01
   0.9828102828116833E+00
   0.9844015539496384E+00
   0.9834287592849690E+00
   0.9790444718283614E+00
   0.9904791730042682E+00
   0.9935219552963844E+00
   0.1002005911795155E+01
   0.1002129762524865E+01
   0.1002270576425703E+01
   0.1001791040851519E+01
   0.1009816718846010E+01
   0.1006498992990320E+01
   0.9560848435047623E+00
   0.9253012017335406E+00
   0.1007054178032297E+01
   0.1004493323427179E+01
   0.9144889449635927E+00
   0.9091483226007956E+00
   0.8752503710171765E+00
   0.9768030240801379E+00
   0.1000529478075665E+01
   0.1005827574423054E+01
   0.1012895348514071E+01
   0.1011677619131654E+01
   0.1010416996736695E+01
   0.1005458122669266E+01
   0.9909254956314409E+00
   0.1005151469565961E+01
   0.9860797649160183E+00
   0.1005591647191826E+01
   0.1004239622563996E+01
   0.1002886063190680E+01
   0.1003350589896083E+01
   0.1003999119728312E+01
   0.1005116222716064E+01
   0.1003223768909387E+01
   0.1002666993707255E+01
   0.1002586367386159E+01
   0.1004069607200346E+01
   0.1004304329747298E+01
   0.1001640907715758E+01
   0.1002276135520264E+01
   0.1002543450048421E+01
   0.1003470977544191E+01
   0.1003380028816546E+01
   0.1003233377605900E+01
   0.1004430341068947E+01
   0.1004325066753824E+01
   0.1003653095022135E+01
   0.1003718521274996E+01
   0.1004318494861516E+01
   0.1004462313827807E+01
   0.1003628845815122E+01
   0.1064490587959969E+01
   0.1028445288913375E+01
   0.1009607275635733E+01
   0.1006626410039412E+01
   0.1163978993437301E+01
   0.1086025648634968E+01
   0.1007907990569688E+01
   0.1007252228609054E+01
   0.1006796438312543E+01
   0.1013053148515507E+01
   0.1019342089470089E+01
   0.1235143522456893E+01
   0.1032535975411808E+01
   0.1046567126692644E+01
   0.1201702752248817E+01
   0.1014670679288157E+01
   0.1032294773932663E+01
   0.1028221590850743E+01
   0.1014640927037103E+01
   0.1029001810616834E+01
   0.1002003312205367E+01
   0.9607837305534909E+00
   0.1006859117146347E+01
   0.1001326474766385E+01
   0.1010800235371746E+01
   0.1012236850207486E+01
   0.1000939943791764E+01
   0.9979314617869643E+00
   0.9980677398910869E+00
   0.1001191213505616E+01
   0.9841980829630914E+00
   0.9815067511149241E+00
   0.9648652454840388E+00
   0.9680709021217959E+00
   0.9914146138371693E+00
   0.9910913331179104E+00
   0.9925593322941069E+00
   0.1001727918470854E+01
   0.9993245279143081E+00
   0.9941439641930888E+00
   0.1006980890343842E+01
   0.1022611230350320E+01
   0.1001121384814954E+01
   0.1008783719543439E+01
   0.1004774503454828E+01
   0.1009028955286369E+01
   0.9967193981069543E+00
   0.1005567262160149E+01
   0.1003325198825988E+01
   0.9949860507413216E+00
   0.9833519218687972E+00
   0.9944515318439973E+00
   0.9973477161471449E+00
   0.9932512208444696E+00
   0.1001311805345084E+01
   0.1003000816859417E+01
   0.1002188605788515E+01
   0.9947117922336736E+00
   0.9937835385180301E+00
   0.1004861553962239E+01
   0.1020102516243174E+01
   0.1005340863868806E+01
   0.9817060330969215E+00
   0.1004974968458247E+01
   0.1012375958141484E+01
   0.9873744378617695E+00
   0.9551278205331492E+00
   0.9865276069660691E+00
   0.9865949036964601E+00
   0.9920079412056197E+00
   0.9934467302783743E+00
   0.9960652824593039E+00
   0.1037405376006204E+01
   0.1033165378538725E+01
   0.1001443753531408E+01
   0.1001928899987722E+01
   0.9912281114382343E+00
   0.9911116183629659E+00
   0.9649294083350809E+00
   0.9933725172560123E+00
   0.1006089122359150E+01
   0.1001962016708302E+01
   0.9908622924512935E+00
   0.9742274017324817E+00
   0.9420783511796138E+00
   0.9821600015386585E+00
   0.9794772573420024E+00
   0.9704349918902456E+00
   0.9720836519055414E+00
   0.9557866598328937E+00
   0.9497982862629089E+00
   0.9529849105871827E+00
   0.1002636652463898E+01
   0.1002475606829147E+01
   0.1000512975289537E+01
   0.1001675829463252E+01
   0.9610102006186968E+00
   0.9492478701555052E+00
   0.9586434399943108E+00
   0.1001121233860518E+01
   0.1000500337297501E+01
   0.1001160655510122E+01
   0.9807426278907002E+00
   0.9805603110907873E+00
   0.9629216562075077E+00
SCALARS u double 1
LOOKUP_TABLE default
   0.0000000000000000E+00
   0.0000000000000000E+00
   0.0000000000000000E+00
   0.0000000000000000E+00
   0.0000000000000000E+00
   0.0000000000000000E+00
   0.0000000000000000E+00
   0.0000000000000000E+00
   0.0000000000000000E+00
   0.0000000000000000E+00
   0.0000000000000000E+00
   0.0000000000000000E+00
   0.0000000000000000E+00
   0.0000000000000000E+00
   0.0000000000000000E+00
   0.0000000000000000E+00
   0.0000000000000000E+00
   0.0000000000000000E+00
   0.0000000000000000E+00
   0.0000000000000000E+00
   0.0000000000000000E+00
   0.0000000000000000E+00
   0.0000000000000000E+00
   0.0000000000000000E+00
   0.0000000000000000E+00
   0.0000000000000000E+00
   0.0000000000000000E+00
   0.0000000000000000E+00
   0.0000000000000000E+00
   0.0000000000000000E+00
   0.0000000000000000E+00
   0.0000000000000000E+00
   0.0000000000000000E+00
   0.4946017741476852E+00
   0.5336300222001529E+00
   0.5182740148996173E+00
   0.4930716032662807E+00
   0.4847755559380184E+00
   0.4868150823148450E+00
   0.4891447055581856E+00
   0.4958017867189550E+00
   0.4899022601522964E+00
   0.4718101885163514E+00
   0.4448932811317335E+00
   0.4844428678786055E+00
   0.5097723009275433E+00
   0.4402132742153642E+00
   0.4949587351773465E+00
   0.5222987907539230E+00
   0.4962767433195545E+00
   0.5223883219215956E+00
   0.5038142330576360E+00
   0.5644352579615616E+00
   0.5245870134325565E+00
   0.4990984325857967E+00
   0.5729385770148631E+00
   0.5693702143643181E+00
   0.3752129691558919E+00
   0.4003925757087327E+00
   0.5599629540384433E+00
   0.5562281246929349E+00
   0.4942649993308778E+00
   0.4948664228957620E+00
   0.4925621460001390E+00
   0.4913981197981132E+00
   0.5162622771319544E+00
   0.5363589847017425E+00
   0.4951204295437486E+00
   0.4520507647827807E+00
   0.5129031967815767E+00
   0.5117692768813276E+00
   0.4786240593185467E+00
   0.4931144712560812E+00
   0.4600300682108044E+00
   0.5242629478398636E+00
   0.5299868132763704E+00
   0.5129709910327624E+00
   0.5328937510725624E+00
   0.5309776575060038E+00
   0.5309766037388793E+00
   0.5063651529029152E+00
   0.5279597697697982E+00
   0.5409256382715508E+00
   0.5363674847342264E+00
   0.5374195374434306E+00
   0.4965362520057932E+00
   0.4975364164263459E+00
   0.4963808204024966E+00
   0.4955145690878965E+00
   0.4904158134277687E+00
   0.4902504877265378E+00
   0.4861601584017394E+00
   0.4854060768390309E+00
   0.4931949372500392E+00
   0.4910340586530672E+00
   0.4831668239525787E+00
   0.4872472610427592E+00
   0.4880033981802334E+00
   0.4872325302574474E+00
   0.4882153516317224E+00
   0.4952572356803393E+00
   0.4900714822552133E+00
   0.4903590138349024E+00
   0.4944353767256921E+00
   0.4868208055593619E+00
   0.4892743962416823E+00
   0.4881467582655523E+00
   0.4878251395108732E+00
   0.4449019461185861E+00
   0.4700104886643254E+00
   0.4891759378377731E+00
   0.4885977144064513E+00
   0.4510295747085475E+00
   0.4681798598881611E+00
   0.4876649586317742E+00
   0.4868255677566449E+00
   0.4909266652023548E+00
   0.4793951933932527E+00
   0.4657891938416516E+00
   0.3794306028799651E+00
   0.4903698368292066E+00
   0.4487934993756508E+00
   0.4432390141619816E+00
   0.4845733878059529E+00
   0.4621891189380638E+00
   0.4663609785968456E+00
   0.4747781349282979E+00
   0.4893616481380726E+00
   0.5085734434821346E+00
   0.4304902615860124E+00
   0.4927287826934562E+00
   0.5320323083629084E+00
   0.4913833265343857E+00
   0.5209407689647836E+00
   0.5061343898883253E+00
   0.5690645181390726E+00
   0.5275066302685358E+00
   0.5015080559215480E+00
   0.5821370902690743E+00
   0.5691494473674559E+00
   0.3402454700426508E+00
   0.3785430795343410E+00
   0.5753094270944753E+00
   0.5668552171038668E+00
   0.5703054436587683E+00
   0.5291885194524208E+00
   0.5449838314782431E+00
   0.5719097767253839E+00
   0.5385699899881591E+00
   0.5475900477727853E+00
   0.5821570619286965E+00
   0.4925317736133747E+00
   0.5041560890581004E+00
   0.4961304809407543E+00
   0.5562808675023834E+00
   0.4757818112673799E+00
   0.4950189457971352E+00
   0.5496176227992503E+00
   0.5889518016836126E+00
   0.5839568525155473E+00
   0.5468166759338927E+00
   0.5803873813283899E+00
   0.5106069689301966E+00
   0.5029545557249590E+00
   0.5033123604735118E+00
   0.5676224098653567E+00
   0.5564635326322367E+00
   0.4947140374075427E+00
   0.5506804156009081E+00
   0.5513548836460860E+00
   0.5658256467995930E+00
   0.4919960554372632E+00
   0.4927856969166021E+00
   0.3865444809572381E+00
   0.3687912885733493E+00
   0.5574383167620661E+00
   0.5761782734192710E+00
   0.4194383887967892E+00
   0.5823003207157719E+00
   0.4268243395531303E+00
   0.5397395043806373E+00
   0.5016180316382496E+00
   0.5119265894986964E+00
   0.5048449209313617E+00
   0.5752762868888827E+00
   0.5878367532122518E+00
   0.5382350806795836E+00
   0.5679644445405837E+00
   0.5352033914214969E+00
   0.5338475152836633E+00
   0.5582293337431732E+00
   0.5511556077637022E+00
   0.4256765030412607E+00
   0.5272991178785525E+00
   0.5796791158980701E+00
   0.3318319447998103E+00
   0.4761440175640849E+00
   0.5446494429222067E+00
   0.4800664032902963E+00
   0.3006202548285761E+00
   0.5031635416129181E+00
   0.5017194661191262E+00
   0.5129159062959388E+00
   0.5414125472658831E+00
   0.3435219170537143E+00
   0.3398087239762675E+00
   0.3190192615881984E+00
   0.5066215896387742E+00
   0.5123898828541903E+00
   0.5329069268307336E+00
   0.5881308453087584E+00
   0.4644886866514698E+00
   0.3529631211460030E+00
SCALARS v double 1
LOOKUP_TABLE default
   0.0000000000000000E+00
   0.0000000000000000E+00
   0.0000000000000000E+00
   0.0000000000000000E+00
   0.0000000000000000E+00
   0.0000000000000000E+00
   0.0000000000000000E+00
   0.0000000000000000E+00
   0.0000000000000000E+00
   0.0000000000000000E+00
   0.0000000000000000E+00
   0.0000000000000000E+00
   0.0000000000000000E+00
   0.0000000000000000E+00
   0.0000000000000000E+00
   0.0000000000000000E+00
   0.0000000000000000E+00
   0.0000000000000000E+00
   0.0000000000000000E+00
   0.0000000000000000E+00
   0.0000000000000000E+00
   0.0000000000000000E+00
   0.0000000000000000E+00
   0.0000000000000000E+00
   0.0000000000000000E+00
   0.0000000000000000E+00
   0.0000000000000000E+00
   0.0000000000000000E+00
   0.0000000000000000E+00
   0.0000000000000000E+00
   0.0000000000000000E+00
   0.0000000000000000E+00
   0.0000000000000000E+00
   0.0000000000000000E+00
   0.0000000000000000E+00
   0.0000000000000000E+00
   0.0000000000000000E+00
   0.0000000000000000E+00
   0.0000000000000000E+00
   0.0000000000000000E+00
   0.0000000000000000E+00
   0.0000000000000000E+00
   0.0000000000000000E+00
   0.0000000000000000E+00
   0.0000000000000000E+00
   0.0000000000000000E+00
   0.0000000000000000E+00
   0.0000000000000000E+00
   0.0000000000000000E+00
   0.0000000000000000E+00
   0.0000000000000000E+00
   0.0000000000000000E+00
   0.0000000000000000E+00
   0.0000000000000000E+00
   0.0000000000000000E+00
   0.0000000000000000E+00
   0.0000000000000000E+00
   0.0000000000000000E+00
   0.0000000000000000E+00
   0.0000000000000000E+00
   0.0000000000000000E+00
   0.8522685113412788E-03
  -0.1261749573703856E-02
  -0.1292363308140054E-02
   0.0000000000000000E+00
   0.0000000000000000E+00
   0.0000000000000000E+00
   0.0000000000000000E+00
  -0.1933896151364026E-01
   0.5043809621224708E-03
   0.2213315633754920E-02
   0.1419248918202602E-01
  -0.6754213327933992E-02
  -0.8171514482089906E-02
  -0.1325824948943668E-01
   0.4993762258030351E-02
   0.7362825686609638E-03
   0.3478258593267480E-02
   0.1947011530287202E-02
   0.3168335295089299E-02
   0.1756008449263153E-02
  -0.7296132165560755E-02
  -0.6885029617706743E-04
   0.4551827091999856E-02
  -0.4165830062655870E-03
  -0.6614704411414970E-04
  -0.2024458954038819E-03
   0.8053188657593608E-03
   0.0000000000000000E+00
   0.0000000000000000E+00
   0.0000000000000000E+00
   0.0000000000000000E+00
   0.4741383619376123E-03
   0.1624239958448097E-02
  -0.1272803879726064E-02
  -0.9958716530626050E-03
  -0.2074753585613878E-02
  -0.9956025275280644E-03
  -0.7502226666989654E-03
  -0.7406458776065854E-03
   0.6052327983663637E-04
  -0.5959325721425856E-03
   0.8041878444803685E-03
  -0.1729780536571621E-02
   0.3136507529181941E-03
  -0.5746913952169267E-04
  -0.8886674414769425E-03
  -0.1049995270308109E-02
   0.0000000000000000E+00
   0.0000000000000000E+00
   0.0000000000000000E+00
  -0.1035502160925908E-02
  -0.7790030217367894E-02
   0.1821264683726987E-01
  -0.2905068521238249E-04
  -0.1377144056555359E-02
  -0.2028266880630023E-02
  -0.5613619442574358E-02
  -0.1620468823028999E-02
  -0.6357572998415229E-02
  -0.4327286169353840E-02
   0.1517763735421100E-02
   0.3300580551283001E-01
   0.4396200982826244E-04
  -0.2766593516129545E-02
   0.3629209529164976E-02
   0.3911015880179223E-03
   0.0000000000000000E+00
   0.0000000000000000E+00
   0.0000000000000000E+00
   0.0000000000000000E+00
   0.0000000000000000E+00
   0.0000000000000000E+00
   0.0000000000000000E+00
   0.0000000000000000E+00
   0.0000000000000000E+00
   0.0000000000000000E+00
   0.0000000000000000E+00
   0.0000000000000000E+00
   0.0000000000000000E+00
   0.0000000000000000E+00
   0.0000000000000000E+00
   0.0000000000000000E+00
   0.0000000000000000E+00
   0.5001705347362511E-02
   0.3213869641849942E-02
   0.8126002579985978E-02
   0.6096308704332131E-02
   0.1117409989076468E-01
   0.1403808644170719E-01
  -0.3216050798158929E-03
   0.5161877180107132E-02
   0.2930096334717265E-02
   0.3378016370512311E-02
   0.3728551737946879E-02
  -0.1469587957605529E-01
  -0.6137860566719774E-03
   0.6639860377241814E-02
   0.1457428364889991E-02
   0.1959225262485236E-02
   0.4263900419597337E-02
  -0.2812377000508630E-02
   0.1267523558234093E-02
   0.2851861671507241E-02
   0.1534377716498373E-02
   0.2563302770266940E-02
   0.2013283459209140E-02
   0.2154302684301487E-02
   0.8584035825034784E-02
  -0.3829991015717310E-02
   0.6155865611043271E-02
   0.4713206930013929E-04
  -0.4232114057648696E-03
  -0.1674138779527341E-01
  -0.4996582011161196E-02
  -0.4827142338989485E-02
   0.3399339224527765E-02
  -0.6077642939283289E-02
   0.3202571864966494E-04
  -0.3284964212659332E-01
  -0.3181945138677926E-02
   0.4581343128118050E-02
   0.9682851678795493E-03
   0.2133425718869813E-02
   0.4530494940793385E-02
   0.2692432777018787E-02
   0.3242956252685330E-02
   0.5223419323373395E-02
   0.1957877439966484E-02
   0.7485649524445735E-03
  -0.5742972145368081E-04
  -0.5323121587108477E-02
  -0.6973243639937589E-02
  -0.9635942983096908E-03
   0.1062774682343155E-02
  -0.2105465302383272E-02
  -0.3218910388706924E-02
  -0.2544781753528295E-02
  -0.4131559045737398E-02
  -0.7566051664458346E-02
  -0.2012630571771033E-02
   0.6512521591240876E-03
  -0.1910854280287432E-03
   0.1227866403154429E-02
  -0.3503144358848294E-02
   0.4846321120441592E-02
  -0.8642732535346394E-02
   0.3323456564660514E-04
  -0.3331469468264623E-03
   0.2558524207987037E-02
   0.1615751178125024E-02
   0.2039186647419999E-02
  -0.5641420373658088E-02
SCALARS w double 1
LOOKUP_TABLE default
   0.0000000000000000E+00
   0.0000000000000000E+00
   0.0000000000000000E+00
   0.0000000000000000E+00
   0.0000000000000000E+00
   0.0000000000000000E+00
   0.0000000000000000E+00
   0.0000000000000000E+00
   0.0000000000000000E+00
   0.0000000000000000E+00
   0.0000000000000000E+00
   0.0000000000000000E+00
   0.0000000000000000E+00
   0.0000000000000000E+00
   0.0000000000000000E+00
   0.0000000000000000E+00
   0.0000000000000000E+00
   0.0000000000000000E+00
   0.0000000000000000E+00
   0.0000000000000000E+00
   0.0000000000000000E+00
   0.0000000000000000E+00
   0.0000000000000000E+00
   0.0000000000000000E+00
   0.0000000000000000E+00
   0.0000000000000000E+00
   0.0000000000000000E+00
   0.0000000000000000E+00
   0.0000000000000000E+00
   0.0000000000000000E+00
   0.0000000000000000E+00
   0.0000000000000000E+00
   0.0000000000000000E+00
  -0.1007228668326998E+00
  -0.4245433321889273E-01
   0.7172561404376535E-03
   0.5709986773751729E-02
   0.5687875236030497E-03
   0.1604624619392737E-02
   0.3371610703894478E-02
   0.2364125105912998E-02
   0.4716933506907239E-03
   0.3528356581147149E-02
   0.4533364142439612E-01
   0.6563401540823856E-01
   0.8390789129060557E-03
  -0.2266144508167647E-01
   0.4270887657212112E-02
   0.1341954240803468E-01
   0.1029726539082946E-01
   0.4870829585171384E-01
   0.2381843674240666E-02
  -0.6533496018419339E-02
  -0.7357156985563925E-03
   0.3058138509332568E-03
   0.3847402744535673E-02
  -0.3893490550325119E-01
   0.1820276344980181E-01
   0.1120450819704784E-01
   0.3395783765165681E-01
   0.8380772421439220E-02
   0.4930499634247979E-02
   0.4978038319335958E-02
   0.4903417549458370E-02
   0.6059095521086321E-02
   0.2697070440816757E-02
  -0.4127746811650270E-01
  -0.9927034006133048E-01
  -0.1120357799613781E+00
   0.5146708419476452E-02
   0.4219393252087278E-02
  -0.1002589747626479E+00
  -0.9892490591072274E-01
  -0.9835430234775813E-01
  -0.9443832722917238E-01
  -0.6790915288196359E-01
   0.5199098249268939E-02
  -0.1927271142793585E-01
  -0.1563457604641056E-01
  -0.5963780375031272E-02
   0.6826295360537209E-02
  -0.7999802986761009E-01
  -0.2776385001358849E-01
  -0.8086434256622847E-01
  -0.5863270773381877E-01
   0.3073858504715793E-02
   0.2684918295173139E-02
   0.2644449085380285E-02
   0.3456448606582146E-02
   0.3997496383739320E-02
   0.1198980059325594E-02
  -0.1348201197683976E-03
   0.2032532024573275E-02
   0.4893591958270404E-02
   0.3863923267629924E-02
   0.1127784590489291E-02
   0.1191079344533027E-02
   0.1464036917547676E-02
  -0.2238082325520934E-04
   0.9062475361767593E-04
   0.4386723121519628E-02
   0.2711859097511328E-02
   0.2316137004349610E-02
   0.5006280643718811E-02
   0.1068063500306092E-02
   0.2706358301643402E-02
   0.2010151216626886E-02
   0.3378737671950179E-04
   0.8386248731743964E-01
   0.2832524910833560E-02
  -0.8471480220843802E-03
  -0.1275294865434104E-03
   0.1410903160167711E+00
   0.1236623358853116E+00
  -0.1228859174231634E-02
  -0.4383081104059989E-02
  -0.2802344526405510E-03
  -0.6477856648567019E-02
  -0.1895577136895733E-02
   0.1559393266701513E+00
   0.7528595283416892E-01
   0.2567561666833407E-01
   0.1661312374692012E+00