title="tecplot geometry and solution file"
variables = x y z rho u v w p mach temperature
zone t="boundary 1 bc-1", solutiontime= 0.2000000E+02, strandid=1001, i=32, j=46, f=feblock
  0.000000000000E+00  0.000000000000E+00  0.000000000000E+00  0.000000000000E+00  0.000000000000E+00  0.000000000000E+00  0.000000000000E+00
  0.000000000000E+00  0.000000000000E+00  0.000000000000E+00  0.000000000000E+00  0.000000000000E+00  0.000000000000E+00  0.000000000000E+00
  0.000000000000E+00  0.000000000000E+00  0.000000000000E+00  0.000000000000E+00  0.000000000000E+00  0.000000000000E+00  0.000000000000E+00
  0.000000000000E+00  0.000000000000E+00  0.000000000000E+00  0.000000000000E+00  0.000000000000E+00  0.000000000000E+00  0.000000000000E+00
  0.000000000000E+00  0.000000000000E+00  0.000000000000E+00  0.000000000000E+00
  0.250000000000E+01  0.250000000000E+01  0.125000000000E+01  0.146289271009E+01  0.157686156160E+01  0.308372018325E+00  0.000000000000E+00
 -0.125000000000E+01 -0.600232012419E+00  0.250000000000E+01  0.477386199275E+00  0.742988685424E+00 -0.739814786992E+00  0.177790177481E+01
  0.155830813274E+01  0.250000000000E+01 -0.250000000000E+01 -0.154800130438E+01 -0.487811078581E+00  0.250000000000E+01  0.627766083140E+00
 -0.345533899378E+00 -0.178862290564E+01 -0.158811787973E+01  0.125000000000E+01 -0.250000000000E+01 -0.144524380962E+01  0.000000000000E+00
 -0.125000000000E+01 -0.250000000000E+01 -0.250000000000E+01 -0.250000000000E+01
  0.000000000000E+00  0.125000000000E+01  0.000000000000E+00  0.103724302461E+01  0.219251206392E+01  0.922061490191E+00  0.000000000000E+00
  0.000000000000E+00  0.715990576545E+00  0.250000000000E+01  0.202479342020E+01  0.324151231464E+01  0.175434191980E+01  0.310152362409E+01
  0.404200324774E+01  0.375000000000E+01  0.000000000000E+00  0.930412228790E+00  0.299062775774E+01  0.500000000000E+01  0.429310310915E+01
  0.409252726285E+01  0.187029682677E+01  0.284428995242E+01  0.500000000000E+01  0.125000000000E+01  0.394624082883E+01  0.500000000000E+01
  0.500000000000E+01  0.250000000000E+01  0.375000000000E+01  0.500000000000E+01
  0.134426701351E+01  0.106353722386E+01  0.142583324388E+01  0.108608895644E+01  0.103227520331E+01  0.120094108322E+01  0.164465757433E+01
  0.149408225711E+01  0.123519710435E+01  0.102388234811E+01  0.102808040221E+01  0.101300795111E+01  0.103252519822E+01  0.101471103443E+01
  0.100663023314E+01  0.100829261480E+01  0.144945814476E+01  0.116391595142E+01  0.101461495281E+01  0.100425912426E+01  0.100678946560E+01
  0.100722906744E+01  0.104666365104E+01  0.101936973929E+01  0.100424222880E+01  0.106441589241E+01  0.100787570351E+01  0.100286957439E+01
  0.100332752096E+01  0.102846330333E+01  0.100957053798E+01  0.100398659636E+01
  0.000000000000E+00  0.445502159363E+00  0.000000000000E+00  0.468722502176E+00  0.462215739304E+00  0.443631072499E+00  0.000000000000E+00
  0.000000000000E+00  0.379281440531E+00  0.471751766522E+00  0.466599107906E+00  0.479368099654E+00  0.490162122118E+00  0.484523872526E+00
  0.488507933556E+00  0.489833049314E+00  0.000000000000E+00  0.450681529834E+00  0.474830915738E+00  0.495838299505E+00  0.490907355827E+00
  0.486837988496E+00  0.448686223149E+00  0.465828908908E+00  0.496553145498E+00  0.444694304550E+00  0.487708064161E+00  0.497546478178E+00
  0.496392567080E+00  0.470013357218E+00  0.489214224275E+00  0.495539796484E+00
  0.000000000000E+00  0.000000000000E+00  0.000000000000E+00  0.186087594562E-01 -0.276741572574E-02  0.332958743476E-01  0.000000000000E+00
  0.000000000000E+00 -0.594964391221E-02  0.000000000000E+00  0.356387030005E-02 -0.567709589048E-02 -0.416507799425E-02  0.271711937228E-04
 -0.106254703230E-02  0.000000000000E+00  0.000000000000E+00 -0.764324681379E-02  0.350752791119E-03  0.000000000000E+00 -0.204372340230E-02
 -0.139250783468E-02  0.156590239544E-02 -0.159340343890E-02 -0.667808477587E-04  0.000000000000E+00 -0.286087457943E-04 -0.196204523483E-03
  0.818388059211E-03  0.000000000000E+00  0.000000000000E+00  0.000000000000E+00
  0.000000000000E+00  0.452273377052E-01  0.000000000000E+00  0.123915592235E+00  0.247677977562E-01  0.165640432629E+00  0.000000000000E+00
  0.000000000000E+00  0.155764356889E+00  0.351559789958E-02  0.259798602035E-01 -0.651569436475E-02  0.748921457209E-01  0.371198840578E-02
 -0.161272194617E-03  0.449477751120E-03  0.000000000000E+00  0.140948591923E+00 -0.808864092696E-02  0.234307652056E-02 -0.316762060704E-03
 -0.438254546987E-02  0.254933345205E-01 -0.195692398207E-02  0.306193564338E-02  0.837381838510E-01 -0.119849965629E-02  0.269104742596E-02
  0.265391789483E-02  0.278336964739E-02 -0.838486964189E-03  0.344745645297E-02
  0.960181407308E+00  0.782328436188E+00  0.101844290688E+01  0.808716094637E+00  0.746112592376E+00  0.879437111388E+00  0.117474532939E+01
  0.106719325630E+01  0.916611473337E+00  0.737382530436E+00  0.743541114439E+00  0.725748324356E+00  0.757445017247E+00  0.729178264802E+00
  0.720770365554E+00  0.722769165405E+00  0.103531971165E+01  0.858306074647E+00  0.728052468400E+00  0.718607414419E+00  0.720999730511E+00
  0.721136176313E+00  0.760004405408E+00  0.732614153519E+00  0.718521710273E+00  0.791033213116E+00  0.722091268767E+00  0.717182284710E+00
  0.717623086529E+00  0.741787294613E+00  0.724041022429E+00  0.718394372896E+00
  0.000000000000E+00  0.441259545746E+00  0.000000000000E+00  0.475199357583E+00  0.460157651272E+00  0.468842501970E+00  0.000000000000E+00
  0.000000000000E+00  0.402311950460E+00  0.469829391724E+00  0.464435826262E+00  0.478728276503E+00  0.489301841534E+00  0.483079091834E+00
  0.487916132760E+00  0.488964955175E+00  0.000000000000E+00  0.464799739599E+00  0.473813446586E+00  0.495402218060E+00  0.490276589030E+00
  0.486289954269E+00  0.445735010168E+00  0.464405129658E+00  0.496145746541E+00  0.443631397531E+00  0.486972763805E+00  0.497259942848E+00
  0.496067997504E+00  0.467744298315E+00  0.488227731268E+00  0.495116644413E+00
  0.999990297104E+00  0.102982743443E+01  0.999990760321E+00  0.104245837855E+01  0.101189840265E+01  0.102520595985E+01  0.999991418764E+00
  0.999992170252E+00  0.103890792664E+01  0.100825602132E+01  0.101252543865E+01  0.100300067041E+01  0.102701902673E+01  0.100604954129E+01
  0.100243215290E+01  0.100355473869E+01  0.999992722482E+00  0.103240144019E+01  0.100459139986E+01  0.100178365910E+01  0.100259255506E+01
  0.100234462991E+01  0.101656933105E+01  0.100617055362E+01  0.100168103425E+01  0.104042649707E+01  0.100302822338E+01  0.100118223170E+01
  0.100134034017E+01  0.100976107664E+01  0.100404815044E+01  0.100175851520E+01
        12        19        11        11
        11         5        12        12
        10        14         5         5
        19        13        11        11
        19        24        13        13
        30        23        24        24
        19        12        22        22
        28        22        21        21
        11        13         6         6
         7         6         9         9
        15        12        14        14
        18        13        23        23
        15        25        21        21
        27        19        22        22
        18         8         9         9
        27        31        24        24
         4        11         6         6
         5        14        12        12
         4         2         5         5
        21        12        15        15
        14        16        15        15
        24        19        27        27
        22        29        27        27
        23        26        18        18
        17         8        18        18
         5        11         4         4
         6         3         4         4
        26        23        30        30
         5         2        10        10
        16        14        10        10
         3         6         7         7
        21        25        28        28
        29        22        28        28
         6        13         9         9
         2         4         1         1
        31        27        32        32
        25        15        20        20
        24        23        13        13
         8         7         9         9
        13        18         9         9
        31        30        24        24
        12        21        22        22
        29        32        27        27
         3         1         4         4
        26        17        18        18
        16        20        15        15
zone t="boundary 2 bc-2", solutiontime= 0.2000000E+02, strandid=1002, i=33, j=48, f=feblock
  0.500000000000E+01  0.375000000000E+01  0.250000000000E+01  0.288078410721E+01  0.125000000000E+01  0.190974100652E+01  0.326683758169E+01
  0.201431602454E+01  0.000000000000E+00  0.963108083381E+00  0.500000000000E+01  0.403552511878E+01  0.423153924130E+01  0.500000000000E+01
  0.385533350601E+01  0.500000000000E+01  0.398173246726E+01  0.315249557942E+01  0.267000324704E+01  0.154774304040E+01  0.218329375016E+01
  0.893127759452E+00  0.000000000000E+00  0.698517061619E+00  0.964171764089E+00  0.310324758057E+01  0.000000000000E+00  0.000000000000E+00
  0.125000000000E+01  0.500000000000E+01  0.375000000000E+01  0.250000000000E+01  0.000000000000E+00
 -0.250000000000E+01 -0.250000000000E+01 -0.250000000000E+01 -0.250000000000E+01 -0.250000000000E+01 -0.250000000000E+01 -0.250000000000E+01
 -0.250000000000E+01 -0.250000000000E+01 -0.250000000000E+01 -0.250000000000E+01 -0.250000000000E+01 -0.250000000000E+01 -0.250000000000E+01
 -0.250000000000E+01 -0.250000000000E+01 -0.250000000000E+01 -0.250000000000E+01 -0.250000000000E+01 -0.250000000000E+01 -0.250000000000E+01
 -0.250000000000E+01 -0.250000000000E+01 -0.250000000000E+01 -0.250000000000E+01 -0.250000000000E+01 -0.250000000000E+01 -0.250000000000E+01
 -0.250000000000E+01 -0.250000000000E+01 -0.250000000000E+01 -0.250000000000E+01 -0.250000000000E+01
  0.000000000000E+00  0.000000000000E+00  0.000000000000E+00  0.904659890645E+00  0.000000000000E+00  0.717002441913E+00  0.188609243358E+01
  0.176246431481E+01  0.000000000000E+00  0.961328577125E+00  0.125000000000E+01  0.101201586758E+01  0.191586535653E+01  0.250000000000E+01
  0.293121848150E+01  0.375000000000E+01  0.406975391361E+01  0.363585050272E+01  0.285047954584E+01  0.292817774674E+01  0.395907379566E+01
  0.205246550326E+01  0.125000000000E+01  0.306828197606E+01  0.397245519226E+01  0.433168271247E+01  0.250000000000E+01  0.375000000000E+01
  0.500000000000E+01  0.500000000000E+01  0.500000000000E+01  0.500000000000E+01  0.500000000000E+01
  0.830779577374E+00  0.935292127184E+00  0.934197595632E+00  0.968077637050E+00  0.961706368062E+00  0.964847090328E+00  0.984107331200E+00
  0.991409208997E+00  0.144945814476E+01  0.102920880265E+01  0.955851858624E+00  0.960703236521E+00  0.981461648546E+00  0.100642093540E+01
  0.997904288882E+00  0.100979441737E+01  0.100198705861E+01  0.998056252715E+00  0.991073072855E+00  0.100131016838E+01  0.100093454230E+01
  0.101223643940E+01  0.106441589241E+01  0.101080727374E+01  0.100683968610E+01  0.100116893421E+01  0.102846330333E+01  0.100957053798E+01
  0.100508730190E+01  0.100172928846E+01  0.100263232855E+01  0.100320019675E+01  0.100398659636E+01
  0.000000000000E+00  0.000000000000E+00  0.000000000000E+00  0.378965707838E+00  0.000000000000E+00  0.340647528616E+00  0.582144046191E+00
  0.575193918961E+00  0.000000000000E+00  0.489464423587E+00  0.494721027905E+00  0.431487015123E+00  0.568932985167E+00  0.536179562646E+00
  0.568935577392E+00  0.516295004724E+00  0.508655053896E+00  0.527482739428E+00  0.566664286773E+00  0.531844435843E+00  0.506166675234E+00
  0.520712567270E+00  0.444694304550E+00  0.491349463309E+00  0.492748995866E+00  0.501553582834E+00  0.470013357218E+00  0.489214224275E+00
  0.490452708309E+00  0.491388555776E+00  0.486045591635E+00  0.490248818428E+00  0.495539796484E+00
  0.000000000000E+00  0.000000000000E+00  0.000000000000E+00  0.000000000000E+00  0.000000000000E+00  0.000000000000E+00  0.000000000000E+00
  0.000000000000E+00  0.000000000000E+00  0.000000000000E+00  0.000000000000E+00  0.000000000000E+00  0.000000000000E+00  0.000000000000E+00
  0.000000000000E+00  0.000000000000E+00  0.000000000000E+00  0.000000000000E+00  0.000000000000E+00  0.000000000000E+00  0.000000000000E+00
  0.000000000000E+00  0.000000000000E+00  0.000000000000E+00  0.000000000000E+00  0.000000000000E+00  0.000000000000E+00  0.000000000000E+00
  0.000000000000E+00  0.000000000000E+00  0.000000000000E+00  0.000000000000E+00  0.000000000000E+00
  0.000000000000E+00  0.000000000000E+00  0.000000000000E+00 -0.228646918244E-02  0.000000000000E+00  0.183642480570E-01  0.121355154186E-01
  0.455238606762E-01  0.000000000000E+00  0.870800463289E-01 -0.995468611732E-01 -0.212082487848E-01 -0.306597957204E-01 -0.414703146937E-01
 -0.139027479658E-02  0.261893426460E-02  0.595508727709E-03  0.496382524069E-03  0.151295844576E-01  0.284403336069E-01  0.564511911015E-02
  0.553424894593E-01  0.837381838510E-01  0.110562412339E-01  0.680842989159E-02 -0.786332654422E-03  0.278336964739E-02 -0.838486964189E-03
  0.400065910897E-02  0.607035991747E-02 -0.141985657690E-03  0.120294338571E-02  0.344745645297E-02
  0.593410120131E+00  0.668061591580E+00  0.667279688931E+00  0.684247937254E+00  0.686928406873E+00  0.679190350988E+00  0.695799618806E+00
  0.702332103290E+00  0.103531971165E+01  0.723688263930E+00  0.672573124498E+00  0.675691576632E+00  0.694082166196E+00  0.720956470052E+00
  0.712682244904E+00  0.724783544570E+00  0.716575124467E+00  0.713285597594E+00  0.706419899833E+00  0.717724689553E+00  0.715362376757E+00
  0.730926620246E+00  0.791033213116E+00  0.724358577164E+00  0.720997124485E+00  0.715435221277E+00  0.741787294613E+00  0.724041022429E+00
  0.719303249771E+00  0.715838527285E+00  0.716585935428E+00  0.717364985659E+00  0.718394372896E+00
  0.000000000000E+00  0.000000000000E+00  0.000000000000E+00  0.380971199385E+00  0.000000000000E+00  0.343640933177E+00  0.585247984694E+00
  0.579377257218E+00  0.000000000000E+00  0.501071397293E+00  0.508441027064E+00  0.435359529461E+00  0.572608815864E+00  0.537002955113E+00
  0.568979797289E+00  0.515052871794E+00  0.508346497933E+00  0.527339386796E+00  0.567463510661E+00  0.531674747027E+00  0.506053379475E+00
  0.520807537850E+00  0.443631397531E+00  0.490674811531E+00  0.492171633662E+00  0.501443928446E+00  0.467744298315E+00  0.488227731268E+00
  0.489997031697E+00  0.491317018062E+00  0.485903157375E+00  0.489979107147E+00  0.495116644413E+00
  0.999993489018E+00  0.999993692909E+00  0.999993544055E+00  0.989535421017E+00  0.999993138820E+00  0.985510036684E+00  0.989850837855E+00
  0.991785163668E+00  0.999992722482E+00  0.984410128332E+00  0.985092371586E+00  0.984662246701E+00  0.990069285044E+00  0.100289950514E+01
  0.999850540760E+00  0.100485499319E+01  0.100121569998E+01  0.100054464256E+01  0.997896004698E+00  0.100349981166E+01  0.100057225037E+01
  0.101092711990E+01  0.104042649707E+01  0.100325950790E+01  0.100253892275E+01  0.100043986141E+01  0.100976107664E+01  0.100404815044E+01
  0.100192744230E+01  0.100044388214E+01  0.100058643735E+01  0.100110723979E+01  0.100175851520E+01
        15         7        19        19
         8        20        19        19
        18        19        21        21
         7         4         8         8
         3         6         4         4
        19         7         8         8
        19        18        15        15
        14        13        15        15
         8        22        20        20
        27        24        22        22
        19        20        21        21
        32        26        21        21
        17        18        26        26
        17        16        15        15
        25        29        21        21
        12         7        13        13
        10         8         6         6
        25        20        24        24
         4         6         8         8
        12         2         4         4
        10        23        22        22
        26        31        17        17
        30        16        17        17
         4         7        12        12
        13        11        12        12
        21        20        25        25
        24        28        25        25
        22         8        10        10
         6         5        10        10
        31        26        32        32
         4         2         3         3
         5         6         3         3
        11        13        14        14
        22        23        27        27
        28        24        27        27
        15        13         7         7
         2        12         1         1
        29        25        33        33
        23        10         9         9
        21        26        18        18
        16        14        15        15
        18        17        15        15
        29        32        21        21
        22        24        20        20
        28        33        25        25
        11         1        12        12
        31        30        17        17
         5         9        10        10
zone t="boundary 3 bc-3", solutiontime= 0.2000000E+02, strandid=1003, i=33, j=48, f=feblock
  0.375000000000E+01  0.250000000000E+01  0.500000000000E+01  0.403552511878E+01  0.288078410721E+01  0.125000000000E+01  0.190974100652E+01
  0.500000000000E+01  0.326683758169E+01  0.423153924130E+01  0.201431602454E+01  0.000000000000E+00  0.963108083381E+00  0.500000000000E+01
  0.267000324704E+01  0.385533350601E+01  0.893127759452E+00  0.154774304040E+01  0.000000000000E+00  0.500000000000E+01  0.315249557942E+01
  0.218329375016E+01  0.398173246726E+01  0.000000000000E+00  0.698517061619E+00  0.964171764089E+00  0.125000000000E+01  0.000000000000E+00
  0.500000000000E+01  0.310324758057E+01  0.250000000000E+01  0.375000000000E+01  0.000000000000E+00
  0.250000000000E+01  0.250000000000E+01  0.250000000000E+01  0.250000000000E+01  0.250000000000E+01  0.250000000000E+01  0.250000000000E+01
  0.250000000000E+01  0.250000000000E+01  0.250000000000E+01  0.250000000000E+01  0.250000000000E+01  0.250000000000E+01  0.250000000000E+01
  0.250000000000E+01  0.250000000000E+01  0.250000000000E+01  0.250000000000E+01  0.250000000000E+01  0.250000000000E+01  0.250000000000E+01
  0.250000000000E+01  0.250000000000E+01  0.250000000000E+01  0.250000000000E+01  0.250000000000E+01  0.250000000000E+01  0.250000000000E+01
  0.250000000000E+01  0.250000000000E+01  0.250000000000E+01  0.250000000000E+01  0.250000000000E+01
  0.000000000000E+00  0.000000000000E+00  0.000000000000E+00  0.101201586758E+01  0.904659890645E+00  0.000000000000E+00  0.717002441913E+00
  0.125000000000E+01  0.188609243358E+01  0.191586535653E+01  0.176246431481E+01  0.000000000000E+00  0.961328577125E+00  0.250000000000E+01
  0.285047954584E+01  0.293121848150E+01  0.205246550326E+01  0.292817774674E+01  0.125000000000E+01  0.375000000000E+01  0.363585050272E+01
  0.395907379566E+01  0.406975391361E+01  0.250000000000E+01  0.306828197606E+01  0.397245519226E+01  0.500000000000E+01  0.375000000000E+01
  0.500000000000E+01  0.433168271247E+01  0.500000000000E+01  0.500000000000E+01  0.500000000000E+01
  0.941868386997E+00  0.946282682332E+00  0.843728828954E+00  0.964401017620E+00  0.978854166802E+00  0.956962032407E+00  0.983321856601E+00
  0.963537821490E+00  0.982672031757E+00  0.984234056128E+00  0.990249465950E+00  0.134426701351E+01  0.101917346699E+01  0.100830881644E+01
  0.993441986999E+00  0.998000141017E+00  0.100806074969E+01  0.100070006653E+01  0.106353722386E+01  0.100676919219E+01  0.100058010169E+01
  0.100233614165E+01  0.100177153510E+01  0.102388234811E+01  0.100872421646E+01  0.100526518666E+01  0.100522297005E+01  0.100829261480E+01
  0.100185747762E+01  0.100160319749E+01  0.100409380299E+01  0.100312445947E+01  0.100425912426E+01
  0.000000000000E+00  0.000000000000E+00  0.000000000000E+00  0.439021993520E+00  0.399808553824E+00  0.000000000000E+00  0.373781814899E+00
  0.494927883024E+00  0.573032115797E+00  0.569564488902E+00  0.559935349597E+00  0.000000000000E+00  0.483396774531E+00  0.533811257309E+00
  0.556500196545E+00  0.564763857388E+00  0.522634609340E+00  0.522556625561E+00  0.445502159363E+00  0.518380732962E+00  0.524843787761E+00
  0.503953520113E+00  0.509945499880E+00  0.471751766522E+00  0.496257374494E+00  0.494963505992E+00  0.489129682771E+00  0.489833049314E+00
  0.493003484184E+00  0.499229138099E+00  0.486735849459E+00  0.484535963960E+00  0.495838299505E+00
  0.000000000000E+00  0.000000000000E+00  0.000000000000E+00  0.000000000000E+00  0.000000000000E+00  0.000000000000E+00  0.000000000000E+00
  0.000000000000E+00  0.000000000000E+00  0.000000000000E+00  0.000000000000E+00  0.000000000000E+00  0.000000000000E+00  0.000000000000E+00
  0.000000000000E+00  0.000000000000E+00  0.000000000000E+00  0.000000000000E+00  0.000000000000E+00  0.000000000000E+00  0.000000000000E+00
  0.000000000000E+00  0.000000000000E+00  0.000000000000E+00  0.000000000000E+00  0.000000000000E+00  0.000000000000E+00  0.000000000000E+00
  0.000000000000E+00  0.000000000000E+00  0.000000000000E+00  0.000000000000E+00  0.000000000000E+00
  0.000000000000E+00  0.000000000000E+00  0.000000000000E+00 -0.226393384380E-01  0.112003262273E-01  0.000000000000E+00  0.179825689363E-01
 -0.100768222190E+00  0.390762142476E-02 -0.389581044959E-01  0.340488032440E-01  0.000000000000E+00  0.652254543794E-01 -0.425016353981E-01
  0.845628896798E-02 -0.650707461912E-02  0.490101374842E-01  0.136107651634E-01  0.452273377052E-01  0.800397795383E-03 -0.696527393195E-03
  0.244022332678E-02  0.926077359308E-03  0.351559789958E-02  0.103959313948E-01  0.431218056468E-02  0.333955883108E-02  0.449477751120E-03
  0.583862676848E-02  0.339967721096E-03  0.163636612424E-02  0.684397879538E-03  0.234307652056E-02
  0.672755961692E+00  0.675909044084E+00  0.602657197855E+00  0.676087291263E+00  0.691292296070E+00  0.683537357455E+00  0.690058705212E+00
  0.677283316147E+00  0.695189973181E+00  0.696240548187E+00  0.703330042190E+00  0.960181407308E+00  0.719710324624E+00  0.722872246848E+00
  0.709435440564E+00  0.713693424067E+00  0.726050861834E+00  0.716587406989E+00  0.782328436188E+00  0.722305401169E+00  0.716113221860E+00
  0.716528086659E+00  0.716535039462E+00  0.737382530436E+00  0.722665401074E+00  0.719417937121E+00  0.719559248060E+00  0.722769165405E+00
  0.715957653594E+00  0.715824042094E+00  0.718133026412E+00  0.717024289286E+00  0.718607414419E+00
  0.000000000000E+00  0.000000000000E+00  0.000000000000E+00  0.443737753301E+00  0.402241200080E+00  0.000000000000E+00  0.377538282145E+00
  0.509151564835E+00  0.575807862082E+00  0.573669797660E+00  0.562558965010E+00  0.000000000000E+00  0.490572109112E+00  0.534517485120E+00
  0.556629544321E+00  0.564470378197E+00  0.522751364822E+00  0.522076309133E+00  0.441259545746E+00  0.517237350923E+00  0.524326140877E+00
  0.503757636031E+00  0.509596092385E+00  0.469829391724E+00  0.495627986270E+00  0.494510289949E+00  0.488616406529E+00  0.488964955175E+00
  0.492919192967E+00  0.499092127079E+00  0.486425645857E+00  0.484365173253E+00  0.495402218060E+00
  0.999989339670E+00  0.999989410548E+00  0.999989627050E+00  0.981461228757E+00  0.988716447579E+00  0.999989830348E+00  0.982467928290E+00
  0.984078280538E+00  0.990428068572E+00  0.990350579104E+00  0.994357576474E+00  0.999990297104E+00  0.988638820676E+00  0.100368173826E+01
  0.999766095844E+00  0.100117299851E+01  0.100834320439E+01  0.100252053871E+01  0.102982743443E+01  0.100442839280E+01  0.100197726191E+01
  0.100080130771E+01  0.100137508414E+01  0.100825602132E+01  0.100298133523E+01  0.100190986949E+01  0.100214875436E+01  0.100355473869E+01
  0.100048234147E+01  0.100054958036E+01  0.100128716458E+01  0.100070733549E+01  0.100178365910E+01
        15         9        16        16
        15        18        11        11
        22        15        21        21
        11         5         9         9
         5         7         2         2
        11         9        15        15
        16        21        15        15
        16        10        14        14
        18        17        11        11
        17        25        24        24
        22        18        15        15
        22        30        31        31
        30        21        23        23
        16        20        23        23
        22        27        26        26
        10         9         4         4
         7        11        13        13
        25        18        26        26
        11         7         5         5
         5         1         4         4
        17        19        13        13
        23        32        30        30
        23        20        29        29
         4         9         5         5
         4         8        10        10
        26        18        22        22
        26        28        25        25
        13        11        17        17
        13         6         7         7
        31        30        32        32
         2         1         5         5
         2         7         6         6
        14        10         8         8
        24        19        17        17
        24        25        28        28
         9        10        16        16
         3         4         1         1
        33        26        27        27
        12        13        19        19
        21        30        22        22
        16        14        20        20
        16        23        21        21
        22        31        27        27
        18        25        17        17
        26        33        28        28
         4         3         8         8
        23        29        32        32
        13        12         6         6
zone t="boundary 4 bc-4", solutiontime= 0.2000000E+02, strandid=1004, i=32, j=46, f=feblock
  0.125000000000E+01  0.219251206392E+01  0.103724302461E+01  0.500000000000E+01  0.250000000000E+01  0.375000000000E+01  0.404200324774E+01
  0.500000000000E+01  0.000000000000E+00  0.310152362409E+01  0.202479342020E+01  0.324151231464E+01  0.922061490191E+00  0.000000000000E+00
  0.299062775774E+01  0.394624082883E+01  0.500000000000E+01  0.409252726285E+01  0.500000000000E+01  0.429310310915E+01  0.175434191980E+01
  0.284428995242E+01  0.000000000000E+00  0.000000000000E+00  0.715990576545E+00  0.930412228790E+00  0.125000000000E+01  0.187029682677E+01
  0.500000000000E+01  0.375000000000E+01  0.250000000000E+01  0.000000000000E+00
  0.250000000000E+01  0.157686156160E+01  0.146289271009E+01  0.250000000000E+01  0.250000000000E+01  0.250000000000E+01  0.155830813274E+01
  0.125000000000E+01  0.250000000000E+01  0.177790177481E+01  0.477386199275E+00  0.742988685424E+00  0.308372018325E+00  0.125000000000E+01
 -0.487811078581E+00 -0.144524380962E+01 -0.125000000000E+01 -0.345533899378E+00  0.000000000000E+00  0.627766083140E+00 -0.739814786992E+00
 -0.158811787973E+01  0.000000000000E+00 -0.125000000000E+01 -0.600232012419E+00 -0.154800130438E+01 -0.250000000000E+01 -0.178862290564E+01
 -0.250000000000E+01 -0.250000000000E+01 -0.250000000000E+01 -0.250000000000E+01
  0.500000000000E+01  0.500000000000E+01  0.500000000000E+01  0.500000000000E+01  0.500000000000E+01  0.500000000000E+01  0.500000000000E+01
  0.500000000000E+01  0.500000000000E+01  0.500000000000E+01  0.500000000000E+01  0.500000000000E+01  0.500000000000E+01  0.500000000000E+01
  0.500000000000E+01  0.500000000000E+01  0.500000000000E+01  0.500000000000E+01  0.500000000000E+01  0.500000000000E+01  0.500000000000E+01
  0.500000000000E+01  0.500000000000E+01  0.500000000000E+01  0.500000000000E+01  0.500000000000E+01  0.500000000000E+01  0.500000000000E+01
  0.500000000000E+01  0.500000000000E+01  0.500000000000E+01  0.500000000000E+01
  0.100522297005E+01  0.100430409995E+01  0.100429816983E+01  0.100185747762E+01  0.100409380299E+01  0.100312445947E+01  0.100249908524E+01
  0.100192639828E+01  0.100425912426E+01  0.100366028808E+01  0.100444678821E+01  0.100343727331E+01  0.100364959811E+01  0.100424222880E+01
  0.100359219740E+01  0.100160857731E+01  0.100223016628E+01  0.100221148390E+01  0.100205884649E+01  0.100246494269E+01  0.100441735452E+01
  0.100336325668E+01  0.100286957439E+01  0.100332752096E+01  0.100322043434E+01  0.100404930086E+01  0.100508730190E+01  0.100430731597E+01
  0.100172928846E+01  0.100263232855E+01  0.100320019675E+01  0.100398659636E+01
  0.489129682771E+00  0.489233965230E+00  0.491008143116E+00  0.493003484184E+00  0.486735849459E+00  0.484535963960E+00  0.485191095684E+00
  0.494181399226E+00  0.495838299505E+00  0.486687387168E+00  0.488138770312E+00  0.487155398319E+00  0.494443687762E+00  0.496553145498E+00
  0.487763145823E+00  0.483082163677E+00  0.492508804017E+00  0.487117009386E+00  0.494805212033E+00  0.487847758725E+00  0.490094423761E+00
  0.488157953378E+00  0.497546478178E+00  0.496392567080E+00  0.495268314058E+00  0.493225226182E+00  0.490452708309E+00  0.490379650158E+00
  0.491388555776E+00  0.486045591635E+00  0.490248818428E+00  0.495539796484E+00
  0.000000000000E+00 -0.103184856039E-03 -0.131129947941E-02  0.000000000000E+00  0.000000000000E+00  0.000000000000E+00  0.467103741018E-03
  0.848266290253E-03  0.000000000000E+00  0.267550582715E-03 -0.947956308824E-03 -0.833862637181E-03 -0.174496507405E-02 -0.667808477587E-04
 -0.110427319410E-02 -0.103579762521E-02 -0.134058218672E-02 -0.215505664557E-02 -0.130480919228E-02 -0.105192348326E-02 -0.594080070126E-03
 -0.749378741001E-03 -0.196204523483E-03  0.818388059211E-03  0.658751423746E-04  0.163944247806E-02  0.000000000000E+00  0.805152340326E-03
  0.000000000000E+00  0.000000000000E+00  0.000000000000E+00  0.000000000000E+00