title="tecplot geometry and solution file"
variables = x y z rho u v w p mach temperature
zone t="boundary 1 bc-1", solutiontime= 0.4000000E+02, strandid=1001, i=32, j=46, f=feblock
  0.000000000000E+00  0.000000000000E+00  0.000000000000E+00  0.000000000000E+00  0.000000000000E+00  0.000000000000E+00  0.000000000000E+00
  0.000000000000E+00  0.000000000000E+00  0.000000000000E+00  0.000000000000E+00  0.000000000000E+00  0.000000000000E+00  0.000000000000E+00
  0.000000000000E+00  0.000000000000E+00  0.000000000000E+00  0.000000000000E+00  0.000000000000E+00  0.000000000000E+00  0.000000000000E+00
  0.000000000000E+00  0.000000000000E+00  0.000000000000E+00  0.000000000000E+00  0.000000000000E+00  0.000000000000E+00  0.000000000000E+00
  0.000000000000E+00  0.000000000000E+00  0.000000000000E+00  0.000000000000E+00
  0.250000000000E+01  0.250000000000E+01  0.125000000000E+01  0.146289271009E+01  0.157686156160E+01  0.308372018325E+00  0.000000000000E+00
 -0.125000000000E+01 -0.600232012419E+00  0.250000000000E+01  0.477386199275E+00  0.742988685424E+00 -0.739814786992E+00  0.177790177481E+01
  0.155830813274E+01  0.250000000000E+01 -0.250000000000E+01 -0.154800130438E+01 -0.487811078581E+00  0.250000000000E+01  0.627766083140E+00
 -0.345533899378E+00 -0.178862290564E+01 -0.158811787973E+01  0.125000000000E+01 -0.250000000000E+01 -0.144524380962E+01  0.000000000000E+00
 -0.125000000000E+01 -0.250000000000E+01 -0.250000000000E+01 -0.250000000000E+01
  0.000000000000E+00  0.125000000000E+01  0.000000000000E+00  0.103724302461E+01  0.219251206392E+01  0.922061490191E+00  0.000000000000E+00
  0.000000000000E+00  0.715990576545E+00  0.250000000000E+01  0.202479342020E+01  0.324151231464E+01  0.175434191980E+01  0.310152362409E+01
  0.404200324774E+01  0.375000000000E+01  0.000000000000E+00  0.930412228790E+00  0.299062775774E+01  0.500000000000E+01  0.429310310915E+01
  0.409252726285E+01  0.187029682677E+01  0.284428995242E+01  0.500000000000E+01  0.125000000000E+01  0.394624082883E+01  0.500000000000E+01
  0.500000000000E+01  0.250000000000E+01  0.375000000000E+01  0.500000000000E+01
  0.134427144751E+01  0.106355395260E+01  0.142583204212E+01  0.108608796592E+01  0.103229114982E+01  0.120095364280E+01  0.164466726612E+01
  0.149409063439E+01  0.123520366723E+01  0.102389313705E+01  0.102809523312E+01  0.101301828552E+01  0.103252946709E+01  0.101471891367E+01
  0.100663883718E+01  0.100830818648E+01  0.144945745193E+01  0.116393551622E+01  0.101462863624E+01  0.100426040723E+01  0.100679807562E+01
  0.100724553362E+01  0.104668118719E+01  0.101938460414E+01  0.100424800536E+01  0.106442281089E+01  0.100789341652E+01  0.100288844236E+01
  0.100334542181E+01  0.102847361779E+01  0.100958665588E+01  0.100399273857E+01
  0.000000000000E+00  0.445481420172E+00  0.000000000000E+00  0.468737854559E+00  0.462182267587E+00  0.443613740864E+00  0.000000000000E+00
  0.000000000000E+00  0.379272525216E+00  0.471738849064E+00  0.466574961529E+00  0.479355161342E+00  0.490159648428E+00  0.484514726368E+00
  0.488524773522E+00  0.489830200150E+00  0.000000000000E+00  0.450653322473E+00  0.474814037281E+00  0.495784876133E+00  0.490899460320E+00
  0.486835364628E+00  0.448668673244E+00  0.465807186815E+00  0.496536483314E+00  0.444686633873E+00  0.487701037256E+00  0.497534086505E+00
  0.496384260390E+00  0.470002882967E+00  0.489199908238E+00  0.495522029752E+00
  0.000000000000E+00  0.000000000000E+00  0.000000000000E+00  0.186085526068E-01 -0.276688300090E-02  0.332952465997E-01  0.000000000000E+00
  0.000000000000E+00 -0.594701776026E-02  0.000000000000E+00  0.356648589947E-02 -0.566637988971E-02 -0.416060343004E-02  0.305534753702E-04
 -0.106176517021E-02  0.000000000000E+00  0.000000000000E+00 -0.764112724742E-02  0.359619733811E-03  0.000000000000E+00 -0.203512849639E-02
 -0.138313242845E-02  0.156561564244E-02 -0.158521314916E-02 -0.638395911013E-04  0.000000000000E+00 -0.283450922034E-04 -0.196341515436E-03
  0.807127112435E-03  0.000000000000E+00  0.000000000000E+00  0.000000000000E+00
  0.000000000000E+00  0.452181795959E-01  0.000000000000E+00  0.123933293123E+00  0.247647188826E-01  0.165644510669E+00  0.000000000000E+00
  0.000000000000E+00  0.155763095794E+00  0.351822661737E-02  0.259783161126E-01 -0.651224843719E-02  0.748997891280E-01  0.371839402763E-02
 -0.149292028165E-03  0.459058863903E-03  0.000000000000E+00  0.140954083060E+00 -0.808565728526E-02  0.237176893600E-02 -0.304298829195E-03
 -0.438193698449E-02  0.255017504768E-01 -0.194957191992E-02  0.308362256867E-02  0.837461350393E-01 -0.121909289091E-02  0.268513918940E-02
  0.264043131917E-02  0.279386966468E-02 -0.834665070485E-03  0.345018553995E-02
  0.960184574419E+00  0.782340561407E+00  0.101844204849E+01  0.808726655605E+00  0.746125889584E+00  0.879446497974E+00  0.117475225203E+01
  0.106719924003E+01  0.916620145050E+00  0.737395237509E+00  0.743553969969E+00  0.725759209430E+00  0.757455248600E+00  0.729188341334E+00
  0.720785045964E+00  0.722781669218E+00  0.103531921677E+01  0.858317139450E+00  0.728065069946E+00  0.718615291788E+00  0.721013448075E+00
  0.721151586810E+00  0.760018783402E+00  0.732628400179E+00  0.718531161285E+00  0.791043235997E+00  0.722107947233E+00  0.717199386534E+00
  0.717636872586E+00  0.741799733794E+00  0.724056578385E+00  0.718400640046E+00
  0.000000000000E+00  0.441238353021E+00  0.000000000000E+00  0.475214984548E+00  0.460123712082E+00  0.468827817015E+00  0.000000000000E+00
  0.000000000000E+00  0.402302518684E+00  0.469814974357E+00  0.464411137057E+00  0.478714038213E+00  0.489298237640E+00  0.483068560416E+00
  0.487930063038E+00  0.488961666121E+00  0.000000000000E+00  0.464775737243E+00  0.473795659647E+00  0.495346580598E+00  0.490266092827E+00
  0.486286080442E+00  0.445717622358E+00  0.464382286653E+00  0.496127396399E+00  0.443624081098E+00  0.486964453794E+00  0.497246275813E+00
  0.496059266599E+00  0.467732360705E+00  0.488212090223E+00  0.495098267578E+00
  0.999990297104E+00  0.102982719710E+01  0.999990760321E+00  0.104247294269E+01  0.101190080492E+01  0.102520618056E+01  0.999991418764E+00
  0.999992170252E+00  0.103891223538E+01  0.100826277192E+01  0.101252833826E+01  0.100300548147E+01  0.102702865327E+01  0.100605563187E+01
  0.100244400184E+01  0.100355660152E+01  0.999992722482E+00  0.103239739529E+01  0.100459523960E+01  0.100179336083E+01  0.100260305592E+01
  0.100234966335E+01  0.101657153084E+01  0.100617544750E+01  0.100168844790E+01  0.104043291732E+01  0.100303376286E+01  0.100118726943E+01
  0.100134171122E+01  0.100976788257E+01  0.100405369251E+01  0.100176112578E+01
        12        19        11        11
        11         5        12        12
        10        14         5         5
        19        13        11        11
        19        24        13        13
        30        23        24        24
        19        12        22        22
        28        22        21        21
        11        13         6         6
         7         6         9         9
        15        12        14        14
        18        13        23        23
        15        25        21        21
        27        19        22        22
        18         8         9         9
        27        31        24        24
         4        11         6         6
         5        14        12        12
         4         2         5         5
        21        12        15        15
        14        16        15        15
        24        19        27        27
        22        29        27        27
        23        26        18        18
        17         8        18        18
         5        11         4         4
         6         3         4         4
        26        23        30        30
         5         2        10        10
        16        14        10        10
         3         6         7         7
        21        25        28        28
        29        22        28        28
         6        13         9         9
         2         4         1         1
        31        27        32        32
        25        15        20        20
        24        23        13        13
         8         7         9         9
        13        18         9         9
        31        30        24        24
        12        21        22        22
        29        32        27        27
         3         1         4         4
        26        17        18        18
        16        20        15        15
zone t="boundary 2 bc-2", solutiontime= 0.4000000E+02, strandid=1002, i=33, j=48, f=feblock
  0.500000000000E+01  0.375000000000E+01  0.250000000000E+01  0.288078410721E+01  0.125000000000E+01  0.190974100652E+01  0.326683758169E+01
  0.201431602454E+01  0.000000000000E+00  0.963108083381E+00  0.500000000000E+01  0.403552511878E+01  0.423153924130E+01  0.500000000000E+01
  0.385533350601E+01  0.500000000000E+01  0.398173246726E+01  0.315249557942E+01  0.267000324704E+01  0.154774304040E+01  0.218329375016E+01
  0.893127759452E+00  0.000000000000E+00  0.698517061619E+00  0.964171764089E+00  0.310324758057E+01  0.000000000000E+00  0.000000000000E+00
  0.125000000000E+01  0.500000000000E+01  0.375000000000E+01  0.250000000000E+01  0.000000000000E+00
 -0.250000000000E+01 -0.250000000000E+01 -0.250000000000E+01 -0.250000000000E+01 -0.250000000000E+01 -0.250000000000E+01 -0.250000000000E+01
 -0.250000000000E+01 -0.250000000000E+01 -0.250000000000E+01 -0.250000000000E+01 -0.250000000000E+01 -0.250000000000E+01 -0.250000000000E+01
 -0.250000000000E+01 -0.250000000000E+01 -0.250000000000E+01 -0.250000000000E+01 -0.250000000000E+01 -0.250000000000E+01 -0.250000000000E+01
 -0.250000000000E+01 -0.250000000000E+01 -0.250000000000E+01 -0.250000000000E+01 -0.250000000000E+01 -0.250000000000E+01 -0.250000000000E+01
 -0.250000000000E+01 -0.250000000000E+01 -0.250000000000E+01 -0.250000000000E+01 -0.250000000000E+01
  0.000000000000E+00  0.000000000000E+00  0.000000000000E+00  0.904659890645E+00  0.000000000000E+00  0.717002441913E+00  0.188609243358E+01
  0.176246431481E+01  0.000000000000E+00  0.961328577125E+00  0.125000000000E+01  0.101201586758E+01  0.191586535653E+01  0.250000000000E+01
  0.293121848150E+01  0.375000000000E+01  0.406975391361E+01  0.363585050272E+01  0.285047954584E+01  0.292817774674E+01  0.395907379566E+01
  0.205246550326E+01  0.125000000000E+01  0.306828197606E+01  0.397245519226E+01  0.433168271247E+01  0.250000000000E+01  0.375000000000E+01
  0.500000000000E+01  0.500000000000E+01  0.500000000000E+01  0.500000000000E+01  0.500000000000E+01
  0.830787407128E+00  0.935297258431E+00  0.934221978961E+00  0.968087714481E+00  0.961719525399E+00  0.964848339327E+00  0.984136205620E+00
  0.991412447259E+00  0.144945745193E+01  0.102921689070E+01  0.955878716192E+00  0.960692948103E+00  0.981487966283E+00  0.100642908941E+01
  0.997912114828E+00  0.100977868830E+01  0.100199484814E+01  0.998063219046E+00  0.991085841023E+00  0.100132719286E+01  0.100094599986E+01
  0.101224609732E+01  0.106442281089E+01  0.101082189975E+01  0.100685257799E+01  0.100118412834E+01  0.102847361779E+01  0.100958665588E+01
  0.100510171178E+01  0.100179475081E+01  0.100266311891E+01  0.100321164480E+01  0.100399273857E+01
  0.000000000000E+00  0.000000000000E+00  0.000000000000E+00  0.378986938716E+00  0.000000000000E+00  0.340639446344E+00  0.582179008129E+00
  0.575195822302E+00  0.000000000000E+00  0.489449421857E+00  0.494741308070E+00  0.431507394680E+00  0.568961809604E+00  0.536179840702E+00
  0.568879734112E+00  0.516235691304E+00  0.508555819147E+00  0.527399314308E+00  0.566648556687E+00  0.531828935056E+00  0.506096475887E+00
  0.520701996883E+00  0.444686633873E+00  0.491339928837E+00  0.492734940204E+00  0.501504526408E+00  0.470002882967E+00  0.489199908238E+00
  0.490458154985E+00  0.491426965699E+00  0.486218274494E+00  0.490304430034E+00  0.495522029752E+00
  0.000000000000E+00  0.000000000000E+00  0.000000000000E+00  0.000000000000E+00  0.000000000000E+00  0.000000000000E+00  0.000000000000E+00
  0.000000000000E+00  0.000000000000E+00  0.000000000000E+00  0.000000000000E+00  0.000000000000E+00  0.000000000000E+00  0.000000000000E+00
  0.000000000000E+00  0.000000000000E+00  0.000000000000E+00  0.000000000000E+00  0.000000000000E+00  0.000000000000E+00  0.000000000000E+00
  0.000000000000E+00  0.000000000000E+00  0.000000000000E+00  0.000000000000E+00  0.000000000000E+00  0.000000000000E+00  0.000000000000E+00
  0.000000000000E+00  0.000000000000E+00  0.000000000000E+00  0.000000000000E+00  0.000000000000E+00
  0.000000000000E+00  0.000000000000E+00  0.000000000000E+00 -0.229668906657E-02  0.000000000000E+00  0.183565265404E-01  0.121122199559E-01
  0.454986555965E-01  0.000000000000E+00  0.870789629506E-01 -0.995426038071E-01 -0.211865036009E-01 -0.306441332627E-01 -0.414442969030E-01
 -0.137879739128E-02  0.259922299601E-02  0.609520969591E-03  0.503605162474E-03  0.150967389221E-01  0.284025712119E-01  0.564165140148E-02
  0.553419851170E-01  0.837461350393E-01  0.110441033524E-01  0.679168603887E-02 -0.758102092859E-03  0.279386966468E-02 -0.834665070485E-03
  0.400707428841E-02  0.602725411398E-02 -0.143896475165E-03  0.120117121003E-02  0.345018553995E-02
  0.593415712776E+00  0.668065256733E+00  0.667297105482E+00  0.684257572226E+00  0.686937804906E+00  0.679201333727E+00  0.695811644772E+00
  0.702343850566E+00  0.103531921677E+01  0.723694675125E+00  0.672591699731E+00  0.675702735306E+00  0.694093187767E+00  0.720959953195E+00
  0.712691285914E+00  0.724770860552E+00  0.716580556601E+00  0.713298977912E+00  0.706429553905E+00  0.717737236714E+00  0.715376597399E+00
  0.730937672562E+00  0.791043235997E+00  0.724372845162E+00  0.721010715859E+00  0.715457525746E+00  0.741799733794E+00  0.724056578385E+00
  0.719312936907E+00  0.715892793380E+00  0.716608872396E+00  0.717367928979E+00  0.718400640046E+00
  0.000000000000E+00  0.000000000000E+00  0.000000000000E+00  0.380991904586E+00  0.000000000000E+00  0.343629829004E+00  0.585286158598E+00
  0.579373267070E+00  0.000000000000E+00  0.501056069071E+00  0.508460334509E+00  0.435373040907E+00  0.572640026719E+00  0.537002107321E+00
  0.568922544288E+00  0.514994098627E+00  0.508247389254E+00  0.527252886092E+00  0.567446670813E+00  0.531657156203E+00  0.505981032709E+00
  0.520795577660E+00  0.443624081098E+00  0.490663739979E+00  0.492155878501E+00  0.501390828433E+00  0.467732360705E+00  0.488212090223E+00
  0.490002738307E+00  0.491352316915E+00  0.486075474444E+00  0.490036474197E+00  0.495098267578E+00
  0.999993489018E+00  0.999993692909E+00  0.999993544055E+00  0.989539053938E+00  0.999993138820E+00  0.985524696951E+00  0.989838903516E+00
  0.991798512830E+00  0.999992722482E+00  0.984411113275E+00  0.985091898870E+00  0.984689053142E+00  0.990058458439E+00  0.100289622497E+01
  0.999855383510E+00  0.100485305991E+01  0.100121550635E+01  0.100055642771E+01  0.997896786061E+00  0.100350029297E+01  0.100058068717E+01
  0.101093276061E+01  0.104043291732E+01  0.100326475265E+01  0.100254498451E+01  0.100045586790E+01  0.100976788257E+01  0.100405369251E+01
  0.100192657108E+01  0.100045434448E+01  0.100058773723E+01  0.100109992321E+01  0.100176112578E+01
        15         7        19        19
         8        20        19        19
        18        19        21        21
         7         4         8         8
         3         6         4         4
        19         7         8         8
        19        18        15        15
        14        13        15        15
         8        22        20        20
        27        24        22        22
        19        20        21        21
        32        26        21        21
        17        18        26        26
        17        16        15        15
        25        29        21        21
        12         7        13        13
        10         8         6         6
        25        20        24        24
         4         6         8         8
        12         2         4         4
        10        23        22        22
        26        31        17        17
        30        16        17        17
         4         7        12        12
        13        11        12        12
        21        20        25        25
        24        28        25        25
        22         8        10        10
         6         5        10        10
        31        26        32        32
         4         2         3         3
         5         6         3         3
        11        13        14        14
        22        23        27        27
        28        24        27        27
        15        13         7         7
         2        12         1         1
        29        25        33        33
        23        10         9         9
        21        26        18        18
        16        14        15        15
        18        17        15        15
        29        32        21        21
        22        24        20        20
        28        33        25        25
        11         1        12        12
        31        30        17        17
         5         9        10        10
zone t="boundary 3 bc-3", solutiontime= 0.4000000E+02, strandid=1003, i=33, j=48, f=feblock
  0.375000000000E+01  0.250000000000E+01  0.500000000000E+01  0.403552511878E+01  0.288078410721E+01  0.125000000000E+01  0.190974100652E+01
  0.500000000000E+01  0.326683758169E+01  0.423153924130E+01  0.201431602454E+01  0.000000000000E+00  0.963108083381E+00  0.500000000000E+01
  0.267000324704E+01  0.385533350601E+01  0.893127759452E+00  0.154774304040E+01  0.000000000000E+00  0.500000000000E+01  0.315249557942E+01
  0.218329375016E+01  0.398173246726E+01  0.000000000000E+00  0.698517061619E+00  0.964171764089E+00  0.125000000000E+01  0.000000000000E+00
  0.500000000000E+01  0.310324758057E+01  0.250000000000E+01  0.375000000000E+01  0.000000000000E+00
  0.250000000000E+01  0.250000000000E+01  0.250000000000E+01  0.250000000000E+01  0.250000000000E+01  0.250000000000E+01  0.250000000000E+01
  0.250000000000E+01  0.250000000000E+01  0.250000000000E+01  0.250000000000E+01  0.250000000000E+01  0.250000000000E+01  0.250000000000E+01
  0.250000000000E+01  0.250000000000E+01  0.250000000000E+01  0.250000000000E+01  0.250000000000E+01  0.250000000000E+01  0.250000000000E+01
  0.250000000000E+01  0.250000000000E+01  0.250000000000E+01  0.250000000000E+01  0.250000000000E+01  0.250000000000E+01  0.250000000000E+01
  0.250000000000E+01  0.250000000000E+01  0.250000000000E+01  0.250000000000E+01  0.250000000000E+01
  0.000000000000E+00  0.000000000000E+00  0.000000000000E+00  0.101201586758E+01  0.904659890645E+00  0.000000000000E+00  0.717002441913E+00
  0.125000000000E+01  0.188609243358E+01  0.191586535653E+01  0.176246431481E+01  0.000000000000E+00  0.961328577125E+00  0.250000000000E+01
  0.285047954584E+01  0.293121848150E+01  0.205246550326E+01  0.292817774674E+01  0.125000000000E+01  0.375000000000E+01  0.363585050272E+01
  0.395907379566E+01  0.406975391361E+01  0.250000000000E+01  0.306828197606E+01  0.397245519226E+01  0.500000000000E+01  0.375000000000E+01
  0.500000000000E+01  0.433168271247E+01  0.500000000000E+01  0.500000000000E+01  0.500000000000E+01
  0.941861280981E+00  0.946296413148E+00  0.843730532625E+00  0.964331300641E+00  0.978820819734E+00  0.956975886351E+00  0.983331395928E+00
  0.963500546318E+00  0.982689288702E+00  0.984244007092E+00  0.990263805306E+00  0.134427144751E+01  0.101918251572E+01  0.100829901685E+01
  0.993456152163E+00  0.997998675062E+00  0.100807808272E+01  0.100072116071E+01  0.106355395260E+01  0.100673528648E+01  0.100058356034E+01
  0.100234980413E+01  0.100178078380E+01  0.102389313705E+01  0.100874208192E+01  0.100528370710E+01  0.100522859493E+01  0.100830818648E+01
  0.100196466888E+01  0.100162011127E+01  0.100413203150E+01  0.100321958502E+01  0.100426040723E+01
  0.000000000000E+00  0.000000000000E+00  0.000000000000E+00  0.439071219459E+00  0.399865796454E+00  0.000000000000E+00  0.373794139158E+00
  0.495017409105E+00  0.573056194177E+00  0.569605084674E+00  0.559932666690E+00  0.000000000000E+00  0.483390702590E+00  0.533822151423E+00
  0.556458768752E+00  0.564688347627E+00  0.522615499128E+00  0.522533043517E+00  0.445481420172E+00  0.518326868786E+00  0.524750893797E+00
  0.503888155833E+00  0.509839691007E+00  0.471738849064E+00  0.496245460656E+00  0.494940393106E+00  0.489076365370E+00  0.489830200150E+00
  0.493065117390E+00  0.499146578372E+00  0.486766687252E+00  0.484758134352E+00  0.495784876133E+00
  0.000000000000E+00  0.000000000000E+00  0.000000000000E+00  0.000000000000E+00  0.000000000000E+00  0.000000000000E+00  0.000000000000E+00
  0.000000000000E+00  0.000000000000E+00  0.000000000000E+00  0.000000000000E+00  0.000000000000E+00  0.000000000000E+00  0.000000000000E+00
  0.000000000000E+00  0.000000000000E+00  0.000000000000E+00  0.000000000000E+00  0.000000000000E+00  0.000000000000E+00  0.000000000000E+00
  0.000000000000E+00  0.000000000000E+00  0.000000000000E+00  0.000000000000E+00  0.000000000000E+00  0.000000000000E+00  0.000000000000E+00
  0.000000000000E+00  0.000000000000E+00  0.000000000000E+00  0.000000000000E+00  0.000000000000E+00
  0.000000000000E+00  0.000000000000E+00  0.000000000000E+00 -0.226115389406E-01  0.111963783634E-01  0.000000000000E+00  0.179816811806E-01
 -0.100761166267E+00  0.390410960592E-02 -0.389325100218E-01  0.340377347835E-01  0.000000000000E+00  0.652293806092E-01 -0.424929264158E-01
  0.843880702595E-02 -0.650992517048E-02  0.490054862384E-01  0.135873401516E-01  0.452181795959E-01  0.737187880015E-03 -0.701209387853E-03
  0.243744174942E-02  0.868952831756E-03  0.351822661737E-02  0.103945231960E-01  0.431655181809E-02  0.337507093831E-02  0.459058863903E-03
  0.572581291071E-02  0.341134811801E-03  0.160978873736E-02  0.569844349030E-03  0.237176893600E-02
  0.672750886021E+00  0.675918851705E+00  0.602658414750E+00  0.676093764160E+00  0.691308917231E+00  0.683547253028E+00  0.690066484465E+00
  0.677274957313E+00  0.695201830563E+00  0.696250879980E+00  0.703344069743E+00  0.960184574419E+00  0.719726359215E+00  0.722866634519E+00
  0.709447754558E+00  0.713700947657E+00  0.726067413064E+00  0.716602920122E+00  0.782340561407E+00  0.722284526530E+00  0.716128633736E+00
  0.716551643142E+00  0.716546536884E+00  0.737395237509E+00  0.722682909375E+00  0.719441261343E+00  0.719566087602E+00  0.722781669218E+00
  0.716030233783E+00  0.715847819512E+00  0.718146761310E+00  0.717062457408E+00  0.718615291788E+00
  0.000000000000E+00  0.000000000000E+00  0.000000000000E+00  0.443767766631E+00  0.402286945810E+00  0.000000000000E+00  0.377550361690E+00
  0.509231871646E+00  0.575832177295E+00  0.573707384745E+00  0.562554068995E+00  0.000000000000E+00  0.490563298355E+00  0.534527112589E+00
  0.556586988715E+00  0.564391561173E+00  0.522730520414E+00  0.522052007495E+00  0.441238353021E+00  0.517182276617E+00  0.524228609892E+00
  0.503687438534E+00  0.509488520183E+00  0.469814974357E+00  0.495614448521E+00  0.494483777346E+00  0.488562436051E+00  0.488961666121E+00
  0.492980868952E+00  0.499005516516E+00  0.486460983373E+00  0.484597195029E+00  0.495346580598E+00
  0.999989339670E+00  0.999989410548E+00  0.999989627050E+00  0.981541581399E+00  0.988773904898E+00  0.999989830348E+00  0.982469472907E+00
  0.984104206128E+00  0.990427568488E+00  0.990355262464E+00  0.994363009498E+00  0.999990297104E+00  0.988652069047E+00  0.100368370039E+01
  0.999769193858E+00  0.100118502327E+01  0.100834885284E+01  0.100252110934E+01  0.102982719710E+01  0.100443319185E+01  0.100199536247E+01
  0.100082056809E+01  0.100138190695E+01  0.100826277192E+01  0.100298787099E+01  0.100192389349E+01  0.100215267226E+01  0.100355660152E+01
  0.100047672182E+01  0.100056591919E+01  0.100126819411E+01  0.100066571203E+01  0.100179336083E+01
        15         9        16        16
        15        18        11        11
        22        15        21        21
        11         5         9         9
         5         7         2         2
        11         9        15        15
        16        21        15        15
        16        10        14        14
        18        17        11        11
        17        25        24        24
        22        18        15        15
        22        30        31        31
        30        21        23        23
        16        20        23        23
        22        27        26        26
        10         9         4         4
         7        11        13        13
        25        18        26        26
        11         7         5         5
         5         1         4         4
        17        19        13        13
        23        32        30        30
        23        20        29        29
         4         9         5         5
         4         8        10        10
        26        18        22        22
        26        28        25        25
        13        11        17        17
        13         6         7         7
        31        30        32        32
         2         1         5         5
         2         7         6         6
        14        10         8         8
        24        19        17        17
        24        25        28        28
         9        10        16        16
         3         4         1         1
        33        26        27        27
        12        13        19        19
        21        30        22        22
        16        14        20        20
        16        23        21        21
        22        31        27        27
        18        25        17        17
        26        33        28        28
         4         3         8         8
        23        29        32        32
        13        12         6         6
zone t="boundary 4 bc-4", solutiontime= 0.4000000E+02, strandid=1004, i=32, j=46, f=feblock
  0.125000000000E+01  0.219251206392E+01  0.103724302461E+01  0.500000000000E+01  0.250000000000E+01  0.375000000000E+01  0.404200324774E+01
  0.500000000000E+01  0.000000000000E+00  0.310152362409E+01  0.202479342020E+01  0.324151231464E+01  0.922061490191E+00  0.000000000000E+00
  0.299062775774E+01  0.394624082883E+01  0.500000000000E+01  0.409252726285E+01  0.500000000000E+01  0.429310310915E+01  0.175434191980E+01
  0.284428995242E+01  0.000000000000E+00  0.000000000000E+00  0.715990576545E+00  0.930412228790E+00  0.125000000000E+01  0.187029682677E+01
  0.500000000000E+01  0.375000000000E+01  0.250000000000E+01  0.000000000000E+00
  0.250000000000E+01  0.157686156160E+01  0.146289271009E+01  0.250000000000E+01  0.250000000000E+01  0.250000000000E+01  0.155830813274E+01
  0.125000000000E+01  0.250000000000E+01  0.177790177481E+01  0.477386199275E+00  0.742988685424E+00  0.308372018325E+00  0.125000000000E+01
 -0.487811078581E+00 -0.144524380962E+01 -0.125000000000E+01 -0.345533899378E+00  0.000000000000E+00  0.627766083140E+00 -0.739814786992E+00
 -0.158811787973E+01  0.000000000000E+00 -0.125000000000E+01 -0.600232012419E+00 -0.154800130438E+01 -0.250000000000E+01 -0.178862290564E+01
 -0.250000000000E+01 -0.250000000000E+01 -0.250000000000E+01 -0.250000000000E+01
  0.500000000000E+01  0.500000000000E+01  0.500000000000E+01  0.500000000000E+01  0.500000000000E+01  0.500000000000E+01  0.500000000000E+01
  0.500000000000E+01  0.500000000000E+01  0.500000000000E+01  0.500000000000E+01  0.500000000000E+01  0.500000000000E+01  0.500000000000E+01
  0.500000000000E+01  0.500000000000E+01  0.500000000000E+01  0.500000000000E+01  0.500000000000E+01  0.500000000000E+01  0.500000000000E+01
  0.500000000000E+01  0.500000000000E+01  0.500000000000E+01  0.500000000000E+01  0.500000000000E+01  0.500000000000E+01  0.500000000000E+01
  0.500000000000E+01  0.500000000000E+01  0.500000000000E+01  0.500000000000E+01
  0.100522859493E+01  0.100432970609E+01  0.100432033559E+01  0.100196466888E+01  0.100413203150E+01  0.100321958502E+01  0.100258621562E+01
  0.100201176940E+01  0.100426040723E+01  0.100372311441E+01  0.100446501473E+01  0.100346948551E+01  0.100365984150E+01  0.100424800536E+01
  0.100362337151E+01  0.100164187636E+01  0.100227629276E+01  0.100227307812E+01  0.100213446097E+01  0.100254342930E+01  0.100442384596E+01
  0.100337262210E+01  0.100288844236E+01  0.100334542181E+01  0.100323222661E+01  0.100406087323E+01  0.100510171178E+01  0.100431306248E+01
  0.100179475081E+01  0.100266311891E+01  0.100321164480E+01  0.100399273857E+01
  0.489076365370E+00  0.489238645704E+00  0.490983350843E+00  0.493065117390E+00  0.486766687252E+00  0.484758134352E+00  0.485405274049E+00
  0.494262909356E+00  0.495784876133E+00  0.486800373488E+00  0.488139374648E+00  0.487244732858E+00  0.494423309840E+00  0.496536483314E+00
  0.487845849198E+00  0.483219501422E+00  0.492573615353E+00  0.487262431060E+00  0.494866055958E+00  0.488012747712E+00  0.490096725485E+00
  0.488269664063E+00  0.497534086505E+00  0.496384260390E+00  0.495259765878E+00  0.493216444689E+00  0.490458154985E+00  0.490399993966E+00
  0.491426965699E+00  0.486218274494E+00  0.490304430034E+00  0.495522029752E+00
  0.000000000000E+00 -0.893844089505E-04 -0.129754349449E-02  0.000000000000E+00  0.000000000000E+00  0.000000000000E+00  0.425650465818E-03
  0.796987646062E-03  0.000000000000E+00  0.274721875942E-03 -0.942409154048E-03 -0.819935573245E-03 -0.174524227956E-02 -0.638395911013E-04
 -0.110015119647E-02 -0.102270857493E-02 -0.133249459134E-02 -0.213420495146E-02 -0.132921258736E-02 -0.106395897735E-02 -0.624383268037E-03
 -0.761653752316E-03 -0.196341515436E-03  0.807127112435E-03  0.520228302053E-04  0.161631424579E-02  0.000000000000E+00  0.791664146006E-03
  0.000000000000E+00  0.000000000000E+00  0.000000000000E+00  0.000000000000E+00