# vtk DataFile Version 2.0
FUN3D:global_image_vtk
ASCII
DATASET UNSTRUCTURED_GRID
POINTS 213 double
    0.0000000000000000E+00    0.2500000000000000E+01    0.0000000000000000E+00
    0.1250000000000000E+01    0.2500000000000000E+01    0.0000000000000000E+00
    0.2500000000000000E+01    0.2500000000000000E+01    0.0000000000000000E+00
    0.3750000000000000E+01    0.2500000000000000E+01    0.0000000000000000E+00
    0.5000000000000000E+01    0.2500000000000000E+01    0.0000000000000000E+00
    0.5000000000000000E+01    0.1250000000000000E+01    0.0000000000000000E+00
    0.5000000000000000E+01    0.0000000000000000E+00    0.0000000000000000E+00
    0.5000000000000000E+01   -0.1250000000000000E+01    0.0000000000000000E+00
    0.5000000000000000E+01   -0.2500000000000000E+01    0.0000000000000000E+00
    0.3750000000000000E+01   -0.2500000000000000E+01    0.0000000000000000E+00
    0.2500000000000000E+01   -0.2500000000000000E+01    0.0000000000000000E+00
    0.1250000000000000E+01   -0.2500000000000000E+01    0.0000000000000000E+00
    0.0000000000000000E+00   -0.2500000000000000E+01    0.0000000000000000E+00
    0.0000000000000000E+00   -0.1250000000000000E+01    0.0000000000000000E+00
    0.0000000000000000E+00    0.0000000000000000E+00    0.0000000000000000E+00
    0.0000000000000000E+00    0.1250000000000000E+01    0.0000000000000000E+00
    0.9058375365086910E+00    0.1578994732800803E+01    0.0000000000000000E+00
    0.3982050490726493E+01   -0.1583989954232354E+01    0.0000000000000000E+00
    0.4033849428301197E+01    0.1453322699199022E+01    0.0000000000000000E+00
    0.1040505887381675E+01   -0.1479596339503735E+01    0.0000000000000000E+00
    0.1099454400140349E+01   -0.3227322616384110E+00    0.0000000000000000E+00
    0.7354504170366591E+00    0.6593508822075582E+00    0.0000000000000000E+00
    0.1622302608453282E+01    0.8256214013940779E+00    0.0000000000000000E+00
    0.2145871574390382E+01   -0.1650070333782557E+01    0.0000000000000000E+00
    0.4086422318222992E+01   -0.4612828702537229E+00    0.0000000000000000E+00
    0.2979540174134984E+01   -0.8579242121530853E+00    0.0000000000000000E+00
    0.3045064261640043E+01   -0.1836846154397680E+01    0.0000000000000000E+00
    0.3428197553792836E+01    0.3508002863614053E+00    0.0000000000000000E+00
    0.4309693860063405E+01    0.5185680230613409E+00    0.0000000000000000E+00
    0.1827272193562204E+01    0.1738996113203182E+01    0.0000000000000000E+00
    0.2808563282768077E+01    0.1325493893339706E+01    0.0000000000000000E+00
    0.1895995683864404E+01   -0.8731419609589618E+00    0.0000000000000000E+00
    0.2273179336307740E+01    0.4906150219227333E-01    0.0000000000000000E+00
    0.5000000000000000E+01    0.2500000000000000E+01    0.1250000000000000E+01
    0.5000000000000000E+01    0.2500000000000000E+01    0.2500000000000000E+01
    0.5000000000000000E+01    0.2500000000000000E+01    0.3750000000000000E+01
    0.5000000000000000E+01    0.2500000000000000E+01    0.5000000000000000E+01
    0.3750000000000000E+01    0.2500000000000000E+01    0.5000000000000000E+01
    0.2500000000000000E+01    0.2500000000000000E+01    0.5000000000000000E+01
    0.1250000000000000E+01    0.2500000000000000E+01    0.5000000000000000E+01
    0.0000000000000000E+00    0.2500000000000000E+01    0.5000000000000000E+01
    0.0000000000000000E+00    0.2500000000000000E+01    0.3750000000000000E+01
    0.0000000000000000E+00    0.2500000000000000E+01    0.2500000000000000E+01
    0.0000000000000000E+00    0.2500000000000000E+01    0.1250000000000000E+01
    0.9631080833812172E+00    0.2500000000000000E+01    0.9613285771248219E+00
    0.3981732467264904E+01    0.2500000000000000E+01    0.4069753913607991E+01
    0.4035525118777670E+01    0.2500000000000000E+01    0.1012015867579395E+01
    0.9641717640894248E+00    0.2500000000000000E+01    0.3972455192261839E+01
    0.1547743040396780E+01    0.2500000000000000E+01    0.2928177746738678E+01
    0.6985170616192014E+00    0.2500000000000000E+01    0.3068281976055466E+01
    0.8931277594515110E+00    0.2500000000000000E+01    0.2052465503257726E+01
    0.2183293750162785E+01    0.2500000000000000E+01    0.3959073795658649E+01
    0.3855333506014705E+01    0.2500000000000000E+01    0.2931218481500625E+01
    0.3152495579421047E+01    0.2500000000000000E+01    0.3635850502723324E+01
    0.3103247580566054E+01    0.2500000000000000E+01    0.4331682712472464E+01
    0.3266837581688852E+01    0.2500000000000000E+01    0.1886092433583972E+01
    0.4231539241296245E+01    0.2500000000000000E+01    0.1915865356532799E+01
    0.1909741006522088E+01    0.2500000000000000E+01    0.7170024419130505E+00
    0.2880784107213163E+01    0.2500000000000000E+01    0.9046598906449592E+00
    0.2014316024535771E+01    0.2500000000000000E+01    0.1762464314805728E+01
    0.2670003247036656E+01    0.2500000000000000E+01    0.2850479545835163E+01
    0.5000000000000000E+01    0.1250000000000000E+01    0.5000000000000000E+01
    0.5000000000000000E+01    0.0000000000000000E+00    0.5000000000000000E+01
    0.5000000000000000E+01   -0.1250000000000000E+01    0.5000000000000000E+01
    0.5000000000000000E+01   -0.2500000000000000E+01    0.5000000000000000E+01
    0.5000000000000000E+01   -0.2500000000000000E+01    0.3750000000000000E+01
    0.5000000000000000E+01   -0.2500000000000000E+01    0.2500000000000000E+01
    0.5000000000000000E+01   -0.2500000000000000E+01    0.1250000000000000E+01
    0.5000000000000000E+01    0.1578994732800803E+01    0.9058375365086910E+00
    0.5000000000000000E+01   -0.1583989954232354E+01    0.3982050490726493E+01
    0.5000000000000000E+01    0.1453322699199022E+01    0.4033849428301197E+01
    0.5000000000000000E+01   -0.1479596339503735E+01    0.1040505887381675E+01
    0.5000000000000000E+01   -0.3227322616384110E+00    0.1099454400140349E+01
    0.5000000000000000E+01    0.6593508822075582E+00    0.7354504170366591E+00
    0.5000000000000000E+01    0.8256214013940779E+00    0.1622302608453282E+01
    0.5000000000000000E+01   -0.1650070333782557E+01    0.2145871574390382E+01
    0.5000000000000000E+01   -0.4612828702537229E+00    0.4086422318222992E+01
    0.5000000000000000E+01   -0.8579242121530853E+00    0.2979540174134984E+01
    0.5000000000000000E+01   -0.1836846154397680E+01    0.3045064261640043E+01
    0.5000000000000000E+01    0.3508002863614053E+00    0.3428197553792836E+01
    0.5000000000000000E+01    0.5185680230613409E+00    0.4309693860063405E+01
    0.5000000000000000E+01    0.1738996113203182E+01    0.1827272193562204E+01
    0.5000000000000000E+01    0.1325493893339706E+01    0.2808563282768077E+01
    0.5000000000000000E+01   -0.8731419609589618E+00    0.1895995683864404E+01
    0.5000000000000000E+01    0.4906150219227333E-01    0.2273179336307740E+01
    0.0000000000000000E+00    0.1250000000000000E+01    0.5000000000000000E+01
    0.0000000000000000E+00    0.0000000000000000E+00    0.5000000000000000E+01
    0.0000000000000000E+00   -0.1250000000000000E+01    0.5000000000000000E+01
    0.0000000000000000E+00   -0.2500000000000000E+01    0.5000000000000000E+01
    0.1250000000000000E+01   -0.2500000000000000E+01    0.5000000000000000E+01
    0.2500000000000000E+01   -0.2500000000000000E+01    0.5000000000000000E+01
    0.3750000000000000E+01   -0.2500000000000000E+01    0.5000000000000000E+01
    0.4042003247744892E+01    0.1558308132739014E+01    0.5000000000000000E+01
    0.9304122287900499E+00   -0.1548001304379777E+01    0.5000000000000000E+01
    0.1037243024609388E+01    0.1462892710085612E+01    0.5000000000000000E+01
    0.3946240828834967E+01   -0.1445243809615570E+01    0.5000000000000000E+01
    0.4092527262848217E+01   -0.3455338993778935E+00    0.5000000000000000E+01
    0.4293103109154542E+01    0.6277660831404320E+00    0.5000000000000000E+01
    0.3241512314643519E+01    0.7429886854239611E+00    0.5000000000000000E+01
    0.2844289952419609E+01   -0.1588117879734118E+01    0.5000000000000000E+01
    0.7159905765450471E+00   -0.6002320124191652E+00    0.5000000000000000E+01
    0.1754341919796891E+01   -0.7398147869923652E+00    0.5000000000000000E+01
    0.1870296826774691E+01   -0.1788622905643739E+01    0.5000000000000000E+01
    0.9220614901912976E+00    0.3083720183248586E+00    0.5000000000000000E+01
    0.3101523624086016E+01    0.1777901774806180E+01    0.5000000000000000E+01
    0.2192512063922564E+01    0.1576861561598471E+01    0.5000000000000000E+01
    0.2024793420196460E+01    0.4773861992750707E+00    0.5000000000000000E+01
    0.2990627757741975E+01   -0.4878110785814084E+00    0.5000000000000000E+01
    0.0000000000000000E+00   -0.2500000000000000E+01    0.1250000000000000E+01
    0.0000000000000000E+00   -0.2500000000000000E+01    0.2500000000000000E+01
    0.0000000000000000E+00   -0.2500000000000000E+01    0.3750000000000000E+01
    0.0000000000000000E+00    0.1558308132739014E+01    0.4042003247744892E+01
    0.0000000000000000E+00   -0.1548001304379777E+01    0.9304122287900499E+00
    0.0000000000000000E+00    0.1462892710085612E+01    0.1037243024609388E+01
    0.0000000000000000E+00   -0.1445243809615570E+01    0.3946240828834967E+01
    0.0000000000000000E+00   -0.3455338993778935E+00    0.4092527262848217E+01
    0.0000000000000000E+00    0.6277660831404320E+00    0.4293103109154542E+01
    0.0000000000000000E+00    0.7429886854239611E+00    0.3241512314643519E+01
    0.0000000000000000E+00   -0.1588117879734118E+01    0.2844289952419609E+01
    0.0000000000000000E+00   -0.6002320124191652E+00    0.7159905765450471E+00
    0.0000000000000000E+00   -0.7398147869923652E+00    0.1754341919796891E+01
    0.0000000000000000E+00   -0.1788622905643739E+01    0.1870296826774691E+01
    0.0000000000000000E+00    0.3083720183248586E+00    0.9220614901912976E+00
    0.0000000000000000E+00    0.1777901774806180E+01    0.3101523624086016E+01
    0.0000000000000000E+00    0.1576861561598471E+01    0.2192512063922564E+01
[...]
POINT_DATA 213
SCALARS rho double 1
LOOKUP_TABLE default
   0.1344271443568300E+01
   0.9569758887953969E+00
   0.9462964185262736E+00
   0.9418612714453291E+00
   0.8437304895354421E+00
   0.7738004316327995E+00
   0.7629818886430101E+00
   0.7664577910793531E+00
   0.8307874019713430E+00
   0.9352972534773785E+00
   0.9342219813152157E+00
   0.9617195273781055E+00
   0.1449457449007558E+01
   0.1494090637371753E+01
   0.1644667267834062E+01
   0.1425832041732900E+01
   0.1009014434023768E+01
   0.9508810840449716E+00
   0.9436508487485160E+00
   0.9581561031305063E+00
   0.9415852451781275E+00
   0.1036377239551519E+01
   0.9256161076419402E+00
   0.9322349844914409E+00
   0.9537479563917397E+00
   0.9518769552194113E+00
   0.9348583098016525E+00
   0.9564028395476274E+00
   0.9376098384723632E+00
   0.9300661508535930E+00
   0.9445157490559558E+00
   0.8863506505168344E+00
   0.9423579958077958E+00
   0.9635003072898923E+00
   0.1008299039469086E+01
   0.1006735291872700E+01
   0.1001964617543605E+01
   0.1003219581424458E+01
   0.1004132053848023E+01
   0.1005228602839624E+01
   0.1004260408175201E+01
   0.1008308189847528E+01
   0.1023893137651179E+01
   0.1063553955836089E+01
   0.1019182512588708E+01
   0.1001780766378775E+01
   0.9643309930459857E+00
   0.1005283708865601E+01
   0.1000721163214490E+01
   0.1008742083647007E+01
   0.1008078083559385E+01
   0.1002349807006466E+01
   0.9979986848242257E+00
   0.1000583560901252E+01
   0.1001620123557007E+01
   0.9826893071372547E+00
   0.9842439639757299E+00
   0.9833314025134521E+00
   0.9788207403944856E+00
   0.9902638159697683E+00
   0.9934561553017440E+00
   0.1002011751606708E+01
   0.1002134465621809E+01
   0.1002276326485392E+01
   0.1001794758303755E+01
   0.1009778638895753E+01
   0.1006429109118117E+01
   0.9558786956199876E+00
   0.9249398402843142E+00
   0.1007036755528606E+01
   0.1004504925174603E+01
   0.9143642068098111E+00
   0.9089667853116757E+00
   0.8751688891158438E+00
   0.9767271882077955E+00
   0.1000452621190903E+01
   0.1005831087478768E+01
   0.1012882803352569E+01
   0.1011618951366565E+01
   0.1010438648692842E+01
   0.1005468280908051E+01
   0.9907612677027799E+00
   0.1005140325720547E+01
   0.9860567245133234E+00
   0.1005609737685639E+01
   0.1004248005636614E+01
   0.1002888437632629E+01
   0.1003345420389441E+01
   0.1003992731810144E+01
   0.1005101716083340E+01
   0.1003211645071787E+01
   0.1002663159910117E+01
   0.1002586231342113E+01
   0.1004060870871098E+01
   0.1004320345959901E+01
   0.1001641920310469E+01
   0.1002273115919429E+01
   0.1002543475525052E+01
   0.1003469520728794E+01
   0.1003372640196789E+01
   0.1003232229979189E+01
   0.1004423863369929E+01
   0.1004313070760814E+01
   0.1003659849337227E+01
   0.1003723103852390E+01
   0.1004329726341290E+01
   0.1004465021774974E+01
   0.1003623375254706E+01
   0.1064422800758376E+01
   0.1028473621183173E+01
   0.1009586657206544E+01
   0.1006638837366368E+01
   0.1163935521216198E+01
   0.1086087969587130E+01
   0.1007893419157977E+01
   0.1007245533197546E+01
   0.1006798074045642E+01
   0.1013018286709785E+01
   0.1019384609319675E+01
   0.1235203667702629E+01
   0.1032529466629096E+01
   0.1046681191266399E+01
   0.1200953640564932E+01
   0.1014718915849892E+01
   0.1032291152882578E+01
   0.1028095236299331E+01
   0.1014628639584865E+01
   0.1029216892943175E+01
   0.1001994816321793E+01
   0.9606929188493925E+00
   0.1006852582700643E+01
   0.1001327193225558E+01
   0.1010821905245547E+01
   0.1012246098746002E+01
   0.1000946006843887E+01
   0.9979121234251445E+00
   0.9980632372157072E+00
   0.1001184143306889E+01
   0.9841362011731182E+00
   0.9814879614651668E+00
   0.9648483319635657E+00
   0.9680877123045231E+00
   0.9914124471556529E+00
   0.9910858388146542E+00
   0.9925545095971715E+00
   0.1001727533815733E+01
   0.9993409402147200E+00
   0.9941410835218449E+00
   0.1007038753618702E+01
   0.1022539494030144E+01
   0.1001088098382464E+01
   0.1008798496128822E+01
   0.1004773845981868E+01
   0.1009050237301446E+01
   0.9966470332086226E+00
   0.1004988556956676E+01
   0.1003325535088305E+01
   0.9949431085267955E+00
   0.9832680781035151E+00
   0.9943957454924713E+00
   0.9973420656177927E+00
   0.9932190085461039E+00
   0.1001306487063207E+01
   0.1003001636860458E+01
   0.1002183579559933E+01
   0.9947078545434010E+00
   0.9937965521256727E+00
   0.1004867865409821E+01
   0.1020077607350147E+01
   0.1005364552305036E+01
   0.9816998151831565E+00
   0.1004973031140981E+01
   0.1012382323281320E+01
   0.9871424285949769E+00
   0.9551513528727805E+00
   0.9865075699143763E+00
   0.9864532949016935E+00
   0.9918946934444307E+00
   0.9933508196563310E+00
   0.9954406182205302E+00
   0.1037336789485358E+01
   0.1033536797386591E+01
   0.1001443320760174E+01
   0.1001930499685526E+01
   0.9912478516192204E+00
   0.9910920509356662E+00
   0.9648489987438528E+00
   0.9933282605013734E+00
   0.1006058638658899E+01
   0.1001954027118164E+01
   0.9908735804114466E+00
   0.9740945209250613E+00
   0.9418802132939894E+00
   0.9819379686868249E+00
   0.9794803560029970E+00
   0.9704172054302124E+00
   0.9720478942008205E+00
   0.9557351699343941E+00
   0.9496731206607115E+00
   0.9528673561697922E+00
   0.1002659533932850E+01
   0.1002471631845233E+01
   0.1000509329229305E+01
   0.1001677321753594E+01
   0.9607931426106661E+00
   0.9491625495327484E+00
   0.9584503055301559E+00
   0.1001121207674142E+01
   0.1000496140500302E+01
   0.1001156644164885E+01
   0.9807376183108589E+00
   0.9806000806354708E+00
   0.9628476100507113E+00
SCALARS u double 1
LOOKUP_TABLE default
   0.0000000000000000E+00
   0.0000000000000000E+00
   0.0000000000000000E+00
   0.0000000000000000E+00
   0.0000000000000000E+00
   0.0000000000000000E+00
   0.0000000000000000E+00
   0.0000000000000000E+00
   0.0000000000000000E+00
   0.0000000000000000E+00
   0.0000000000000000E+00
   0.0000000000000000E+00
   0.0000000000000000E+00
   0.0000000000000000E+00
   0.0000000000000000E+00
   0.0000000000000000E+00
   0.0000000000000000E+00
   0.0000000000000000E+00
   0.0000000000000000E+00
   0.0000000000000000E+00
   0.0000000000000000E+00
   0.0000000000000000E+00
   0.0000000000000000E+00
   0.0000000000000000E+00
   0.0000000000000000E+00
   0.0000000000000000E+00
   0.0000000000000000E+00
   0.0000000000000000E+00
   0.0000000000000000E+00
   0.0000000000000000E+00
   0.0000000000000000E+00
   0.0000000000000000E+00
   0.0000000000000000E+00
   0.4950176841038947E+00
   0.5338221298904470E+00
   0.5183269245815690E+00
   0.4930649880194715E+00
   0.4847578720783313E+00
   0.4867666425612227E+00
   0.4890763585164417E+00
   0.4957848881431957E+00
   0.4898301885514886E+00
   0.4717388496872722E+00
   0.4454814156911416E+00
   0.4833907044258240E+00
   0.5098397462498123E+00
   0.4390712702973002E+00
   0.4949403966067966E+00
   0.5225330362590141E+00
   0.4962454547040230E+00
   0.5226154964012636E+00
   0.5038881743940905E+00
   0.5646883607729715E+00
   0.5247509156647264E+00
   0.4991466120399645E+00
   0.5730561900275166E+00
   0.5696051096725203E+00
   0.3737941447172407E+00
   0.3998658124802161E+00
   0.5599326585089862E+00
   0.5564587629708160E+00
   0.4942627332845522E+00
   0.4948659465939510E+00
   0.4925735874034532E+00
   0.4914269544165343E+00
   0.5162356849847838E+00
   0.5361798303614778E+00
   0.4947413360559615E+00
   0.4524112210526908E+00
   0.5128777324769738E+00
   0.5117942039652916E+00
   0.4783517512325734E+00
   0.4931696663274119E+00
   0.4603173603082293E+00
   0.5244892722841666E+00
   0.5297434246863899E+00
   0.5129579299817990E+00
   0.5328358317631068E+00
   0.5308941035369252E+00
   0.5309856168417697E+00
   0.5063656734631967E+00
   0.5282461956051731E+00
   0.5410312728663168E+00
   0.5361261482090385E+00
   0.5374105275369390E+00
   0.4965364819555794E+00
   0.4975340904747422E+00
   0.4963842645329470E+00
   0.4955220268444142E+00
   0.4904581832540305E+00
   0.4903044386617981E+00
   0.4862182765341896E+00
   0.4854049562225409E+00
   0.4932164389251725E+00
   0.4909833313742547E+00
   0.4832194697483245E+00
   0.4872622777925618E+00
   0.4880124910262749E+00
   0.4872445932823804E+00
   0.4882696670807558E+00
   0.4952597557629658E+00
   0.4900967169368796E+00
   0.4904000092157944E+00
   0.4944232926778153E+00
   0.4868002482296858E+00
   0.4892385985450068E+00
   0.4881393371269515E+00
   0.4878457830188271E+00
   0.4446866581880404E+00
   0.4700028782397622E+00
   0.4891999057827957E+00
   0.4885247845171681E+00
   0.4506533049986235E+00
   0.4687378568316707E+00
   0.4877010458208968E+00
   0.4868353684879510E+00
   0.4908994717277953E+00
   0.4793551579131019E+00
   0.4658071749156054E+00
   0.3792725238051155E+00
   0.4901596530658635E+00
   0.4486686693174841E+00
   0.4436137399567033E+00
   0.4845147243215485E+00
   0.4621822648671159E+00
   0.4665749537251817E+00
   0.4748140301830147E+00
   0.4894494214193157E+00
   0.5085556973201725E+00
   0.4315073874479265E+00
   0.4927349362199494E+00
   0.5318289233681852E+00
   0.4913399197138263E+00
   0.5207019993325098E+00
   0.5060964599961807E+00
   0.5688797394429940E+00
   0.5273992817546761E+00
   0.5015044841920149E+00
   0.5821790086665845E+00
   0.5689618252493696E+00
   0.3406394442972735E+00
   0.3789869412759555E+00
   0.5751958205859788E+00
   0.5666485492445105E+00
   0.5704108782332991E+00
   0.5291056375908925E+00
   0.5451902710624333E+00
   0.5718804314337481E+00
   0.5389079126120102E+00
   0.5475507505284142E+00
   0.5821713867543992E+00
   0.4925601785313518E+00
   0.5042157546933675E+00
   0.4961735437175853E+00
   0.5565207961242149E+00
   0.4758845205467248E+00
   0.4950268384538228E+00
   0.5498525442783367E+00
   0.5891202296213908E+00
   0.5841957608119214E+00
   0.5469097663969408E+00
   0.5805417617140077E+00
   0.5106251438802342E+00
   0.5030200513786177E+00
   0.5033624680394168E+00
   0.5676446095492799E+00
   0.5563943082163020E+00
   0.4947255974293394E+00
   0.5505243827664082E+00
   0.5510857280414146E+00
   0.5657350949266899E+00
   0.4920070018827748E+00
   0.4927299097457373E+00
   0.3865140570134100E+00
   0.3687754534094462E+00
   0.5574921717457442E+00
   0.5763755544079289E+00
   0.4194304389239457E+00
   0.5824843239681575E+00
   0.4265209607303305E+00
   0.5392799843260577E+00
   0.5012032758853947E+00
   0.5119513208233910E+00
   0.5049119464221599E+00
   0.5751974973377066E+00
   0.5876371359725598E+00
   0.5379907806932647E+00
   0.5677472539427650E+00
   0.5351248665592583E+00
   0.5338056378754561E+00
   0.5580313797591316E+00
   0.5512707861438002E+00
   0.4261852755968574E+00
   0.5273356176922631E+00
   0.5795712529648818E+00
   0.3318687134867546E+00
   0.4760283324686120E+00
   0.5446196255457394E+00
   0.4798331901344743E+00
   0.3005293509057647E+00
   0.5031051138636649E+00
   0.5017115978402422E+00
   0.5129033210939545E+00
   0.5414840107473906E+00
   0.3437603855157279E+00
   0.3397710719484758E+00
   0.3189928571511974E+00
   0.5065936052386998E+00
   0.5123483779787993E+00
   0.5330313518662225E+00
   0.5879309999681327E+00
   0.4644180533112184E+00
   0.3531270510691168E+00
SCALARS v double 1
LOOKUP_TABLE default
   0.0000000000000000E+00
   0.0000000000000000E+00
   0.0000000000000000E+00
   0.0000000000000000E+00
   0.0000000000000000E+00
   0.0000000000000000E+00
   0.0000000000000000E+00
   0.0000000000000000E+00
   0.0000000000000000E+00
   0.0000000000000000E+00
   0.0000000000000000E+00
   0.0000000000000000E+00
   0.0000000000000000E+00
   0.0000000000000000E+00
   0.0000000000000000E+00
   0.0000000000000000E+00
   0.0000000000000000E+00
   0.0000000000000000E+00
   0.0000000000000000E+00
   0.0000000000000000E+00
   0.0000000000000000E+00
   0.0000000000000000E+00
   0.0000000000000000E+00
   0.0000000000000000E+00
   0.0000000000000000E+00
   0.0000000000000000E+00
   0.0000000000000000E+00
   0.0000000000000000E+00
   0.0000000000000000E+00
   0.0000000000000000E+00
   0.0000000000000000E+00
   0.0000000000000000E+00
   0.0000000000000000E+00
   0.0000000000000000E+00
   0.0000000000000000E+00
   0.0000000000000000E+00
   0.0000000000000000E+00
   0.0000000000000000E+00
   0.0000000000000000E+00
   0.0000000000000000E+00
   0.0000000000000000E+00
   0.0000000000000000E+00
   0.0000000000000000E+00
   0.0000000000000000E+00
   0.0000000000000000E+00
   0.0000000000000000E+00
   0.0000000000000000E+00
   0.0000000000000000E+00
   0.0000000000000000E+00
   0.0000000000000000E+00
   0.0000000000000000E+00
   0.0000000000000000E+00
   0.0000000000000000E+00
   0.0000000000000000E+00
   0.0000000000000000E+00
   0.0000000000000000E+00
   0.0000000000000000E+00
   0.0000000000000000E+00
   0.0000000000000000E+00
   0.0000000000000000E+00
   0.0000000000000000E+00
   0.7970254504445592E-03
  -0.1329294685003548E-02
  -0.1332592746046747E-02
   0.0000000000000000E+00
   0.0000000000000000E+00
   0.0000000000000000E+00
   0.0000000000000000E+00
  -0.1922562566428844E-01
   0.4770618312403507E-03
   0.2183360181760697E-02
   0.1427333015572498E-01
  -0.6488282005248784E-02
  -0.7821623121608095E-02
  -0.1327725055682780E-01
   0.4914481820533141E-02
   0.6907122209788209E-03
   0.3434418474515174E-02
   0.1920847405628221E-02
   0.3147960270561496E-02
   0.1704778388379467E-02
  -0.7316187308911531E-02
  -0.7701898714955283E-04
   0.4468738078655174E-02
  -0.4387155926922304E-03
  -0.6383742026623993E-04
  -0.1963394574700818E-03
   0.8071267915731621E-03
   0.0000000000000000E+00
   0.0000000000000000E+00
   0.0000000000000000E+00
   0.0000000000000000E+00
   0.4257020121032292E-03
   0.1616304628955553E-02
  -0.1297550938025225E-02
  -0.1022774969763521E-02
  -0.2134342404401551E-02
  -0.1064012662886459E-02
  -0.8200064297645842E-03
  -0.7617033148784459E-03
   0.5202258690137729E-04
  -0.6244091883865359E-03
   0.7916469205032381E-03
  -0.1745238500866419E-02
   0.2747128592249909E-03
  -0.8939747455006205E-04
  -0.9424310073182330E-03
  -0.1100227530923999E-02
   0.0000000000000000E+00
   0.0000000000000000E+00
   0.0000000000000000E+00
  -0.1061759103753856E-02
  -0.7641128586664041E-02
   0.1860854741409365E-01
  -0.2834553333427020E-04
  -0.1383129137476659E-02
  -0.2035122953653137E-02
  -0.5666383167596211E-02
  -0.1585210179198304E-02
  -0.5947016303000238E-02
  -0.4160601785633475E-02
   0.1565614845459288E-02
   0.3329524815929399E-01
   0.3055140232845594E-04
  -0.2766884935097848E-02
   0.3566484673196307E-02
   0.3596189585419088E-03
   0.0000000000000000E+00
   0.0000000000000000E+00
   0.0000000000000000E+00
   0.0000000000000000E+00
   0.0000000000000000E+00
   0.0000000000000000E+00
   0.0000000000000000E+00
   0.0000000000000000E+00
   0.0000000000000000E+00
   0.0000000000000000E+00
   0.0000000000000000E+00
   0.0000000000000000E+00
   0.0000000000000000E+00
   0.0000000000000000E+00
   0.0000000000000000E+00
   0.0000000000000000E+00
   0.0000000000000000E+00
   0.5047032587850156E-02
   0.3230791965903965E-02
   0.8149134256870243E-02
   0.6168367011740198E-02
   0.1122928632546165E-01
   0.1429277498431687E-01
  -0.2038826243031004E-03
   0.5118221815279564E-02
   0.2914950529891586E-02
   0.3373611798411044E-02
   0.3728336416118356E-02
  -0.1465719855110246E-01
  -0.6159699777888213E-03
   0.6651630339479339E-02
   0.1542014291735291E-02
   0.1969646540818222E-02
   0.4266273543382026E-02
  -0.2790960925255511E-02
   0.1226887076548559E-02
   0.2819172479899205E-02
   0.1497449155141197E-02
   0.2575339078360897E-02
   0.2030646472550633E-02
   0.2118046063875937E-02
   0.8700410514418689E-02
  -0.3733396930839190E-02
   0.6241189128395378E-02
   0.2516489423114623E-04
  -0.3854044598485234E-03
  -0.1674678999905168E-01
  -0.4881976856822319E-02
  -0.4720000756043541E-02
   0.3445223076316908E-02
  -0.6135724022209084E-02
   0.9934525132904287E-04
  -0.3291372899022803E-01
  -0.3046196623741271E-02
   0.4722743279591435E-02
   0.9228368080768178E-03
   0.2112175225557371E-02
   0.4518755722455996E-02
   0.2720465296534730E-02
   0.3212576510688519E-02
   0.5200804246566719E-02
   0.1941838985554035E-02
   0.7315897760076994E-03
  -0.2555236187934954E-04
  -0.5374632774858519E-02
  -0.6959591058123725E-02
  -0.9443815799347245E-03
   0.1105268444039566E-02
  -0.2080554100003420E-02
  -0.3200035961542197E-02
  -0.2527833349921590E-02
  -0.4115193582964107E-02
  -0.7593954941632564E-02
  -0.1985686380348952E-02
   0.6240402959357916E-03
  -0.2239081547848507E-03
   0.1216949794048307E-02
  -0.3483958277609805E-02
   0.5229139949085142E-02
  -0.8487626088017090E-02
   0.2315171898451772E-04
  -0.3395192741728427E-03
   0.2542663551313853E-02
   0.1663457707369419E-02
   0.2021438717113284E-02
  -0.5620783952655438E-02
SCALARS w double 1
LOOKUP_TABLE default
   0.0000000000000000E+00
   0.0000000000000000E+00
   0.0000000000000000E+00
   0.0000000000000000E+00
   0.0000000000000000E+00
   0.0000000000000000E+00
   0.0000000000000000E+00
   0.0000000000000000E+00
   0.0000000000000000E+00
   0.0000000000000000E+00
   0.0000000000000000E+00
   0.0000000000000000E+00
   0.0000000000000000E+00
   0.0000000000000000E+00
   0.0000000000000000E+00
   0.0000000000000000E+00
   0.0000000000000000E+00
   0.0000000000000000E+00
   0.0000000000000000E+00
   0.0000000000000000E+00
   0.0000000000000000E+00
   0.0000000000000000E+00
   0.0000000000000000E+00
   0.0000000000000000E+00
   0.0000000000000000E+00
   0.0000000000000000E+00
   0.0000000000000000E+00
   0.0000000000000000E+00
   0.0000000000000000E+00
   0.0000000000000000E+00
   0.0000000000000000E+00
   0.0000000000000000E+00
   0.0000000000000000E+00
  -0.1007612290957793E+00
  -0.4249297152745172E-01
   0.7371985699510945E-03
   0.5725799924804750E-02
   0.5699057399347760E-03
   0.1609783082629777E-02
   0.3375072976624213E-02
   0.2371773619849204E-02
   0.4590624700492686E-03
   0.3518225884094976E-02
   0.4521817553784223E-01
   0.6522937770477602E-01
   0.8689296840075641E-03
  -0.2261151827902255E-01
   0.4316553480145566E-02
   0.1358734829241121E-01
   0.1039452544661016E-01
   0.4900548391633029E-01
   0.2437443470648942E-02
  -0.6509941152141406E-02
  -0.7012227772911139E-03
   0.3411016188459941E-03
   0.3904107299557236E-02
  -0.3893254320673504E-01
   0.1798168093779692E-01
   0.1119638180891118E-01
   0.3403773242334938E-01
   0.8438810159004847E-02
   0.4937312259540137E-02
   0.4970345563641352E-02
   0.4871517392109725E-02
   0.6027191701546839E-02
   0.2599191751658248E-02
  -0.4144429606473821E-01
  -0.9954261896341392E-01
  -0.1121678220114345E+00
   0.5070875014676931E-02
   0.4230770674405174E-02
  -0.1004732307207940E+00
  -0.9895252538714576E-01
  -0.9875450978303760E-01
  -0.9462509641674011E-01
  -0.6807133846984056E-01
   0.5154922157818222E-02
  -0.1935330758394945E-01
  -0.1575800298000906E-01
  -0.6002862473759859E-02
   0.6819057369426771E-02
  -0.8010050834023742E-01
  -0.2781092473420121E-01
  -0.8096457381913705E-01
  -0.5873277583412308E-01
   0.3083625660129077E-02
   0.2685146444756301E-02
   0.2640431156263241E-02
   0.3450191897065786E-02
   0.4007083750670378E-02
   0.1201214285106067E-02
  -0.1438846692311335E-03
   0.2039877280500522E-02
   0.4895693576427553E-02
   0.3857385552438680E-02
   0.1114201926549383E-02
   0.1182682022785165E-02
   0.1465296239415721E-02
  -0.1653640227282305E-04
   0.8996621333810537E-04
   0.4386667830319472E-02
   0.2715724203501274E-02
   0.2322755263812612E-02
   0.5010600994921591E-02
   0.1071689315740685E-02
   0.2712217684605536E-02
   0.2013964062379884E-02
   0.2879083238045652E-04
   0.8374614318008007E-01
   0.2793870704889949E-02
  -0.8346628083698828E-03
  -0.1492945643346158E-03
   0.1409540840559318E+00
   0.1239332949564581E+00
  -0.1219093307568439E-02
  -0.4381936070422083E-02
  -0.3043057896783806E-03
  -0.6512246818644066E-02
  -0.1949570342163519E-02
   0.1557630964269971E+00
   0.7489979153244800E-01
   0.2550174902585478E-01
   0.1656445109892518E+00