title="tecplot geometry and solution file"
variables = x y z rho u v w p mach temperature
zone t="boundary 1 bc-1", solutiontime= 0.1000000E+02, strandid=1001, i=32, j=46, f=feblock
  0.000000000000E+00  0.000000000000E+00  0.000000000000E+00  0.000000000000E+00  0.000000000000E+00  0.000000000000E+00  0.000000000000E+00
  0.000000000000E+00  0.000000000000E+00  0.000000000000E+00  0.000000000000E+00  0.000000000000E+00  0.000000000000E+00  0.000000000000E+00
  0.000000000000E+00  0.000000000000E+00  0.000000000000E+00  0.000000000000E+00  0.000000000000E+00  0.000000000000E+00  0.000000000000E+00
  0.000000000000E+00  0.000000000000E+00  0.000000000000E+00  0.000000000000E+00  0.000000000000E+00  0.000000000000E+00  0.000000000000E+00
  0.000000000000E+00  0.000000000000E+00  0.000000000000E+00  0.000000000000E+00
  0.250000000000E+01  0.250000000000E+01  0.125000000000E+01  0.146289271009E+01  0.157686156160E+01  0.308372018325E+00  0.000000000000E+00
 -0.125000000000E+01 -0.600232012419E+00  0.250000000000E+01  0.477386199275E+00  0.742988685424E+00 -0.739814786992E+00  0.177790177481E+01
  0.155830813274E+01  0.250000000000E+01 -0.250000000000E+01 -0.154800130438E+01 -0.487811078581E+00  0.250000000000E+01  0.627766083140E+00
 -0.345533899378E+00 -0.178862290564E+01 -0.158811787973E+01  0.125000000000E+01 -0.250000000000E+01 -0.144524380962E+01  0.000000000000E+00
 -0.125000000000E+01 -0.250000000000E+01 -0.250000000000E+01 -0.250000000000E+01
  0.000000000000E+00  0.125000000000E+01  0.000000000000E+00  0.103724302461E+01  0.219251206392E+01  0.922061490191E+00  0.000000000000E+00
  0.000000000000E+00  0.715990576545E+00  0.250000000000E+01  0.202479342020E+01  0.324151231464E+01  0.175434191980E+01  0.310152362409E+01
  0.404200324774E+01  0.375000000000E+01  0.000000000000E+00  0.930412228790E+00  0.299062775774E+01  0.500000000000E+01  0.429310310915E+01
  0.409252726285E+01  0.187029682677E+01  0.284428995242E+01  0.500000000000E+01  0.125000000000E+01  0.394624082883E+01  0.500000000000E+01
  0.500000000000E+01  0.250000000000E+01  0.375000000000E+01  0.500000000000E+01
  0.134396596144E+01  0.106288564908E+01  0.142567198615E+01  0.108605535116E+01  0.103189236845E+01  0.120046100632E+01  0.164280958407E+01
  0.149231919782E+01  0.123491055226E+01  0.102374887843E+01  0.102837514225E+01  0.101298494134E+01  0.103298018495E+01  0.101450435626E+01
  0.100651933227E+01  0.100815139838E+01  0.144786900992E+01  0.116338097809E+01  0.101484578827E+01  0.100300465262E+01  0.100671153767E+01
  0.100730254178E+01  0.104658363805E+01  0.101925944774E+01  0.100388286071E+01  0.106492802064E+01  0.100782012629E+01  0.100321537366E+01
  0.100342413900E+01  0.102865083036E+01  0.100953790981E+01  0.100373853217E+01
  0.000000000000E+00  0.446358084259E+00  0.000000000000E+00  0.467563571797E+00  0.463486932942E+00  0.444133046549E+00  0.000000000000E+00
  0.000000000000E+00  0.379418337986E+00  0.472067248602E+00  0.467067893480E+00  0.479430321061E+00  0.489673706279E+00  0.484504446498E+00
  0.488023432596E+00  0.489656768661E+00  0.000000000000E+00  0.450854199355E+00  0.474819009253E+00  0.496307945422E+00  0.491007076143E+00
  0.486784670515E+00  0.449354221342E+00  0.466800966738E+00  0.497492500321E+00  0.445302538047E+00  0.487563809891E+00  0.498116300932E+00
  0.496793354580E+00  0.469844688859E+00  0.489158519142E+00  0.495744169112E+00
  0.000000000000E+00  0.000000000000E+00  0.000000000000E+00  0.175477638090E-01 -0.213729970261E-02  0.327979534145E-01  0.000000000000E+00
  0.000000000000E+00 -0.650328162215E-02  0.000000000000E+00  0.411727307017E-02 -0.522545163366E-02 -0.408068566661E-02  0.340392750860E-04
 -0.824514652757E-03  0.000000000000E+00  0.000000000000E+00 -0.784096040126E-02  0.397529883181E-03  0.000000000000E+00 -0.213224067238E-02
 -0.139207596922E-02  0.163781915272E-02 -0.186754340948E-02 -0.433573571129E-03  0.000000000000E+00 -0.230329809674E-03 -0.412220790953E-03
  0.823832778747E-03  0.000000000000E+00  0.000000000000E+00  0.000000000000E+00
  0.000000000000E+00  0.455578362073E-01  0.000000000000E+00  0.122821575573E+00  0.248513823603E-01  0.165555763417E+00  0.000000000000E+00
  0.000000000000E+00  0.156229718944E+00  0.371051001947E-02  0.269604579600E-01 -0.607265845327E-02  0.753301358816E-01  0.395709261436E-02
  0.296501341796E-03  0.875249835207E-03  0.000000000000E+00  0.140694084518E+00 -0.764474789569E-02  0.449760173629E-02  0.193802413229E-03
 -0.422693397007E-02  0.257869996915E-01 -0.140660126064E-02  0.448025856546E-02  0.843971815384E-01 -0.110385046210E-02  0.318264151877E-02
  0.318167032931E-02  0.268924865238E-02 -0.853215985056E-03  0.445298682050E-02
  0.959966372201E+00  0.781902653483E+00  0.101832772386E+01  0.808257918361E+00  0.745947924511E+00  0.879213443833E+00  0.117342534767E+01
  0.106593393809E+01  0.916233368244E+00  0.737246062645E+00  0.743709019779E+00  0.725752188315E+00  0.757527695735E+00  0.729039699864E+00
  0.720574106513E+00  0.722624471693E+00  0.103418462359E+01  0.857886472064E+00  0.728168401457E+00  0.718031343595E+00  0.721005193063E+00
  0.721150997586E+00  0.759976945803E+00  0.732624392075E+00  0.718477302344E+00  0.791195134317E+00  0.722071716102E+00  0.717593508229E+00
  0.717814525369E+00  0.741827108337E+00  0.723983027195E+00  0.718433596838E+00
  0.000000000000E+00  0.442116500360E+00  0.000000000000E+00  0.473917813350E+00  0.461385999674E+00  0.469208363807E+00  0.000000000000E+00
  0.000000000000E+00  0.402654370811E+00  0.470157920397E+00  0.464974771055E+00  0.478772748888E+00  0.488971294405E+00  0.483058361006E+00
  0.487471345235E+00  0.488804262272E+00  0.000000000000E+00  0.464897233417E+00  0.473810440223E+00  0.495775218278E+00  0.490355655448E+00
  0.486248062950E+00  0.446404320014E+00  0.465344796537E+00  0.497021629745E+00  0.444398664042E+00  0.486821726565E+00  0.497775581783E+00
  0.496429309539E+00  0.467605982242E+00  0.488183827399E+00  0.495254121060E+00
  0.999990297104E+00  0.102989791595E+01  0.999990760321E+00  0.104190001412E+01  0.101205040976E+01  0.102535510515E+01  0.999991418764E+00
  0.999992170252E+00  0.103872034553E+01  0.100820084832E+01  0.101246382270E+01  0.100302879360E+01  0.102667871996E+01  0.100606327958E+01
  0.100226962044E+01  0.100349437792E+01  0.999992722482E+00  0.103237123823E+01  0.100452282881E+01  0.100223252046E+01  0.100267776073E+01
  0.100229211656E+01  0.101661031707E+01  0.100629349199E+01  0.100197768350E+01  0.104013902026E+01  0.100305637501E+01  0.100141100097E+01
  0.100151102256E+01  0.100963118000E+01  0.100400017495E+01  0.100206079904E+01
        12        19        11        11
        11         5        12        12
        10        14         5         5
        19        13        11        11
        19        24        13        13
        30        23        24        24
        19        12        22        22
        28        22        21        21
        11        13         6         6
         7         6         9         9
        15        12        14        14
        18        13        23        23
        15        25        21        21
        27        19        22        22
        18         8         9         9
        27        31        24        24
         4        11         6         6
         5        14        12        12
         4         2         5         5
        21        12        15        15
        14        16        15        15
        24        19        27        27
        22        29        27        27
        23        26        18        18
        17         8        18        18
         5        11         4         4
         6         3         4         4
        26        23        30        30
         5         2        10        10
        16        14        10        10
         3         6         7         7
        21        25        28        28
        29        22        28        28
         6        13         9         9
         2         4         1         1
        31        27        32        32
        25        15        20        20
        24        23        13        13
         8         7         9         9
        13        18         9         9
        31        30        24        24
        12        21        22        22
        29        32        27        27
         3         1         4         4
        26        17        18        18
        16        20        15        15
zone t="boundary 2 bc-2", solutiontime= 0.1000000E+02, strandid=1002, i=33, j=48, f=feblock
  0.500000000000E+01  0.375000000000E+01  0.250000000000E+01  0.288078410721E+01  0.125000000000E+01  0.190974100652E+01  0.326683758169E+01
  0.201431602454E+01  0.000000000000E+00  0.963108083381E+00  0.500000000000E+01  0.403552511878E+01  0.423153924130E+01  0.500000000000E+01
  0.385533350601E+01  0.500000000000E+01  0.398173246726E+01  0.315249557942E+01  0.267000324704E+01  0.154774304040E+01  0.218329375016E+01
  0.893127759452E+00  0.000000000000E+00  0.698517061619E+00  0.964171764089E+00  0.310324758057E+01  0.000000000000E+00  0.000000000000E+00
  0.125000000000E+01  0.500000000000E+01  0.375000000000E+01  0.250000000000E+01  0.000000000000E+00
 -0.250000000000E+01 -0.250000000000E+01 -0.250000000000E+01 -0.250000000000E+01 -0.250000000000E+01 -0.250000000000E+01 -0.250000000000E+01
 -0.250000000000E+01 -0.250000000000E+01 -0.250000000000E+01 -0.250000000000E+01 -0.250000000000E+01 -0.250000000000E+01 -0.250000000000E+01
 -0.250000000000E+01 -0.250000000000E+01 -0.250000000000E+01 -0.250000000000E+01 -0.250000000000E+01 -0.250000000000E+01 -0.250000000000E+01
 -0.250000000000E+01 -0.250000000000E+01 -0.250000000000E+01 -0.250000000000E+01 -0.250000000000E+01 -0.250000000000E+01 -0.250000000000E+01
 -0.250000000000E+01 -0.250000000000E+01 -0.250000000000E+01 -0.250000000000E+01 -0.250000000000E+01
  0.000000000000E+00  0.000000000000E+00  0.000000000000E+00  0.904659890645E+00  0.000000000000E+00  0.717002441913E+00  0.188609243358E+01
  0.176246431481E+01  0.000000000000E+00  0.961328577125E+00  0.125000000000E+01  0.101201586758E+01  0.191586535653E+01  0.250000000000E+01
  0.293121848150E+01  0.375000000000E+01  0.406975391361E+01  0.363585050272E+01  0.285047954584E+01  0.292817774674E+01  0.395907379566E+01
  0.205246550326E+01  0.125000000000E+01  0.306828197606E+01  0.397245519226E+01  0.433168271247E+01  0.250000000000E+01  0.375000000000E+01
  0.500000000000E+01  0.500000000000E+01  0.500000000000E+01  0.500000000000E+01  0.500000000000E+01
  0.831661435222E+00  0.936966368515E+00  0.935439893152E+00  0.968890272482E+00  0.961482410799E+00  0.965361380962E+00  0.983820447045E+00
  0.991386732006E+00  0.144786900992E+01  0.102907330675E+01  0.955962007015E+00  0.962140180876E+00  0.980840724168E+00  0.100469969121E+01
  0.997287245360E+00  0.100954410901E+01  0.100208040741E+01  0.997824967628E+00  0.991303373754E+00  0.100153796185E+01  0.100104792525E+01
  0.101224890500E+01  0.106492802064E+01  0.101060544598E+01  0.100680713417E+01  0.100111654507E+01  0.102865083036E+01  0.100953790981E+01
  0.100528166176E+01  0.100485028603E+01  0.100458056025E+01  0.100326515569E+01  0.100373853217E+01
  0.000000000000E+00  0.000000000000E+00  0.000000000000E+00  0.379919181499E+00  0.000000000000E+00  0.341371341927E+00  0.580277455314E+00
  0.573749134639E+00  0.000000000000E+00  0.489361754942E+00  0.495708956561E+00  0.433926271427E+00  0.567786547432E+00  0.535919241600E+00
  0.567029682363E+00  0.516413509613E+00  0.508659607513E+00  0.528316798517E+00  0.566434141967E+00  0.532986089211E+00  0.506500476266E+00
  0.520722450166E+00  0.445302538047E+00  0.491840784462E+00  0.492647481667E+00  0.501420832489E+00  0.469844688859E+00  0.489158519142E+00
  0.487891502991E+00  0.491895270078E+00  0.485574443669E+00  0.487618503865E+00  0.495744169112E+00
  0.000000000000E+00  0.000000000000E+00  0.000000000000E+00  0.000000000000E+00  0.000000000000E+00  0.000000000000E+00  0.000000000000E+00
  0.000000000000E+00  0.000000000000E+00  0.000000000000E+00  0.000000000000E+00  0.000000000000E+00  0.000000000000E+00  0.000000000000E+00
  0.000000000000E+00  0.000000000000E+00  0.000000000000E+00  0.000000000000E+00  0.000000000000E+00  0.000000000000E+00  0.000000000000E+00
  0.000000000000E+00  0.000000000000E+00  0.000000000000E+00  0.000000000000E+00  0.000000000000E+00  0.000000000000E+00  0.000000000000E+00
  0.000000000000E+00  0.000000000000E+00  0.000000000000E+00  0.000000000000E+00  0.000000000000E+00
  0.000000000000E+00  0.000000000000E+00  0.000000000000E+00 -0.228787924494E-02  0.000000000000E+00  0.184382857967E-01  0.114382302690E-01
  0.449169450828E-01  0.000000000000E+00  0.866356549967E-01 -0.969155024553E-01 -0.217476933212E-01 -0.302169870360E-01 -0.405210239742E-01
 -0.573483593445E-03  0.169108779607E-02  0.185159884764E-02  0.180640711647E-02  0.153246135343E-01  0.288066146066E-01  0.614076672282E-02
  0.554070031481E-01  0.843971815384E-01  0.111772455804E-01  0.660675937594E-02  0.136110847001E-04  0.268924865238E-02 -0.853215985056E-03
  0.370763158741E-02  0.566397772257E-02  0.102422987025E-02  0.914522425475E-03  0.445298682050E-02
  0.594040014493E+00  0.669257470702E+00  0.668167038574E+00  0.684522147063E+00  0.686768438497E+00  0.679274482218E+00  0.695948790999E+00
  0.702390535662E+00  0.103418462359E+01  0.723545579053E+00  0.672749974421E+00  0.676346069115E+00  0.693934730475E+00  0.719881930982E+00
  0.712449311134E+00  0.724516416917E+00  0.716380700614E+00  0.713137898033E+00  0.706611877509E+00  0.717766786413E+00  0.715686147596E+00
  0.730918887689E+00  0.791195134317E+00  0.724241150739E+00  0.721036354459E+00  0.715447349719E+00  0.741827108337E+00  0.723983027195E+00
  0.719780796839E+00  0.717936722135E+00  0.717572519531E+00  0.717293655770E+00  0.718433596838E+00
  0.000000000000E+00  0.000000000000E+00  0.000000000000E+00  0.382013423359E+00  0.000000000000E+00  0.344443443157E+00  0.583210475282E+00
  0.577852563624E+00  0.000000000000E+00  0.500907654672E+00  0.508863959737E+00  0.437956903098E+00  0.571314386282E+00  0.536612405627E+00
  0.566989667663E+00  0.515198322089E+00  0.508446729428E+00  0.528169557273E+00  0.567227284204E+00  0.532877371250E+00  0.506306945942E+00
  0.520830059135E+00  0.444398664042E+00  0.491158714266E+00  0.492046175030E+00  0.501293225670E+00  0.467605982242E+00  0.488183827399E+00
  0.487321451067E+00  0.491863973368E+00  0.485570456617E+00  0.487389639709E+00  0.495254121060E+00
  0.999993489018E+00  0.999993692909E+00  0.999993544055E+00  0.989101689950E+00  0.999993138820E+00  0.985107021950E+00  0.990351756080E+00
  0.991890165745E+00  0.999992722482E+00  0.984345628271E+00  0.985237862256E+00  0.984144011010E+00  0.990485609668E+00  0.100312034749E+01
  0.100014217592E+01  0.100473369576E+01  0.100085080343E+01  0.100056932793E+01  0.997935298824E+00  0.100333041708E+01  0.100091172597E+01
  0.101090397600E+01  0.104013902026E+01  0.100329719681E+01  0.100262588731E+01  0.100050917602E+01  0.100963118000E+01  0.100400017495E+01
  0.100239878425E+01  0.100025986454E+01  0.100002087149E+01  0.100094288373E+01  0.100206079904E+01
        15         7        19        19
         8        20        19        19
        18        19        21        21
         7         4         8         8
         3         6         4         4
        19         7         8         8
        19        18        15        15
        14        13        15        15
         8        22        20        20
        27        24        22        22
        19        20        21        21
        32        26        21        21
        17        18        26        26
        17        16        15        15
        25        29        21        21
        12         7        13        13
        10         8         6         6
        25        20        24        24
         4         6         8         8
        12         2         4         4
        10        23        22        22
        26        31        17        17
        30        16        17        17
         4         7        12        12
        13        11        12        12
        21        20        25        25
        24        28        25        25
        22         8        10        10
         6         5        10        10
        31        26        32        32
         4         2         3         3
         5         6         3         3
        11        13        14        14
        22        23        27        27
        28        24        27        27
        15        13         7         7
         2        12         1         1
        29        25        33        33
        23        10         9         9
        21        26        18        18
        16        14        15        15
        18        17        15        15
        29        32        21        21
        22        24        20        20
        28        33        25        25
        11         1        12        12
        31        30        17        17
         5         9        10        10
zone t="boundary 3 bc-3", solutiontime= 0.1000000E+02, strandid=1003, i=33, j=48, f=feblock
  0.375000000000E+01  0.250000000000E+01  0.500000000000E+01  0.403552511878E+01  0.288078410721E+01  0.125000000000E+01  0.190974100652E+01
  0.500000000000E+01  0.326683758169E+01  0.423153924130E+01  0.201431602454E+01  0.000000000000E+00  0.963108083381E+00  0.500000000000E+01
  0.267000324704E+01  0.385533350601E+01  0.893127759452E+00  0.154774304040E+01  0.000000000000E+00  0.500000000000E+01  0.315249557942E+01
  0.218329375016E+01  0.398173246726E+01  0.000000000000E+00  0.698517061619E+00  0.964171764089E+00  0.125000000000E+01  0.000000000000E+00
  0.500000000000E+01  0.310324758057E+01  0.250000000000E+01  0.375000000000E+01  0.000000000000E+00
  0.250000000000E+01  0.250000000000E+01  0.250000000000E+01  0.250000000000E+01  0.250000000000E+01  0.250000000000E+01  0.250000000000E+01
  0.250000000000E+01  0.250000000000E+01  0.250000000000E+01  0.250000000000E+01  0.250000000000E+01  0.250000000000E+01  0.250000000000E+01
  0.250000000000E+01  0.250000000000E+01  0.250000000000E+01  0.250000000000E+01  0.250000000000E+01  0.250000000000E+01  0.250000000000E+01
  0.250000000000E+01  0.250000000000E+01  0.250000000000E+01  0.250000000000E+01  0.250000000000E+01  0.250000000000E+01  0.250000000000E+01
  0.250000000000E+01  0.250000000000E+01  0.250000000000E+01  0.250000000000E+01  0.250000000000E+01
  0.000000000000E+00  0.000000000000E+00  0.000000000000E+00  0.101201586758E+01  0.904659890645E+00  0.000000000000E+00  0.717002441913E+00
  0.125000000000E+01  0.188609243358E+01  0.191586535653E+01  0.176246431481E+01  0.000000000000E+00  0.961328577125E+00  0.250000000000E+01
  0.285047954584E+01  0.293121848150E+01  0.205246550326E+01  0.292817774674E+01  0.125000000000E+01  0.375000000000E+01  0.363585050272E+01
  0.395907379566E+01  0.406975391361E+01  0.250000000000E+01  0.306828197606E+01  0.397245519226E+01  0.500000000000E+01  0.375000000000E+01
  0.500000000000E+01  0.433168271247E+01  0.500000000000E+01  0.500000000000E+01  0.500000000000E+01
  0.943813145473E+00  0.947744844567E+00  0.844100949717E+00  0.965891853879E+00  0.980212804626E+00  0.957697272672E+00  0.984138050594E+00
  0.964121945357E+00  0.982837218984E+00  0.984087814151E+00  0.990552180753E+00  0.134396596144E+01  0.101911328585E+01  0.100729640039E+01
  0.993499827705E+00  0.997601423773E+00  0.100791843005E+01  0.100077531000E+01  0.106288564908E+01  0.100618477850E+01  0.100059357143E+01
  0.100249419955E+01  0.100182781999E+01  0.102374887843E+01  0.100882730625E+01  0.100540993531E+01  0.100528491050E+01  0.100815139838E+01
  0.100457495933E+01  0.100186529208E+01  0.100461052694E+01  0.100575142310E+01  0.100300465262E+01
  0.000000000000E+00  0.000000000000E+00  0.000000000000E+00  0.440750670669E+00  0.400715097541E+00  0.000000000000E+00  0.373002526175E+00
  0.495608828488E+00  0.571962655292E+00  0.568806566120E+00  0.558798817788E+00  0.000000000000E+00  0.482764916788E+00  0.533602896982E+00
  0.556443598001E+00  0.564022265235E+00  0.522725277378E+00  0.522941483395E+00  0.446358084259E+00  0.518445048365E+00  0.525239884532E+00
  0.503208373320E+00  0.508924008347E+00  0.472067248602E+00  0.496211332983E+00  0.494405917730E+00  0.486389738705E+00  0.489656768661E+00
  0.493313380607E+00  0.498020318368E+00  0.483717032500E+00  0.484198149190E+00  0.496307945422E+00
  0.000000000000E+00  0.000000000000E+00  0.000000000000E+00  0.000000000000E+00  0.000000000000E+00  0.000000000000E+00  0.000000000000E+00
  0.000000000000E+00  0.000000000000E+00  0.000000000000E+00  0.000000000000E+00  0.000000000000E+00  0.000000000000E+00  0.000000000000E+00
  0.000000000000E+00  0.000000000000E+00  0.000000000000E+00  0.000000000000E+00  0.000000000000E+00  0.000000000000E+00  0.000000000000E+00
  0.000000000000E+00  0.000000000000E+00  0.000000000000E+00  0.000000000000E+00  0.000000000000E+00  0.000000000000E+00  0.000000000000E+00
  0.000000000000E+00  0.000000000000E+00  0.000000000000E+00  0.000000000000E+00  0.000000000000E+00
  0.000000000000E+00  0.000000000000E+00  0.000000000000E+00 -0.224687350235E-01  0.108026778741E-01  0.000000000000E+00  0.177288214185E-01
 -0.979338785478E-01  0.370529233635E-02 -0.377253752177E-01  0.330651306559E-01  0.000000000000E+00  0.645451357897E-01 -0.415865209029E-01
  0.829503208604E-02 -0.598356757498E-02  0.483632369341E-01  0.130696352217E-01  0.455578362073E-01 -0.264320162073E-03 -0.367168814402E-03
  0.204215328325E-02  0.141795277767E-02  0.371051001947E-02  0.101472432569E-01  0.438344302425E-02  0.369810933339E-02  0.875249835207E-03
  0.477696890971E-02  0.686634645955E-03  0.206694619938E-02  0.233653092726E-02  0.449760173629E-02
  0.674145060081E+00  0.676953434620E+00  0.602922995643E+00  0.676678163322E+00  0.691682242211E+00  0.684062523732E+00  0.690393835599E+00
  0.677703156088E+00  0.695241263380E+00  0.696246675996E+00  0.703454748920E+00  0.959966372201E+00  0.719436803007E+00  0.722257078295E+00
  0.709528161083E+00  0.713538717344E+00  0.725990278091E+00  0.716689662908E+00  0.781902653483E+00  0.721786776116E+00  0.716089330995E+00
  0.716741608718E+00  0.716386817195E+00  0.737246062645E+00  0.722653236685E+00  0.719586081726E+00  0.719926510538E+00  0.722624471693E+00
  0.717629868369E+00  0.715881564336E+00  0.718220945493E+00  0.718281779860E+00  0.718031343595E+00
  0.000000000000E+00  0.000000000000E+00  0.000000000000E+00  0.445621075963E+00  0.403307517407E+00  0.000000000000E+00  0.376805574756E+00
  0.509259155905E+00  0.574759020304E+00  0.572781580657E+00  0.561398214660E+00  0.000000000000E+00  0.489929847585E+00  0.534197490309E+00
  0.556550352338E+00  0.563671953981E+00  0.522766424779E+00  0.522429137946E+00  0.442116500360E+00  0.517336571407E+00  0.524733798103E+00
  0.502975745732E+00  0.508643334820E+00  0.470157920397E+00  0.495606378322E+00  0.493931723406E+00  0.485773072906E+00  0.488804262272E+00
  0.493310272855E+00  0.497929128613E+00  0.483505207668E+00  0.484241567219E+00  0.495775218278E+00
  0.999989339670E+00  0.999989410548E+00  0.999989627050E+00  0.980802793653E+00  0.987902968136E+00  0.999989830348E+00  0.982129864052E+00
  0.984091714842E+00  0.990334665733E+00  0.990506469421E+00  0.994229953378E+00  0.999990297104E+00  0.988321453749E+00  0.100383552371E+01
  0.999838548348E+00  0.100135603306E+01  0.100840143311E+01  0.100258821141E+01  0.102989791595E+01  0.100429017429E+01  0.100193034617E+01
  0.100094170386E+01  0.100111169211E+01  0.100820084832E+01  0.100286196169E+01  0.100199976053E+01  0.100259847156E+01  0.100349437792E+01
  0.100010636975E+01  0.100036821117E+01  0.100089467184E+01  0.999843966126E+00  0.100223252046E+01
        15         9        16        16
        15        18        11        11
        22        15        21        21
        11         5         9         9
         5         7         2         2
        11         9        15        15
        16        21        15        15
        16        10        14        14
        18        17        11        11
        17        25        24        24
        22        18        15        15
        22        30        31        31
        30        21        23        23
        16        20        23        23
        22        27        26        26
        10         9         4         4
         7        11        13        13
        25        18        26        26
        11         7         5         5
         5         1         4         4
        17        19        13        13
        23        32        30        30
        23        20        29        29
         4         9         5         5
         4         8        10        10
        26        18        22        22
        26        28        25        25
        13        11        17        17
        13         6         7         7
        31        30        32        32
         2         1         5         5
         2         7         6         6
        14        10         8         8
        24        19        17        17
        24        25        28        28
         9        10        16        16
         3         4         1         1
        33        26        27        27
        12        13        19        19
        21        30        22        22
        16        14        20        20
        16        23        21        21
        22        31        27        27
        18        25        17        17
        26        33        28        28
         4         3         8         8
        23        29        32        32
        13        12         6         6
zone t="boundary 4 bc-4", solutiontime= 0.1000000E+02, strandid=1004, i=32, j=46, f=feblock
  0.125000000000E+01  0.219251206392E+01  0.103724302461E+01  0.500000000000E+01  0.250000000000E+01  0.375000000000E+01  0.404200324774E+01
  0.500000000000E+01  0.000000000000E+00  0.310152362409E+01  0.202479342020E+01  0.324151231464E+01  0.922061490191E+00  0.000000000000E+00
  0.299062775774E+01  0.394624082883E+01  0.500000000000E+01  0.409252726285E+01  0.500000000000E+01  0.429310310915E+01  0.175434191980E+01
  0.284428995242E+01  0.000000000000E+00  0.000000000000E+00  0.715990576545E+00  0.930412228790E+00  0.125000000000E+01  0.187029682677E+01
  0.500000000000E+01  0.375000000000E+01  0.250000000000E+01  0.000000000000E+00
  0.250000000000E+01  0.157686156160E+01  0.146289271009E+01  0.250000000000E+01  0.250000000000E+01  0.250000000000E+01  0.155830813274E+01
  0.125000000000E+01  0.250000000000E+01  0.177790177481E+01  0.477386199275E+00  0.742988685424E+00  0.308372018325E+00  0.125000000000E+01
 -0.487811078581E+00 -0.144524380962E+01 -0.125000000000E+01 -0.345533899378E+00  0.000000000000E+00  0.627766083140E+00 -0.739814786992E+00
 -0.158811787973E+01  0.000000000000E+00 -0.125000000000E+01 -0.600232012419E+00 -0.154800130438E+01 -0.250000000000E+01 -0.178862290564E+01
 -0.250000000000E+01 -0.250000000000E+01 -0.250000000000E+01 -0.250000000000E+01
  0.500000000000E+01  0.500000000000E+01  0.500000000000E+01  0.500000000000E+01  0.500000000000E+01  0.500000000000E+01  0.500000000000E+01
  0.500000000000E+01  0.500000000000E+01  0.500000000000E+01  0.500000000000E+01  0.500000000000E+01  0.500000000000E+01  0.500000000000E+01
  0.500000000000E+01  0.500000000000E+01  0.500000000000E+01  0.500000000000E+01  0.500000000000E+01  0.500000000000E+01  0.500000000000E+01
  0.500000000000E+01  0.500000000000E+01  0.500000000000E+01  0.500000000000E+01  0.500000000000E+01  0.500000000000E+01  0.500000000000E+01
  0.500000000000E+01  0.500000000000E+01  0.500000000000E+01  0.500000000000E+01
  0.100528491050E+01  0.100481213326E+01  0.100454652535E+01  0.100457495933E+01  0.100461052694E+01  0.100575142310E+01  0.100519642951E+01
  0.100477824498E+01  0.100300465262E+01  0.100530973336E+01  0.100474175802E+01  0.100468643189E+01  0.100353625069E+01  0.100388286071E+01
  0.100466978725E+01  0.100338589049E+01  0.100511432140E+01  0.100451939774E+01  0.100476718931E+01  0.100579165779E+01  0.100440679787E+01
  0.100395541128E+01  0.100321537366E+01  0.100342413900E+01  0.100313593351E+01  0.100406071945E+01  0.100528166176E+01  0.100421777882E+01
  0.100485028603E+01  0.100458056025E+01  0.100326515569E+01  0.100373853217E+01
  0.486389738705E+00  0.486750333574E+00  0.489155376243E+00  0.493313380607E+00  0.483717032500E+00  0.484198149190E+00  0.486438078489E+00
  0.494607020524E+00  0.496307945422E+00  0.484748996543E+00  0.486074181529E+00  0.486482034742E+00  0.493033311392E+00  0.497492500321E+00
  0.486347332162E+00  0.485257156446E+00  0.493788706902E+00  0.488630692522E+00  0.495402089060E+00  0.489159304449E+00  0.487288273608E+00
  0.486488460378E+00  0.498116300932E+00  0.496793354580E+00  0.494574763597E+00  0.491698256121E+00  0.487891502991E+00  0.487577204955E+00
  0.491895270078E+00  0.485574443669E+00  0.487618503865E+00  0.495744169112E+00
  0.000000000000E+00  0.267010227159E-03 -0.143245430669E-02  0.000000000000E+00  0.000000000000E+00  0.000000000000E+00  0.771315326897E-03
  0.111094481822E-02  0.000000000000E+00  0.657713549456E-03 -0.412214341841E-03  0.157036899868E-03 -0.200982278819E-02 -0.433573571129E-03
 -0.404175310338E-03 -0.183068201153E-03 -0.225623095548E-03 -0.636822897306E-03  0.889406356865E-04  0.155442501976E-06 -0.581287627337E-03
 -0.128132609016E-03 -0.412220790953E-03  0.823832778747E-03 -0.198090653606E-03  0.144685555823E-02  0.000000000000E+00  0.818727378648E-03
  0.000000000000E+00  0.000000000000E+00  0.000000000000E+00  0.000000000000E+00