# vtk DataFile Version 2.0
FUN3D:global_image_vtk
ASCII
DATASET UNSTRUCTURED_GRID
POINTS 213 double
    0.0000000000000000E+00    0.2500000000000000E+01    0.0000000000000000E+00
    0.1250000000000000E+01    0.2500000000000000E+01    0.0000000000000000E+00
    0.2500000000000000E+01    0.2500000000000000E+01    0.0000000000000000E+00
    0.3750000000000000E+01    0.2500000000000000E+01    0.0000000000000000E+00
    0.5000000000000000E+01    0.2500000000000000E+01    0.0000000000000000E+00
    0.5000000000000000E+01    0.1250000000000000E+01    0.0000000000000000E+00
    0.5000000000000000E+01    0.0000000000000000E+00    0.0000000000000000E+00
    0.5000000000000000E+01   -0.1250000000000000E+01    0.0000000000000000E+00
    0.5000000000000000E+01   -0.2500000000000000E+01    0.0000000000000000E+00
    0.3750000000000000E+01   -0.2500000000000000E+01    0.0000000000000000E+00
    0.2500000000000000E+01   -0.2500000000000000E+01    0.0000000000000000E+00
    0.1250000000000000E+01   -0.2500000000000000E+01    0.0000000000000000E+00
    0.0000000000000000E+00   -0.2500000000000000E+01    0.0000000000000000E+00
    0.0000000000000000E+00   -0.1250000000000000E+01    0.0000000000000000E+00
    0.0000000000000000E+00    0.0000000000000000E+00    0.0000000000000000E+00
    0.0000000000000000E+00    0.1250000000000000E+01    0.0000000000000000E+00
    0.9058375365086910E+00    0.1578994732800803E+01    0.0000000000000000E+00
    0.3982050490726493E+01   -0.1583989954232354E+01    0.0000000000000000E+00
    0.4033849428301197E+01    0.1453322699199022E+01    0.0000000000000000E+00
    0.1040505887381675E+01   -0.1479596339503735E+01    0.0000000000000000E+00
    0.1099454400140349E+01   -0.3227322616384110E+00    0.0000000000000000E+00
    0.7354504170366591E+00    0.6593508822075582E+00    0.0000000000000000E+00
    0.1622302608453282E+01    0.8256214013940779E+00    0.0000000000000000E+00
    0.2145871574390382E+01   -0.1650070333782557E+01    0.0000000000000000E+00
    0.4086422318222992E+01   -0.4612828702537229E+00    0.0000000000000000E+00
    0.2979540174134984E+01   -0.8579242121530853E+00    0.0000000000000000E+00
    0.3045064261640043E+01   -0.1836846154397680E+01    0.0000000000000000E+00
    0.3428197553792836E+01    0.3508002863614053E+00    0.0000000000000000E+00
    0.4309693860063405E+01    0.5185680230613409E+00    0.0000000000000000E+00
    0.1827272193562204E+01    0.1738996113203182E+01    0.0000000000000000E+00
    0.2808563282768077E+01    0.1325493893339706E+01    0.0000000000000000E+00
    0.1895995683864404E+01   -0.8731419609589618E+00    0.0000000000000000E+00
    0.2273179336307740E+01    0.4906150219227333E-01    0.0000000000000000E+00
    0.5000000000000000E+01    0.2500000000000000E+01    0.1250000000000000E+01
    0.5000000000000000E+01    0.2500000000000000E+01    0.2500000000000000E+01
    0.5000000000000000E+01    0.2500000000000000E+01    0.3750000000000000E+01
    0.5000000000000000E+01    0.2500000000000000E+01    0.5000000000000000E+01
    0.3750000000000000E+01    0.2500000000000000E+01    0.5000000000000000E+01
    0.2500000000000000E+01    0.2500000000000000E+01    0.5000000000000000E+01
    0.1250000000000000E+01    0.2500000000000000E+01    0.5000000000000000E+01
    0.0000000000000000E+00    0.2500000000000000E+01    0.5000000000000000E+01
    0.0000000000000000E+00    0.2500000000000000E+01    0.3750000000000000E+01
    0.0000000000000000E+00    0.2500000000000000E+01    0.2500000000000000E+01
    0.0000000000000000E+00    0.2500000000000000E+01    0.1250000000000000E+01
    0.9631080833812172E+00    0.2500000000000000E+01    0.9613285771248219E+00
    0.3981732467264904E+01    0.2500000000000000E+01    0.4069753913607991E+01
    0.4035525118777670E+01    0.2500000000000000E+01    0.1012015867579395E+01
    0.9641717640894248E+00    0.2500000000000000E+01    0.3972455192261839E+01
    0.1547743040396780E+01    0.2500000000000000E+01    0.2928177746738678E+01
    0.6985170616192014E+00    0.2500000000000000E+01    0.3068281976055466E+01
    0.8931277594515110E+00    0.2500000000000000E+01    0.2052465503257726E+01
    0.2183293750162785E+01    0.2500000000000000E+01    0.3959073795658649E+01
    0.3855333506014705E+01    0.2500000000000000E+01    0.2931218481500625E+01
    0.3152495579421047E+01    0.2500000000000000E+01    0.3635850502723324E+01
    0.3103247580566054E+01    0.2500000000000000E+01    0.4331682712472464E+01
    0.3266837581688852E+01    0.2500000000000000E+01    0.1886092433583972E+01
    0.4231539241296245E+01    0.2500000000000000E+01    0.1915865356532799E+01
    0.1909741006522088E+01    0.2500000000000000E+01    0.7170024419130505E+00
    0.2880784107213163E+01    0.2500000000000000E+01    0.9046598906449592E+00
    0.2014316024535771E+01    0.2500000000000000E+01    0.1762464314805728E+01
    0.2670003247036656E+01    0.2500000000000000E+01    0.2850479545835163E+01
    0.5000000000000000E+01    0.1250000000000000E+01    0.5000000000000000E+01
    0.5000000000000000E+01    0.0000000000000000E+00    0.5000000000000000E+01
    0.5000000000000000E+01   -0.1250000000000000E+01    0.5000000000000000E+01
    0.5000000000000000E+01   -0.2500000000000000E+01    0.5000000000000000E+01
    0.5000000000000000E+01   -0.2500000000000000E+01    0.3750000000000000E+01
    0.5000000000000000E+01   -0.2500000000000000E+01    0.2500000000000000E+01
    0.5000000000000000E+01   -0.2500000000000000E+01    0.1250000000000000E+01
    0.5000000000000000E+01    0.1578994732800803E+01    0.9058375365086910E+00
    0.5000000000000000E+01   -0.1583989954232354E+01    0.3982050490726493E+01
    0.5000000000000000E+01    0.1453322699199022E+01    0.4033849428301197E+01
    0.5000000000000000E+01   -0.1479596339503735E+01    0.1040505887381675E+01
    0.5000000000000000E+01   -0.3227322616384110E+00    0.1099454400140349E+01
    0.5000000000000000E+01    0.6593508822075582E+00    0.7354504170366591E+00
    0.5000000000000000E+01    0.8256214013940779E+00    0.1622302608453282E+01
    0.5000000000000000E+01   -0.1650070333782557E+01    0.2145871574390382E+01
    0.5000000000000000E+01   -0.4612828702537229E+00    0.4086422318222992E+01
    0.5000000000000000E+01   -0.8579242121530853E+00    0.2979540174134984E+01
    0.5000000000000000E+01   -0.1836846154397680E+01    0.3045064261640043E+01
    0.5000000000000000E+01    0.3508002863614053E+00    0.3428197553792836E+01
    0.5000000000000000E+01    0.5185680230613409E+00    0.4309693860063405E+01
    0.5000000000000000E+01    0.1738996113203182E+01    0.1827272193562204E+01
    0.5000000000000000E+01    0.1325493893339706E+01    0.2808563282768077E+01
    0.5000000000000000E+01   -0.8731419609589618E+00    0.1895995683864404E+01
    0.5000000000000000E+01    0.4906150219227333E-01    0.2273179336307740E+01
    0.0000000000000000E+00    0.1250000000000000E+01    0.5000000000000000E+01
    0.0000000000000000E+00    0.0000000000000000E+00    0.5000000000000000E+01
    0.0000000000000000E+00   -0.1250000000000000E+01    0.5000000000000000E+01
    0.0000000000000000E+00   -0.2500000000000000E+01    0.5000000000000000E+01
    0.1250000000000000E+01   -0.2500000000000000E+01    0.5000000000000000E+01
    0.2500000000000000E+01   -0.2500000000000000E+01    0.5000000000000000E+01
    0.3750000000000000E+01   -0.2500000000000000E+01    0.5000000000000000E+01
    0.4042003247744892E+01    0.1558308132739014E+01    0.5000000000000000E+01
    0.9304122287900499E+00   -0.1548001304379777E+01    0.5000000000000000E+01
    0.1037243024609388E+01    0.1462892710085612E+01    0.5000000000000000E+01
    0.3946240828834967E+01   -0.1445243809615570E+01    0.5000000000000000E+01
    0.4092527262848217E+01   -0.3455338993778935E+00    0.5000000000000000E+01
    0.4293103109154542E+01    0.6277660831404320E+00    0.5000000000000000E+01
    0.3241512314643519E+01    0.7429886854239611E+00    0.5000000000000000E+01
    0.2844289952419609E+01   -0.1588117879734118E+01    0.5000000000000000E+01
    0.7159905765450471E+00   -0.6002320124191652E+00    0.5000000000000000E+01
    0.1754341919796891E+01   -0.7398147869923652E+00    0.5000000000000000E+01
    0.1870296826774691E+01   -0.1788622905643739E+01    0.5000000000000000E+01
    0.9220614901912976E+00    0.3083720183248586E+00    0.5000000000000000E+01
    0.3101523624086016E+01    0.1777901774806180E+01    0.5000000000000000E+01
    0.2192512063922564E+01    0.1576861561598471E+01    0.5000000000000000E+01
    0.2024793420196460E+01    0.4773861992750707E+00    0.5000000000000000E+01
    0.2990627757741975E+01   -0.4878110785814084E+00    0.5000000000000000E+01
    0.0000000000000000E+00   -0.2500000000000000E+01    0.1250000000000000E+01
    0.0000000000000000E+00   -0.2500000000000000E+01    0.2500000000000000E+01
    0.0000000000000000E+00   -0.2500000000000000E+01    0.3750000000000000E+01
    0.0000000000000000E+00    0.1558308132739014E+01    0.4042003247744892E+01
    0.0000000000000000E+00   -0.1548001304379777E+01    0.9304122287900499E+00
    0.0000000000000000E+00    0.1462892710085612E+01    0.1037243024609388E+01
    0.0000000000000000E+00   -0.1445243809615570E+01    0.3946240828834967E+01
    0.0000000000000000E+00   -0.3455338993778935E+00    0.4092527262848217E+01
    0.0000000000000000E+00    0.6277660831404320E+00    0.4293103109154542E+01
    0.0000000000000000E+00    0.7429886854239611E+00    0.3241512314643519E+01
    0.0000000000000000E+00   -0.1588117879734118E+01    0.2844289952419609E+01
    0.0000000000000000E+00   -0.6002320124191652E+00    0.7159905765450471E+00
    0.0000000000000000E+00   -0.7398147869923652E+00    0.1754341919796891E+01
    0.0000000000000000E+00   -0.1788622905643739E+01    0.1870296826774691E+01
    0.0000000000000000E+00    0.3083720183248586E+00    0.9220614901912976E+00
    0.0000000000000000E+00    0.1777901774806180E+01    0.3101523624086016E+01
    0.0000000000000000E+00    0.1576861561598471E+01    0.2192512063922564E+01
[...]
POINT_DATA 213
SCALARS rho double 1
LOOKUP_TABLE default
   0.1343965961443647E+01
   0.9576972726720975E+00
   0.9477448445666875E+00
   0.9438131454732540E+00
   0.8441009497168916E+00
   0.7733576833368514E+00
   0.7630128801313091E+00
   0.7656186412439648E+00
   0.8316614352223504E+00
   0.9369663685152320E+00
   0.9354398931519708E+00
   0.9614824107990008E+00
   0.1447869009919513E+01
   0.1492319197816031E+01
   0.1642809584071711E+01
   0.1425671986154825E+01
   0.1009386315264999E+01
   0.9522697484375504E+00
   0.9451727073367745E+00
   0.9577559826359384E+00
   0.9405678777172765E+00
   0.1035489933709382E+01
   0.9260511809573410E+00
   0.9335251637234691E+00
   0.9552381736415350E+00
   0.9537149702262623E+00
   0.9360594534590690E+00
   0.9578783261917641E+00
   0.9386202159093860E+00
   0.9312265801298835E+00
   0.9460891776890761E+00
   0.8867073883160288E+00
   0.9437960432420652E+00
   0.9641219453572846E+00
   0.1007296400389299E+01
   0.1006184778498920E+01
   0.1004574959326180E+01
   0.1005751423095967E+01
   0.1004610526940503E+01
   0.1005284910503302E+01
   0.1003004652624774E+01
   0.1008151398382278E+01
   0.1023748878432378E+01
   0.1062885649078616E+01
   0.1019113285853448E+01
   0.1001827819993618E+01
   0.9658918538786303E+00
   0.1005409935310626E+01
   0.1000775309995279E+01
   0.1008827306254258E+01
   0.1007918430053631E+01
   0.1002494199548904E+01
   0.9976014237733295E+00
   0.1000593571425210E+01
   0.1001865292078622E+01
   0.9828372189837721E+00
   0.9840878141509177E+00
   0.9841380505940622E+00
   0.9802128046256082E+00
   0.9905521807531680E+00
   0.9934998277050530E+00
   0.1004778244977558E+01
   0.1004767189305005E+01
   0.1005114321404784E+01
   0.1004850286033662E+01
   0.1009544109013432E+01
   0.1004699691210332E+01
   0.9559620070151355E+00
   0.9257182856834559E+00
   0.1007687731092014E+01
   0.1004499793539122E+01
   0.9151324660436689E+00
   0.9096292334790964E+00
   0.8762723010372433E+00
   0.9757629702818552E+00
   0.9987129105488011E+00
   0.1006335541474521E+01
   0.1010818858994350E+01
   0.1010129204805789E+01
   0.1009074518833311E+01
   0.1005937111834499E+01
   0.9900076153184236E+00
   0.1003829925578111E+01
   0.9846226060975851E+00
   0.1002837188015508E+01
   0.1003882860714521E+01
   0.1003215373658355E+01
   0.1003424139001464E+01
   0.1003738532169896E+01
   0.1005281661760222E+01
   0.1003265155686410E+01
   0.1004580560251755E+01
   0.1005196429514257E+01
   0.1004060719454790E+01
   0.1004546525348497E+01
   0.1003385890487699E+01
   0.1004519397743705E+01
   0.1005791657791857E+01
   0.1004686431887766E+01
   0.1003955411277695E+01
   0.1003135933506083E+01
   0.1004406797865323E+01
   0.1004217778824705E+01
   0.1003536250687800E+01
   0.1005309733355664E+01
   0.1004812133263733E+01
   0.1004741758023756E+01
   0.1004669787251601E+01
   0.1064928020643457E+01
   0.1028650830364113E+01
   0.1009537909812201E+01
   0.1006519332270178E+01
   0.1163380978094254E+01
   0.1086055351155992E+01
   0.1007820126294808E+01
   0.1007302541783569E+01
   0.1006711537668516E+01
   0.1012984941336972E+01
   0.1019259447737539E+01
   0.1234910552260746E+01
   0.1032980184953851E+01
   0.1046583638051862E+01
   0.1200461006323746E+01
   0.1014504356259614E+01
   0.1031892368450646E+01
   0.1028375142251090E+01
   0.1014845788274277E+01
   0.1029073306754847E+01
   0.1002080407408695E+01
   0.9621401808761462E+00
   0.1006807134169176E+01
   0.1001537961848681E+01
   0.1010605445984812E+01
   0.1012248904996999E+01
   0.1001047925247840E+01
   0.9972872453604305E+00
   0.9978249676282440E+00
   0.1001116545069187E+01
   0.9838204470453588E+00
   0.9808407241680361E+00
   0.9653613809618584E+00
   0.9688902724817370E+00
   0.9913867320058914E+00
   0.9913033737543262E+00
   0.9924499654475221E+00
   0.1001939550995197E+01
   0.9994944957960855E+00
   0.9940522237387504E+00
   0.1006988072672471E+01
   0.1022221194298671E+01
   0.1000742636669251E+01
   0.1008918713458759E+01
   0.1004949825887169E+01
   0.1009093554837716E+01
   0.9967232935634596E+00
   0.1004971620837877E+01
   0.1003543350779787E+01
   0.9949818723209228E+00
   0.9827942752936948E+00
   0.9939983480199581E+00
   0.9970549763101423E+00
   0.9919138356405028E+00
   0.1001240974643066E+01
   0.1003192427213728E+01
   0.1002174556049741E+01
   0.9936100682639991E+00
   0.9937194722041145E+00
   0.1005130361350665E+01
   0.1019813424959119E+01
   0.1005421270379015E+01
   0.9816989786162393E+00
   0.1005148094902849E+01
   0.1012366735066616E+01
   0.9872336001217447E+00
   0.9550246538570044E+00
   0.9860586847303385E+00
   0.9866043130575531E+00
   0.9925193430995344E+00
   0.9931308548300815E+00
   0.9948952528505900E+00
   0.1037296046434067E+01
   0.1033015714591079E+01
   0.1001454862102194E+01
   0.1002005181871510E+01
   0.9897996522471041E+00
   0.9907251148454684E+00
   0.9646455765281922E+00
   0.9920848215608221E+00
   0.1005418868905210E+01
   0.1001496628944645E+01
   0.9910386850228792E+00
   0.9741297636937335E+00
   0.9424060717517072E+00
   0.9820102502462053E+00
   0.9791544204061816E+00
   0.9713816141764661E+00
   0.9720530686795154E+00
   0.9554278769783859E+00
   0.9502413890129054E+00
   0.9545737773982413E+00
   0.1002932458193530E+01
   0.1002562230585040E+01
   0.1000541323060510E+01
   0.1001108797963101E+01
   0.9616592900844644E+00
   0.9512265333498569E+00
   0.9602851455646475E+00
   0.1000865689498559E+01
   0.1000324352342573E+01
   0.1000906465855997E+01
   0.9809417603774282E+00
   0.9805261765936479E+00
   0.9640837771977392E+00
SCALARS u double 1
LOOKUP_TABLE default
   0.0000000000000000E+00
   0.0000000000000000E+00
   0.0000000000000000E+00
   0.0000000000000000E+00
   0.0000000000000000E+00
   0.0000000000000000E+00
   0.0000000000000000E+00
   0.0000000000000000E+00
   0.0000000000000000E+00
   0.0000000000000000E+00
   0.0000000000000000E+00
   0.0000000000000000E+00
   0.0000000000000000E+00
   0.0000000000000000E+00
   0.0000000000000000E+00
   0.0000000000000000E+00
   0.0000000000000000E+00
   0.0000000000000000E+00
   0.0000000000000000E+00
   0.0000000000000000E+00
   0.0000000000000000E+00
   0.0000000000000000E+00
   0.0000000000000000E+00
   0.0000000000000000E+00
   0.0000000000000000E+00
   0.0000000000000000E+00
   0.0000000000000000E+00
   0.0000000000000000E+00
   0.0000000000000000E+00
   0.0000000000000000E+00
   0.0000000000000000E+00
   0.0000000000000000E+00
   0.0000000000000000E+00
   0.4956088284882954E+00
   0.5336028969815297E+00
   0.5184450483654615E+00
   0.4933133806070912E+00
   0.4841981491899462E+00
   0.4837170324996263E+00
   0.4863897387051113E+00
   0.4963079454218791E+00
   0.4896567686612854E+00
   0.4720672486019397E+00
   0.4463580842594281E+00
   0.4827649167877178E+00
   0.5089240083470358E+00
   0.4407506706685137E+00
   0.4944059177297865E+00
   0.5229414833952263E+00
   0.4962113329834751E+00
   0.5227252773783674E+00
   0.5032083733198849E+00
   0.5640222652347562E+00
   0.5252398845322418E+00
   0.4980203183682578E+00
   0.5719626552916118E+00
   0.5688065661204020E+00
   0.3730025261745409E+00
   0.4007150975409904E+00
   0.5587988177878430E+00
   0.5564435980011353E+00
   0.4946070205241161E+00
   0.4954020890598537E+00
   0.4937887069024181E+00
   0.4918952700777935E+00
   0.5164135096127642E+00
   0.5359192415998980E+00
   0.4957089565609875E+00
   0.4530920757611980E+00
   0.5123877365634051E+00
   0.5107432041947415E+00
   0.4790291056180020E+00
   0.4944626131649040E+00
   0.4614927602435069E+00
   0.5257659114955291E+00
   0.5298668676097426E+00
   0.5123506248861488E+00
   0.5330012240221400E+00
   0.5309373756194454E+00
   0.5300690750947710E+00
   0.5056169292010725E+00
   0.5285423542116382E+00
   0.5403389545631305E+00
   0.5368093473904705E+00
   0.5377911717342898E+00
   0.4974925003208899E+00
   0.4981163009316722E+00
   0.4967933545800081E+00
   0.4957441691116207E+00
   0.4878915029908677E+00
   0.4876185038648492E+00
   0.4855744436686620E+00
   0.4864380784894837E+00
   0.4916982561211039E+00
   0.4891553762427485E+00
   0.4852571564457391E+00
   0.4886306925221809E+00
   0.4891593044485334E+00
   0.4864820347421270E+00
   0.4864884603778687E+00
   0.4945747635971308E+00
   0.4872882736078215E+00
   0.4875772049550126E+00
   0.4930333113917902E+00
   0.4847489965430684E+00
   0.4867503335742109E+00
   0.4860741815287129E+00
   0.4863473321621569E+00
   0.4453025380467987E+00
   0.4698446888588965E+00
   0.4891585191420363E+00
   0.4880234325958145E+00
   0.4508541993545452E+00
   0.4675635717970491E+00
   0.4875638098913342E+00
   0.4867846705151173E+00
   0.4910070761428341E+00
   0.4794303210606042E+00
   0.4668009667378945E+00
   0.3794183379857777E+00
   0.4896737062786528E+00
   0.4493542213415219E+00
   0.4441330465493223E+00
   0.4845044464978698E+00
   0.4634869329420709E+00
   0.4670678934801370E+00
   0.4748190092525286E+00
   0.4893617549418868E+00
   0.5086596075130498E+00
   0.4339262714266003E+00
   0.4926474816671658E+00
   0.5329860892107107E+00
   0.4918407844620535E+00
   0.5207224501660374E+00
   0.5065004762658125E+00
   0.5670296823631282E+00
   0.5283167985171152E+00
   0.5014208324886630E+00
   0.5802774553139094E+00
   0.5677865474323864E+00
   0.3413713419274166E+00
   0.3799191814985981E+00
   0.5737491346389395E+00
   0.5664341419669158E+00
   0.5693347635371527E+00
   0.5290190586615595E+00
   0.5447941407489260E+00
   0.5714556246416447E+00
   0.5388201781028193E+00
   0.5474922102065219E+00
   0.5819849039063621E+00
   0.4927287445510399E+00
   0.5038081361987996E+00
   0.4963777806319801E+00
   0.5560551741418982E+00
   0.4759488682964897E+00
   0.4944703450511316E+00
   0.5492269731633453E+00
   0.5873511810451481E+00
   0.5827117377005918E+00
   0.5459119783321869E+00
   0.5779713468452125E+00
   0.5101703932635301E+00
   0.5024518106571261E+00
   0.5028207582466412E+00
   0.5662368373799084E+00
   0.5559265056600010E+00
   0.4944845325314896E+00
   0.5501273441876985E+00
   0.5508114155082167E+00
   0.5651747165514907E+00
   0.4913641464836768E+00
   0.4930968995358999E+00
   0.3887840308887782E+00
   0.3712671996475000E+00
   0.5569996397934989E+00
   0.5753868690258238E+00
   0.4190741675669869E+00
   0.5815029703764879E+00
   0.4282091014049936E+00
   0.5390672020983246E+00
   0.5018184739477741E+00
   0.5109974191749289E+00
   0.5042138094887825E+00
   0.5729366097546446E+00
   0.5854507375315332E+00
   0.5377005185859677E+00
   0.5657930585964496E+00
   0.5353592578726308E+00
   0.5338428451425465E+00
   0.5573228452372585E+00
   0.5505141600497583E+00
   0.4278589445410240E+00
   0.5263781252124599E+00
   0.5780468345396058E+00
   0.3349063547882838E+00
   0.4756038252760529E+00
   0.5450194239565671E+00
   0.4812880019494551E+00
   0.3028624665941258E+00
   0.5042224178325106E+00
   0.5010712476065445E+00
   0.5127451430507721E+00
   0.5402571478805106E+00
   0.3462531769710361E+00
   0.3437558825943064E+00
   0.3211894755742452E+00
   0.5065066593365845E+00
   0.5132480548839345E+00
   0.5328474635960941E+00
   0.5867050686591787E+00
   0.4641292924413243E+00
   0.3573061436955651E+00
SCALARS v double 1
LOOKUP_TABLE default
   0.0000000000000000E+00
   0.0000000000000000E+00
   0.0000000000000000E+00
   0.0000000000000000E+00
   0.0000000000000000E+00
   0.0000000000000000E+00
   0.0000000000000000E+00
   0.0000000000000000E+00
   0.0000000000000000E+00
   0.0000000000000000E+00
   0.0000000000000000E+00
   0.0000000000000000E+00
   0.0000000000000000E+00
   0.0000000000000000E+00
   0.0000000000000000E+00
   0.0000000000000000E+00
   0.0000000000000000E+00
   0.0000000000000000E+00
   0.0000000000000000E+00
   0.0000000000000000E+00
   0.0000000000000000E+00
   0.0000000000000000E+00
   0.0000000000000000E+00
   0.0000000000000000E+00
   0.0000000000000000E+00
   0.0000000000000000E+00
   0.0000000000000000E+00
   0.0000000000000000E+00
   0.0000000000000000E+00
   0.0000000000000000E+00
   0.0000000000000000E+00
   0.0000000000000000E+00
   0.0000000000000000E+00
   0.0000000000000000E+00
   0.0000000000000000E+00
   0.0000000000000000E+00
   0.0000000000000000E+00
   0.0000000000000000E+00
   0.0000000000000000E+00
   0.0000000000000000E+00
   0.0000000000000000E+00
   0.0000000000000000E+00
   0.0000000000000000E+00
   0.0000000000000000E+00
   0.0000000000000000E+00
   0.0000000000000000E+00
   0.0000000000000000E+00
   0.0000000000000000E+00
   0.0000000000000000E+00
   0.0000000000000000E+00
   0.0000000000000000E+00
   0.0000000000000000E+00
   0.0000000000000000E+00
   0.0000000000000000E+00
   0.0000000000000000E+00
   0.0000000000000000E+00
   0.0000000000000000E+00
   0.0000000000000000E+00
   0.0000000000000000E+00
   0.0000000000000000E+00
   0.0000000000000000E+00
   0.1110944818223254E-02
   0.8894063568652223E-04
  -0.2256230955482456E-03
   0.0000000000000000E+00
   0.0000000000000000E+00
   0.0000000000000000E+00
   0.0000000000000000E+00
  -0.1826596332345436E-01
   0.5203830521225036E-03
   0.1878491905429782E-02
   0.1416255073567303E-01
  -0.6501997794061315E-02
  -0.6389586267043013E-02
  -0.1279767715791823E-01
   0.4370092572607048E-02
   0.8687744387282827E-03
   0.2912660656316940E-02
   0.1721176772508426E-02
   0.2390060060661984E-02
   0.1806295102249572E-02
  -0.7239135671615072E-02
  -0.7923524050350683E-03
   0.3835177410457546E-02
  -0.1118304288739866E-02
  -0.4335735711290404E-03
  -0.4122207909532729E-03
   0.8238327787473516E-03
   0.0000000000000000E+00
   0.0000000000000000E+00
   0.0000000000000000E+00
   0.0000000000000000E+00
   0.7713153268965422E-03
   0.1446855558228447E-02
  -0.1432454306688937E-02
  -0.1830682011525684E-03
  -0.6368228973061111E-03
   0.1554425019760051E-06
   0.1570368998682402E-03
  -0.1281326090164375E-03
  -0.1980906536060861E-03
  -0.5812876273365704E-03
   0.8187273786475872E-03
  -0.2009822788193017E-02
   0.6577135494558862E-03
   0.2670102271586416E-03
  -0.4122143418406750E-03
  -0.4041753103382588E-03
   0.0000000000000000E+00
   0.0000000000000000E+00
   0.0000000000000000E+00
  -0.8245146527567142E-03
  -0.7840960401264920E-02
   0.1754776380901504E-01
  -0.2303298096743719E-03
  -0.1392075969220566E-02
  -0.2132240672375480E-02
  -0.5225451633658514E-02
  -0.1867543409483959E-02
  -0.6503281622153950E-02
  -0.4080685666610471E-02
   0.1637819152719647E-02
   0.3279795341446797E-01
   0.3403927508595411E-04
  -0.2137299702611432E-02
   0.4117273070168726E-02
   0.3975298831810633E-03
   0.0000000000000000E+00
   0.0000000000000000E+00
   0.0000000000000000E+00
   0.0000000000000000E+00
   0.0000000000000000E+00
   0.0000000000000000E+00
   0.0000000000000000E+00
   0.0000000000000000E+00
   0.0000000000000000E+00
   0.0000000000000000E+00
   0.0000000000000000E+00
   0.0000000000000000E+00
   0.0000000000000000E+00
   0.0000000000000000E+00
   0.0000000000000000E+00
   0.0000000000000000E+00
   0.0000000000000000E+00
   0.4616975240342784E-02
   0.3357845459150554E-02
   0.8115582436957982E-02
   0.5759262560950397E-02
   0.1133093146685140E-01
   0.1381895409567610E-01
  -0.1135117613487178E-02
   0.5476402090006456E-02
   0.3081290793110689E-02
   0.3702009419302246E-02
   0.3533064998019704E-02
  -0.1539744659146293E-01
  -0.6072391955130831E-03
   0.6600773092224510E-02
   0.1225967858615367E-02
   0.2048810962740438E-02
   0.4111602300235359E-02
  -0.2954721393743806E-02
   0.1551222812843672E-02
   0.3142034586072634E-02
   0.1844151285906196E-02
   0.1980344460735398E-02
   0.1905421345596072E-02
   0.2340303349229809E-02
   0.8854545419478223E-02
  -0.3596672684074308E-02
   0.6173453816547550E-02
  -0.2538596648710277E-04
  -0.5217188949275717E-03
  -0.1694694264042738E-01
  -0.5238548350584766E-02
  -0.5401912054190267E-02
   0.3390623005666387E-02
  -0.6456337948681796E-02
  -0.2496866767795883E-03
  -0.3423380052772843E-01
  -0.2794928374341211E-02
   0.4829281683900970E-02
   0.1165738649778082E-02
   0.2409666445001350E-02
   0.3800483107003487E-02
   0.2521483345041524E-02
   0.2787006703473939E-02
   0.4652276099706453E-02
   0.1860294834388551E-02
   0.5598145154130352E-03
   0.1109449555736187E-03
  -0.5015274361057679E-02
  -0.6123223596674712E-02
  -0.7179794695590439E-03
   0.7534682223843033E-03
  -0.1629172466673145E-02
  -0.3315608057525932E-02
  -0.2686693015336610E-02
  -0.4637902118384587E-02
  -0.7870486863863744E-02
  -0.1984609523315960E-02
   0.7342676565875556E-03
  -0.4820011048574983E-04
   0.8017466420428068E-03
  -0.3054426346724783E-02
   0.5726048162721322E-02
  -0.8604835683377391E-02
   0.1214044356536668E-03
  -0.2437893697773378E-03
   0.2381684852229942E-02
   0.1773419331948261E-02
   0.2220241700960127E-02
  -0.5479036229475851E-02
SCALARS w double 1
LOOKUP_TABLE default
   0.0000000000000000E+00
   0.0000000000000000E+00
   0.0000000000000000E+00
   0.0000000000000000E+00
   0.0000000000000000E+00
   0.0000000000000000E+00
   0.0000000000000000E+00
   0.0000000000000000E+00
   0.0000000000000000E+00
   0.0000000000000000E+00
   0.0000000000000000E+00
   0.0000000000000000E+00
   0.0000000000000000E+00
   0.0000000000000000E+00
   0.0000000000000000E+00
   0.0000000000000000E+00
   0.0000000000000000E+00
   0.0000000000000000E+00
   0.0000000000000000E+00
   0.0000000000000000E+00
   0.0000000000000000E+00
   0.0000000000000000E+00
   0.0000000000000000E+00
   0.0000000000000000E+00
   0.0000000000000000E+00
   0.0000000000000000E+00
   0.0000000000000000E+00
   0.0000000000000000E+00
   0.0000000000000000E+00
   0.0000000000000000E+00
   0.0000000000000000E+00
   0.0000000000000000E+00
   0.0000000000000000E+00
  -0.9793387854782515E-01
  -0.4158652090286935E-01
  -0.2643201620734337E-03
   0.4776968909712274E-02
   0.2336530927261157E-02
   0.2066946199376099E-02
   0.3698109333391664E-02
   0.4497601736294011E-02
   0.8752498352068317E-03
   0.3710510019473587E-02
   0.4555783620731551E-01
   0.6454513578966181E-01
   0.1417952777674323E-02
  -0.2246873502351455E-01
   0.4383443024247945E-02
   0.1306963522169716E-01
   0.1014724325693707E-01
   0.4836323693405820E-01
   0.2042153283252941E-02
  -0.5983567574981591E-02
  -0.3671688144015579E-03
   0.6866346459552223E-03
   0.3705292336349345E-02
  -0.3772537521770804E-01
   0.1772882141853177E-01
   0.1080267787405218E-01
   0.3306513065589653E-01
   0.8295032086042330E-02
   0.4265551522804528E-02
   0.4617427836179931E-02
   0.4884783237665915E-02
   0.5663977722573749E-02
   0.1691087796068537E-02
  -0.4052102397416399E-01
  -0.9691550245532457E-01
  -0.1096890441807057E+00
   0.4373725696061308E-02
   0.2875303075158716E-02
  -0.9736388268245297E-01
  -0.9617761264904819E-01
  -0.9618032353396058E-01
  -0.9224873750297530E-01
  -0.6624934300088313E-01
   0.3937943122007594E-02
  -0.1958109061472775E-01
  -0.1613555006811878E-01
  -0.7363644215272356E-02
   0.5393789490581152E-02
  -0.7799400369387499E-01
  -0.2811874306760723E-01
  -0.7850874692029360E-01
  -0.5795367594663652E-01
   0.4480258565463770E-02
   0.3182641518772373E-02
   0.3181670329310135E-02
   0.4452986820504799E-02
   0.3707631587407259E-02
   0.9145224254754633E-03
   0.1024229870253136E-02
   0.3497665173907041E-02
   0.5421220856342610E-02
   0.4199489077210098E-02
   0.3488250699826876E-02
   0.1479916639476222E-02
   0.3869357737850616E-02
   0.1323526919157421E-02
   0.4042515874793586E-03
   0.5468667940666610E-02
   0.2804196131657386E-02
   0.2554744794682364E-02
   0.5857587262548056E-02
   0.1779115891696184E-02
   0.2308782699477800E-02
   0.2015540111092670E-02
   0.8912500878201145E-03
   0.8439718153842768E-01
   0.2689248652381549E-02
  -0.8532159850564387E-03
   0.2965013417961459E-03
   0.1406940845176579E+00
   0.1228215755726441E+00
  -0.1103850462099848E-02
  -0.4226933970072524E-02
   0.1938024132288552E-03
  -0.6072658453273531E-02
  -0.1406601260637991E-02
   0.1562297189437698E+00
   0.7533013588155592E-01
   0.2578699969154994E-01
   0.1655557634167386E+00