# vtk DataFile Version 2.0
FUN3D:global_image_vtk
ASCII
DATASET UNSTRUCTURED_GRID
POINTS 213 double
    0.0000000000000000E+00    0.2500000000000000E+01    0.0000000000000000E+00
    0.1250000000000000E+01    0.2500000000000000E+01    0.0000000000000000E+00
    0.2500000000000000E+01    0.2500000000000000E+01    0.0000000000000000E+00
    0.3750000000000000E+01    0.2500000000000000E+01    0.0000000000000000E+00
    0.5000000000000000E+01    0.2500000000000000E+01    0.0000000000000000E+00
    0.5000000000000000E+01    0.1250000000000000E+01    0.0000000000000000E+00
    0.5000000000000000E+01    0.0000000000000000E+00    0.0000000000000000E+00
    0.5000000000000000E+01   -0.1250000000000000E+01    0.0000000000000000E+00
    0.5000000000000000E+01   -0.2500000000000000E+01    0.0000000000000000E+00
    0.3750000000000000E+01   -0.2500000000000000E+01    0.0000000000000000E+00
    0.2500000000000000E+01   -0.2500000000000000E+01    0.0000000000000000E+00
    0.1250000000000000E+01   -0.2500000000000000E+01    0.0000000000000000E+00
    0.0000000000000000E+00   -0.2500000000000000E+01    0.0000000000000000E+00
    0.0000000000000000E+00   -0.1250000000000000E+01    0.0000000000000000E+00
    0.0000000000000000E+00    0.0000000000000000E+00    0.0000000000000000E+00
    0.0000000000000000E+00    0.1250000000000000E+01    0.0000000000000000E+00
    0.9058375365086910E+00    0.1578994732800803E+01    0.0000000000000000E+00
    0.3982050490726493E+01   -0.1583989954232354E+01    0.0000000000000000E+00
    0.4033849428301197E+01    0.1453322699199022E+01    0.0000000000000000E+00
    0.1040505887381675E+01   -0.1479596339503735E+01    0.0000000000000000E+00
    0.1099454400140349E+01   -0.3227322616384110E+00    0.0000000000000000E+00
    0.7354504170366591E+00    0.6593508822075582E+00    0.0000000000000000E+00
    0.1622302608453282E+01    0.8256214013940779E+00    0.0000000000000000E+00
    0.2145871574390382E+01   -0.1650070333782557E+01    0.0000000000000000E+00
    0.4086422318222992E+01   -0.4612828702537229E+00    0.0000000000000000E+00
    0.2979540174134984E+01   -0.8579242121530853E+00    0.0000000000000000E+00
    0.3045064261640043E+01   -0.1836846154397680E+01    0.0000000000000000E+00
    0.3428197553792836E+01    0.3508002863614053E+00    0.0000000000000000E+00
    0.4309693860063405E+01    0.5185680230613409E+00    0.0000000000000000E+00
    0.1827272193562204E+01    0.1738996113203182E+01    0.0000000000000000E+00
    0.2808563282768077E+01    0.1325493893339706E+01    0.0000000000000000E+00
    0.1895995683864404E+01   -0.8731419609589618E+00    0.0000000000000000E+00
    0.2273179336307740E+01    0.4906150219227333E-01    0.0000000000000000E+00
    0.5000000000000000E+01    0.2500000000000000E+01    0.1250000000000000E+01
    0.5000000000000000E+01    0.2500000000000000E+01    0.2500000000000000E+01
    0.5000000000000000E+01    0.2500000000000000E+01    0.3750000000000000E+01
    0.5000000000000000E+01    0.2500000000000000E+01    0.5000000000000000E+01
    0.3750000000000000E+01    0.2500000000000000E+01    0.5000000000000000E+01
    0.2500000000000000E+01    0.2500000000000000E+01    0.5000000000000000E+01
    0.1250000000000000E+01    0.2500000000000000E+01    0.5000000000000000E+01
    0.0000000000000000E+00    0.2500000000000000E+01    0.5000000000000000E+01
    0.0000000000000000E+00    0.2500000000000000E+01    0.3750000000000000E+01
    0.0000000000000000E+00    0.2500000000000000E+01    0.2500000000000000E+01
    0.0000000000000000E+00    0.2500000000000000E+01    0.1250000000000000E+01
    0.9631080833812172E+00    0.2500000000000000E+01    0.9613285771248219E+00
    0.3981732467264904E+01    0.2500000000000000E+01    0.4069753913607991E+01
    0.4035525118777670E+01    0.2500000000000000E+01    0.1012015867579395E+01
    0.9641717640894248E+00    0.2500000000000000E+01    0.3972455192261839E+01
    0.1547743040396780E+01    0.2500000000000000E+01    0.2928177746738678E+01
    0.6985170616192014E+00    0.2500000000000000E+01    0.3068281976055466E+01
    0.8931277594515110E+00    0.2500000000000000E+01    0.2052465503257726E+01
    0.2183293750162785E+01    0.2500000000000000E+01    0.3959073795658649E+01
    0.3855333506014705E+01    0.2500000000000000E+01    0.2931218481500625E+01
    0.3152495579421047E+01    0.2500000000000000E+01    0.3635850502723324E+01
    0.3103247580566054E+01    0.2500000000000000E+01    0.4331682712472464E+01
    0.3266837581688852E+01    0.2500000000000000E+01    0.1886092433583972E+01
    0.4231539241296245E+01    0.2500000000000000E+01    0.1915865356532799E+01
    0.1909741006522088E+01    0.2500000000000000E+01    0.7170024419130505E+00
    0.2880784107213163E+01    0.2500000000000000E+01    0.9046598906449592E+00
    0.2014316024535771E+01    0.2500000000000000E+01    0.1762464314805728E+01
    0.2670003247036656E+01    0.2500000000000000E+01    0.2850479545835163E+01
    0.5000000000000000E+01    0.1250000000000000E+01    0.5000000000000000E+01
    0.5000000000000000E+01    0.0000000000000000E+00    0.5000000000000000E+01
    0.5000000000000000E+01   -0.1250000000000000E+01    0.5000000000000000E+01
    0.5000000000000000E+01   -0.2500000000000000E+01    0.5000000000000000E+01
    0.5000000000000000E+01   -0.2500000000000000E+01    0.3750000000000000E+01
    0.5000000000000000E+01   -0.2500000000000000E+01    0.2500000000000000E+01
    0.5000000000000000E+01   -0.2500000000000000E+01    0.1250000000000000E+01
    0.5000000000000000E+01    0.1578994732800803E+01    0.9058375365086910E+00
    0.5000000000000000E+01   -0.1583989954232354E+01    0.3982050490726493E+01
    0.5000000000000000E+01    0.1453322699199022E+01    0.4033849428301197E+01
    0.5000000000000000E+01   -0.1479596339503735E+01    0.1040505887381675E+01
    0.5000000000000000E+01   -0.3227322616384110E+00    0.1099454400140349E+01
    0.5000000000000000E+01    0.6593508822075582E+00    0.7354504170366591E+00
    0.5000000000000000E+01    0.8256214013940779E+00    0.1622302608453282E+01
    0.5000000000000000E+01   -0.1650070333782557E+01    0.2145871574390382E+01
    0.5000000000000000E+01   -0.4612828702537229E+00    0.4086422318222992E+01
    0.5000000000000000E+01   -0.8579242121530853E+00    0.2979540174134984E+01
    0.5000000000000000E+01   -0.1836846154397680E+01    0.3045064261640043E+01
    0.5000000000000000E+01    0.3508002863614053E+00    0.3428197553792836E+01
    0.5000000000000000E+01    0.5185680230613409E+00    0.4309693860063405E+01
    0.5000000000000000E+01    0.1738996113203182E+01    0.1827272193562204E+01
    0.5000000000000000E+01    0.1325493893339706E+01    0.2808563282768077E+01
    0.5000000000000000E+01   -0.8731419609589618E+00    0.1895995683864404E+01
    0.5000000000000000E+01    0.4906150219227333E-01    0.2273179336307740E+01
    0.0000000000000000E+00    0.1250000000000000E+01    0.5000000000000000E+01
    0.0000000000000000E+00    0.0000000000000000E+00    0.5000000000000000E+01
    0.0000000000000000E+00   -0.1250000000000000E+01    0.5000000000000000E+01
    0.0000000000000000E+00   -0.2500000000000000E+01    0.5000000000000000E+01
    0.1250000000000000E+01   -0.2500000000000000E+01    0.5000000000000000E+01
    0.2500000000000000E+01   -0.2500000000000000E+01    0.5000000000000000E+01
    0.3750000000000000E+01   -0.2500000000000000E+01    0.5000000000000000E+01
    0.4042003247744892E+01    0.1558308132739014E+01    0.5000000000000000E+01
    0.9304122287900499E+00   -0.1548001304379777E+01    0.5000000000000000E+01
    0.1037243024609388E+01    0.1462892710085612E+01    0.5000000000000000E+01
    0.3946240828834967E+01   -0.1445243809615570E+01    0.5000000000000000E+01
    0.4092527262848217E+01   -0.3455338993778935E+00    0.5000000000000000E+01
    0.4293103109154542E+01    0.6277660831404320E+00    0.5000000000000000E+01
    0.3241512314643519E+01    0.7429886854239611E+00    0.5000000000000000E+01
    0.2844289952419609E+01   -0.1588117879734118E+01    0.5000000000000000E+01
    0.7159905765450471E+00   -0.6002320124191652E+00    0.5000000000000000E+01
    0.1754341919796891E+01   -0.7398147869923652E+00    0.5000000000000000E+01
    0.1870296826774691E+01   -0.1788622905643739E+01    0.5000000000000000E+01
    0.9220614901912976E+00    0.3083720183248586E+00    0.5000000000000000E+01
    0.3101523624086016E+01    0.1777901774806180E+01    0.5000000000000000E+01
    0.2192512063922564E+01    0.1576861561598471E+01    0.5000000000000000E+01
    0.2024793420196460E+01    0.4773861992750707E+00    0.5000000000000000E+01
    0.2990627757741975E+01   -0.4878110785814084E+00    0.5000000000000000E+01
    0.0000000000000000E+00   -0.2500000000000000E+01    0.1250000000000000E+01
    0.0000000000000000E+00   -0.2500000000000000E+01    0.2500000000000000E+01
    0.0000000000000000E+00   -0.2500000000000000E+01    0.3750000000000000E+01
    0.0000000000000000E+00    0.1558308132739014E+01    0.4042003247744892E+01
    0.0000000000000000E+00   -0.1548001304379777E+01    0.9304122287900499E+00
    0.0000000000000000E+00    0.1462892710085612E+01    0.1037243024609388E+01
    0.0000000000000000E+00   -0.1445243809615570E+01    0.3946240828834967E+01
    0.0000000000000000E+00   -0.3455338993778935E+00    0.4092527262848217E+01
    0.0000000000000000E+00    0.6277660831404320E+00    0.4293103109154542E+01
    0.0000000000000000E+00    0.7429886854239611E+00    0.3241512314643519E+01
    0.0000000000000000E+00   -0.1588117879734118E+01    0.2844289952419609E+01
    0.0000000000000000E+00   -0.6002320124191652E+00    0.7159905765450471E+00
    0.0000000000000000E+00   -0.7398147869923652E+00    0.1754341919796891E+01
    0.0000000000000000E+00   -0.1788622905643739E+01    0.1870296826774691E+01
    0.0000000000000000E+00    0.3083720183248586E+00    0.9220614901912976E+00
    0.0000000000000000E+00    0.1777901774806180E+01    0.3101523624086016E+01
    0.0000000000000000E+00    0.1576861561598471E+01    0.2192512063922564E+01
[...]
POINT_DATA 213
SCALARS rho double 1
LOOKUP_TABLE default
   0.1344271443568300E+01
   0.9569758887953965E+00
   0.9462964185262733E+00
   0.9418612714453288E+00
   0.8437304895354419E+00
   0.7738004316327994E+00
   0.7629818886430098E+00
   0.7664577910793527E+00
   0.8307874019713428E+00
   0.9352972534773781E+00
   0.9342219813152158E+00
   0.9617195273781054E+00
   0.1449457449007557E+01
   0.1494090637371753E+01
   0.1644667267834062E+01
   0.1425832041732898E+01
   0.1009014434023767E+01
   0.9508810840449713E+00
   0.9436508487485158E+00
   0.9581561031305061E+00
   0.9415852451781275E+00
   0.1036377239551519E+01
   0.9256161076419399E+00
   0.9322349844914409E+00
   0.9537479563917394E+00
   0.9518769552194110E+00
   0.9348583098016524E+00
   0.9564028395476273E+00
   0.9376098384723631E+00
   0.9300661508535930E+00
   0.9445157490559556E+00
   0.8863506505168345E+00
   0.9423579958077957E+00
   0.9635003072898923E+00
   0.1008299039469087E+01
   0.1006735291872699E+01
   0.1001964617543605E+01
   0.1003219581424458E+01
   0.1004132053848023E+01
   0.1005228602839624E+01
   0.1004260408175201E+01
   0.1008308189847528E+01
   0.1023893137651179E+01
   0.1063553955836090E+01
   0.1019182512588708E+01
   0.1001780766378775E+01
   0.9643309930459858E+00
   0.1005283708865601E+01
   0.1000721163214490E+01
   0.1008742083647007E+01
   0.1008078083559385E+01
   0.1002349807006465E+01
   0.9979986848242256E+00
   0.1000583560901252E+01
   0.1001620123557007E+01
   0.9826893071372547E+00
   0.9842439639757299E+00
   0.9833314025134519E+00
   0.9788207403944859E+00
   0.9902638159697681E+00
   0.9934561553017436E+00
   0.1002011751606708E+01
   0.1002134465621809E+01
   0.1002276326485393E+01
   0.1001794758303755E+01
   0.1009778638895753E+01
   0.1006429109118117E+01
   0.9558786956199881E+00
   0.9249398402843139E+00
   0.1007036755528606E+01
   0.1004504925174603E+01
   0.9143642068098108E+00
   0.9089667853116759E+00
   0.8751688891158436E+00
   0.9767271882077952E+00
   0.1000452621190903E+01
   0.1005831087478768E+01
   0.1012882803352568E+01
   0.1011618951366566E+01
   0.1010438648692843E+01
   0.1005468280908050E+01
   0.9907612677027794E+00
   0.1005140325720547E+01
   0.9860567245133235E+00
   0.1005609737685639E+01
   0.1004248005636613E+01
   0.1002888437632630E+01
   0.1003345420389440E+01
   0.1003992731810145E+01
   0.1005101716083340E+01
   0.1003211645071785E+01
   0.1002663159910117E+01
   0.1002586231342113E+01
   0.1004060870871098E+01
   0.1004320345959901E+01
   0.1001641920310469E+01
   0.1002273115919428E+01
   0.1002543475525051E+01
   0.1003469520728794E+01
   0.1003372640196789E+01
   0.1003232229979189E+01
   0.1004423863369928E+01
   0.1004313070760814E+01
   0.1003659849337227E+01
   0.1003723103852391E+01
   0.1004329726341290E+01
   0.1004465021774974E+01
   0.1003623375254706E+01
   0.1064422800758375E+01
   0.1028473621183174E+01
   0.1009586657206545E+01
   0.1006638837366368E+01
   0.1163935521216198E+01
   0.1086087969587129E+01
   0.1007893419157977E+01
   0.1007245533197546E+01
   0.1006798074045642E+01
   0.1013018286709786E+01
   0.1019384609319675E+01
   0.1235203667702629E+01
   0.1032529466629097E+01
   0.1046681191266399E+01
   0.1200953640564931E+01
   0.1014718915849891E+01
   0.1032291152882578E+01
   0.1028095236299331E+01
   0.1014628639584864E+01
   0.1029216892943175E+01
   0.1001994816321792E+01
   0.9606929188493920E+00
   0.1006852582700642E+01
   0.1001327193225557E+01
   0.1010821905245547E+01
   0.1012246098746001E+01
   0.1000946006843886E+01
   0.9979121234251442E+00
   0.9980632372157070E+00
   0.1001184143306888E+01
   0.9841362011731181E+00
   0.9814879614651667E+00
   0.9648483319635657E+00
   0.9680877123045226E+00
   0.9914124471556528E+00
   0.9910858388146537E+00
   0.9925545095971715E+00
   0.1001727533815732E+01
   0.9993409402147198E+00
   0.9941410835218447E+00
   0.1007038753618702E+01
   0.1022539494030143E+01
   0.1001088098382464E+01
   0.1008798496128822E+01
   0.1004773845981868E+01
   0.1009050237301446E+01
   0.9966470332086222E+00
   0.1004988556956676E+01
   0.1003325535088305E+01
   0.9949431085267956E+00
   0.9832680781035151E+00
   0.9943957454924712E+00
   0.9973420656177928E+00
   0.9932190085461039E+00
   0.1001306487063207E+01
   0.1003001636860458E+01
   0.1002183579559933E+01
   0.9947078545434007E+00
   0.9937965521256725E+00
   0.1004867865409821E+01
   0.1020077607350147E+01
   0.1005364552305036E+01
   0.9816998151831563E+00
   0.1004973031140981E+01
   0.1012382323281319E+01
   0.9871424285949769E+00
   0.9551513528727809E+00
   0.9865075699143766E+00
   0.9864532949016933E+00
   0.9918946934444304E+00
   0.9933508196563309E+00
   0.9954406182205301E+00
   0.1037336789485358E+01
   0.1033536797386591E+01
   0.1001443320760174E+01
   0.1001930499685526E+01
   0.9912478516192200E+00
   0.9910920509356659E+00
   0.9648489987438528E+00
   0.9933282605013732E+00
   0.1006058638658899E+01
   0.1001954027118164E+01
   0.9908735804114464E+00
   0.9740945209250612E+00
   0.9418802132939894E+00
   0.9819379686868248E+00
   0.9794803560029971E+00
   0.9704172054302124E+00
   0.9720478942008205E+00
   0.9557351699343939E+00
   0.9496731206607115E+00
   0.9528673561697923E+00
   0.1002659533932849E+01
   0.1002471631845233E+01
   0.1000509329229305E+01
   0.1001677321753594E+01
   0.9607931426106660E+00
   0.9491625495327483E+00
   0.9584503055301558E+00
   0.1001121207674142E+01
   0.1000496140500301E+01
   0.1001156644164884E+01
   0.9807376183108590E+00
   0.9806000806354707E+00
   0.9628476100507111E+00
SCALARS u double 1
LOOKUP_TABLE default
   0.0000000000000000E+00
   0.0000000000000000E+00
   0.0000000000000000E+00
   0.0000000000000000E+00
   0.0000000000000000E+00
   0.0000000000000000E+00
   0.0000000000000000E+00
   0.0000000000000000E+00
   0.0000000000000000E+00
   0.0000000000000000E+00
   0.0000000000000000E+00
   0.0000000000000000E+00
   0.0000000000000000E+00
   0.0000000000000000E+00
   0.0000000000000000E+00
   0.0000000000000000E+00
   0.0000000000000000E+00
   0.0000000000000000E+00
   0.0000000000000000E+00
   0.0000000000000000E+00
   0.0000000000000000E+00
   0.0000000000000000E+00
   0.0000000000000000E+00
   0.0000000000000000E+00
   0.0000000000000000E+00
   0.0000000000000000E+00
   0.0000000000000000E+00
   0.0000000000000000E+00
   0.0000000000000000E+00
   0.0000000000000000E+00
   0.0000000000000000E+00
   0.0000000000000000E+00
   0.0000000000000000E+00
   0.4950176841038945E+00
   0.5338221298904472E+00
   0.5183269245815690E+00
   0.4930649880194720E+00
   0.4847578720783317E+00
   0.4867666425612231E+00
   0.4890763585164420E+00
   0.4957848881431968E+00
   0.4898301885514887E+00
   0.4717388496872723E+00
   0.4454814156911396E+00
   0.4833907044258240E+00
   0.5098397462498125E+00
   0.4390712702973001E+00
   0.4949403966067970E+00
   0.5225330362590143E+00
   0.4962454547040231E+00
   0.5226154964012637E+00
   0.5038881743940906E+00
   0.5646883607729716E+00
   0.5247509156647266E+00
   0.4991466120399647E+00
   0.5730561900275168E+00
   0.5696051096725205E+00
   0.3737941447172408E+00
   0.3998658124802161E+00
   0.5599326585089863E+00
   0.5564587629708159E+00
   0.4942627332845526E+00
   0.4948659465939507E+00
   0.4925735874034533E+00
   0.4914269544165345E+00
   0.5162356849847846E+00
   0.5361798303614779E+00
   0.4947413360559612E+00
   0.4524112210526903E+00
   0.5128777324769743E+00
   0.5117942039652918E+00
   0.4783517512325737E+00
   0.4931696663274122E+00
   0.4603173603082292E+00
   0.5244892722841679E+00
   0.5297434246863892E+00
   0.5129579299817990E+00
   0.5328358317631076E+00
   0.5308941035369251E+00
   0.5309856168417697E+00
   0.5063656734631967E+00
   0.5282461956051739E+00
   0.5410312728663165E+00
   0.5361261482090381E+00
   0.5374105275369395E+00
   0.4965364819555803E+00
   0.4975340904747412E+00
   0.4963842645329468E+00
   0.4955220268444141E+00
   0.4904581832540305E+00
   0.4903044386617982E+00
   0.4862182765341895E+00
   0.4854049562225411E+00
   0.4932164389251725E+00
   0.4909833313742554E+00
   0.4832194697483246E+00
   0.4872622777925620E+00
   0.4880124910262751E+00
   0.4872445932823805E+00
   0.4882696670807559E+00
   0.4952597557629658E+00
   0.4900967169368800E+00
   0.4904000092157942E+00
   0.4944232926778156E+00
   0.4868002482296859E+00
   0.4892385985450071E+00
   0.4881393371269518E+00
   0.4878457830188273E+00
   0.4446866581880413E+00
   0.4700028782397619E+00
   0.4891999057827958E+00
   0.4885247845171682E+00
   0.4506533049986233E+00
   0.4687378568316714E+00
   0.4877010458208968E+00
   0.4868353684879505E+00
   0.4908994717277957E+00
   0.4793551579131022E+00
   0.4658071749156049E+00
   0.3792725238051159E+00
   0.4901596530658635E+00
   0.4486686693174842E+00
   0.4436137399567038E+00
   0.4845147243215481E+00
   0.4621822648671159E+00
   0.4665749537251824E+00
   0.4748140301830149E+00
   0.4894494214193160E+00
   0.5085556973201727E+00
   0.4315073874479264E+00
   0.4927349362199496E+00
   0.5318289233681853E+00
   0.4913399197138262E+00
   0.5207019993325102E+00
   0.5060964599961808E+00
   0.5688797394429942E+00
   0.5273992817546761E+00
   0.5015044841920151E+00
   0.5821790086665847E+00
   0.5689618252493694E+00
   0.3406394442972734E+00
   0.3789869412759555E+00
   0.5751958205859790E+00
   0.5666485492445109E+00
   0.5704108782332991E+00
   0.5291056375908928E+00
   0.5451902710624336E+00
   0.5718804314337484E+00
   0.5389079126120105E+00
   0.5475507505284145E+00
   0.5821713867543994E+00
   0.4925601785313520E+00
   0.5042157546933678E+00
   0.4961735437175854E+00
   0.5565207961242152E+00
   0.4758845205467251E+00
   0.4950268384538229E+00
   0.5498525442783370E+00
   0.5891202296213912E+00
   0.5841957608119216E+00
   0.5469097663969410E+00
   0.5805417617140081E+00
   0.5106251438802341E+00
   0.5030200513786179E+00
   0.5033624680394169E+00
   0.5676446095492803E+00
   0.5563943082163021E+00
   0.4947255974293396E+00
   0.5505243827664084E+00
   0.5510857280414149E+00
   0.5657350949266902E+00
   0.4920070018827749E+00
   0.4927299097457375E+00
   0.3865140570134102E+00
   0.3687754534094463E+00
   0.5574921717457442E+00
   0.5763755544079291E+00
   0.4194304389239459E+00
   0.5824843239681576E+00
   0.4265209607303305E+00
   0.5392799843260578E+00
   0.5012032758853949E+00
   0.5119513208233912E+00
   0.5049119464221600E+00
   0.5751974973377069E+00
   0.5876371359725600E+00
   0.5379907806932647E+00
   0.5677472539427653E+00
   0.5351248665592586E+00
   0.5338056378754561E+00
   0.5580313797591320E+00
   0.5512707861438002E+00
   0.4261852755968575E+00
   0.5273356176922633E+00
   0.5795712529648819E+00
   0.3318687134867548E+00
   0.4760283324686122E+00
   0.5446196255457395E+00
   0.4798331901344742E+00
   0.3005293509057647E+00
   0.5031051138636651E+00
   0.5017115978402427E+00
   0.5129033210939546E+00
   0.5414840107473908E+00
   0.3437603855157281E+00
   0.3397710719484759E+00
   0.3189928571511973E+00
   0.5065936052386999E+00
   0.5123483779787996E+00
   0.5330313518662227E+00
   0.5879309999681326E+00
   0.4644180533112185E+00
   0.3531270510691169E+00
SCALARS v double 1
LOOKUP_TABLE default
   0.0000000000000000E+00
   0.0000000000000000E+00
   0.0000000000000000E+00
   0.0000000000000000E+00
   0.0000000000000000E+00
   0.0000000000000000E+00
   0.0000000000000000E+00
   0.0000000000000000E+00
   0.0000000000000000E+00
   0.0000000000000000E+00
   0.0000000000000000E+00
   0.0000000000000000E+00
   0.0000000000000000E+00
   0.0000000000000000E+00
   0.0000000000000000E+00
   0.0000000000000000E+00
   0.0000000000000000E+00
   0.0000000000000000E+00
   0.0000000000000000E+00
   0.0000000000000000E+00
   0.0000000000000000E+00
   0.0000000000000000E+00
   0.0000000000000000E+00
   0.0000000000000000E+00
   0.0000000000000000E+00
   0.0000000000000000E+00
   0.0000000000000000E+00
   0.0000000000000000E+00
   0.0000000000000000E+00
   0.0000000000000000E+00
   0.0000000000000000E+00
   0.0000000000000000E+00
   0.0000000000000000E+00
   0.0000000000000000E+00
   0.0000000000000000E+00
   0.0000000000000000E+00
   0.0000000000000000E+00
   0.0000000000000000E+00
   0.0000000000000000E+00
   0.0000000000000000E+00
   0.0000000000000000E+00
   0.0000000000000000E+00
   0.0000000000000000E+00
   0.0000000000000000E+00
   0.0000000000000000E+00
   0.0000000000000000E+00
   0.0000000000000000E+00
   0.0000000000000000E+00
   0.0000000000000000E+00
   0.0000000000000000E+00
   0.0000000000000000E+00
   0.0000000000000000E+00
   0.0000000000000000E+00
   0.0000000000000000E+00
   0.0000000000000000E+00
   0.0000000000000000E+00
   0.0000000000000000E+00
   0.0000000000000000E+00
   0.0000000000000000E+00
   0.0000000000000000E+00
   0.0000000000000000E+00
   0.7970254504442357E-03
  -0.1329294685003602E-02
  -0.1332592746046548E-02
   0.0000000000000000E+00
   0.0000000000000000E+00
   0.0000000000000000E+00
   0.0000000000000000E+00
  -0.1922562566428836E-01
   0.4770618312403312E-03
   0.2183360181760506E-02
   0.1427333015572512E-01
  -0.6488282005248662E-02
  -0.7821623121608052E-02
  -0.1327725055682791E-01
   0.4914481820533227E-02
   0.6907122209788708E-03
   0.3434418474515119E-02
   0.1920847405628296E-02
   0.3147960270561368E-02
   0.1704778388379332E-02
  -0.7316187308911592E-02
  -0.7701898714954106E-04
   0.4468738078655295E-02
  -0.4387155926922709E-03
  -0.6383742026600432E-04
  -0.1963394574700626E-03
   0.8071267915727750E-03
   0.0000000000000000E+00
   0.0000000000000000E+00
   0.0000000000000000E+00
   0.0000000000000000E+00
   0.4257020121029243E-03
   0.1616304628955531E-02
  -0.1297550938025084E-02
  -0.1022774969763346E-02
  -0.2134342404401489E-02
  -0.1064012662886720E-02
  -0.8200064297649318E-03
  -0.7617033148781144E-03
   0.5202258690149620E-04
  -0.6244091883862622E-03
   0.7916469205034849E-03
  -0.1745238500866266E-02
   0.2747128592245999E-03
  -0.8939747455038577E-04
  -0.9424310073183890E-03
  -0.1100227530923856E-02
   0.0000000000000000E+00
   0.0000000000000000E+00
   0.0000000000000000E+00
  -0.1061759103753645E-02
  -0.7641128586663855E-02
   0.1860854741409370E-01
  -0.2834553333444806E-04
  -0.1383129137476906E-02
  -0.2035122953652974E-02
  -0.5666383167596155E-02
  -0.1585210179198121E-02
  -0.5947016302999968E-02
  -0.4160601785633289E-02
   0.1565614845459370E-02
   0.3329524815929420E-01
   0.3055140232847875E-04
  -0.2766884935097813E-02
   0.3566484673196330E-02
   0.3596189585419482E-03
   0.0000000000000000E+00
   0.0000000000000000E+00
   0.0000000000000000E+00
   0.0000000000000000E+00
   0.0000000000000000E+00
   0.0000000000000000E+00
   0.0000000000000000E+00
   0.0000000000000000E+00
   0.0000000000000000E+00
   0.0000000000000000E+00
   0.0000000000000000E+00
   0.0000000000000000E+00
   0.0000000000000000E+00
   0.0000000000000000E+00
   0.0000000000000000E+00
   0.0000000000000000E+00
   0.0000000000000000E+00
   0.5047032587850146E-02
   0.3230791965903897E-02
   0.8149134256870222E-02
   0.6168367011740184E-02
   0.1122928632546167E-01
   0.1429277498431695E-01
  -0.2038826243031039E-03
   0.5118221815279581E-02
   0.2914950529891689E-02
   0.3373611798411172E-02
   0.3728336416118431E-02
  -0.1465719855110248E-01
  -0.6159699777887935E-03
   0.6651630339479350E-02
   0.1542014291735117E-02
   0.1969646540818026E-02
   0.4266273543381880E-02
  -0.2790960925255612E-02
   0.1226887076548384E-02
   0.2819172479899007E-02
   0.1497449155140977E-02
   0.2575339078360884E-02
   0.2030646472550528E-02
   0.2118046063876049E-02
   0.8700410514418647E-02
  -0.3733396930839259E-02
   0.6241189128395196E-02
   0.2516489423115427E-04
  -0.3854044598485382E-03
  -0.1674678999905169E-01
  -0.4881976856822327E-02
  -0.4720000756043669E-02
   0.3445223076316815E-02
  -0.6135724022209087E-02
   0.9934525132900683E-04
  -0.3291372899022802E-01
  -0.3046196623741209E-02
   0.4722743279591692E-02
   0.9228368080766078E-03
   0.2112175225557171E-02
   0.4518755722455967E-02
   0.2720465296534665E-02
   0.3212576510688512E-02
   0.5200804246566846E-02
   0.1941838985553990E-02
   0.7315897760075459E-03
  -0.2555236187950511E-04
  -0.5374632774858578E-02
  -0.6959591058123687E-02
  -0.9443815799348211E-03
   0.1105268444039402E-02
  -0.2080554100003486E-02
  -0.3200035961542279E-02
  -0.2527833349921550E-02
  -0.4115193582964038E-02
  -0.7593954941632484E-02
  -0.1985686380349018E-02
   0.6240402959357133E-03
  -0.2239081547848116E-03
   0.1216949794048236E-02
  -0.3483958277609748E-02
   0.5229139949085239E-02
  -0.8487626088016892E-02
   0.2315171898441857E-04
  -0.3395192741728634E-03
   0.2542663551313756E-02
   0.1663457707369380E-02
   0.2021438717113320E-02
  -0.5620783952655362E-02
SCALARS w double 1
LOOKUP_TABLE default
   0.0000000000000000E+00
   0.0000000000000000E+00
   0.0000000000000000E+00
   0.0000000000000000E+00
   0.0000000000000000E+00
   0.0000000000000000E+00
   0.0000000000000000E+00
   0.0000000000000000E+00
   0.0000000000000000E+00
   0.0000000000000000E+00
   0.0000000000000000E+00
   0.0000000000000000E+00
   0.0000000000000000E+00
   0.0000000000000000E+00
   0.0000000000000000E+00
   0.0000000000000000E+00
   0.0000000000000000E+00
   0.0000000000000000E+00
   0.0000000000000000E+00
   0.0000000000000000E+00
   0.0000000000000000E+00
   0.0000000000000000E+00
   0.0000000000000000E+00
   0.0000000000000000E+00
   0.0000000000000000E+00
   0.0000000000000000E+00
   0.0000000000000000E+00
   0.0000000000000000E+00
   0.0000000000000000E+00
   0.0000000000000000E+00
   0.0000000000000000E+00
   0.0000000000000000E+00
   0.0000000000000000E+00
  -0.1007612290957793E+00
  -0.4249297152745182E-01
   0.7371985699506366E-03
   0.5725799924803948E-02
   0.5699057399343726E-03
   0.1609783082628487E-02
   0.3375072976624110E-02
   0.2371773619848987E-02
   0.4590624700492265E-03
   0.3518225884095089E-02
   0.4521817553784208E-01
   0.6522937770477599E-01
   0.8689296840072194E-03
  -0.2261151827902261E-01
   0.4316553480145291E-02
   0.1358734829241114E-01
   0.1039452544661010E-01
   0.4900548391633033E-01
   0.2437443470648620E-02
  -0.6509941152141727E-02
  -0.7012227772912886E-03
   0.3411016188454480E-03
   0.3904107299557166E-02
  -0.3893254320673518E-01
   0.1798168093779685E-01
   0.1119638180891132E-01
   0.3403773242334920E-01
   0.8438810159004662E-02
   0.4937312259539721E-02
   0.4970345563641436E-02
   0.4871517392109614E-02
   0.6027191701547766E-02
   0.2599191751658636E-02
  -0.4144429606473798E-01
  -0.9954261896341379E-01
  -0.1121678220114345E+00
   0.5070875014677166E-02
   0.4230770674404799E-02
  -0.1004732307207940E+00
  -0.9895252538714569E-01
  -0.9875450978303769E-01
  -0.9462509641674019E-01
  -0.6807133846984048E-01
   0.5154922157818349E-02
  -0.1935330758394926E-01
  -0.1575800298000882E-01
  -0.6002862473760017E-02
   0.6819057369426736E-02
  -0.8010050834023753E-01
  -0.2781092473420142E-01
  -0.8096457381913688E-01
  -0.5873277583412296E-01
   0.3083625660129165E-02
   0.2685146444754750E-02
   0.2640431156263601E-02
   0.3450191897066710E-02
   0.4007083750670599E-02
   0.1201214285106121E-02
  -0.1438846692305261E-03
   0.2039877280500239E-02
   0.4895693576427875E-02
   0.3857385552438005E-02
   0.1114201926549779E-02
   0.1182682022785943E-02
   0.1465296239415629E-02
  -0.1653640227292263E-04
   0.8996621333838325E-04
   0.4386667830318110E-02
   0.2715724203500510E-02
   0.2322755263813310E-02
   0.5010600994920792E-02
   0.1071689315740387E-02
   0.2712217684605559E-02
   0.2013964062379345E-02
   0.2879083238090475E-04
   0.8374614318007999E-01
   0.2793870704889813E-02
  -0.8346628083697489E-03
  -0.1492945643349867E-03
   0.1409540840559317E+00
   0.1239332949564580E+00
  -0.1219093307568255E-02
  -0.4381936070422615E-02
  -0.3043057896786740E-03
  -0.6512246818644172E-02
  -0.1949570342163543E-02
   0.1557630964269969E+00
   0.7489979153244784E-01
   0.2550174902585451E-01
   0.1656445109892518E+00