# vtk DataFile Version 2.0
FUN3D:global_image_vtk
ASCII
DATASET UNSTRUCTURED_GRID
POINTS 213 double
    0.0000000000000000E+00    0.2500000000000000E+01    0.0000000000000000E+00
    0.1250000000000000E+01    0.2500000000000000E+01    0.0000000000000000E+00
    0.2500000000000000E+01    0.2500000000000000E+01    0.0000000000000000E+00
    0.3750000000000000E+01    0.2500000000000000E+01    0.0000000000000000E+00
    0.5000000000000000E+01    0.2500000000000000E+01    0.0000000000000000E+00
    0.5000000000000000E+01    0.1250000000000000E+01    0.0000000000000000E+00
    0.5000000000000000E+01    0.0000000000000000E+00    0.0000000000000000E+00
    0.5000000000000000E+01   -0.1250000000000000E+01    0.0000000000000000E+00
    0.5000000000000000E+01   -0.2500000000000000E+01    0.0000000000000000E+00
    0.3750000000000000E+01   -0.2500000000000000E+01    0.0000000000000000E+00
    0.2500000000000000E+01   -0.2500000000000000E+01    0.0000000000000000E+00
    0.1250000000000000E+01   -0.2500000000000000E+01    0.0000000000000000E+00
    0.0000000000000000E+00   -0.2500000000000000E+01    0.0000000000000000E+00
    0.0000000000000000E+00   -0.1250000000000000E+01    0.0000000000000000E+00
    0.0000000000000000E+00    0.0000000000000000E+00    0.0000000000000000E+00
    0.0000000000000000E+00    0.1250000000000000E+01    0.0000000000000000E+00
    0.9058375365086910E+00    0.1578994732800803E+01    0.0000000000000000E+00
    0.3982050490726493E+01   -0.1583989954232354E+01    0.0000000000000000E+00
    0.4033849428301197E+01    0.1453322699199022E+01    0.0000000000000000E+00
    0.1040505887381675E+01   -0.1479596339503735E+01    0.0000000000000000E+00
    0.1099454400140349E+01   -0.3227322616384110E+00    0.0000000000000000E+00
    0.7354504170366591E+00    0.6593508822075582E+00    0.0000000000000000E+00
    0.1622302608453282E+01    0.8256214013940779E+00    0.0000000000000000E+00
    0.2145871574390382E+01   -0.1650070333782557E+01    0.0000000000000000E+00
    0.4086422318222992E+01   -0.4612828702537229E+00    0.0000000000000000E+00
    0.2979540174134984E+01   -0.8579242121530853E+00    0.0000000000000000E+00
    0.3045064261640043E+01   -0.1836846154397680E+01    0.0000000000000000E+00
    0.3428197553792836E+01    0.3508002863614053E+00    0.0000000000000000E+00
    0.4309693860063405E+01    0.5185680230613409E+00    0.0000000000000000E+00
    0.1827272193562204E+01    0.1738996113203182E+01    0.0000000000000000E+00
    0.2808563282768077E+01    0.1325493893339706E+01    0.0000000000000000E+00
    0.1895995683864404E+01   -0.8731419609589618E+00    0.0000000000000000E+00
    0.2273179336307740E+01    0.4906150219227333E-01    0.0000000000000000E+00
    0.5000000000000000E+01    0.2500000000000000E+01    0.1250000000000000E+01
    0.5000000000000000E+01    0.2500000000000000E+01    0.2500000000000000E+01
    0.5000000000000000E+01    0.2500000000000000E+01    0.3750000000000000E+01
    0.5000000000000000E+01    0.2500000000000000E+01    0.5000000000000000E+01
    0.3750000000000000E+01    0.2500000000000000E+01    0.5000000000000000E+01
    0.2500000000000000E+01    0.2500000000000000E+01    0.5000000000000000E+01
    0.1250000000000000E+01    0.2500000000000000E+01    0.5000000000000000E+01
    0.0000000000000000E+00    0.2500000000000000E+01    0.5000000000000000E+01
    0.0000000000000000E+00    0.2500000000000000E+01    0.3750000000000000E+01
    0.0000000000000000E+00    0.2500000000000000E+01    0.2500000000000000E+01
    0.0000000000000000E+00    0.2500000000000000E+01    0.1250000000000000E+01
    0.9631080833812172E+00    0.2500000000000000E+01    0.9613285771248219E+00
    0.3981732467264904E+01    0.2500000000000000E+01    0.4069753913607991E+01
    0.4035525118777670E+01    0.2500000000000000E+01    0.1012015867579395E+01
    0.9641717640894248E+00    0.2500000000000000E+01    0.3972455192261839E+01
    0.1547743040396780E+01    0.2500000000000000E+01    0.2928177746738678E+01
    0.6985170616192014E+00    0.2500000000000000E+01    0.3068281976055466E+01
    0.8931277594515110E+00    0.2500000000000000E+01    0.2052465503257726E+01
    0.2183293750162785E+01    0.2500000000000000E+01    0.3959073795658649E+01
    0.3855333506014705E+01    0.2500000000000000E+01    0.2931218481500625E+01
    0.3152495579421047E+01    0.2500000000000000E+01    0.3635850502723324E+01
    0.3103247580566054E+01    0.2500000000000000E+01    0.4331682712472464E+01
    0.3266837581688852E+01    0.2500000000000000E+01    0.1886092433583972E+01
    0.4231539241296245E+01    0.2500000000000000E+01    0.1915865356532799E+01
    0.1909741006522088E+01    0.2500000000000000E+01    0.7170024419130505E+00
    0.2880784107213163E+01    0.2500000000000000E+01    0.9046598906449592E+00
    0.2014316024535771E+01    0.2500000000000000E+01    0.1762464314805728E+01
    0.2670003247036656E+01    0.2500000000000000E+01    0.2850479545835163E+01
    0.5000000000000000E+01    0.1250000000000000E+01    0.5000000000000000E+01
    0.5000000000000000E+01    0.0000000000000000E+00    0.5000000000000000E+01
    0.5000000000000000E+01   -0.1250000000000000E+01    0.5000000000000000E+01
    0.5000000000000000E+01   -0.2500000000000000E+01    0.5000000000000000E+01
    0.5000000000000000E+01   -0.2500000000000000E+01    0.3750000000000000E+01
    0.5000000000000000E+01   -0.2500000000000000E+01    0.2500000000000000E+01
    0.5000000000000000E+01   -0.2500000000000000E+01    0.1250000000000000E+01
    0.5000000000000000E+01    0.1578994732800803E+01    0.9058375365086910E+00
    0.5000000000000000E+01   -0.1583989954232354E+01    0.3982050490726493E+01
    0.5000000000000000E+01    0.1453322699199022E+01    0.4033849428301197E+01
    0.5000000000000000E+01   -0.1479596339503735E+01    0.1040505887381675E+01
    0.5000000000000000E+01   -0.3227322616384110E+00    0.1099454400140349E+01
    0.5000000000000000E+01    0.6593508822075582E+00    0.7354504170366591E+00
    0.5000000000000000E+01    0.8256214013940779E+00    0.1622302608453282E+01
    0.5000000000000000E+01   -0.1650070333782557E+01    0.2145871574390382E+01
    0.5000000000000000E+01   -0.4612828702537229E+00    0.4086422318222992E+01
    0.5000000000000000E+01   -0.8579242121530853E+00    0.2979540174134984E+01
    0.5000000000000000E+01   -0.1836846154397680E+01    0.3045064261640043E+01
    0.5000000000000000E+01    0.3508002863614053E+00    0.3428197553792836E+01
    0.5000000000000000E+01    0.5185680230613409E+00    0.4309693860063405E+01
    0.5000000000000000E+01    0.1738996113203182E+01    0.1827272193562204E+01
    0.5000000000000000E+01    0.1325493893339706E+01    0.2808563282768077E+01
    0.5000000000000000E+01   -0.8731419609589618E+00    0.1895995683864404E+01
    0.5000000000000000E+01    0.4906150219227333E-01    0.2273179336307740E+01
    0.0000000000000000E+00    0.1250000000000000E+01    0.5000000000000000E+01
    0.0000000000000000E+00    0.0000000000000000E+00    0.5000000000000000E+01
    0.0000000000000000E+00   -0.1250000000000000E+01    0.5000000000000000E+01
    0.0000000000000000E+00   -0.2500000000000000E+01    0.5000000000000000E+01
    0.1250000000000000E+01   -0.2500000000000000E+01    0.5000000000000000E+01
    0.2500000000000000E+01   -0.2500000000000000E+01    0.5000000000000000E+01
    0.3750000000000000E+01   -0.2500000000000000E+01    0.5000000000000000E+01
    0.4042003247744892E+01    0.1558308132739014E+01    0.5000000000000000E+01
    0.9304122287900499E+00   -0.1548001304379777E+01    0.5000000000000000E+01
    0.1037243024609388E+01    0.1462892710085612E+01    0.5000000000000000E+01
    0.3946240828834967E+01   -0.1445243809615570E+01    0.5000000000000000E+01
    0.4092527262848217E+01   -0.3455338993778935E+00    0.5000000000000000E+01
    0.4293103109154542E+01    0.6277660831404320E+00    0.5000000000000000E+01
    0.3241512314643519E+01    0.7429886854239611E+00    0.5000000000000000E+01
    0.2844289952419609E+01   -0.1588117879734118E+01    0.5000000000000000E+01
    0.7159905765450471E+00   -0.6002320124191652E+00    0.5000000000000000E+01
    0.1754341919796891E+01   -0.7398147869923652E+00    0.5000000000000000E+01
    0.1870296826774691E+01   -0.1788622905643739E+01    0.5000000000000000E+01
    0.9220614901912976E+00    0.3083720183248586E+00    0.5000000000000000E+01
    0.3101523624086016E+01    0.1777901774806180E+01    0.5000000000000000E+01
    0.2192512063922564E+01    0.1576861561598471E+01    0.5000000000000000E+01
    0.2024793420196460E+01    0.4773861992750707E+00    0.5000000000000000E+01
    0.2990627757741975E+01   -0.4878110785814084E+00    0.5000000000000000E+01
    0.0000000000000000E+00   -0.2500000000000000E+01    0.1250000000000000E+01
    0.0000000000000000E+00   -0.2500000000000000E+01    0.2500000000000000E+01
    0.0000000000000000E+00   -0.2500000000000000E+01    0.3750000000000000E+01
    0.0000000000000000E+00    0.1558308132739014E+01    0.4042003247744892E+01
    0.0000000000000000E+00   -0.1548001304379777E+01    0.9304122287900499E+00
    0.0000000000000000E+00    0.1462892710085612E+01    0.1037243024609388E+01
    0.0000000000000000E+00   -0.1445243809615570E+01    0.3946240828834967E+01
    0.0000000000000000E+00   -0.3455338993778935E+00    0.4092527262848217E+01
    0.0000000000000000E+00    0.6277660831404320E+00    0.4293103109154542E+01
    0.0000000000000000E+00    0.7429886854239611E+00    0.3241512314643519E+01
    0.0000000000000000E+00   -0.1588117879734118E+01    0.2844289952419609E+01
    0.0000000000000000E+00   -0.6002320124191652E+00    0.7159905765450471E+00
    0.0000000000000000E+00   -0.7398147869923652E+00    0.1754341919796891E+01
    0.0000000000000000E+00   -0.1788622905643739E+01    0.1870296826774691E+01
    0.0000000000000000E+00    0.3083720183248586E+00    0.9220614901912976E+00
    0.0000000000000000E+00    0.1777901774806180E+01    0.3101523624086016E+01
    0.0000000000000000E+00    0.1576861561598471E+01    0.2192512063922564E+01
[...]
POINT_DATA 213
SCALARS rho double 1
LOOKUP_TABLE default
   0.1344271443801907E+01
   0.9569758889324357E+00
   0.9462964186584041E+00
   0.9418612721307958E+00
   0.8437304915772312E+00
   0.7738004317919167E+00
   0.7629818888267674E+00
   0.7664577911358049E+00
   0.8307874021948884E+00
   0.9352972536451438E+00
   0.9342219813557684E+00
   0.9617195275449288E+00
   0.1449457449289863E+01
   0.1494090637443613E+01
   0.1644667267986621E+01
   0.1425832041873014E+01
   0.1009014434164139E+01
   0.9508810841411279E+00
   0.9436508494753233E+00
   0.9581561033375826E+00
   0.9415852452828237E+00
   0.1036377239666739E+01
   0.9256161078367964E+00
   0.9322349845822610E+00
   0.9537479564691825E+00
   0.9518769553430522E+00
   0.9348583098449371E+00
   0.9564028398102739E+00
   0.9376098383156621E+00
   0.9300661510458121E+00
   0.9445157493592810E+00
   0.8863506506083396E+00
   0.9423579959484811E+00
   0.9635003165525170E+00
   0.1008299039124334E+01
   0.1006735291134660E+01
   0.1001964619739366E+01
   0.1003219581974256E+01
   0.1004132053504755E+01
   0.1005228602922035E+01
   0.1004260408088823E+01
   0.1008308189928165E+01
   0.1023893137763273E+01
   0.1063553955865078E+01
   0.1019182512772502E+01
   0.1001780766089692E+01
   0.9643310058279880E+00
   0.1005283708908055E+01
   0.1000721163360442E+01
   0.1008742083743930E+01
   0.1008078083702710E+01
   0.1002349807178939E+01
   0.9979986848376529E+00
   0.1000583561349646E+01
   0.1001620123552372E+01
   0.9826893064962110E+00
   0.9842439653468614E+00
   0.9833314023709417E+00
   0.9788207429024537E+00
   0.9902638157858377E+00
   0.9934561553824882E+00
   0.1002011754280756E+01
   0.1002134467286536E+01
   0.1002276326464980E+01
   0.1001794758226125E+01
   0.1009778639829359E+01
   0.1006429109255985E+01
   0.9558786963545695E+00
   0.9249398428895997E+00
   0.1007036756094726E+01
   0.1004504925212985E+01
   0.9143642067140426E+00
   0.9089667857045898E+00
   0.8751688879731285E+00
   0.9767271873127347E+00
   0.1000452621133072E+01
   0.1005831087804425E+01
   0.1012882803130701E+01
   0.1011618951447649E+01
   0.1010438648588488E+01
   0.1005468281474543E+01
   0.9907612666829393E+00
   0.1005140325710941E+01
   0.9860567244805848E+00
   0.1005609737815789E+01
   0.1004248005690105E+01
   0.1002888437564753E+01
   0.1003345420243946E+01
   0.1003992731815766E+01
   0.1005101716070079E+01
   0.1003211645101776E+01
   0.1002663159010994E+01
   0.1002586233143837E+01
   0.1004060871004508E+01
   0.1004320345720473E+01
   0.1001641919609696E+01
   0.1002273116627683E+01
   0.1002543476815414E+01
   0.1003469520697709E+01
   0.1003372639895237E+01
   0.1003232230080655E+01
   0.1004423863059890E+01
   0.1004313070654614E+01
   0.1003659849241239E+01
   0.1003723103723315E+01
   0.1004329726290387E+01
   0.1004465021808199E+01
   0.1003623374961224E+01
   0.1064422801169928E+01
   0.1028473621163015E+01
   0.1009586657243901E+01
   0.1006638837401790E+01
   0.1163935521042097E+01
   0.1086087969424650E+01
   0.1007893419091722E+01
   0.1007245533148405E+01
   0.1006798074025103E+01
   0.1013018286851920E+01
   0.1019384609328464E+01
   0.1235203667786572E+01
   0.1032529466808370E+01
   0.1046681191250876E+01
   0.1200953640714769E+01
   0.1014718915937866E+01
   0.1032291153010699E+01
   0.1028095236487249E+01
   0.1014628639670627E+01
   0.1029216893038198E+01
   0.1001994816771164E+01
   0.9606929195600514E+00
   0.1006852582702760E+01
   0.1001327193287292E+01
   0.1010821905240743E+01
   0.1012246098834752E+01
   0.1000946006798276E+01
   0.9979121235108179E+00
   0.9980632370114133E+00
   0.1001184143100562E+01
   0.9841362013329550E+00
   0.9814879618295300E+00
   0.9648483323876712E+00
   0.9680877126609190E+00
   0.9914124472670688E+00
   0.9910858388897690E+00
   0.9925545096422103E+00
   0.1001727533862005E+01
   0.9993409402595856E+00
   0.9941410836028833E+00
   0.1007038753673825E+01
   0.1022539494114785E+01
   0.1001088098562787E+01
   0.1008798496179307E+01
   0.1004773846088552E+01
   0.1009050237395644E+01
   0.9966470333593226E+00
   0.1004988557133314E+01
   0.1003325535111710E+01
   0.9949431085782421E+00
   0.9832680785653894E+00
   0.9943957458985084E+00
   0.9973420658765916E+00
   0.9932190084899052E+00
   0.1001306487240297E+01
   0.1003001636964649E+01
   0.1002183579623303E+01
   0.9947078545908503E+00
   0.9937965522030717E+00
   0.1004867865467552E+01
   0.1020077607429057E+01
   0.1005364552380716E+01
   0.9816998152770380E+00
   0.1004973031125561E+01
   0.1012382323264444E+01
   0.9871424289647047E+00
   0.9551513529969985E+00
   0.9865075699149599E+00
   0.9864532951063563E+00
   0.9918946933095701E+00
   0.9933508198462346E+00
   0.9954406183590155E+00
   0.1037336789521447E+01
   0.1033536797427641E+01
   0.1001443321193302E+01
   0.1001930499902582E+01
   0.9912478515421120E+00
   0.9910920509608956E+00
   0.9648489986623803E+00
   0.9933282604491070E+00
   0.1006058638765291E+01
   0.1001954027402689E+01
   0.9908735804418032E+00
   0.9740945198491410E+00
   0.9418802137432665E+00
   0.9819379688524356E+00
   0.9794803559388928E+00
   0.9704172053731180E+00
   0.9720478942519487E+00
   0.9557351703771682E+00
   0.9496731207676010E+00
   0.9528673562059651E+00
   0.1002659533845803E+01
   0.1002471631816917E+01
   0.1000509329291053E+01
   0.1001677322002703E+01
   0.9607931423020801E+00
   0.9491625497124697E+00
   0.9584503054105012E+00
   0.1001121207761894E+01
   0.1000496140397658E+01
   0.1001156644460712E+01
   0.9807376183759565E+00
   0.9806000806752823E+00
   0.9628476103485250E+00
SCALARS u double 1
LOOKUP_TABLE default
   0.0000000000000000E+00
   0.0000000000000000E+00
   0.0000000000000000E+00
   0.0000000000000000E+00
   0.0000000000000000E+00
   0.0000000000000000E+00
   0.0000000000000000E+00
   0.0000000000000000E+00
   0.0000000000000000E+00
   0.0000000000000000E+00
   0.0000000000000000E+00
   0.0000000000000000E+00
   0.0000000000000000E+00
   0.0000000000000000E+00
   0.0000000000000000E+00
   0.0000000000000000E+00
   0.0000000000000000E+00
   0.0000000000000000E+00
   0.0000000000000000E+00
   0.0000000000000000E+00
   0.0000000000000000E+00
   0.0000000000000000E+00
   0.0000000000000000E+00
   0.0000000000000000E+00
   0.0000000000000000E+00
   0.0000000000000000E+00
   0.0000000000000000E+00
   0.0000000000000000E+00
   0.0000000000000000E+00
   0.0000000000000000E+00
   0.0000000000000000E+00
   0.0000000000000000E+00
   0.0000000000000000E+00
   0.4950176737973131E+00
   0.5338221309567933E+00
   0.5183269233283525E+00
   0.4930649896086526E+00
   0.4847578755149373E+00
   0.4867666431281691E+00
   0.4890763590671699E+00
   0.4957848876529335E+00
   0.4898301886563735E+00
   0.4717388495550498E+00
   0.4454814156892626E+00
   0.4833907043453015E+00
   0.5098397416894518E+00
   0.4390712694609684E+00
   0.4949403964142010E+00
   0.5225330360969164E+00
   0.4962454546394394E+00
   0.5226154962512162E+00
   0.5038881740180682E+00
   0.5646883611947143E+00
   0.5247509147934620E+00
   0.4991466102142065E+00
   0.5730561897518837E+00
   0.5696051090190927E+00
   0.3737941446672220E+00
   0.3998658128115807E+00
   0.5599326584687830E+00
   0.5564587626863641E+00
   0.4942627364220810E+00
   0.4948659492528039E+00
   0.4925735879939239E+00
   0.4914269540530257E+00
   0.5162356849342687E+00
   0.5361798303986033E+00
   0.4947413353505876E+00
   0.4524112185439307E+00
   0.5128777321087405E+00
   0.5117942014710259E+00
   0.4783517513455863E+00
   0.4931696661059766E+00
   0.4603173613664763E+00
   0.5244892730203933E+00
   0.5297434247346715E+00
   0.5129579287405480E+00
   0.5328358317778560E+00
   0.5308941037128135E+00
   0.5309856158193365E+00
   0.5063656721814960E+00
   0.5282461969925679E+00
   0.5410312731533603E+00
   0.5361261481832814E+00
   0.5374105276363037E+00
   0.4965364818464916E+00
   0.4975340903554868E+00
   0.4963842644576840E+00
   0.4955220267891086E+00
   0.4904581830949590E+00
   0.4903044387606443E+00
   0.4862182757201500E+00
   0.4854049623424835E+00
   0.4932164390713074E+00
   0.4909833319613042E+00
   0.4832194706138960E+00
   0.4872622822220602E+00
   0.4880124975277446E+00
   0.4872445962325409E+00
   0.4882696668461824E+00
   0.4952597559199293E+00
   0.4900967170500783E+00
   0.4904000093037274E+00
   0.4944232932191422E+00
   0.4868002494442444E+00
   0.4892385998983182E+00
   0.4881393383486425E+00
   0.4878457846342232E+00
   0.4446866573000162E+00
   0.4700028782940833E+00
   0.4891999057322567E+00
   0.4885247843762605E+00
   0.4506533054541531E+00
   0.4687378569856044E+00
   0.4877010455604055E+00
   0.4868353683397844E+00
   0.4908994714126921E+00
   0.4793551578284956E+00
   0.4658071750804274E+00
   0.3792725237060307E+00
   0.4901596528314009E+00
   0.4486686693164017E+00
   0.4436137397252225E+00
   0.4845147242283214E+00
   0.4621822646724463E+00
   0.4665749536531722E+00
   0.4748140301712227E+00
   0.4894494212940148E+00
   0.5085556989457596E+00
   0.4315073875441849E+00
   0.4927349361554409E+00
   0.5318289235290959E+00
   0.4913399197782025E+00
   0.5207019991749373E+00
   0.5060964604841240E+00
   0.5688797395963121E+00
   0.5273992825266319E+00
   0.5015044849827071E+00
   0.5821790084836466E+00
   0.5689618251324092E+00
   0.3406394442189666E+00
   0.3789869410537125E+00
   0.5751958203004367E+00
   0.5666485493790031E+00
   0.5704108782053439E+00
   0.5291056374024534E+00
   0.5451902709724513E+00
   0.5718804313801745E+00
   0.5389079125336826E+00
   0.5475507503775928E+00
   0.5821713866084781E+00
   0.4925601784140176E+00
   0.5042157543073605E+00
   0.4961735435910730E+00
   0.5565207960555041E+00
   0.4758845204506409E+00
   0.4950268386075762E+00
   0.5498525440022296E+00
   0.5891202294282961E+00
   0.5841957609276849E+00
   0.5469097656313603E+00
   0.5805417619008505E+00
   0.5106251431633556E+00
   0.5030200509675072E+00
   0.5033624666369604E+00
   0.5676446093905313E+00
   0.5563943077997734E+00
   0.4947255972155896E+00
   0.5505243827044688E+00
   0.5510857279421413E+00
   0.5657350948572283E+00
   0.4920070017939571E+00
   0.4927299096716068E+00
   0.3865140565799840E+00
   0.3687754533104913E+00
   0.5574921716643062E+00
   0.5763755542776133E+00
   0.4194304387961022E+00
   0.5824843237720443E+00
   0.4265209605772177E+00
   0.5392799843279669E+00
   0.5012032759033902E+00
   0.5119513185470939E+00
   0.5049119459088252E+00
   0.5751974969245429E+00
   0.5876371359347695E+00
   0.5379907805778723E+00
   0.5677472538245139E+00
   0.5351248667670380E+00
   0.5338056370968046E+00
   0.5580313796012023E+00
   0.5512707857560964E+00
   0.4261852741311793E+00
   0.5273356174553883E+00
   0.5795712528135533E+00
   0.3318687135587128E+00
   0.4760283324114170E+00
   0.5446196254058725E+00
   0.4798331899786127E+00
   0.3005293509716024E+00
   0.5031051139594960E+00
   0.5017115975994099E+00
   0.5129033206557931E+00
   0.5414840093533024E+00
   0.3437603844174222E+00
   0.3397710719921341E+00
   0.3189928571219612E+00
   0.5065936055992234E+00
   0.5123483789023547E+00
   0.5330313512514465E+00
   0.5879309998589473E+00
   0.4644180532874694E+00
   0.3531270509193416E+00
SCALARS v double 1
LOOKUP_TABLE default
   0.0000000000000000E+00
   0.0000000000000000E+00
   0.0000000000000000E+00
   0.0000000000000000E+00
   0.0000000000000000E+00
   0.0000000000000000E+00
   0.0000000000000000E+00
   0.0000000000000000E+00
   0.0000000000000000E+00
   0.0000000000000000E+00
   0.0000000000000000E+00
   0.0000000000000000E+00
   0.0000000000000000E+00
   0.0000000000000000E+00
   0.0000000000000000E+00
   0.0000000000000000E+00
   0.0000000000000000E+00
   0.0000000000000000E+00
   0.0000000000000000E+00
   0.0000000000000000E+00
   0.0000000000000000E+00
   0.0000000000000000E+00
   0.0000000000000000E+00
   0.0000000000000000E+00
   0.0000000000000000E+00
   0.0000000000000000E+00
   0.0000000000000000E+00
   0.0000000000000000E+00
   0.0000000000000000E+00
   0.0000000000000000E+00
   0.0000000000000000E+00
   0.0000000000000000E+00
   0.0000000000000000E+00
   0.0000000000000000E+00
   0.0000000000000000E+00
   0.0000000000000000E+00
   0.0000000000000000E+00
   0.0000000000000000E+00
   0.0000000000000000E+00
   0.0000000000000000E+00
   0.0000000000000000E+00
   0.0000000000000000E+00
   0.0000000000000000E+00
   0.0000000000000000E+00
   0.0000000000000000E+00
   0.0000000000000000E+00
   0.0000000000000000E+00
   0.0000000000000000E+00
   0.0000000000000000E+00
   0.0000000000000000E+00
   0.0000000000000000E+00
   0.0000000000000000E+00
   0.0000000000000000E+00
   0.0000000000000000E+00
   0.0000000000000000E+00
   0.0000000000000000E+00
   0.0000000000000000E+00
   0.0000000000000000E+00
   0.0000000000000000E+00
   0.0000000000000000E+00
   0.0000000000000000E+00
   0.7970255994094635E-03
  -0.1329291682501559E-02
  -0.1332590497709965E-02
   0.0000000000000000E+00
   0.0000000000000000E+00
   0.0000000000000000E+00
   0.0000000000000000E+00
  -0.1922562914436308E-01
   0.4770615942277644E-03
   0.2183359808328061E-02
   0.1427333034282944E-01
  -0.6488281929869890E-02
  -0.7821624762996492E-02
  -0.1327725157419952E-01
   0.4914481617306432E-02
   0.6907109096424074E-03
   0.3434417454565028E-02
   0.1920846983468856E-02
   0.3147959000709259E-02
   0.1704777628730755E-02
  -0.7316189162727340E-02
  -0.7701943546406088E-04
   0.4468737844344576E-02
  -0.4387159020146364E-03
  -0.6383747222488573E-04
  -0.1963395361022017E-03
   0.8071267509280295E-03
   0.0000000000000000E+00
   0.0000000000000000E+00
   0.0000000000000000E+00
   0.0000000000000000E+00
   0.4257020535290905E-03
   0.1616304739672284E-02
  -0.1297550826381899E-02
  -0.1022773089597990E-02
  -0.2134338600599793E-02
  -0.1064010141834221E-02
  -0.8200046742433909E-03
  -0.7617015894619589E-03
   0.5202265390555135E-04
  -0.6244084713165074E-03
   0.7916472580837545E-03
  -0.1745238462594552E-02
   0.2747134432731694E-03
  -0.8939732357018601E-04
  -0.9424308073560064E-03
  -0.1100225670646570E-02
   0.0000000000000000E+00
   0.0000000000000000E+00
   0.0000000000000000E+00
  -0.1061759184039297E-02
  -0.7641128470936532E-02
   0.1860854749908339E-01
  -0.2834552957841825E-04
  -0.1383129188653192E-02
  -0.2035123046032113E-02
  -0.5666383121399291E-02
  -0.1585210294794241E-02
  -0.5947016349545022E-02
  -0.4160601829160655E-02
   0.1565614835556750E-02
   0.3329524813614627E-01
   0.3055142243897062E-04
  -0.2766884922062180E-02
   0.3566484729870840E-02
   0.3596189566406494E-03
   0.0000000000000000E+00
   0.0000000000000000E+00
   0.0000000000000000E+00
   0.0000000000000000E+00
   0.0000000000000000E+00
   0.0000000000000000E+00
   0.0000000000000000E+00
   0.0000000000000000E+00
   0.0000000000000000E+00
   0.0000000000000000E+00
   0.0000000000000000E+00
   0.0000000000000000E+00
   0.0000000000000000E+00
   0.0000000000000000E+00
   0.0000000000000000E+00
   0.0000000000000000E+00
   0.0000000000000000E+00
   0.5047032539706669E-02
   0.3230791887365656E-02
   0.8149134212009900E-02
   0.6168367019246388E-02
   0.1122928633211040E-01
   0.1429277497624016E-01
  -0.2038826785722815E-03
   0.5118221764396212E-02
   0.2914950455465083E-02
   0.3373611756648536E-02
   0.3728336420038109E-02
  -0.1465719857434451E-01
  -0.6159700758577804E-03
   0.6651630195617418E-02
   0.1542014556878513E-02
   0.1969646624764892E-02
   0.4266273035720703E-02
  -0.2790960696501264E-02
   0.1226886402037327E-02
   0.2819172276758698E-02
   0.1497448853897889E-02
   0.2575338511064626E-02
   0.2030646056914646E-02
   0.2118046026804422E-02
   0.8700410490450179E-02
  -0.3733396957805498E-02
   0.6241189133721961E-02
   0.2516482108474012E-04
  -0.3854045228125209E-03
  -0.1674679005285527E-01
  -0.4881976943438299E-02
  -0.4720000803407718E-02
   0.3445223051325176E-02
  -0.6135723965589271E-02
   0.9934522878640552E-04
  -0.3291372904463325E-01
  -0.3046196651268989E-02
   0.4722743276122587E-02
   0.9228358794940349E-03
   0.2112174992584410E-02
   0.4518755296164576E-02
   0.2720464980554834E-02
   0.3212576463829450E-02
   0.5200803966619859E-02
   0.1941838599860285E-02
   0.7315887926670673E-03
  -0.2555252639898515E-04
  -0.5374632992236167E-02
  -0.6959592287493647E-02
  -0.9443811762129370E-03
   0.1105268412704879E-02
  -0.2080554218538470E-02
  -0.3200036091260518E-02
  -0.2527833102327268E-02
  -0.4115193515395133E-02
  -0.7593954940959195E-02
  -0.1985686460618913E-02
   0.6240397749885938E-03
  -0.2239090070739617E-03
   0.1216949026272030E-02
  -0.3483958562538309E-02
   0.5229139762461039E-02
  -0.8487626180306303E-02
   0.2315109901478272E-04
  -0.3395197001004967E-03
   0.2542663279123724E-02
   0.1663457601437462E-02
   0.2021438678711370E-02
  -0.5620784169047782E-02
SCALARS w double 1
LOOKUP_TABLE default
   0.0000000000000000E+00
   0.0000000000000000E+00
   0.0000000000000000E+00
   0.0000000000000000E+00
   0.0000000000000000E+00
   0.0000000000000000E+00
   0.0000000000000000E+00
   0.0000000000000000E+00
   0.0000000000000000E+00
   0.0000000000000000E+00
   0.0000000000000000E+00
   0.0000000000000000E+00
   0.0000000000000000E+00
   0.0000000000000000E+00
   0.0000000000000000E+00
   0.0000000000000000E+00
   0.0000000000000000E+00
   0.0000000000000000E+00
   0.0000000000000000E+00
   0.0000000000000000E+00
   0.0000000000000000E+00
   0.0000000000000000E+00
   0.0000000000000000E+00
   0.0000000000000000E+00
   0.0000000000000000E+00
   0.0000000000000000E+00
   0.0000000000000000E+00
   0.0000000000000000E+00
   0.0000000000000000E+00
   0.0000000000000000E+00
   0.0000000000000000E+00
   0.0000000000000000E+00
   0.0000000000000000E+00
  -0.1007612263491582E+00
  -0.4249296956142694E-01
   0.7371979849137147E-03
   0.5725797904640405E-02
   0.5699056992293743E-03
   0.1609784150069434E-02
   0.3375072751477348E-02
   0.2371773542008393E-02
   0.4590624126761843E-03
   0.3518225850518740E-02
   0.4521817553529135E-01
   0.6522937772855517E-01
   0.8689303063153794E-03
  -0.2261151910621705E-01
   0.4316553629939154E-02
   0.1358734825555426E-01
   0.1039452543505856E-01
   0.4900548389936416E-01
   0.2437443413763409E-02
  -0.6509940783970890E-02
  -0.7012231458782986E-03
   0.3411022535208122E-03
   0.3904107373647631E-02
  -0.3893254188874003E-01
   0.1798168091080190E-01
   0.1119638142133104E-01
   0.3403773232916028E-01
   0.8438810058441827E-02
   0.4937310911439120E-02
   0.4970345568511610E-02
   0.4871518540121214E-02
   0.6027193297967254E-02
   0.2599192953905140E-02
  -0.4144429588682900E-01
  -0.9954261885758220E-01
  -0.1121678220272111E+00
   0.5070875771599151E-02
   0.4230769103004130E-02
  -0.1004732307548791E+00
  -0.9895252521550243E-01
  -0.9875450977494449E-01
  -0.9462509583201389E-01
  -0.6807133848792199E-01
   0.5154921676889445E-02
  -0.1935330823105952E-01
  -0.1575800299134692E-01
  -0.6002863365046606E-02
   0.6819056028013737E-02
  -0.8010050622409495E-01
  -0.2781092480699019E-01
  -0.8096457390022374E-01
  -0.5873277589401915E-01
   0.3083625428581336E-02
   0.2685146406423674E-02
   0.2640431367175544E-02
   0.3450191995995067E-02
   0.4007083568821471E-02
   0.1201213593803553E-02
  -0.1438843102753389E-03
   0.2039876020296441E-02
   0.4895693320028152E-02
   0.3857385788175946E-02
   0.1114203152888447E-02
   0.1182681578292747E-02
   0.1465296538941423E-02
  -0.1653567754386556E-04
   0.8996624640186495E-04
   0.4386667663300336E-02
   0.2715724562313877E-02
   0.2322755210739880E-02
   0.5010601014942206E-02
   0.1071689987147845E-02
   0.2712217958687387E-02
   0.2013964038406675E-02
   0.2879099364631112E-04
   0.8374614277403085E-01
   0.2793870615272644E-02
  -0.8346628008055060E-03
  -0.1492944907098263E-03
   0.1409540840658913E+00
   0.1239332949512559E+00
  -0.1219093214406217E-02
  -0.4381936082025485E-02
  -0.3043057549559809E-03
  -0.6512246807426026E-02
  -0.1949570394812445E-02
   0.1557630964344308E+00
   0.7489979151281639E-01
   0.2550174900360693E-01
   0.1656445110130636E+00