# vtk DataFile Version 2.0
FUN3D:global_image_vtk
ASCII
DATASET UNSTRUCTURED_GRID
POINTS 213 double
    0.0000000000000000E+00    0.2500000000000000E+01    0.0000000000000000E+00
    0.1250000000000000E+01    0.2500000000000000E+01    0.0000000000000000E+00
    0.2500000000000000E+01    0.2500000000000000E+01    0.0000000000000000E+00
    0.3750000000000000E+01    0.2500000000000000E+01    0.0000000000000000E+00
    0.5000000000000000E+01    0.2500000000000000E+01    0.0000000000000000E+00
    0.5000000000000000E+01    0.1250000000000000E+01    0.0000000000000000E+00
    0.5000000000000000E+01    0.0000000000000000E+00    0.0000000000000000E+00
    0.5000000000000000E+01   -0.1250000000000000E+01    0.0000000000000000E+00
    0.5000000000000000E+01   -0.2500000000000000E+01    0.0000000000000000E+00
    0.3750000000000000E+01   -0.2500000000000000E+01    0.0000000000000000E+00
    0.2500000000000000E+01   -0.2500000000000000E+01    0.0000000000000000E+00
    0.1250000000000000E+01   -0.2500000000000000E+01    0.0000000000000000E+00
    0.0000000000000000E+00   -0.2500000000000000E+01    0.0000000000000000E+00
    0.0000000000000000E+00   -0.1250000000000000E+01    0.0000000000000000E+00
    0.0000000000000000E+00    0.0000000000000000E+00    0.0000000000000000E+00
    0.0000000000000000E+00    0.1250000000000000E+01    0.0000000000000000E+00
    0.9058375365086910E+00    0.1578994732800803E+01    0.0000000000000000E+00
    0.3982050490726493E+01   -0.1583989954232354E+01    0.0000000000000000E+00
    0.4033849428301197E+01    0.1453322699199022E+01    0.0000000000000000E+00
    0.1040505887381675E+01   -0.1479596339503735E+01    0.0000000000000000E+00
    0.1099454400140349E+01   -0.3227322616384110E+00    0.0000000000000000E+00
    0.7354504170366591E+00    0.6593508822075582E+00    0.0000000000000000E+00
    0.1622302608453282E+01    0.8256214013940779E+00    0.0000000000000000E+00
    0.2145871574390382E+01   -0.1650070333782557E+01    0.0000000000000000E+00
    0.4086422318222992E+01   -0.4612828702537229E+00    0.0000000000000000E+00
    0.2979540174134984E+01   -0.8579242121530853E+00    0.0000000000000000E+00
    0.3045064261640043E+01   -0.1836846154397680E+01    0.0000000000000000E+00
    0.3428197553792836E+01    0.3508002863614053E+00    0.0000000000000000E+00
    0.4309693860063405E+01    0.5185680230613409E+00    0.0000000000000000E+00
    0.1827272193562204E+01    0.1738996113203182E+01    0.0000000000000000E+00
    0.2808563282768077E+01    0.1325493893339706E+01    0.0000000000000000E+00
    0.1895995683864404E+01   -0.8731419609589618E+00    0.0000000000000000E+00
    0.2273179336307740E+01    0.4906150219227333E-01    0.0000000000000000E+00
    0.5000000000000000E+01    0.2500000000000000E+01    0.1250000000000000E+01
    0.5000000000000000E+01    0.2500000000000000E+01    0.2500000000000000E+01
    0.5000000000000000E+01    0.2500000000000000E+01    0.3750000000000000E+01
    0.5000000000000000E+01    0.2500000000000000E+01    0.5000000000000000E+01
    0.3750000000000000E+01    0.2500000000000000E+01    0.5000000000000000E+01
    0.2500000000000000E+01    0.2500000000000000E+01    0.5000000000000000E+01
    0.1250000000000000E+01    0.2500000000000000E+01    0.5000000000000000E+01
    0.0000000000000000E+00    0.2500000000000000E+01    0.5000000000000000E+01
    0.0000000000000000E+00    0.2500000000000000E+01    0.3750000000000000E+01
    0.0000000000000000E+00    0.2500000000000000E+01    0.2500000000000000E+01
    0.0000000000000000E+00    0.2500000000000000E+01    0.1250000000000000E+01
    0.9631080833812172E+00    0.2500000000000000E+01    0.9613285771248219E+00
    0.3981732467264904E+01    0.2500000000000000E+01    0.4069753913607991E+01
    0.4035525118777670E+01    0.2500000000000000E+01    0.1012015867579395E+01
    0.9641717640894248E+00    0.2500000000000000E+01    0.3972455192261839E+01
    0.1547743040396780E+01    0.2500000000000000E+01    0.2928177746738678E+01
    0.6985170616192014E+00    0.2500000000000000E+01    0.3068281976055466E+01
    0.8931277594515110E+00    0.2500000000000000E+01    0.2052465503257726E+01
    0.2183293750162785E+01    0.2500000000000000E+01    0.3959073795658649E+01
    0.3855333506014705E+01    0.2500000000000000E+01    0.2931218481500625E+01
    0.3152495579421047E+01    0.2500000000000000E+01    0.3635850502723324E+01
    0.3103247580566054E+01    0.2500000000000000E+01    0.4331682712472464E+01
    0.3266837581688852E+01    0.2500000000000000E+01    0.1886092433583972E+01
    0.4231539241296245E+01    0.2500000000000000E+01    0.1915865356532799E+01
    0.1909741006522088E+01    0.2500000000000000E+01    0.7170024419130505E+00
    0.2880784107213163E+01    0.2500000000000000E+01    0.9046598906449592E+00
    0.2014316024535771E+01    0.2500000000000000E+01    0.1762464314805728E+01
    0.2670003247036656E+01    0.2500000000000000E+01    0.2850479545835163E+01
    0.5000000000000000E+01    0.1250000000000000E+01    0.5000000000000000E+01
    0.5000000000000000E+01    0.0000000000000000E+00    0.5000000000000000E+01
    0.5000000000000000E+01   -0.1250000000000000E+01    0.5000000000000000E+01
    0.5000000000000000E+01   -0.2500000000000000E+01    0.5000000000000000E+01
    0.5000000000000000E+01   -0.2500000000000000E+01    0.3750000000000000E+01
    0.5000000000000000E+01   -0.2500000000000000E+01    0.2500000000000000E+01
    0.5000000000000000E+01   -0.2500000000000000E+01    0.1250000000000000E+01
    0.5000000000000000E+01    0.1578994732800803E+01    0.9058375365086910E+00
    0.5000000000000000E+01   -0.1583989954232354E+01    0.3982050490726493E+01
    0.5000000000000000E+01    0.1453322699199022E+01    0.4033849428301197E+01
    0.5000000000000000E+01   -0.1479596339503735E+01    0.1040505887381675E+01
    0.5000000000000000E+01   -0.3227322616384110E+00    0.1099454400140349E+01
    0.5000000000000000E+01    0.6593508822075582E+00    0.7354504170366591E+00
    0.5000000000000000E+01    0.8256214013940779E+00    0.1622302608453282E+01
    0.5000000000000000E+01   -0.1650070333782557E+01    0.2145871574390382E+01
    0.5000000000000000E+01   -0.4612828702537229E+00    0.4086422318222992E+01
    0.5000000000000000E+01   -0.8579242121530853E+00    0.2979540174134984E+01
    0.5000000000000000E+01   -0.1836846154397680E+01    0.3045064261640043E+01
    0.5000000000000000E+01    0.3508002863614053E+00    0.3428197553792836E+01
    0.5000000000000000E+01    0.5185680230613409E+00    0.4309693860063405E+01
    0.5000000000000000E+01    0.1738996113203182E+01    0.1827272193562204E+01
    0.5000000000000000E+01    0.1325493893339706E+01    0.2808563282768077E+01
    0.5000000000000000E+01   -0.8731419609589618E+00    0.1895995683864404E+01
    0.5000000000000000E+01    0.4906150219227333E-01    0.2273179336307740E+01
    0.0000000000000000E+00    0.1250000000000000E+01    0.5000000000000000E+01
    0.0000000000000000E+00    0.0000000000000000E+00    0.5000000000000000E+01
    0.0000000000000000E+00   -0.1250000000000000E+01    0.5000000000000000E+01
    0.0000000000000000E+00   -0.2500000000000000E+01    0.5000000000000000E+01
    0.1250000000000000E+01   -0.2500000000000000E+01    0.5000000000000000E+01
    0.2500000000000000E+01   -0.2500000000000000E+01    0.5000000000000000E+01
    0.3750000000000000E+01   -0.2500000000000000E+01    0.5000000000000000E+01
    0.4042003247744892E+01    0.1558308132739014E+01    0.5000000000000000E+01
    0.9304122287900499E+00   -0.1548001304379777E+01    0.5000000000000000E+01
    0.1037243024609388E+01    0.1462892710085612E+01    0.5000000000000000E+01
    0.3946240828834967E+01   -0.1445243809615570E+01    0.5000000000000000E+01
    0.4092527262848217E+01   -0.3455338993778935E+00    0.5000000000000000E+01
    0.4293103109154542E+01    0.6277660831404320E+00    0.5000000000000000E+01
    0.3241512314643519E+01    0.7429886854239611E+00    0.5000000000000000E+01
    0.2844289952419609E+01   -0.1588117879734118E+01    0.5000000000000000E+01
    0.7159905765450471E+00   -0.6002320124191652E+00    0.5000000000000000E+01
    0.1754341919796891E+01   -0.7398147869923652E+00    0.5000000000000000E+01
    0.1870296826774691E+01   -0.1788622905643739E+01    0.5000000000000000E+01
    0.9220614901912976E+00    0.3083720183248586E+00    0.5000000000000000E+01
    0.3101523624086016E+01    0.1777901774806180E+01    0.5000000000000000E+01
    0.2192512063922564E+01    0.1576861561598471E+01    0.5000000000000000E+01
    0.2024793420196460E+01    0.4773861992750707E+00    0.5000000000000000E+01
    0.2990627757741975E+01   -0.4878110785814084E+00    0.5000000000000000E+01
    0.0000000000000000E+00   -0.2500000000000000E+01    0.1250000000000000E+01
    0.0000000000000000E+00   -0.2500000000000000E+01    0.2500000000000000E+01
    0.0000000000000000E+00   -0.2500000000000000E+01    0.3750000000000000E+01
    0.0000000000000000E+00    0.1558308132739014E+01    0.4042003247744892E+01
    0.0000000000000000E+00   -0.1548001304379777E+01    0.9304122287900499E+00
    0.0000000000000000E+00    0.1462892710085612E+01    0.1037243024609388E+01
    0.0000000000000000E+00   -0.1445243809615570E+01    0.3946240828834967E+01
    0.0000000000000000E+00   -0.3455338993778935E+00    0.4092527262848217E+01
    0.0000000000000000E+00    0.6277660831404320E+00    0.4293103109154542E+01
    0.0000000000000000E+00    0.7429886854239611E+00    0.3241512314643519E+01
    0.0000000000000000E+00   -0.1588117879734118E+01    0.2844289952419609E+01
    0.0000000000000000E+00   -0.6002320124191652E+00    0.7159905765450471E+00
    0.0000000000000000E+00   -0.7398147869923652E+00    0.1754341919796891E+01
    0.0000000000000000E+00   -0.1788622905643739E+01    0.1870296826774691E+01
    0.0000000000000000E+00    0.3083720183248586E+00    0.9220614901912976E+00
    0.0000000000000000E+00    0.1777901774806180E+01    0.3101523624086016E+01
    0.0000000000000000E+00    0.1576861561598471E+01    0.2192512063922564E+01
[...]
POINT_DATA 213
SCALARS rho double 1
LOOKUP_TABLE default
   0.1344271443568301E+01
   0.9569758887953965E+00
   0.9462964185262730E+00
   0.9418612714453286E+00
   0.8437304895354416E+00
   0.7738004316327993E+00
   0.7629818886430094E+00
   0.7664577910793527E+00
   0.8307874019713428E+00
   0.9352972534773779E+00
   0.9342219813152154E+00
   0.9617195273781053E+00
   0.1449457449007557E+01
   0.1494090637371752E+01
   0.1644667267834062E+01
   0.1425832041732900E+01
   0.1009014434023767E+01
   0.9508810840449711E+00
   0.9436508487485155E+00
   0.9581561031305060E+00
   0.9415852451781273E+00
   0.1036377239551519E+01
   0.9256161076419397E+00
   0.9322349844914406E+00
   0.9537479563917393E+00
   0.9518769552194107E+00
   0.9348583098016520E+00
   0.9564028395476269E+00
   0.9376098384723628E+00
   0.9300661508535927E+00
   0.9445157490559554E+00
   0.8863506505168341E+00
   0.9423579958077953E+00
   0.9635003072898919E+00
   0.1008299039469086E+01
   0.1006735291872699E+01
   0.1001964617543604E+01
   0.1003219581424457E+01
   0.1004132053848023E+01
   0.1005228602839623E+01
   0.1004260408175201E+01
   0.1008308189847528E+01
   0.1023893137651179E+01
   0.1063553955836090E+01
   0.1019182512588708E+01
   0.1001780766378775E+01
   0.9643309930459854E+00
   0.1005283708865601E+01
   0.1000721163214489E+01
   0.1008742083647007E+01
   0.1008078083559385E+01
   0.1002349807006465E+01
   0.9979986848242257E+00
   0.1000583560901251E+01
   0.1001620123557007E+01
   0.9826893071372542E+00
   0.9842439639757294E+00
   0.9833314025134516E+00
   0.9788207403944854E+00
   0.9902638159697678E+00
   0.9934561553017437E+00
   0.1002011751606708E+01
   0.1002134465621809E+01
   0.1002276326485393E+01
   0.1001794758303755E+01
   0.1009778638895753E+01
   0.1006429109118118E+01
   0.9558786956199881E+00
   0.9249398402843131E+00
   0.1007036755528606E+01
   0.1004504925174603E+01
   0.9143642068098111E+00
   0.9089667853116745E+00
   0.8751688891158431E+00
   0.9767271882077956E+00
   0.1000452621190903E+01
   0.1005831087478767E+01
   0.1012882803352569E+01
   0.1011618951366566E+01
   0.1010438648692843E+01
   0.1005468280908052E+01
   0.9907612677027793E+00
   0.1005140325720546E+01
   0.9860567245133226E+00
   0.1005609737685638E+01
   0.1004248005636614E+01
   0.1002888437632629E+01
   0.1003345420389440E+01
   0.1003992731810145E+01
   0.1005101716083340E+01
   0.1003211645071786E+01
   0.1002663159910117E+01
   0.1002586231342113E+01
   0.1004060870871098E+01
   0.1004320345959901E+01
   0.1001641920310469E+01
   0.1002273115919427E+01
   0.1002543475525051E+01
   0.1003469520728794E+01
   0.1003372640196790E+01
   0.1003232229979189E+01
   0.1004423863369929E+01
   0.1004313070760815E+01
   0.1003659849337227E+01
   0.1003723103852390E+01
   0.1004329726341290E+01
   0.1004465021774974E+01
   0.1003623375254706E+01
   0.1064422800758376E+01
   0.1028473621183174E+01
   0.1009586657206545E+01
   0.1006638837366368E+01
   0.1163935521216197E+01
   0.1086087969587129E+01
   0.1007893419157977E+01
   0.1007245533197546E+01
   0.1006798074045642E+01
   0.1013018286709786E+01
   0.1019384609319676E+01
   0.1235203667702629E+01
   0.1032529466629097E+01
   0.1046681191266399E+01
   0.1200953640564932E+01
   0.1014718915849891E+01
   0.1032291152882578E+01
   0.1028095236299331E+01
   0.1014628639584865E+01
   0.1029216892943175E+01
   0.1001994816321792E+01
   0.9606929188493920E+00
   0.1006852582700642E+01
   0.1001327193225557E+01
   0.1010821905245547E+01
   0.1012246098746001E+01
   0.1000946006843887E+01
   0.9979121234251441E+00
   0.9980632372157068E+00
   0.1001184143306888E+01
   0.9841362011731180E+00
   0.9814879614651667E+00
   0.9648483319635655E+00
   0.9680877123045225E+00
   0.9914124471556526E+00
   0.9910858388146537E+00
   0.9925545095971711E+00
   0.1001727533815732E+01
   0.9993409402147195E+00
   0.9941410835218446E+00
   0.1007038753618702E+01
   0.1022539494030143E+01
   0.1001088098382463E+01
   0.1008798496128822E+01
   0.1004773845981868E+01
   0.1009050237301446E+01
   0.9966470332086220E+00
   0.1004988556956676E+01
   0.1003325535088305E+01
   0.9949431085267954E+00
   0.9832680781035149E+00
   0.9943957454924710E+00
   0.9973420656177923E+00
   0.9932190085461036E+00
   0.1001306487063207E+01
   0.1003001636860457E+01
   0.1002183579559933E+01
   0.9947078545434004E+00
   0.9937965521256724E+00
   0.1004867865409820E+01
   0.1020077607350147E+01
   0.1005364552305036E+01
   0.9816998151831562E+00
   0.1004973031140980E+01
   0.1012382323281320E+01
   0.9871424285949765E+00
   0.9551513528727802E+00
   0.9865075699143759E+00
   0.9864532949016931E+00
   0.9918946934444302E+00
   0.9933508196563307E+00
   0.9954406182205296E+00
   0.1037336789485358E+01
   0.1033536797386591E+01
   0.1001443320760174E+01
   0.1001930499685526E+01
   0.9912478516192201E+00
   0.9910920509356659E+00
   0.9648489987438524E+00
   0.9933282605013730E+00
   0.1006058638658899E+01
   0.1001954027118164E+01
   0.9908735804114465E+00
   0.9740945209250610E+00
   0.9418802132939891E+00
   0.9819379686868245E+00
   0.9794803560029968E+00
   0.9704172054302119E+00
   0.9720478942008201E+00
   0.9557351699343936E+00
   0.9496731206607111E+00
   0.9528673561697918E+00
   0.1002659533932849E+01
   0.1002471631845233E+01
   0.1000509329229305E+01
   0.1001677321753593E+01
   0.9607931426106655E+00
   0.9491625495327477E+00
   0.9584503055301555E+00
   0.1001121207674142E+01
   0.1000496140500301E+01
   0.1001156644164884E+01
   0.9807376183108587E+00
   0.9806000806354706E+00
   0.9628476100507107E+00
SCALARS u double 1
LOOKUP_TABLE default
   0.0000000000000000E+00
   0.0000000000000000E+00
   0.0000000000000000E+00
   0.0000000000000000E+00
   0.0000000000000000E+00
   0.0000000000000000E+00
   0.0000000000000000E+00
   0.0000000000000000E+00
   0.0000000000000000E+00
   0.0000000000000000E+00
   0.0000000000000000E+00
   0.0000000000000000E+00
   0.0000000000000000E+00
   0.0000000000000000E+00
   0.0000000000000000E+00
   0.0000000000000000E+00
   0.0000000000000000E+00
   0.0000000000000000E+00
   0.0000000000000000E+00
   0.0000000000000000E+00
   0.0000000000000000E+00
   0.0000000000000000E+00
   0.0000000000000000E+00
   0.0000000000000000E+00
   0.0000000000000000E+00
   0.0000000000000000E+00
   0.0000000000000000E+00
   0.0000000000000000E+00
   0.0000000000000000E+00
   0.0000000000000000E+00
   0.0000000000000000E+00
   0.0000000000000000E+00
   0.0000000000000000E+00
   0.4950176841038950E+00
   0.5338221298904468E+00
   0.5183269245815681E+00
   0.4930649880194716E+00
   0.4847578720783314E+00
   0.4867666425612224E+00
   0.4890763585164419E+00
   0.4957848881431967E+00
   0.4898301885514879E+00
   0.4717388496872716E+00
   0.4454814156911411E+00
   0.4833907044258242E+00
   0.5098397462498122E+00
   0.4390712702973004E+00
   0.4949403966067963E+00
   0.5225330362590140E+00
   0.4962454547040226E+00
   0.5226154964012636E+00
   0.5038881743940904E+00
   0.5646883607729716E+00
   0.5247509156647264E+00
   0.4991466120399643E+00
   0.5730561900275170E+00
   0.5696051096725205E+00
   0.3737941447172408E+00
   0.3998658124802162E+00
   0.5599326585089867E+00
   0.5564587629708159E+00
   0.4942627332845524E+00
   0.4948659465939509E+00
   0.4925735874034536E+00
   0.4914269544165348E+00
   0.5162356849847843E+00
   0.5361798303614779E+00
   0.4947413360559609E+00
   0.4524112210526911E+00
   0.5128777324769741E+00
   0.5117942039652917E+00
   0.4783517512325743E+00
   0.4931696663274125E+00
   0.4603173603082295E+00
   0.5244892722841672E+00
   0.5297434246863898E+00
   0.5129579299817997E+00
   0.5328358317631079E+00
   0.5308941035369252E+00
   0.5309856168417696E+00
   0.5063656734631971E+00
   0.5282461956051732E+00
   0.5410312728663160E+00
   0.5361261482090383E+00
   0.5374105275369404E+00
   0.4965364819555797E+00
   0.4975340904747423E+00
   0.4963842645329474E+00
   0.4955220268444138E+00
   0.4904581832540308E+00
   0.4903044386617982E+00
   0.4862182765341900E+00
   0.4854049562225408E+00
   0.4932164389251728E+00
   0.4909833313742548E+00
   0.4832194697483247E+00
   0.4872622777925621E+00
   0.4880124910262752E+00
   0.4872445932823803E+00
   0.4882696670807560E+00
   0.4952597557629662E+00
   0.4900967169368800E+00
   0.4904000092157945E+00
   0.4944232926778154E+00
   0.4868002482296858E+00
   0.4892385985450067E+00
   0.4881393371269516E+00
   0.4878457830188271E+00
   0.4446866581880399E+00
   0.4700028782397612E+00
   0.4891999057827956E+00
   0.4885247845171681E+00
   0.4506533049986240E+00
   0.4687378568316710E+00
   0.4877010458208972E+00
   0.4868353684879509E+00
   0.4908994717277951E+00
   0.4793551579131011E+00
   0.4658071749156040E+00
   0.3792725238051158E+00
   0.4901596530658632E+00
   0.4486686693174836E+00
   0.4436137399567037E+00
   0.4845147243215480E+00
   0.4621822648671158E+00
   0.4665749537251825E+00
   0.4748140301830143E+00
   0.4894494214193160E+00
   0.5085556973201728E+00
   0.4315073874479265E+00
   0.4927349362199496E+00
   0.5318289233681850E+00
   0.4913399197138258E+00
   0.5207019993325095E+00
   0.5060964599961810E+00
   0.5688797394429943E+00
   0.5273992817546765E+00
   0.5015044841920153E+00
   0.5821790086665847E+00
   0.5689618252493694E+00
   0.3406394442972735E+00
   0.3789869412759557E+00
   0.5751958205859788E+00
   0.5666485492445106E+00
   0.5704108782332992E+00
   0.5291056375908926E+00
   0.5451902710624335E+00
   0.5718804314337484E+00
   0.5389079126120104E+00
   0.5475507505284145E+00
   0.5821713867543995E+00
   0.4925601785313518E+00
   0.5042157546933674E+00
   0.4961735437175850E+00
   0.5565207961242152E+00
   0.4758845205467250E+00
   0.4950268384538233E+00
   0.5498525442783367E+00
   0.5891202296213911E+00
   0.5841957608119215E+00
   0.5469097663969409E+00
   0.5805417617140081E+00
   0.5106251438802339E+00
   0.5030200513786177E+00
   0.5033624680394168E+00
   0.5676446095492805E+00
   0.5563943082163020E+00
   0.4947255974293394E+00
   0.5505243827664081E+00
   0.5510857280414144E+00
   0.5657350949266902E+00
   0.4920070018827750E+00
   0.4927299097457373E+00
   0.3865140570134103E+00
   0.3687754534094466E+00
   0.5574921717457443E+00
   0.5763755544079292E+00
   0.4194304389239460E+00
   0.5824843239681579E+00
   0.4265209607303306E+00
   0.5392799843260575E+00
   0.5012032758853949E+00
   0.5119513208233912E+00
   0.5049119464221599E+00
   0.5751974973377068E+00
   0.5876371359725600E+00
   0.5379907806932650E+00
   0.5677472539427654E+00
   0.5351248665592585E+00
   0.5338056378754562E+00
   0.5580313797591319E+00
   0.5512707861438004E+00
   0.4261852755968577E+00
   0.5273356176922634E+00
   0.5795712529648820E+00
   0.3318687134867550E+00
   0.4760283324686123E+00
   0.5446196255457398E+00
   0.4798331901344745E+00
   0.3005293509057649E+00
   0.5031051138636650E+00
   0.5017115978402424E+00
   0.5129033210939548E+00
   0.5414840107473906E+00
   0.3437603855157282E+00
   0.3397710719484761E+00
   0.3189928571511975E+00
   0.5065936052387000E+00
   0.5123483779787996E+00
   0.5330313518662225E+00
   0.5879309999681327E+00
   0.4644180533112185E+00
   0.3531270510691172E+00
SCALARS v double 1
LOOKUP_TABLE default
   0.0000000000000000E+00
   0.0000000000000000E+00
   0.0000000000000000E+00
   0.0000000000000000E+00
   0.0000000000000000E+00
   0.0000000000000000E+00
   0.0000000000000000E+00
   0.0000000000000000E+00
   0.0000000000000000E+00
   0.0000000000000000E+00
   0.0000000000000000E+00
   0.0000000000000000E+00
   0.0000000000000000E+00
   0.0000000000000000E+00
   0.0000000000000000E+00
   0.0000000000000000E+00
   0.0000000000000000E+00
   0.0000000000000000E+00
   0.0000000000000000E+00
   0.0000000000000000E+00
   0.0000000000000000E+00
   0.0000000000000000E+00
   0.0000000000000000E+00
   0.0000000000000000E+00
   0.0000000000000000E+00
   0.0000000000000000E+00
   0.0000000000000000E+00
   0.0000000000000000E+00
   0.0000000000000000E+00
   0.0000000000000000E+00
   0.0000000000000000E+00
   0.0000000000000000E+00
   0.0000000000000000E+00
   0.0000000000000000E+00
   0.0000000000000000E+00
   0.0000000000000000E+00
   0.0000000000000000E+00
   0.0000000000000000E+00
   0.0000000000000000E+00
   0.0000000000000000E+00
   0.0000000000000000E+00
   0.0000000000000000E+00
   0.0000000000000000E+00
   0.0000000000000000E+00
   0.0000000000000000E+00
   0.0000000000000000E+00
   0.0000000000000000E+00
   0.0000000000000000E+00
   0.0000000000000000E+00
   0.0000000000000000E+00
   0.0000000000000000E+00
   0.0000000000000000E+00
   0.0000000000000000E+00
   0.0000000000000000E+00
   0.0000000000000000E+00
   0.0000000000000000E+00
   0.0000000000000000E+00
   0.0000000000000000E+00
   0.0000000000000000E+00
   0.0000000000000000E+00
   0.0000000000000000E+00
   0.7970254504444436E-03
  -0.1329294685003654E-02
  -0.1332592746046461E-02
   0.0000000000000000E+00
   0.0000000000000000E+00
   0.0000000000000000E+00
   0.0000000000000000E+00
  -0.1922562566428849E-01
   0.4770618312405052E-03
   0.2183360181760572E-02
   0.1427333015572510E-01
  -0.6488282005248811E-02
  -0.7821623121608355E-02
  -0.1327725055682802E-01
   0.4914481820533347E-02
   0.6907122209789476E-03
   0.3434418474515259E-02
   0.1920847405628222E-02
   0.3147960270561289E-02
   0.1704778388379238E-02
  -0.7316187308911581E-02
  -0.7701898714949482E-04
   0.4468738078655359E-02
  -0.4387155926923848E-03
  -0.6383742026607807E-04
  -0.1963394574700338E-03
   0.8071267915730477E-03
   0.0000000000000000E+00
   0.0000000000000000E+00
   0.0000000000000000E+00
   0.0000000000000000E+00
   0.4257020121031210E-03
   0.1616304628955495E-02
  -0.1297550938025061E-02
  -0.1022774969763354E-02
  -0.2134342404401567E-02
  -0.1064012662886473E-02
  -0.8200064297647192E-03
  -0.7617033148783617E-03
   0.5202258690154577E-04
  -0.6244091883862257E-03
   0.7916469205033343E-03
  -0.1745238500866320E-02
   0.2747128592248383E-03
  -0.8939747455017488E-04
  -0.9424310073181154E-03
  -0.1100227530923782E-02
   0.0000000000000000E+00
   0.0000000000000000E+00
   0.0000000000000000E+00
  -0.1061759103753498E-02
  -0.7641128586664042E-02
   0.1860854741409363E-01
  -0.2834553333438292E-04
  -0.1383129137476804E-02
  -0.2035122953653121E-02
  -0.5666383167596220E-02
  -0.1585210179198142E-02
  -0.5947016303000228E-02
  -0.4160601785633429E-02
   0.1565614845459356E-02
   0.3329524815929402E-01
   0.3055140232846068E-04
  -0.2766884935097851E-02
   0.3566484673196278E-02
   0.3596189585419333E-03
   0.0000000000000000E+00
   0.0000000000000000E+00
   0.0000000000000000E+00
   0.0000000000000000E+00
   0.0000000000000000E+00
   0.0000000000000000E+00
   0.0000000000000000E+00
   0.0000000000000000E+00
   0.0000000000000000E+00
   0.0000000000000000E+00
   0.0000000000000000E+00
   0.0000000000000000E+00
   0.0000000000000000E+00
   0.0000000000000000E+00
   0.0000000000000000E+00
   0.0000000000000000E+00
   0.0000000000000000E+00
   0.5047032587850259E-02
   0.3230791965903872E-02
   0.8149134256870263E-02
   0.6168367011740158E-02
   0.1122928632546183E-01
   0.1429277498431684E-01
  -0.2038826243030879E-03
   0.5118221815279591E-02
   0.2914950529891701E-02
   0.3373611798411176E-02
   0.3728336416118404E-02
  -0.1465719855110243E-01
  -0.6159699777888346E-03
   0.6651630339479377E-02
   0.1542014291735249E-02
   0.1969646540818122E-02
   0.4266273543381965E-02
  -0.2790960925255691E-02
   0.1226887076548528E-02
   0.2819172479899194E-02
   0.1497449155141097E-02
   0.2575339078360731E-02
   0.2030646472550551E-02
   0.2118046063876073E-02
   0.8700410514418638E-02
  -0.3733396930839258E-02
   0.6241189128395285E-02
   0.2516489423121453E-04
  -0.3854044598486068E-03
  -0.1674678999905166E-01
  -0.4881976856822351E-02
  -0.4720000756043558E-02
   0.3445223076316837E-02
  -0.6135724022209119E-02
   0.9934525132905908E-04
  -0.3291372899022810E-01
  -0.3046196623741353E-02
   0.4722743279591505E-02
   0.9228368080765341E-03
   0.2112175225557228E-02
   0.4518755722456063E-02
   0.2720465296534687E-02
   0.3212576510688573E-02
   0.5200804246566821E-02
   0.1941838985554129E-02
   0.7315897760076260E-03
  -0.2555236187938991E-04
  -0.5374632774858550E-02
  -0.6959591058123834E-02
  -0.9443815799348211E-03
   0.1105268444039504E-02
  -0.2080554100003461E-02
  -0.3200035961542232E-02
  -0.2527833349921572E-02
  -0.4115193582964046E-02
  -0.7593954941632525E-02
  -0.1985686380349082E-02
   0.6240402959357232E-03
  -0.2239081547848157E-03
   0.1216949794048173E-02
  -0.3483958277609763E-02
   0.5229139949085077E-02
  -0.8487626088017040E-02
   0.2315171898431877E-04
  -0.3395192741729077E-03
   0.2542663551313774E-02
   0.1663457707369397E-02
   0.2021438717113336E-02
  -0.5620783952655377E-02
SCALARS w double 1
LOOKUP_TABLE default
   0.0000000000000000E+00
   0.0000000000000000E+00
   0.0000000000000000E+00
   0.0000000000000000E+00
   0.0000000000000000E+00
   0.0000000000000000E+00
   0.0000000000000000E+00
   0.0000000000000000E+00
   0.0000000000000000E+00
   0.0000000000000000E+00
   0.0000000000000000E+00
   0.0000000000000000E+00
   0.0000000000000000E+00
   0.0000000000000000E+00
   0.0000000000000000E+00
   0.0000000000000000E+00
   0.0000000000000000E+00
   0.0000000000000000E+00
   0.0000000000000000E+00
   0.0000000000000000E+00
   0.0000000000000000E+00
   0.0000000000000000E+00
   0.0000000000000000E+00
   0.0000000000000000E+00
   0.0000000000000000E+00
   0.0000000000000000E+00
   0.0000000000000000E+00
   0.0000000000000000E+00
   0.0000000000000000E+00
   0.0000000000000000E+00
   0.0000000000000000E+00
   0.0000000000000000E+00
   0.0000000000000000E+00
  -0.1007612290957792E+00
  -0.4249297152745173E-01
   0.7371985699506770E-03
   0.5725799924804631E-02
   0.5699057399342302E-03
   0.1609783082629746E-02
   0.3375072976623948E-02
   0.2371773619850546E-02
   0.4590624700493665E-03
   0.3518225884094996E-02
   0.4521817553784223E-01
   0.6522937770477615E-01
   0.8689296840075078E-03
  -0.2261151827902252E-01
   0.4316553480145746E-02
   0.1358734829241145E-01
   0.1039452544661028E-01
   0.4900548391633041E-01
   0.2437443470648878E-02
  -0.6509941152141490E-02
  -0.7012227772910172E-03
   0.3411016188461572E-03
   0.3904107299557247E-02
  -0.3893254320673503E-01
   0.1798168093779701E-01
   0.1119638180891126E-01
   0.3403773242334947E-01
   0.8438810159004832E-02
   0.4937312259539492E-02
   0.4970345563641827E-02
   0.4871517392109450E-02
   0.6027191701546968E-02
   0.2599191751658236E-02
  -0.4144429606473822E-01
  -0.9954261896341385E-01
  -0.1121678220114346E+00
   0.5070875014676811E-02
   0.4230770674404960E-02
  -0.1004732307207940E+00
  -0.9895252538714572E-01
  -0.9875450978303765E-01
  -0.9462509641674004E-01
  -0.6807133846984058E-01
   0.5154922157818234E-02
  -0.1935330758394959E-01
  -0.1575800298000912E-01
  -0.6002862473760042E-02
   0.6819057369426774E-02
  -0.8010050834023728E-01
  -0.2781092473420136E-01
  -0.8096457381913699E-01
  -0.5873277583412305E-01
   0.3083625660129505E-02
   0.2685146444756173E-02
   0.2640431156263597E-02
   0.3450191897066112E-02
   0.4007083750670427E-02
   0.1201214285106456E-02
  -0.1438846692307276E-03
   0.2039877280500075E-02
   0.4895693576427497E-02
   0.3857385552438493E-02
   0.1114201926549717E-02
   0.1182682022786043E-02
   0.1465296239415394E-02
  -0.1653640227305629E-04
   0.8996621333880411E-04
   0.4386667830319437E-02
   0.2715724203501392E-02
   0.2322755263813393E-02
   0.5010600994921456E-02
   0.1071689315740716E-02
   0.2712217684605754E-02
   0.2013964062379415E-02
   0.2879083237989318E-04
   0.8374614318007979E-01
   0.2793870704890054E-02
  -0.8346628083696736E-03
  -0.1492945643345167E-03
   0.1409540840559318E+00
   0.1239332949564580E+00
  -0.1219093307568385E-02
  -0.4381936070422134E-02
  -0.3043057896784183E-03
  -0.6512246818644134E-02
  -0.1949570342163286E-02
   0.1557630964269970E+00
   0.7489979153244808E-01
   0.2550174902585451E-01
   0.1656445109892518E+00