# vtk DataFile Version 2.0
FUN3D:global_image_vtk
ASCII
DATASET UNSTRUCTURED_GRID
POINTS 213 double
    0.0000000000000000E+00    0.2500000000000000E+01    0.0000000000000000E+00
    0.1250000000000000E+01    0.2500000000000000E+01    0.0000000000000000E+00
    0.2500000000000000E+01    0.2500000000000000E+01    0.0000000000000000E+00
    0.3750000000000000E+01    0.2500000000000000E+01    0.0000000000000000E+00
    0.5000000000000000E+01    0.2500000000000000E+01    0.0000000000000000E+00
    0.5000000000000000E+01    0.1250000000000000E+01    0.0000000000000000E+00
    0.5000000000000000E+01    0.0000000000000000E+00    0.0000000000000000E+00
    0.5000000000000000E+01   -0.1250000000000000E+01    0.0000000000000000E+00
    0.5000000000000000E+01   -0.2500000000000000E+01    0.0000000000000000E+00
    0.3750000000000000E+01   -0.2500000000000000E+01    0.0000000000000000E+00
    0.2500000000000000E+01   -0.2500000000000000E+01    0.0000000000000000E+00
    0.1250000000000000E+01   -0.2500000000000000E+01    0.0000000000000000E+00
    0.0000000000000000E+00   -0.2500000000000000E+01    0.0000000000000000E+00
    0.0000000000000000E+00   -0.1250000000000000E+01    0.0000000000000000E+00
    0.0000000000000000E+00    0.0000000000000000E+00    0.0000000000000000E+00
    0.0000000000000000E+00    0.1250000000000000E+01    0.0000000000000000E+00
    0.9058375365086910E+00    0.1578994732800803E+01    0.0000000000000000E+00
    0.3982050490726493E+01   -0.1583989954232354E+01    0.0000000000000000E+00
    0.4033849428301197E+01    0.1453322699199022E+01    0.0000000000000000E+00
    0.1040505887381675E+01   -0.1479596339503735E+01    0.0000000000000000E+00
    0.1099454400140349E+01   -0.3227322616384110E+00    0.0000000000000000E+00
    0.7354504170366591E+00    0.6593508822075582E+00    0.0000000000000000E+00
    0.1622302608453282E+01    0.8256214013940779E+00    0.0000000000000000E+00
    0.2145871574390382E+01   -0.1650070333782557E+01    0.0000000000000000E+00
    0.4086422318222992E+01   -0.4612828702537229E+00    0.0000000000000000E+00
    0.2979540174134984E+01   -0.8579242121530853E+00    0.0000000000000000E+00
    0.3045064261640043E+01   -0.1836846154397680E+01    0.0000000000000000E+00
    0.3428197553792836E+01    0.3508002863614053E+00    0.0000000000000000E+00
    0.4309693860063405E+01    0.5185680230613409E+00    0.0000000000000000E+00
    0.1827272193562204E+01    0.1738996113203182E+01    0.0000000000000000E+00
    0.2808563282768077E+01    0.1325493893339706E+01    0.0000000000000000E+00
    0.1895995683864404E+01   -0.8731419609589618E+00    0.0000000000000000E+00
    0.2273179336307740E+01    0.4906150219227333E-01    0.0000000000000000E+00
    0.5000000000000000E+01    0.2500000000000000E+01    0.1250000000000000E+01
    0.5000000000000000E+01    0.2500000000000000E+01    0.2500000000000000E+01
    0.5000000000000000E+01    0.2500000000000000E+01    0.3750000000000000E+01
    0.5000000000000000E+01    0.2500000000000000E+01    0.5000000000000000E+01
    0.3750000000000000E+01    0.2500000000000000E+01    0.5000000000000000E+01
    0.2500000000000000E+01    0.2500000000000000E+01    0.5000000000000000E+01
    0.1250000000000000E+01    0.2500000000000000E+01    0.5000000000000000E+01
    0.0000000000000000E+00    0.2500000000000000E+01    0.5000000000000000E+01
    0.0000000000000000E+00    0.2500000000000000E+01    0.3750000000000000E+01
    0.0000000000000000E+00    0.2500000000000000E+01    0.2500000000000000E+01
    0.0000000000000000E+00    0.2500000000000000E+01    0.1250000000000000E+01
    0.9631080833812172E+00    0.2500000000000000E+01    0.9613285771248219E+00
    0.3981732467264904E+01    0.2500000000000000E+01    0.4069753913607991E+01
    0.4035525118777670E+01    0.2500000000000000E+01    0.1012015867579395E+01
    0.9641717640894248E+00    0.2500000000000000E+01    0.3972455192261839E+01
    0.1547743040396780E+01    0.2500000000000000E+01    0.2928177746738678E+01
    0.6985170616192014E+00    0.2500000000000000E+01    0.3068281976055466E+01
    0.8931277594515110E+00    0.2500000000000000E+01    0.2052465503257726E+01
    0.2183293750162785E+01    0.2500000000000000E+01    0.3959073795658649E+01
    0.3855333506014705E+01    0.2500000000000000E+01    0.2931218481500625E+01
    0.3152495579421047E+01    0.2500000000000000E+01    0.3635850502723324E+01
    0.3103247580566054E+01    0.2500000000000000E+01    0.4331682712472464E+01
    0.3266837581688852E+01    0.2500000000000000E+01    0.1886092433583972E+01
    0.4231539241296245E+01    0.2500000000000000E+01    0.1915865356532799E+01
    0.1909741006522088E+01    0.2500000000000000E+01    0.7170024419130505E+00
    0.2880784107213163E+01    0.2500000000000000E+01    0.9046598906449592E+00
    0.2014316024535771E+01    0.2500000000000000E+01    0.1762464314805728E+01
    0.2670003247036656E+01    0.2500000000000000E+01    0.2850479545835163E+01
    0.5000000000000000E+01    0.1250000000000000E+01    0.5000000000000000E+01
    0.5000000000000000E+01    0.0000000000000000E+00    0.5000000000000000E+01
    0.5000000000000000E+01   -0.1250000000000000E+01    0.5000000000000000E+01
    0.5000000000000000E+01   -0.2500000000000000E+01    0.5000000000000000E+01
    0.5000000000000000E+01   -0.2500000000000000E+01    0.3750000000000000E+01
    0.5000000000000000E+01   -0.2500000000000000E+01    0.2500000000000000E+01
    0.5000000000000000E+01   -0.2500000000000000E+01    0.1250000000000000E+01
    0.5000000000000000E+01    0.1578994732800803E+01    0.9058375365086910E+00
    0.5000000000000000E+01   -0.1583989954232354E+01    0.3982050490726493E+01
    0.5000000000000000E+01    0.1453322699199022E+01    0.4033849428301197E+01
    0.5000000000000000E+01   -0.1479596339503735E+01    0.1040505887381675E+01
    0.5000000000000000E+01   -0.3227322616384110E+00    0.1099454400140349E+01
    0.5000000000000000E+01    0.6593508822075582E+00    0.7354504170366591E+00
    0.5000000000000000E+01    0.8256214013940779E+00    0.1622302608453282E+01
    0.5000000000000000E+01   -0.1650070333782557E+01    0.2145871574390382E+01
    0.5000000000000000E+01   -0.4612828702537229E+00    0.4086422318222992E+01
    0.5000000000000000E+01   -0.8579242121530853E+00    0.2979540174134984E+01
    0.5000000000000000E+01   -0.1836846154397680E+01    0.3045064261640043E+01
    0.5000000000000000E+01    0.3508002863614053E+00    0.3428197553792836E+01
    0.5000000000000000E+01    0.5185680230613409E+00    0.4309693860063405E+01
    0.5000000000000000E+01    0.1738996113203182E+01    0.1827272193562204E+01
    0.5000000000000000E+01    0.1325493893339706E+01    0.2808563282768077E+01
    0.5000000000000000E+01   -0.8731419609589618E+00    0.1895995683864404E+01
    0.5000000000000000E+01    0.4906150219227333E-01    0.2273179336307740E+01
    0.0000000000000000E+00    0.1250000000000000E+01    0.5000000000000000E+01
    0.0000000000000000E+00    0.0000000000000000E+00    0.5000000000000000E+01
    0.0000000000000000E+00   -0.1250000000000000E+01    0.5000000000000000E+01
    0.0000000000000000E+00   -0.2500000000000000E+01    0.5000000000000000E+01
    0.1250000000000000E+01   -0.2500000000000000E+01    0.5000000000000000E+01
    0.2500000000000000E+01   -0.2500000000000000E+01    0.5000000000000000E+01
    0.3750000000000000E+01   -0.2500000000000000E+01    0.5000000000000000E+01
    0.4042003247744892E+01    0.1558308132739014E+01    0.5000000000000000E+01
    0.9304122287900499E+00   -0.1548001304379777E+01    0.5000000000000000E+01
    0.1037243024609388E+01    0.1462892710085612E+01    0.5000000000000000E+01
    0.3946240828834967E+01   -0.1445243809615570E+01    0.5000000000000000E+01
    0.4092527262848217E+01   -0.3455338993778935E+00    0.5000000000000000E+01
    0.4293103109154542E+01    0.6277660831404320E+00    0.5000000000000000E+01
    0.3241512314643519E+01    0.7429886854239611E+00    0.5000000000000000E+01
    0.2844289952419609E+01   -0.1588117879734118E+01    0.5000000000000000E+01
    0.7159905765450471E+00   -0.6002320124191652E+00    0.5000000000000000E+01
    0.1754341919796891E+01   -0.7398147869923652E+00    0.5000000000000000E+01
    0.1870296826774691E+01   -0.1788622905643739E+01    0.5000000000000000E+01
    0.9220614901912976E+00    0.3083720183248586E+00    0.5000000000000000E+01
    0.3101523624086016E+01    0.1777901774806180E+01    0.5000000000000000E+01
    0.2192512063922564E+01    0.1576861561598471E+01    0.5000000000000000E+01
    0.2024793420196460E+01    0.4773861992750707E+00    0.5000000000000000E+01
    0.2990627757741975E+01   -0.4878110785814084E+00    0.5000000000000000E+01
    0.0000000000000000E+00   -0.2500000000000000E+01    0.1250000000000000E+01
    0.0000000000000000E+00   -0.2500000000000000E+01    0.2500000000000000E+01
    0.0000000000000000E+00   -0.2500000000000000E+01    0.3750000000000000E+01
    0.0000000000000000E+00    0.1558308132739014E+01    0.4042003247744892E+01
    0.0000000000000000E+00   -0.1548001304379777E+01    0.9304122287900499E+00
    0.0000000000000000E+00    0.1462892710085612E+01    0.1037243024609388E+01
    0.0000000000000000E+00   -0.1445243809615570E+01    0.3946240828834967E+01
    0.0000000000000000E+00   -0.3455338993778935E+00    0.4092527262848217E+01
    0.0000000000000000E+00    0.6277660831404320E+00    0.4293103109154542E+01
    0.0000000000000000E+00    0.7429886854239611E+00    0.3241512314643519E+01
    0.0000000000000000E+00   -0.1588117879734118E+01    0.2844289952419609E+01
    0.0000000000000000E+00   -0.6002320124191652E+00    0.7159905765450471E+00
    0.0000000000000000E+00   -0.7398147869923652E+00    0.1754341919796891E+01
    0.0000000000000000E+00   -0.1788622905643739E+01    0.1870296826774691E+01
    0.0000000000000000E+00    0.3083720183248586E+00    0.9220614901912976E+00
    0.0000000000000000E+00    0.1777901774806180E+01    0.3101523624086016E+01
    0.0000000000000000E+00    0.1576861561598471E+01    0.2192512063922564E+01
[...]
POINT_DATA 213
SCALARS rho double 1
LOOKUP_TABLE default
   0.1344271447513536E+01
   0.9569758863510187E+00
   0.9462964131476963E+00
   0.9418612809809880E+00
   0.8437305326249220E+00
   0.7738004366236118E+00
   0.7629818835352923E+00
   0.7664577747736702E+00
   0.8307874071277904E+00
   0.9352972584312794E+00
   0.9342219789606038E+00
   0.9617195253985946E+00
   0.1449457451925148E+01
   0.1494090634390123E+01
   0.1644667266120531E+01
   0.1425832042121099E+01
   0.1009014431951684E+01
   0.9508810834529324E+00
   0.9436508650822485E+00
   0.9581561040358555E+00
   0.9415852438481770E+00
   0.1036377238467063E+01
   0.9256161065528737E+00
   0.9322349833686646E+00
   0.9537479546577908E+00
   0.9518769606294256E+00
   0.9348583110126527E+00
   0.9564028472605562E+00
   0.9376098382947022E+00
   0.9300661483762656E+00
   0.9445157498952386E+00
   0.8863506498179892E+00
   0.9423579989630985E+00
   0.9635005463176068E+00
   0.1008299016849226E+01
   0.1006735286476284E+01
   0.1001964668880449E+01
   0.1003219585020681E+01
   0.1004132031500764E+01
   0.1005228594927736E+01
   0.1004260407230150E+01
   0.1008308186478871E+01
   0.1023893137050656E+01
   0.1063553952598192E+01
   0.1019182515717045E+01
   0.1001780783804978E+01
   0.9643313006409064E+00
   0.1005283707100616E+01
   0.1000721160708050E+01
   0.1008742081919331E+01
   0.1008078082721881E+01
   0.1002349804134802E+01
   0.9979986750621938E+00
   0.1000583560341637E+01
   0.1001620111273704E+01
   0.9826892887017441E+00
   0.9842440070920424E+00
   0.9833313959278270E+00
   0.9788208197338427E+00
   0.9902638053057706E+00
   0.9934561521625597E+00
   0.1002011769396090E+01
   0.1002134460966147E+01
   0.1002276292762543E+01
   0.1001794750814049E+01
   0.1009778688303423E+01
   0.1006429089412635E+01
   0.9558787161923055E+00
   0.9249399094183458E+00
   0.1007036788056115E+01
   0.1004504965694056E+01
   0.9143642148284854E+00
   0.9089668061474280E+00
   0.8751688715487663E+00
   0.9767271633891649E+00
   0.1000452605125484E+01
   0.1005831127457161E+01
   0.1012882793318249E+01
   0.1011618941822196E+01
   0.1010438666738070E+01
   0.1005468345073449E+01
   0.9907612584501471E+00
   0.1005140303717431E+01
   0.9860567191649986E+00
   0.1005609722175377E+01
   0.1004248005362838E+01
   0.1002888442362436E+01
   0.1003345421806400E+01
   0.1003992738571948E+01
   0.1005101711776414E+01
   0.1003211644800714E+01
   0.1002663118912554E+01
   0.1002586215617974E+01
   0.1004060873232088E+01
   0.1004320335586009E+01
   0.1001641876358730E+01
   0.1002273078124461E+01
   0.1002543429302291E+01
   0.1003469485510238E+01
   0.1003372622097534E+01
   0.1003232226613483E+01
   0.1004423845956595E+01
   0.1004313062478445E+01
   0.1003659841500632E+01
   0.1003723114413642E+01
   0.1004329706089845E+01
   0.1004465014727761E+01
   0.1003623371510240E+01
   0.1064422810885499E+01
   0.1028473617791364E+01
   0.1009586655876600E+01
   0.1006638837179832E+01
   0.1163935516219376E+01
   0.1086087965915945E+01
   0.1007893416515737E+01
   0.1007245533621198E+01
   0.1006798075615001E+01
   0.1013018285516812E+01
   0.1019384604142429E+01
   0.1235203667232808E+01
   0.1032529467087549E+01
   0.1046681187185837E+01
   0.1200953642804932E+01
   0.1014718913672466E+01
   0.1032291149823110E+01
   0.1028095233116493E+01
   0.1014628636237837E+01
   0.1029216890699733E+01
   0.1001994848137936E+01
   0.9606929481030253E+00
   0.1006852577985915E+01
   0.1001327192861736E+01
   0.1010821899745906E+01
   0.1012246097322713E+01
   0.1000945999858484E+01
   0.9979121148279254E+00
   0.9980632190463917E+00
   0.1001184128342173E+01
   0.9841362056195861E+00
   0.9814879662827261E+00
   0.9648483393266615E+00
   0.9680877144810929E+00
   0.9914124472590961E+00
   0.9910858410225073E+00
   0.9925545071087242E+00
   0.1001727530953737E+01
   0.9993409361453538E+00
   0.9941410820774784E+00
   0.1007038749873773E+01
   0.1022539492832734E+01
   0.1001088101164039E+01
   0.1008798493185881E+01
   0.1004773844574204E+01
   0.1009050235080351E+01
   0.9966470334609298E+00
   0.1004988558999291E+01
   0.1003325530422827E+01
   0.9949431071118846E+00
   0.9832680871743714E+00
   0.9943957535355260E+00
   0.9973420622604054E+00
   0.9932190014439692E+00
   0.1001306475159023E+01
   0.1003001631738665E+01
   0.1002183570273146E+01
   0.9947078549765545E+00
   0.9937965460206675E+00
   0.1004867864131654E+01
   0.1020077605098951E+01
   0.1005364552177168E+01
   0.9816998156166796E+00
   0.1004973026193859E+01
   0.1012382317768403E+01
   0.9871424332774622E+00
   0.9551513530735747E+00
   0.9865075674893458E+00
   0.9864532956562362E+00
   0.9918946877558293E+00
   0.9933508215187485E+00
   0.9954406188578953E+00
   0.1037336787920959E+01
   0.1033536795137675E+01
   0.1001443350754873E+01
   0.1001930497983545E+01
   0.9912478441227843E+00
   0.9910920431370530E+00
   0.9648489942085550E+00
   0.9933282465440169E+00
   0.1006058642043147E+01
   0.1001954036646197E+01
   0.9908735743141142E+00
   0.9740945051714391E+00
   0.9418802249648955E+00
   0.9819379627627207E+00
   0.9794803512129366E+00
   0.9704172067528279E+00
   0.9720478935323883E+00
   0.9557351788510117E+00
   0.9496731307306034E+00
   0.9528673638460692E+00
   0.1002659530453776E+01
   0.1002471619868252E+01
   0.1000509328420050E+01
   0.1001677327714590E+01
   0.9607931286984045E+00
   0.9491625686536135E+00
   0.9584503123190401E+00
   0.1001121206873675E+01
   0.1000496132519678E+01
   0.1001156632640855E+01
   0.9807376176047649E+00
   0.9806000769310289E+00
   0.9628476241066447E+00
SCALARS u double 1
LOOKUP_TABLE default
   0.0000000000000000E+00
   0.0000000000000000E+00
   0.0000000000000000E+00
   0.0000000000000000E+00
   0.0000000000000000E+00
   0.0000000000000000E+00
   0.0000000000000000E+00
   0.0000000000000000E+00
   0.0000000000000000E+00
   0.0000000000000000E+00
   0.0000000000000000E+00
   0.0000000000000000E+00
   0.0000000000000000E+00
   0.0000000000000000E+00
   0.0000000000000000E+00
   0.0000000000000000E+00
   0.0000000000000000E+00
   0.0000000000000000E+00
   0.0000000000000000E+00
   0.0000000000000000E+00
   0.0000000000000000E+00
   0.0000000000000000E+00
   0.0000000000000000E+00
   0.0000000000000000E+00
   0.0000000000000000E+00
   0.0000000000000000E+00
   0.0000000000000000E+00
   0.0000000000000000E+00
   0.0000000000000000E+00
   0.0000000000000000E+00
   0.0000000000000000E+00
   0.0000000000000000E+00
   0.0000000000000000E+00
   0.4950174091053575E+00
   0.5338221514232071E+00
   0.5183268687857534E+00
   0.4930651173901738E+00
   0.4847581343523772E+00
   0.4867666872518762E+00
   0.4890763653695753E+00
   0.4957848761330020E+00
   0.4898302001495830E+00
   0.4717388490636416E+00
   0.4454814201716420E+00
   0.4833907025896995E+00
   0.5098396910070722E+00
   0.4390712194592749E+00
   0.4949403931061883E+00
   0.5225330435166354E+00
   0.4962454606563445E+00
   0.5226154991277799E+00
   0.5038881558334499E+00
   0.5646883476265384E+00
   0.5247508937974080E+00
   0.4991465783720951E+00
   0.5730561941769485E+00
   0.5696050846742856E+00
   0.3737941391581154E+00
   0.3998657964536046E+00
   0.5599326666896183E+00
   0.5564587687524690E+00
   0.4942629093555579E+00
   0.4948660559581869E+00
   0.4925736153532605E+00
   0.4914269656988390E+00
   0.5162356913041606E+00
   0.5361798407019411E+00
   0.4947413080695675E+00
   0.4524111498005411E+00
   0.5128777224956189E+00
   0.5117941108074324E+00
   0.4783517298320284E+00
   0.4931696409052096E+00
   0.4603173726452582E+00
   0.5244892893619640E+00
   0.5297434264113253E+00
   0.5129578806106092E+00
   0.5328358269676117E+00
   0.5308941195481225E+00
   0.5309855648776095E+00
   0.5063656232845389E+00
   0.5282462054117111E+00
   0.5410312778557145E+00
   0.5361261362100259E+00
   0.5374105321746416E+00
   0.4965364833135317E+00
   0.4975340865049432E+00
   0.4963842603900555E+00
   0.4955220297523343E+00
   0.4904581549851304E+00
   0.4903044300336279E+00
   0.4862182744943194E+00
   0.4854052740494336E+00
   0.4932164446886939E+00
   0.4909833508428703E+00
   0.4832195014218752E+00
   0.4872624310602530E+00
   0.4880127477124614E+00
   0.4872447328577033E+00
   0.4882696640628517E+00
   0.4952597658776931E+00
   0.4900967254846330E+00
   0.4903999939658956E+00
   0.4944233098402323E+00
   0.4868003734877959E+00
   0.4892386457037402E+00
   0.4881393746484739E+00
   0.4878458491983123E+00
   0.4446866338730607E+00
   0.4700028829671726E+00
   0.4891999082375492E+00
   0.4885247735220442E+00
   0.4506533224730708E+00
   0.4687378545593133E+00
   0.4877010372556251E+00
   0.4868353646283099E+00
   0.4908994603201257E+00
   0.4793551613416358E+00
   0.4658071868145230E+00
   0.3792725252164529E+00
   0.4901596484281018E+00
   0.4486686732437662E+00
   0.4436137408644917E+00
   0.4845147263683257E+00
   0.4621822675865685E+00
   0.4665749615292946E+00
   0.4748140372811643E+00
   0.4894494218572005E+00
   0.5085558191471500E+00
   0.4315073946800526E+00
   0.4927349402042436E+00
   0.5318289350564814E+00
   0.4913399288373295E+00
   0.5207019968829431E+00
   0.5060964758872151E+00
   0.5688797341124738E+00
   0.5273993143079030E+00
   0.5015045264082334E+00
   0.5821790081293234E+00
   0.5689618096036002E+00
   0.3406394463437619E+00
   0.3789869387162241E+00
   0.5751958223023208E+00
   0.5666485566865620E+00
   0.5704108804484316E+00
   0.5291056391093698E+00
   0.5451902759651942E+00
   0.5718804338053386E+00
   0.5389079156943930E+00
   0.5475507498845712E+00
   0.5821713867499193E+00
   0.4925601797218085E+00
   0.5042157453892093E+00
   0.4961735455955474E+00
   0.5565208005299216E+00
   0.4758845189391275E+00
   0.4950268543773511E+00
   0.5498525400673649E+00
   0.5891202263771134E+00
   0.5841957647976044E+00
   0.5469097473491205E+00
   0.5805417605348316E+00
   0.5106251391022232E+00
   0.5030200420067700E+00
   0.5033624843660850E+00
   0.5676445874879927E+00
   0.5563943065053436E+00
   0.4947255949049137E+00
   0.5505243856151176E+00
   0.5510857277851644E+00
   0.5657350957173393E+00
   0.4920070067596566E+00
   0.4927299124886512E+00
   0.3865140496428272E+00
   0.3687754554423613E+00
   0.5574921724045920E+00
   0.5763755601767883E+00
   0.4194304355636869E+00
   0.5824843246872159E+00
   0.4265209595360125E+00
   0.5392799877723807E+00
   0.5012032825897889E+00
   0.5119513280562634E+00
   0.5049119193705041E+00
   0.5751974748339126E+00
   0.5876371235561800E+00
   0.5379907687390536E+00
   0.5677472449064958E+00
   0.5351248843410108E+00
   0.5338056322460081E+00
   0.5580313662940645E+00
   0.5512707836657096E+00
   0.4261852361576821E+00
   0.5273356186133674E+00
   0.5795712436735991E+00
   0.3318687220167884E+00
   0.4760283350745637E+00
   0.5446196185739395E+00
   0.4798331733327317E+00
   0.3005293499966896E+00
   0.5031051258732508E+00
   0.5017116062249822E+00
   0.5129033583250808E+00
   0.5414839692067921E+00
   0.3437603658675039E+00
   0.3397710790078189E+00
   0.3189928580296060E+00
   0.5065936453743304E+00
   0.5123484361471297E+00
   0.5330313004469661E+00
   0.5879309992351618E+00
   0.4644180591289815E+00
   0.3531270536155871E+00
SCALARS v double 1
LOOKUP_TABLE default
   0.0000000000000000E+00
   0.0000000000000000E+00
   0.0000000000000000E+00
   0.0000000000000000E+00
   0.0000000000000000E+00
   0.0000000000000000E+00
   0.0000000000000000E+00
   0.0000000000000000E+00
   0.0000000000000000E+00
   0.0000000000000000E+00
   0.0000000000000000E+00
   0.0000000000000000E+00
   0.0000000000000000E+00
   0.0000000000000000E+00
   0.0000000000000000E+00
   0.0000000000000000E+00
   0.0000000000000000E+00
   0.0000000000000000E+00
   0.0000000000000000E+00
   0.0000000000000000E+00
   0.0000000000000000E+00
   0.0000000000000000E+00
   0.0000000000000000E+00
   0.0000000000000000E+00
   0.0000000000000000E+00
   0.0000000000000000E+00
   0.0000000000000000E+00
   0.0000000000000000E+00
   0.0000000000000000E+00
   0.0000000000000000E+00
   0.0000000000000000E+00
   0.0000000000000000E+00
   0.0000000000000000E+00
   0.0000000000000000E+00
   0.0000000000000000E+00
   0.0000000000000000E+00
   0.0000000000000000E+00
   0.0000000000000000E+00
   0.0000000000000000E+00
   0.0000000000000000E+00
   0.0000000000000000E+00
   0.0000000000000000E+00
   0.0000000000000000E+00
   0.0000000000000000E+00
   0.0000000000000000E+00
   0.0000000000000000E+00
   0.0000000000000000E+00
   0.0000000000000000E+00
   0.0000000000000000E+00
   0.0000000000000000E+00
   0.0000000000000000E+00
   0.0000000000000000E+00
   0.0000000000000000E+00
   0.0000000000000000E+00
   0.0000000000000000E+00
   0.0000000000000000E+00
   0.0000000000000000E+00
   0.0000000000000000E+00
   0.0000000000000000E+00
   0.0000000000000000E+00
   0.0000000000000000E+00
   0.7969876460616085E-03
  -0.1329212587363305E-02
  -0.1332494591341889E-02
   0.0000000000000000E+00
   0.0000000000000000E+00
   0.0000000000000000E+00
   0.0000000000000000E+00
  -0.1922571261612588E-01
   0.4770758623183105E-03
   0.2183360899393570E-02
   0.1427332941386655E-01
  -0.6488287959752639E-02
  -0.7821665074641293E-02
  -0.1327728296096030E-01
   0.4914471896240379E-02
   0.6907024645380059E-03
   0.3434391283370401E-02
   0.1920841685491893E-02
   0.3147944809156092E-02
   0.1704773431353343E-02
  -0.7316233412904222E-02
  -0.7701851222108174E-04
   0.4468726355822007E-02
  -0.4387272403676829E-03
  -0.6383959110134374E-04
  -0.1963415154358343E-03
   0.8071271124354545E-03
   0.0000000000000000E+00
   0.0000000000000000E+00
   0.0000000000000000E+00
   0.0000000000000000E+00
   0.4256504658183938E-03
   0.1616314245788463E-02
  -0.1297543494489338E-02
  -0.1022708574926322E-02
  -0.2134204951464609E-02
  -0.1063958977345496E-02
  -0.8199355732454483E-03
  -0.7616537523157105E-03
   0.5202283020528098E-04
  -0.6243832680374512E-03
   0.7916641460057143E-03
  -0.1745242279556017E-02
   0.2747218759416786E-03
  -0.8938440895046137E-04
  -0.9424091540476971E-03
  -0.1100151196474360E-02
   0.0000000000000000E+00
   0.0000000000000000E+00
   0.0000000000000000E+00
  -0.1061765170206853E-02
  -0.7641127247419794E-02
   0.1860855260678348E-01
  -0.2834509220335829E-04
  -0.1383132428454775E-02
  -0.2035128496388732E-02
  -0.5666379889712735E-02
  -0.1585213149161758E-02
  -0.5947017760256818E-02
  -0.4160603430040529E-02
   0.1565615642437864E-02
   0.3329524659972887E-01
   0.3055347537018516E-04
  -0.2766883000904478E-02
   0.3566485899474419E-02
   0.3596197338109778E-03
   0.0000000000000000E+00
   0.0000000000000000E+00
   0.0000000000000000E+00
   0.0000000000000000E+00
   0.0000000000000000E+00
   0.0000000000000000E+00
   0.0000000000000000E+00
   0.0000000000000000E+00
   0.0000000000000000E+00
   0.0000000000000000E+00
   0.0000000000000000E+00
   0.0000000000000000E+00
   0.0000000000000000E+00
   0.0000000000000000E+00
   0.0000000000000000E+00
   0.0000000000000000E+00
   0.0000000000000000E+00
   0.5047028227595786E-02
   0.3230790689485820E-02
   0.8149129414253673E-02
   0.6168366474777161E-02
   0.1122928708692432E-01
   0.1429277570014301E-01
  -0.2038825709296900E-03
   0.5118218906871822E-02
   0.2914945023925256E-02
   0.3373608463673467E-02
   0.3728336121160360E-02
  -0.1465719859472139E-01
  -0.6159685822731817E-03
   0.6651623914938724E-02
   0.1542020437318571E-02
   0.1969642180884279E-02
   0.4266263449118475E-02
  -0.2790959093162717E-02
   0.1226877127117287E-02
   0.2819168521111792E-02
   0.1497440072882110E-02
   0.2575325317308390E-02
   0.2030636229191889E-02
   0.2118039729986875E-02
   0.8700409815362325E-02
  -0.3733396211322406E-02
   0.6241190720028363E-02
   0.2516121816528145E-04
  -0.3854054500861035E-03
  -0.1674678960410695E-01
  -0.4881977525764717E-02
  -0.4720001350048348E-02
   0.3445219802156603E-02
  -0.6135724665189298E-02
   0.9934286280082761E-04
  -0.3291372957347832E-01
  -0.3046197569614024E-02
   0.4722742535506480E-02
   0.9228317710938518E-03
   0.2112172836747794E-02
   0.4518740641811953E-02
   0.2720453407799227E-02
   0.3212575299877594E-02
   0.5200792119179204E-02
   0.1941835667516326E-02
   0.7315696646739120E-03
  -0.2555941513279943E-04
  -0.5374645574697718E-02
  -0.6959621106633983E-02
  -0.9443746049144420E-03
   0.1105267543687578E-02
  -0.2080551249011390E-02
  -0.3200035299337294E-02
  -0.2527827007551007E-02
  -0.4115192041485924E-02
  -0.7593949223689116E-02
  -0.1985687123421226E-02
   0.6240226380342322E-03
  -0.2239115820765154E-03
   0.1216944786365037E-02
  -0.3483967174245125E-02
   0.5229133482215837E-02
  -0.8487626337985985E-02
   0.2313316661161999E-04
  -0.3395409278710604E-03
   0.2542660931871179E-02
   0.1663456201070130E-02
   0.2021437507651511E-02
  -0.5620782819788906E-02
SCALARS w double 1
LOOKUP_TABLE default
   0.0000000000000000E+00
   0.0000000000000000E+00
   0.0000000000000000E+00
   0.0000000000000000E+00
   0.0000000000000000E+00
   0.0000000000000000E+00
   0.0000000000000000E+00
   0.0000000000000000E+00
   0.0000000000000000E+00
   0.0000000000000000E+00
   0.0000000000000000E+00
   0.0000000000000000E+00
   0.0000000000000000E+00
   0.0000000000000000E+00
   0.0000000000000000E+00
   0.0000000000000000E+00
   0.0000000000000000E+00
   0.0000000000000000E+00
   0.0000000000000000E+00
   0.0000000000000000E+00
   0.0000000000000000E+00
   0.0000000000000000E+00
   0.0000000000000000E+00
   0.0000000000000000E+00
   0.0000000000000000E+00
   0.0000000000000000E+00
   0.0000000000000000E+00
   0.0000000000000000E+00
   0.0000000000000000E+00
   0.0000000000000000E+00
   0.0000000000000000E+00
   0.0000000000000000E+00
   0.0000000000000000E+00
  -0.1007611662671478E+00
  -0.4249292641576727E-01
   0.7371878800153986E-03
   0.5725812910710663E-02
   0.5698443490304371E-03
   0.1609788737362803E-02
   0.3375070938305975E-02
   0.2371768936002441E-02
   0.4590588639034724E-03
   0.3518226617370147E-02
   0.4521817959585168E-01
   0.6522938060918068E-01
   0.8689528317556431E-03
  -0.2261153894064313E-01
   0.4316551818086827E-02
   0.1358734015157336E-01
   0.1039452319600478E-01
   0.4900548623844388E-01
   0.2437441749420022E-02
  -0.6509925170483509E-02
  -0.7012093878534871E-03
   0.3411348118009250E-03
   0.3904109605916132E-02
  -0.3893251002183617E-01
   0.1798168118059134E-01
   0.1119637836335784E-01
   0.3403773478350640E-01
   0.8438807025947992E-02
   0.4937410417626119E-02
   0.4970463487349188E-02
   0.4871609712809550E-02
   0.6027254113977941E-02
   0.2599222996013887E-02
  -0.4144429690298701E-01
  -0.9954260380707458E-01
  -0.1121678257335451E+00
   0.5070924416814979E-02
   0.4230775297215819E-02
  -0.1004732187244293E+00
  -0.9895250413651605E-01
  -0.9875450345052864E-01
  -0.9462506539334617E-01
  -0.6807132514703472E-01
   0.5154957728359258E-02
  -0.1935331040194505E-01
  -0.1575800701573539E-01
  -0.6002876661398282E-02
   0.6819103514075505E-02
  -0.8010045020788113E-01
  -0.2781092950974460E-01
  -0.8096455342184646E-01
  -0.5873276335543681E-01
   0.3083622568670990E-02
   0.2685139189397722E-02
   0.2640431319172442E-02
   0.3450185539952847E-02
   0.4007074288405465E-02
   0.1201171210032571E-02
  -0.1438964751649895E-03
   0.2039892419090949E-02
   0.4895681811717561E-02
   0.3857384759904053E-02
   0.1114233241673917E-02
   0.1182713530464331E-02
   0.1465396430964536E-02
  -0.1653032672084171E-04
   0.8994001650668093E-04
   0.4386667817868289E-02
   0.2715726479074163E-02
   0.2322744844992513E-02
   0.5010598979050183E-02
   0.1071626576203412E-02
   0.2712225270751033E-02
   0.2013954296080503E-02
   0.2874451879237373E-04
   0.8374613503926856E-01
   0.2793869664681916E-02
  -0.8346650704853079E-03
  -0.1492920281646352E-03
   0.1409540830601979E+00
   0.1239332931226406E+00
  -0.1219092890914934E-02
  -0.4381936984486995E-02
  -0.3042988291954731E-03
  -0.6512248437185745E-02
  -0.1949571919918635E-02
   0.1557630957937157E+00
   0.7489978912798138E-01
   0.2550175047676123E-01
   0.1656445106687273E+00