# vtk DataFile Version 2.0
FUN3D:global_image_vtk
ASCII
DATASET UNSTRUCTURED_GRID
POINTS 213 double
    0.0000000000000000E+00    0.2500000000000000E+01    0.0000000000000000E+00
    0.1250000000000000E+01    0.2500000000000000E+01    0.0000000000000000E+00
    0.2500000000000000E+01    0.2500000000000000E+01    0.0000000000000000E+00
    0.3750000000000000E+01    0.2500000000000000E+01    0.0000000000000000E+00
    0.5000000000000000E+01    0.2500000000000000E+01    0.0000000000000000E+00
    0.5000000000000000E+01    0.1250000000000000E+01    0.0000000000000000E+00
    0.5000000000000000E+01    0.0000000000000000E+00    0.0000000000000000E+00
    0.5000000000000000E+01   -0.1250000000000000E+01    0.0000000000000000E+00
    0.5000000000000000E+01   -0.2500000000000000E+01    0.0000000000000000E+00
    0.3750000000000000E+01   -0.2500000000000000E+01    0.0000000000000000E+00
    0.2500000000000000E+01   -0.2500000000000000E+01    0.0000000000000000E+00
    0.1250000000000000E+01   -0.2500000000000000E+01    0.0000000000000000E+00
    0.0000000000000000E+00   -0.2500000000000000E+01    0.0000000000000000E+00
    0.0000000000000000E+00   -0.1250000000000000E+01    0.0000000000000000E+00
    0.0000000000000000E+00    0.0000000000000000E+00    0.0000000000000000E+00
    0.0000000000000000E+00    0.1250000000000000E+01    0.0000000000000000E+00
    0.9058375365086910E+00    0.1578994732800803E+01    0.0000000000000000E+00
    0.3982050490726493E+01   -0.1583989954232354E+01    0.0000000000000000E+00
    0.4033849428301197E+01    0.1453322699199022E+01    0.0000000000000000E+00
    0.1040505887381675E+01   -0.1479596339503735E+01    0.0000000000000000E+00
    0.1099454400140349E+01   -0.3227322616384110E+00    0.0000000000000000E+00
    0.7354504170366591E+00    0.6593508822075582E+00    0.0000000000000000E+00
    0.1622302608453282E+01    0.8256214013940779E+00    0.0000000000000000E+00
    0.2145871574390382E+01   -0.1650070333782557E+01    0.0000000000000000E+00
    0.4086422318222992E+01   -0.4612828702537229E+00    0.0000000000000000E+00
    0.2979540174134984E+01   -0.8579242121530853E+00    0.0000000000000000E+00
    0.3045064261640043E+01   -0.1836846154397680E+01    0.0000000000000000E+00
    0.3428197553792836E+01    0.3508002863614053E+00    0.0000000000000000E+00
    0.4309693860063405E+01    0.5185680230613409E+00    0.0000000000000000E+00
    0.1827272193562204E+01    0.1738996113203182E+01    0.0000000000000000E+00
    0.2808563282768077E+01    0.1325493893339706E+01    0.0000000000000000E+00
    0.1895995683864404E+01   -0.8731419609589618E+00    0.0000000000000000E+00
    0.2273179336307740E+01    0.4906150219227333E-01    0.0000000000000000E+00
    0.5000000000000000E+01    0.2500000000000000E+01    0.1250000000000000E+01
    0.5000000000000000E+01    0.2500000000000000E+01    0.2500000000000000E+01
    0.5000000000000000E+01    0.2500000000000000E+01    0.3750000000000000E+01
    0.5000000000000000E+01    0.2500000000000000E+01    0.5000000000000000E+01
    0.3750000000000000E+01    0.2500000000000000E+01    0.5000000000000000E+01
    0.2500000000000000E+01    0.2500000000000000E+01    0.5000000000000000E+01
    0.1250000000000000E+01    0.2500000000000000E+01    0.5000000000000000E+01
    0.0000000000000000E+00    0.2500000000000000E+01    0.5000000000000000E+01
    0.0000000000000000E+00    0.2500000000000000E+01    0.3750000000000000E+01
    0.0000000000000000E+00    0.2500000000000000E+01    0.2500000000000000E+01
    0.0000000000000000E+00    0.2500000000000000E+01    0.1250000000000000E+01
    0.9631080833812172E+00    0.2500000000000000E+01    0.9613285771248219E+00
    0.3981732467264904E+01    0.2500000000000000E+01    0.4069753913607991E+01
    0.4035525118777670E+01    0.2500000000000000E+01    0.1012015867579395E+01
    0.9641717640894248E+00    0.2500000000000000E+01    0.3972455192261839E+01
    0.1547743040396780E+01    0.2500000000000000E+01    0.2928177746738678E+01
    0.6985170616192014E+00    0.2500000000000000E+01    0.3068281976055466E+01
    0.8931277594515110E+00    0.2500000000000000E+01    0.2052465503257726E+01
    0.2183293750162785E+01    0.2500000000000000E+01    0.3959073795658649E+01
    0.3855333506014705E+01    0.2500000000000000E+01    0.2931218481500625E+01
    0.3152495579421047E+01    0.2500000000000000E+01    0.3635850502723324E+01
    0.3103247580566054E+01    0.2500000000000000E+01    0.4331682712472464E+01
    0.3266837581688852E+01    0.2500000000000000E+01    0.1886092433583972E+01
    0.4231539241296245E+01    0.2500000000000000E+01    0.1915865356532799E+01
    0.1909741006522088E+01    0.2500000000000000E+01    0.7170024419130505E+00
    0.2880784107213163E+01    0.2500000000000000E+01    0.9046598906449592E+00
    0.2014316024535771E+01    0.2500000000000000E+01    0.1762464314805728E+01
    0.2670003247036656E+01    0.2500000000000000E+01    0.2850479545835163E+01
    0.5000000000000000E+01    0.1250000000000000E+01    0.5000000000000000E+01
    0.5000000000000000E+01    0.0000000000000000E+00    0.5000000000000000E+01
    0.5000000000000000E+01   -0.1250000000000000E+01    0.5000000000000000E+01
    0.5000000000000000E+01   -0.2500000000000000E+01    0.5000000000000000E+01
    0.5000000000000000E+01   -0.2500000000000000E+01    0.3750000000000000E+01
    0.5000000000000000E+01   -0.2500000000000000E+01    0.2500000000000000E+01
    0.5000000000000000E+01   -0.2500000000000000E+01    0.1250000000000000E+01
    0.5000000000000000E+01    0.1578994732800803E+01    0.9058375365086910E+00
    0.5000000000000000E+01   -0.1583989954232354E+01    0.3982050490726493E+01
    0.5000000000000000E+01    0.1453322699199022E+01    0.4033849428301197E+01
    0.5000000000000000E+01   -0.1479596339503735E+01    0.1040505887381675E+01
    0.5000000000000000E+01   -0.3227322616384110E+00    0.1099454400140349E+01
    0.5000000000000000E+01    0.6593508822075582E+00    0.7354504170366591E+00
    0.5000000000000000E+01    0.8256214013940779E+00    0.1622302608453282E+01
    0.5000000000000000E+01   -0.1650070333782557E+01    0.2145871574390382E+01
    0.5000000000000000E+01   -0.4612828702537229E+00    0.4086422318222992E+01
    0.5000000000000000E+01   -0.8579242121530853E+00    0.2979540174134984E+01
    0.5000000000000000E+01   -0.1836846154397680E+01    0.3045064261640043E+01
    0.5000000000000000E+01    0.3508002863614053E+00    0.3428197553792836E+01
    0.5000000000000000E+01    0.5185680230613409E+00    0.4309693860063405E+01
    0.5000000000000000E+01    0.1738996113203182E+01    0.1827272193562204E+01
    0.5000000000000000E+01    0.1325493893339706E+01    0.2808563282768077E+01
    0.5000000000000000E+01   -0.8731419609589618E+00    0.1895995683864404E+01
    0.5000000000000000E+01    0.4906150219227333E-01    0.2273179336307740E+01
    0.0000000000000000E+00    0.1250000000000000E+01    0.5000000000000000E+01
    0.0000000000000000E+00    0.0000000000000000E+00    0.5000000000000000E+01
    0.0000000000000000E+00   -0.1250000000000000E+01    0.5000000000000000E+01
    0.0000000000000000E+00   -0.2500000000000000E+01    0.5000000000000000E+01
    0.1250000000000000E+01   -0.2500000000000000E+01    0.5000000000000000E+01
    0.2500000000000000E+01   -0.2500000000000000E+01    0.5000000000000000E+01
    0.3750000000000000E+01   -0.2500000000000000E+01    0.5000000000000000E+01
    0.4042003247744892E+01    0.1558308132739014E+01    0.5000000000000000E+01
    0.9304122287900499E+00   -0.1548001304379777E+01    0.5000000000000000E+01
    0.1037243024609388E+01    0.1462892710085612E+01    0.5000000000000000E+01
    0.3946240828834967E+01   -0.1445243809615570E+01    0.5000000000000000E+01
    0.4092527262848217E+01   -0.3455338993778935E+00    0.5000000000000000E+01
    0.4293103109154542E+01    0.6277660831404320E+00    0.5000000000000000E+01
    0.3241512314643519E+01    0.7429886854239611E+00    0.5000000000000000E+01
    0.2844289952419609E+01   -0.1588117879734118E+01    0.5000000000000000E+01
    0.7159905765450471E+00   -0.6002320124191652E+00    0.5000000000000000E+01
    0.1754341919796891E+01   -0.7398147869923652E+00    0.5000000000000000E+01
    0.1870296826774691E+01   -0.1788622905643739E+01    0.5000000000000000E+01
    0.9220614901912976E+00    0.3083720183248586E+00    0.5000000000000000E+01
    0.3101523624086016E+01    0.1777901774806180E+01    0.5000000000000000E+01
    0.2192512063922564E+01    0.1576861561598471E+01    0.5000000000000000E+01
    0.2024793420196460E+01    0.4773861992750707E+00    0.5000000000000000E+01
    0.2990627757741975E+01   -0.4878110785814084E+00    0.5000000000000000E+01
    0.0000000000000000E+00   -0.2500000000000000E+01    0.1250000000000000E+01
    0.0000000000000000E+00   -0.2500000000000000E+01    0.2500000000000000E+01
    0.0000000000000000E+00   -0.2500000000000000E+01    0.3750000000000000E+01
    0.0000000000000000E+00    0.1558308132739014E+01    0.4042003247744892E+01
    0.0000000000000000E+00   -0.1548001304379777E+01    0.9304122287900499E+00
    0.0000000000000000E+00    0.1462892710085612E+01    0.1037243024609388E+01
    0.0000000000000000E+00   -0.1445243809615570E+01    0.3946240828834967E+01
    0.0000000000000000E+00   -0.3455338993778935E+00    0.4092527262848217E+01
    0.0000000000000000E+00    0.6277660831404320E+00    0.4293103109154542E+01
    0.0000000000000000E+00    0.7429886854239611E+00    0.3241512314643519E+01
    0.0000000000000000E+00   -0.1588117879734118E+01    0.2844289952419609E+01
    0.0000000000000000E+00   -0.6002320124191652E+00    0.7159905765450471E+00
    0.0000000000000000E+00   -0.7398147869923652E+00    0.1754341919796891E+01
    0.0000000000000000E+00   -0.1788622905643739E+01    0.1870296826774691E+01
    0.0000000000000000E+00    0.3083720183248586E+00    0.9220614901912976E+00
    0.0000000000000000E+00    0.1777901774806180E+01    0.3101523624086016E+01
    0.0000000000000000E+00    0.1576861561598471E+01    0.2192512063922564E+01
[...]
POINT_DATA 213
SCALARS rho double 1
LOOKUP_TABLE default
   0.1344271443568301E+01
   0.9569758887953966E+00
   0.9462964185262731E+00
   0.9418612714453286E+00
   0.8437304895354418E+00
   0.7738004316327992E+00
   0.7629818886430096E+00
   0.7664577910793531E+00
   0.8307874019713428E+00
   0.9352972534773782E+00
   0.9342219813152157E+00
   0.9617195273781053E+00
   0.1449457449007557E+01
   0.1494090637371752E+01
   0.1644667267834062E+01
   0.1425832041732899E+01
   0.1009014434023768E+01
   0.9508810840449713E+00
   0.9436508487485156E+00
   0.9581561031305059E+00
   0.9415852451781274E+00
   0.1036377239551519E+01
   0.9256161076419399E+00
   0.9322349844914408E+00
   0.9537479563917395E+00
   0.9518769552194108E+00
   0.9348583098016524E+00
   0.9564028395476272E+00
   0.9376098384723630E+00
   0.9300661508535928E+00
   0.9445157490559554E+00
   0.8863506505168343E+00
   0.9423579958077954E+00
   0.9635003072898923E+00
   0.1008299039469086E+01
   0.1006735291872699E+01
   0.1001964617543605E+01
   0.1003219581424458E+01
   0.1004132053848022E+01
   0.1005228602839622E+01
   0.1004260408175201E+01
   0.1008308189847528E+01
   0.1023893137651180E+01
   0.1063553955836089E+01
   0.1019182512588708E+01
   0.1001780766378775E+01
   0.9643309930459854E+00
   0.1005283708865601E+01
   0.1000721163214489E+01
   0.1008742083647007E+01
   0.1008078083559385E+01
   0.1002349807006465E+01
   0.9979986848242255E+00
   0.1000583560901252E+01
   0.1001620123557007E+01
   0.9826893071372544E+00
   0.9842439639757293E+00
   0.9833314025134517E+00
   0.9788207403944853E+00
   0.9902638159697678E+00
   0.9934561553017438E+00
   0.1002011751606708E+01
   0.1002134465621809E+01
   0.1002276326485392E+01
   0.1001794758303755E+01
   0.1009778638895753E+01
   0.1006429109118117E+01
   0.9558786956199878E+00
   0.9249398402843134E+00
   0.1007036755528605E+01
   0.1004504925174602E+01
   0.9143642068098111E+00
   0.9089667853116750E+00
   0.8751688891158436E+00
   0.9767271882077954E+00
   0.1000452621190903E+01
   0.1005831087478767E+01
   0.1012882803352568E+01
   0.1011618951366566E+01
   0.1010438648692843E+01
   0.1005468280908051E+01
   0.9907612677027789E+00
   0.1005140325720547E+01
   0.9860567245133232E+00
   0.1005609737685639E+01
   0.1004248005636614E+01
   0.1002888437632629E+01
   0.1003345420389439E+01
   0.1003992731810145E+01
   0.1005101716083340E+01
   0.1003211645071786E+01
   0.1002663159910116E+01
   0.1002586231342113E+01
   0.1004060870871097E+01
   0.1004320345959900E+01
   0.1001641920310469E+01
   0.1002273115919427E+01
   0.1002543475525052E+01
   0.1003469520728794E+01
   0.1003372640196789E+01
   0.1003232229979189E+01
   0.1004423863369929E+01
   0.1004313070760813E+01
   0.1003659849337227E+01
   0.1003723103852389E+01
   0.1004329726341289E+01
   0.1004465021774973E+01
   0.1003623375254706E+01
   0.1064422800758375E+01
   0.1028473621183173E+01
   0.1009586657206545E+01
   0.1006638837366367E+01
   0.1163935521216198E+01
   0.1086087969587130E+01
   0.1007893419157976E+01
   0.1007245533197546E+01
   0.1006798074045641E+01
   0.1013018286709786E+01
   0.1019384609319675E+01
   0.1235203667702628E+01
   0.1032529466629096E+01
   0.1046681191266399E+01
   0.1200953640564932E+01
   0.1014718915849892E+01
   0.1032291152882578E+01
   0.1028095236299331E+01
   0.1014628639584865E+01
   0.1029216892943175E+01
   0.1001994816321793E+01
   0.9606929188493920E+00
   0.1006852582700642E+01
   0.1001327193225557E+01
   0.1010821905245547E+01
   0.1012246098746001E+01
   0.1000946006843887E+01
   0.9979121234251443E+00
   0.9980632372157070E+00
   0.1001184143306888E+01
   0.9841362011731178E+00
   0.9814879614651666E+00
   0.9648483319635656E+00
   0.9680877123045226E+00
   0.9914124471556529E+00
   0.9910858388146537E+00
   0.9925545095971712E+00
   0.1001727533815733E+01
   0.9993409402147195E+00
   0.9941410835218445E+00
   0.1007038753618702E+01
   0.1022539494030143E+01
   0.1001088098382464E+01
   0.1008798496128821E+01
   0.1004773845981868E+01
   0.1009050237301446E+01
   0.9966470332086221E+00
   0.1004988556956676E+01
   0.1003325535088305E+01
   0.9949431085267955E+00
   0.9832680781035150E+00
   0.9943957454924711E+00
   0.9973420656177927E+00
   0.9932190085461037E+00
   0.1001306487063206E+01
   0.1003001636860457E+01
   0.1002183579559933E+01
   0.9947078545434006E+00
   0.9937965521256724E+00
   0.1004867865409820E+01
   0.1020077607350147E+01
   0.1005364552305036E+01
   0.9816998151831563E+00
   0.1004973031140980E+01
   0.1012382323281319E+01
   0.9871424285949765E+00
   0.9551513528727805E+00
   0.9865075699143763E+00
   0.9864532949016935E+00
   0.9918946934444303E+00
   0.9933508196563305E+00
   0.9954406182205300E+00
   0.1037336789485358E+01
   0.1033536797386591E+01
   0.1001443320760174E+01
   0.1001930499685526E+01
   0.9912478516192197E+00
   0.9910920509356659E+00
   0.9648489987438525E+00
   0.9933282605013732E+00
   0.1006058638658899E+01
   0.1001954027118163E+01
   0.9908735804114462E+00
   0.9740945209250609E+00
   0.9418802132939893E+00
   0.9819379686868244E+00
   0.9794803560029968E+00
   0.9704172054302121E+00
   0.9720478942008203E+00
   0.9557351699343940E+00
   0.9496731206607113E+00
   0.9528673561697922E+00
   0.1002659533932849E+01
   0.1002471631845233E+01
   0.1000509329229305E+01
   0.1001677321753593E+01
   0.9607931426106658E+00
   0.9491625495327483E+00
   0.9584503055301558E+00
   0.1001121207674141E+01
   0.1000496140500301E+01
   0.1001156644164884E+01
   0.9807376183108587E+00
   0.9806000806354708E+00
   0.9628476100507110E+00
SCALARS u double 1
LOOKUP_TABLE default
   0.0000000000000000E+00
   0.0000000000000000E+00
   0.0000000000000000E+00
   0.0000000000000000E+00
   0.0000000000000000E+00
   0.0000000000000000E+00
   0.0000000000000000E+00
   0.0000000000000000E+00
   0.0000000000000000E+00
   0.0000000000000000E+00
   0.0000000000000000E+00
   0.0000000000000000E+00
   0.0000000000000000E+00
   0.0000000000000000E+00
   0.0000000000000000E+00
   0.0000000000000000E+00
   0.0000000000000000E+00
   0.0000000000000000E+00
   0.0000000000000000E+00
   0.0000000000000000E+00
   0.0000000000000000E+00
   0.0000000000000000E+00
   0.0000000000000000E+00
   0.0000000000000000E+00
   0.0000000000000000E+00
   0.0000000000000000E+00
   0.0000000000000000E+00
   0.0000000000000000E+00
   0.0000000000000000E+00
   0.0000000000000000E+00
   0.0000000000000000E+00
   0.0000000000000000E+00
   0.0000000000000000E+00
   0.4950176841038947E+00
   0.5338221298904474E+00
   0.5183269245815679E+00
   0.4930649880194717E+00
   0.4847578720783312E+00
   0.4867666425612225E+00
   0.4890763585164423E+00
   0.4957848881431967E+00
   0.4898301885514874E+00
   0.4717388496872719E+00
   0.4454814156911407E+00
   0.4833907044258241E+00
   0.5098397462498121E+00
   0.4390712702973002E+00
   0.4949403966067967E+00
   0.5225330362590143E+00
   0.4962454547040228E+00
   0.5226154964012636E+00
   0.5038881743940905E+00
   0.5646883607729715E+00
   0.5247509156647264E+00
   0.4991466120399644E+00
   0.5730561900275167E+00
   0.5696051096725205E+00
   0.3737941447172406E+00
   0.3998658124802161E+00
   0.5599326585089865E+00
   0.5564587629708159E+00
   0.4942627332845524E+00
   0.4948659465939513E+00
   0.4925735874034534E+00
   0.4914269544165349E+00
   0.5162356849847846E+00
   0.5361798303614784E+00
   0.4947413360559612E+00
   0.4524112210526900E+00
   0.5128777324769740E+00
   0.5117942039652913E+00
   0.4783517512325736E+00
   0.4931696663274117E+00
   0.4603173603082290E+00
   0.5244892722841670E+00
   0.5297434246863901E+00
   0.5129579299817992E+00
   0.5328358317631072E+00
   0.5308941035369258E+00
   0.5309856168417690E+00
   0.5063656734631971E+00
   0.5282461956051738E+00
   0.5410312728663162E+00
   0.5361261482090385E+00
   0.5374105275369394E+00
   0.4965364819555796E+00
   0.4975340904747424E+00
   0.4963842645329478E+00
   0.4955220268444134E+00
   0.4904581832540306E+00
   0.4903044386617981E+00
   0.4862182765341899E+00
   0.4854049562225409E+00
   0.4932164389251727E+00
   0.4909833313742553E+00
   0.4832194697483245E+00
   0.4872622777925621E+00
   0.4880124910262750E+00
   0.4872445932823803E+00
   0.4882696670807559E+00
   0.4952597557629663E+00
   0.4900967169368798E+00
   0.4904000092157944E+00
   0.4944232926778157E+00
   0.4868002482296858E+00
   0.4892385985450070E+00
   0.4881393371269517E+00
   0.4878457830188271E+00
   0.4446866581880412E+00
   0.4700028782397626E+00
   0.4891999057827955E+00
   0.4885247845171689E+00
   0.4506533049986239E+00
   0.4687378568316706E+00
   0.4877010458208973E+00
   0.4868353684879512E+00
   0.4908994717277959E+00
   0.4793551579131007E+00
   0.4658071749156053E+00
   0.3792725238051167E+00
   0.4901596530658639E+00
   0.4486686693174841E+00
   0.4436137399567037E+00
   0.4845147243215485E+00
   0.4621822648671153E+00
   0.4665749537251830E+00
   0.4748140301830140E+00
   0.4894494214193161E+00
   0.5085556973201727E+00
   0.4315073874479263E+00
   0.4927349362199495E+00
   0.5318289233681854E+00
   0.4913399197138265E+00
   0.5207019993325099E+00
   0.5060964599961808E+00
   0.5688797394429945E+00
   0.5273992817546762E+00
   0.5015044841920150E+00
   0.5821790086665847E+00
   0.5689618252493698E+00
   0.3406394442972734E+00
   0.3789869412759557E+00
   0.5751958205859790E+00
   0.5666485492445107E+00
   0.5704108782332989E+00
   0.5291056375908925E+00
   0.5451902710624333E+00
   0.5718804314337483E+00
   0.5389079126120104E+00
   0.5475507505284148E+00
   0.5821713867543994E+00
   0.4925601785313520E+00
   0.5042157546933675E+00
   0.4961735437175851E+00
   0.5565207961242151E+00
   0.4758845205467250E+00
   0.4950268384538229E+00
   0.5498525442783367E+00
   0.5891202296213910E+00
   0.5841957608119214E+00
   0.5469097663969407E+00
   0.5805417617140077E+00
   0.5106251438802338E+00
   0.5030200513786178E+00
   0.5033624680394165E+00
   0.5676446095492803E+00
   0.5563943082163018E+00
   0.4947255974293395E+00
   0.5505243827664081E+00
   0.5510857280414146E+00
   0.5657350949266902E+00
   0.4920070018827750E+00
   0.4927299097457375E+00
   0.3865140570134102E+00
   0.3687754534094465E+00
   0.5574921717457443E+00
   0.5763755544079289E+00
   0.4194304389239456E+00
   0.5824843239681579E+00
   0.4265209607303305E+00
   0.5392799843260578E+00
   0.5012032758853948E+00
   0.5119513208233910E+00
   0.5049119464221598E+00
   0.5751974973377068E+00
   0.5876371359725603E+00
   0.5379907806932649E+00
   0.5677472539427656E+00
   0.5351248665592587E+00
   0.5338056378754563E+00
   0.5580313797591320E+00
   0.5512707861438003E+00
   0.4261852755968574E+00
   0.5273356176922632E+00
   0.5795712529648818E+00
   0.3318687134867548E+00
   0.4760283324686123E+00
   0.5446196255457394E+00
   0.4798331901344743E+00
   0.3005293509057648E+00
   0.5031051138636650E+00
   0.5017115978402422E+00
   0.5129033210939545E+00
   0.5414840107473907E+00
   0.3437603855157280E+00
   0.3397710719484759E+00
   0.3189928571511974E+00
   0.5065936052387001E+00
   0.5123483779787995E+00
   0.5330313518662225E+00
   0.5879309999681329E+00
   0.4644180533112185E+00
   0.3531270510691170E+00
SCALARS v double 1
LOOKUP_TABLE default
   0.0000000000000000E+00
   0.0000000000000000E+00
   0.0000000000000000E+00
   0.0000000000000000E+00
   0.0000000000000000E+00
   0.0000000000000000E+00
   0.0000000000000000E+00
   0.0000000000000000E+00
   0.0000000000000000E+00
   0.0000000000000000E+00
   0.0000000000000000E+00
   0.0000000000000000E+00
   0.0000000000000000E+00
   0.0000000000000000E+00
   0.0000000000000000E+00
   0.0000000000000000E+00
   0.0000000000000000E+00
   0.0000000000000000E+00
   0.0000000000000000E+00
   0.0000000000000000E+00
   0.0000000000000000E+00
   0.0000000000000000E+00
   0.0000000000000000E+00
   0.0000000000000000E+00
   0.0000000000000000E+00
   0.0000000000000000E+00
   0.0000000000000000E+00
   0.0000000000000000E+00
   0.0000000000000000E+00
   0.0000000000000000E+00
   0.0000000000000000E+00
   0.0000000000000000E+00
   0.0000000000000000E+00
   0.0000000000000000E+00
   0.0000000000000000E+00
   0.0000000000000000E+00
   0.0000000000000000E+00
   0.0000000000000000E+00
   0.0000000000000000E+00
   0.0000000000000000E+00
   0.0000000000000000E+00
   0.0000000000000000E+00
   0.0000000000000000E+00
   0.0000000000000000E+00
   0.0000000000000000E+00
   0.0000000000000000E+00
   0.0000000000000000E+00
   0.0000000000000000E+00
   0.0000000000000000E+00
   0.0000000000000000E+00
   0.0000000000000000E+00
   0.0000000000000000E+00
   0.0000000000000000E+00
   0.0000000000000000E+00
   0.0000000000000000E+00
   0.0000000000000000E+00
   0.0000000000000000E+00
   0.0000000000000000E+00
   0.0000000000000000E+00
   0.0000000000000000E+00
   0.0000000000000000E+00
   0.7970254504442901E-03
  -0.1329294685003792E-02
  -0.1332592746046529E-02
   0.0000000000000000E+00
   0.0000000000000000E+00
   0.0000000000000000E+00
   0.0000000000000000E+00
  -0.1922562566428844E-01
   0.4770618312404961E-03
   0.2183360181760361E-02
   0.1427333015572502E-01
  -0.6488282005248674E-02
  -0.7821623121608046E-02
  -0.1327725055682773E-01
   0.4914481820533366E-02
   0.6907122209789262E-03
   0.3434418474515207E-02
   0.1920847405628417E-02
   0.3147960270561280E-02
   0.1704778388379185E-02
  -0.7316187308911650E-02
  -0.7701898714954349E-04
   0.4468738078655304E-02
  -0.4387155926923450E-03
  -0.6383742026609907E-04
  -0.1963394574702495E-03
   0.8071267915731202E-03
   0.0000000000000000E+00
   0.0000000000000000E+00
   0.0000000000000000E+00
   0.0000000000000000E+00
   0.4257020121029234E-03
   0.1616304628955620E-02
  -0.1297550938025094E-02
  -0.1022774969763384E-02
  -0.2134342404401555E-02
  -0.1064012662886655E-02
  -0.8200064297646297E-03
  -0.7617033148785419E-03
   0.5202258690140365E-04
  -0.6244091883862948E-03
   0.7916469205031324E-03
  -0.1745238500866335E-02
   0.2747128592248074E-03
  -0.8939747455010869E-04
  -0.9424310073179897E-03
  -0.1100227530923680E-02
   0.0000000000000000E+00
   0.0000000000000000E+00
   0.0000000000000000E+00
  -0.1061759103753614E-02
  -0.7641128586664072E-02
   0.1860854741409353E-01
  -0.2834553333451482E-04
  -0.1383129137476869E-02
  -0.2035122953653152E-02
  -0.5666383167596178E-02
  -0.1585210179198406E-02
  -0.5947016303000059E-02
  -0.4160601785633421E-02
   0.1565614845459340E-02
   0.3329524815929397E-01
   0.3055140232848755E-04
  -0.2766884935097888E-02
   0.3566484673196255E-02
   0.3596189585418092E-03
   0.0000000000000000E+00
   0.0000000000000000E+00
   0.0000000000000000E+00
   0.0000000000000000E+00
   0.0000000000000000E+00
   0.0000000000000000E+00
   0.0000000000000000E+00
   0.0000000000000000E+00
   0.0000000000000000E+00
   0.0000000000000000E+00
   0.0000000000000000E+00
   0.0000000000000000E+00
   0.0000000000000000E+00
   0.0000000000000000E+00
   0.0000000000000000E+00
   0.0000000000000000E+00
   0.0000000000000000E+00
   0.5047032587850209E-02
   0.3230791965903876E-02
   0.8149134256870258E-02
   0.6168367011740159E-02
   0.1122928632546161E-01
   0.1429277498431674E-01
  -0.2038826243031633E-03
   0.5118221815279531E-02
   0.2914950529891663E-02
   0.3373611798411099E-02
   0.3728336416118365E-02
  -0.1465719855110246E-01
  -0.6159699777888424E-03
   0.6651630339479382E-02
   0.1542014291735273E-02
   0.1969646540818203E-02
   0.4266273543381957E-02
  -0.2790960925255531E-02
   0.1226887076548444E-02
   0.2819172479899261E-02
   0.1497449155141047E-02
   0.2575339078360684E-02
   0.2030646472550643E-02
   0.2118046063876059E-02
   0.8700410514418553E-02
  -0.3733396930839308E-02
   0.6241189128395172E-02
   0.2516489423119880E-04
  -0.3854044598486964E-03
  -0.1674678999905170E-01
  -0.4881976856822400E-02
  -0.4720000756043603E-02
   0.3445223076316836E-02
  -0.6135724022209112E-02
   0.9934525132901369E-04
  -0.3291372899022815E-01
  -0.3046196623741346E-02
   0.4722743279591475E-02
   0.9228368080765297E-03
   0.2112175225557365E-02
   0.4518755722455935E-02
   0.2720465296534750E-02
   0.3212576510688516E-02
   0.5200804246566882E-02
   0.1941838985554145E-02
   0.7315897760077119E-03
  -0.2555236187947186E-04
  -0.5374632774858601E-02
  -0.6959591058123710E-02
  -0.9443815799348141E-03
   0.1105268444039436E-02
  -0.2080554100003477E-02
  -0.3200035961542359E-02
  -0.2527833349921535E-02
  -0.4115193582964046E-02
  -0.7593954941632459E-02
  -0.1985686380349065E-02
   0.6240402959358066E-03
  -0.2239081547846971E-03
   0.1216949794048065E-02
  -0.3483958277609774E-02
   0.5229139949085170E-02
  -0.8487626088016927E-02
   0.2315171898459964E-04
  -0.3395192741728867E-03
   0.2542663551313627E-02
   0.1663457707369401E-02
   0.2021438717113187E-02
  -0.5620783952655360E-02
SCALARS w double 1
LOOKUP_TABLE default
   0.0000000000000000E+00
   0.0000000000000000E+00
   0.0000000000000000E+00
   0.0000000000000000E+00
   0.0000000000000000E+00
   0.0000000000000000E+00
   0.0000000000000000E+00
   0.0000000000000000E+00
   0.0000000000000000E+00
   0.0000000000000000E+00
   0.0000000000000000E+00
   0.0000000000000000E+00
   0.0000000000000000E+00
   0.0000000000000000E+00
   0.0000000000000000E+00
   0.0000000000000000E+00
   0.0000000000000000E+00
   0.0000000000000000E+00
   0.0000000000000000E+00
   0.0000000000000000E+00
   0.0000000000000000E+00
   0.0000000000000000E+00
   0.0000000000000000E+00
   0.0000000000000000E+00
   0.0000000000000000E+00
   0.0000000000000000E+00
   0.0000000000000000E+00
   0.0000000000000000E+00
   0.0000000000000000E+00
   0.0000000000000000E+00
   0.0000000000000000E+00
   0.0000000000000000E+00
   0.0000000000000000E+00
  -0.1007612290957792E+00
  -0.4249297152745183E-01
   0.7371985699505417E-03
   0.5725799924803369E-02
   0.5699057399345807E-03
   0.1609783082629939E-02
   0.3375072976624106E-02
   0.2371773619849424E-02
   0.4590624700494659E-03
   0.3518225884095036E-02
   0.4521817553784226E-01
   0.6522937770477626E-01
   0.8689296840073924E-03
  -0.2261151827902258E-01
   0.4316553480145583E-02
   0.1358734829241128E-01
   0.1039452544661021E-01
   0.4900548391633031E-01
   0.2437443470648980E-02
  -0.6509941152141594E-02
  -0.7012227772910632E-03
   0.3411016188460167E-03
   0.3904107299557264E-02
  -0.3893254320673510E-01
   0.1798168093779712E-01
   0.1119638180891136E-01
   0.3403773242334950E-01
   0.8438810159004830E-02
   0.4937312259539733E-02
   0.4970345563641556E-02
   0.4871517392110030E-02
   0.6027191701546829E-02
   0.2599191751658344E-02
  -0.4144429606473806E-01
  -0.9954261896341379E-01
  -0.1121678220114344E+00
   0.5070875014677020E-02
   0.4230770674404858E-02
  -0.1004732307207939E+00
  -0.9895252538714565E-01
  -0.9875450978303763E-01
  -0.9462509641674008E-01
  -0.6807133846984041E-01
   0.5154922157818658E-02
  -0.1935330758394926E-01
  -0.1575800298000881E-01
  -0.6002862473759836E-02
   0.6819057369426745E-02
  -0.8010050834023735E-01
  -0.2781092473420135E-01
  -0.8096457381913685E-01
  -0.5873277583412299E-01
   0.3083625660129264E-02
   0.2685146444755700E-02
   0.2640431156263988E-02
   0.3450191897066358E-02
   0.4007083750670454E-02
   0.1201214285106503E-02
  -0.1438846692307648E-03
   0.2039877280499953E-02
   0.4895693576428440E-02
   0.3857385552438511E-02
   0.1114201926549750E-02
   0.1182682022786459E-02
   0.1465296239415355E-02
  -0.1653640227257816E-04
   0.8996621333822915E-04
   0.4386667830320139E-02
   0.2715724203501397E-02
   0.2322755263813107E-02
   0.5010600994921815E-02
   0.1071689315740471E-02
   0.2712217684605370E-02
   0.2013964062379477E-02
   0.2879083238059897E-04
   0.8374614318008004E-01
   0.2793870704889915E-02
  -0.8346628083697639E-03
  -0.1492945643346664E-03
   0.1409540840559317E+00
   0.1239332949564580E+00
  -0.1219093307567957E-02
  -0.4381936070421784E-02
  -0.3043057896784450E-03
  -0.6512246818643898E-02
  -0.1949570342163499E-02
   0.1557630964269970E+00
   0.7489979153244779E-01
   0.2550174902585456E-01
   0.1656445109892516E+00