# vtk DataFile Version 2.0
FUN3D:global_image_vtk
ASCII
DATASET UNSTRUCTURED_GRID
POINTS 213 double
   -0.5474738059504602E-02    0.5000000000000000E-30    0.2504941999961484E+01
    0.1212121212121213E-30    0.8055550996138860E-04    0.5000000000000000E-30
    0.1245419063214956E+01    0.9999999999999999E-30    0.2504941999961484E+01
    0.1212121212121213E-30    0.1041110799572809E-03    0.1000000000000000E-29
    0.2497696076329003E+01    0.5000000000000000E-30    0.2504941999961484E+01
    0.1212121212121213E-30    0.1102916248165164E-03    0.5000000000000000E-30
    0.3750590986574023E+01    0.1000000000000000E-29    0.2504941999961484E+01
    0.1212121212121213E-30    0.1358046305401372E-03    0.1000000000000000E-29
    0.5003221380247613E+01    0.5000000000000001E-30    0.2504941999961484E+01
    0.1212121212121213E-30    0.9683523344461431E-04    0.5000000000000000E-30
    0.5004676745410213E+01    0.1000000000000000E-29    0.1281291377273527E+01
    0.5000000000000007E-30    0.1639128333390527E-03    0.1000000000000000E-29
    0.5004772723164809E+01    0.5000000000000001E-30    0.2775094235895190E-01
    0.1000000000000001E-29    0.1904167401678425E-03    0.5000000000000000E-30
    0.5003581213732991E+01    0.1000000000000000E-29   -0.1225853394964910E+01
    0.5000000000000006E-30    0.1608071321506643E-03    0.1000000000000000E-29
    0.5001952545688034E+01    0.5000000000000000E-30   -0.2496589021166458E+01
    0.1212121212121213E-30    0.1082184661237440E-03    0.5000000000000000E-30
    0.3750348114452023E+01    0.1000000000000000E-29   -0.2496589021166458E+01
    0.1212121212121213E-30    0.1458710028767740E-03    0.1000000000000000E-29
    0.2498611455860786E+01    0.5000000000000000E-30   -0.2496589021166458E+01
    0.1212121212121213E-30    0.1008914036254582E-03    0.5000000000000000E-30
    0.1247175253529147E+01    0.1000000000000000E-29   -0.2496589021166458E+01
    0.1212121212121213E-30    0.1108597702464409E-03    0.1000000000000000E-29
   -0.3383978115785169E-02    0.5000000000000000E-30   -0.2496589021166458E+01
    0.1212121212121213E-30    0.8107707488508309E-04    0.5000000000000000E-30
   -0.4257799575230425E-02    0.9999999999999999E-30   -0.1225734704378883E+01
    0.5000000000000006E-30    0.3420054752112378E-04    0.1000000000000000E-29
   -0.5251637157060784E-02    0.5000000000000000E-30    0.2619498345569626E-01
    0.1000000000000001E-29    0.1039613540431139E-03    0.5000000000000000E-30
   -0.5676113931367688E-02    0.9999999999999999E-30    0.1278221711771627E+01
    0.5000000000000007E-30    0.8237742971856088E-04    0.1000000000000000E-29
    0.9003209086382191E+00    0.5000000000000000E-30    0.1608979275733105E+01
    0.1000000000000001E-29    0.8718012080222159E-04    0.5000000000000000E-30
    0.3983172220881041E+01    0.1000000000000000E-29   -0.1561211796856023E+01
    0.5000000000000006E-30    0.1757351954316810E-03    0.1000000000000000E-29
    0.4035602066125263E+01    0.5000000000000000E-30    0.1486760229513980E+01
    0.1000000000000001E-29    0.1714506678095473E-03    0.5000000000000000E-30
    0.1036613696945808E+01    0.9999999999999999E-30   -0.1455626319023465E+01
    0.5000000000000006E-30    0.1047538994854991E-03    0.1000000000000000E-29
    0.1094353438944835E+01    0.5000000000000000E-30   -0.2964620713744224E+00
    0.1000000000000001E-29    0.1261326919438921E-03    0.5000000000000000E-30
    0.7298399754953697E+00    0.9999999999999999E-30    0.6874686188446064E+00
    0.5000000000000015E-30    0.1045682047596808E-03    0.1000000000000000E-29
    0.1617018610904462E+01    0.5000000000000000E-30    0.8553209657949420E+00
    0.1000000000000002E-29    0.1530917835092516E-03    0.5000000000000000E-30
    0.2143199645120234E+01    0.1000000000000000E-29   -0.1627128401290524E+01
    0.5000000000000006E-30    0.1606433273473873E-03    0.1000000000000000E-29
    0.4088840470379843E+01    0.5000000000000000E-30   -0.4351046471404206E+00
    0.1000000000000001E-29    0.2720522799659064E-03    0.5000000000000000E-30
    0.2977916500432660E+01    0.1000000000000000E-29   -0.8334990271277850E+00
    0.5000000000000069E-30    0.2246092970106250E-03    0.1000000000000000E-29
    0.3044093236197656E+01    0.5000000000000000E-30   -0.1814361118269820E+01
    0.1000000000000001E-29    0.1617179478026198E-03    0.5000000000000000E-30
    0.3427866617085304E+01    0.1000000000000000E-29    0.3813906574464904E+00
    0.5000000000000006E-30    0.2937830712453904E-03    0.1000000000000000E-29
    0.4313225396320023E+01    0.5000000000000001E-30    0.5489135083257440E+00
    0.1000000000000002E-29    0.2313893475642814E-03    0.5000000000000000E-30
    0.1823032699632841E+01    0.9999999999999999E-30    0.1771265381755795E+01
    0.5000000000000007E-30    0.1837610807679524E-03    0.1000000000000000E-29
    0.2806311135978372E+01    0.5000000000000000E-30    0.1358629571504234E+01
    0.1000000000000080E-29    0.1944713312552748E-03    0.5000000000000000E-30
    0.1891860844560957E+01    0.9999999999999999E-30   -0.8481309128925676E+00
    0.5000000000000017E-30    0.1671170219251228E-03    0.1000000000000000E-29
    0.2268769163417530E+01    0.5000000000000000E-30    0.7723707075737757E-01
    0.1000000000000001E-29    0.2073128221063425E-03    0.5000000000000000E-30
    0.5000000000000000E+01   -0.3383410151385485E-47    0.2504941999961484E+01
    0.1212121212121213E-30    0.1250000000000000E+01   -0.3383410151385485E-47
    0.5000000000000000E+01   -0.3383410151385485E-47    0.2504941999961484E+01
    0.1212121212121213E-30    0.2500000000000000E+01   -0.3383410151385485E-47
    0.5000000000000000E+01   -0.3383410151385485E-47    0.2504941999961484E+01
    0.1212121212121213E-30    0.3750000000000000E+01   -0.3383410151385485E-47
    0.5000000000000000E+01   -0.3383410151385485E-47    0.2504941999961484E+01
    0.1212121212121213E-30    0.5000000000000000E+01   -0.3383410151385485E-47
    0.3750000000000000E+01   -0.3383410151385485E-47    0.2504941999961484E+01
    0.1212121212121213E-30    0.5000000000000000E+01   -0.3383410151385485E-47
    0.2500000000000000E+01   -0.3383410151385485E-47    0.2504941999961484E+01
    0.1212121212121213E-30    0.5000000000000000E+01   -0.3383410151385485E-47
    0.1250000000000000E+01   -0.3383410151385485E-47    0.2504941999961484E+01
    0.1212121212121213E-30    0.5000000000000000E+01   -0.3383410151385485E-47
    0.4508567960396014E-20   -0.3383410151385485E-47    0.2504941999961484E+01
    0.1212121212121213E-30    0.5000000000000000E+01   -0.3383410151385485E-47
    0.4508567960396014E-20   -0.3383410151385485E-47    0.2504941999961484E+01
    0.1212121212121213E-30    0.3750000000000000E+01   -0.3383410151385485E-47
    0.4508567960396014E-20   -0.3383410151385485E-47    0.2504941999961484E+01
    0.1212121212121213E-30    0.2500000000000000E+01   -0.3383410151385485E-47
    0.4508567960396014E-20   -0.3383410151385485E-47    0.2504941999961484E+01
    0.1212121212121213E-30    0.1250000000000000E+01   -0.3383410151385485E-47
    0.9588956144355162E+00    0.4088323204879453E-30    0.2504941999961484E+01
    0.1212121212121213E-30    0.9696527279204157E+00    0.8253355966551738E-30
    0.3981953084978401E+01    0.7369699780761670E-31    0.2504941999961484E+01
    0.1212121212121213E-30    0.4070563876500500E+01    0.1516277355828278E-30
    0.4036122198870731E+01    0.5331184872987289E-30    0.2504941999961484E+01
    0.1212121212121213E-30    0.1017567671852929E+01    0.8139234257758013E-30
    0.9637572703692215E+00   -0.9331067766427809E-32    0.2504941999961484E+01
    0.1212121212121213E-30    0.3973598229042282E+01    0.1306014370160033E-30
    0.1546540123352509E+01    0.8002905657924372E-31    0.2504941999961484E+01
    0.1212121212121213E-30    0.2931570247918891E+01    0.3996885550961299E-30
    0.6973799367138884E+00    0.3481309068424750E-32    0.2504941999961484E+01
    0.1212121212121213E-30    0.3070319998906840E+01    0.2100037182688024E-30
    0.8903741869765986E+00    0.7712488796353086E-31    0.2504941999961484E+01
    0.1212121212121213E-30    0.2056562332029389E+01    0.4294668085393870E-30
    0.2183041992443720E+01    0.3782461580954398E-31    0.2504941999961484E+01
    0.1212121212121213E-30    0.3960694489254670E+01    0.2259705361712453E-30
    0.3855844883881474E+01    0.1784932175604557E-30    0.2504941999961484E+01
    0.1212121212121213E-30    0.2933250643805067E+01    0.3558534735534758E-30
    0.3152611372008677E+01    0.1115283363379912E-30    0.2504941999961484E+01
    0.1212121212121213E-30    0.3637668435336391E+01    0.2959845527154190E-30
    0.3103307388029136E+01    0.5185271477213298E-31    0.2504941999961484E+01
    0.1212121212121213E-30    0.4332607836744343E+01    0.1521436499776680E-30
    0.3266711050822213E+01    0.3601961362737965E-30    0.2504941999961484E+01
    0.1212121212121213E-30    0.1889656733417950E+01    0.6353768785672424E-30
    0.4232537571805413E+01    0.2580489315428036E-30    0.2504941999961484E+01
    0.1212121212121213E-30    0.1918627039918501E+01    0.4090791405808417E-30
    0.1905522344842235E+01    0.6572817491138444E-30    0.2504941999961484E+01
    0.1212121212121213E-30    0.7226292666170522E+00    0.8977306600900038E-30
    0.2879767720433331E+01    0.6107141644545573E-30    0.2504941999961484E+01
    0.1212121212121213E-30    0.9080947549972160E+00    0.8180347387425795E-30
    0.2012711351533435E+01    0.3615868018461986E-30    0.2504941999961484E+01
    0.1212121212121213E-30    0.1767082528588959E+01    0.7060364642884793E-30
    0.2669681472765471E+01    0.1849800474542217E-30    0.2504941999961484E+01
    0.1212121212121213E-30    0.2853394418098206E+01    0.4820509466868317E-30
    0.5000000000000000E+01   -0.3383410151385485E-47    0.1250000000000000E+01
   -0.3383410151385485E-47    0.5000000000000000E+01   -0.3383410151385485E-47
    0.5000000000000000E+01   -0.3383410151385485E-47    0.4508567960396014E-20
[...]
POINT_DATA 213
SCALARS rho double 1
LOOKUP_TABLE default
   0.1219599913616946E+01
  -0.6526407564975224E-31
   0.9221793838878907E+00
   0.2217449191222509E-31
   0.9104476812933839E+00
  -0.8034671712689832E-31
   0.8966767976584896E+00
   0.2806558970422959E-31
   0.7819488863920614E+00
  -0.7932711218117459E-32
   0.7116571317217205E+00
   0.2387655997576865E-30
   0.6990709657841654E+00
   0.9048882682234045E-31
   0.7029546921929100E+00
   0.4252343505238093E-31
   0.7687355881559702E+00
  -0.8914836450110051E-31
   0.8895232822291117E+00
   0.3337904119143020E-31
   0.8987464019091759E+00
  -0.7715173529059896E-31
   0.9249601769149162E+00
  -0.1601541228407299E-31
   0.1300246732778704E+01
  -0.1090121099707150E-30
   0.1348040885210572E+01
  -0.5523172658217510E-30
   0.1456338075679782E+01
  -0.2681109969853407E-30
   0.1286719692337236E+01
  -0.4187495198041905E-30
   0.9619642158941152E+00
  -0.4382651064763078E-31
   0.9047653980565767E+00
  -0.1613266002196475E-31
   0.8972301123610584E+00
   0.2238535002142921E-31
   0.9249192778396209E+00
  -0.1345788235642077E-31
   0.9126331843474795E+00
   0.2682093438421602E-32
   0.9866008235393682E+00
  -0.1762656601222873E-30
   0.8974308639202713E+00
  -0.4227030782887245E-31
   0.8999717894748418E+00
  -0.8274863430532800E-31
   0.9067475719164283E+00
  -0.2569583420642332E-31
   0.9112478407000230E+00
  -0.3898940809151228E-31
   0.8943866375890009E+00
  -0.1148926236945727E-31
   0.9125851103371502E+00
  -0.2531585407994483E-31
   0.8902529657862314E+00
   0.7644195704335631E-32
   0.9018652715699166E+00
  -0.3507167670990499E-31
   0.9063596825081730E+00
   0.1370389615105659E-31
   0.8623950846104438E+00
   0.3650674226290926E-31
   0.9078064541469183E+00
   0.9875007119248866E-31
   0.9506821981033500E+00
  -0.3136076135729677E-31
   0.1008490980202307E+01
   0.1583918044258348E-32
   0.1006976758479822E+01
   0.1121690827740699E-32
   0.1000145908665936E+01
  -0.5935625527837204E-33
   0.1000492870001435E+01
  -0.2315211269077829E-32
   0.1001010370654426E+01
  -0.2967943913994988E-32
   0.1002467258125826E+01
  -0.2020740240501177E-32
   0.1001944765553447E+01
  -0.1278945324771815E-33
   0.1004886098317147E+01
  -0.1727124870666793E-33
   0.1016625222136632E+01
   0.7331005506193981E-32
   0.1058313554257917E+01
   0.2243851231877479E-31
   0.1005436788048797E+01
   0.2141650237123848E-31
   0.1000007369536940E+01
  -0.1615738618843091E-32
   0.9457700490618267E+00
  -0.3686342242935163E-31
   0.1002042271947841E+01
  -0.1068146585534641E-32
   0.9982829476286134E+00
  -0.4530960451355722E-34
   0.1004492521308375E+01
   0.4396950774977907E-33
   0.1005371617840376E+01
   0.1984504456028548E-32
   0.9993111978130922E+00
  -0.2178440279112048E-32
   0.9978002667662502E+00
  -0.1220094357811795E-32
   0.9988040172541178E+00
  -0.2610784146665812E-32
   0.9987211972701925E+00
  -0.2487373854080442E-32
   0.9780928918381956E+00
  -0.3877129086901798E-32
   0.9796706142208297E+00
  -0.1919773255716527E-32
   0.9639504863505418E+00
  -0.3058349786223678E-31
   0.9601301310495235E+00
  -0.2019843135600709E-31
   0.9867991728033537E+00
  -0.4870633290647609E-32
   0.9922400513199694E+00
  -0.1350649660524694E-32
   0.1000342977224045E+01
  -0.3833983270597744E-33
   0.1000541450813541E+01
  -0.3981771809131454E-33
   0.1000671133069278E+01
  -0.4379841193878797E-33
   0.9998284135076148E+00
   0.1060462597092161E-33
   0.1009782297110658E+01
   0.2490847478227930E-32
   0.1007174224039054E+01
   0.2487664752131230E-32
   0.9448363517750535E+00
  -0.2612156608239797E-31
   0.9034576848545395E+00
  -0.3727450454805584E-31
   0.1007039898459622E+01
   0.1390286450637558E-32
   0.1004193124635431E+01
   0.3381266260477600E-33
   0.8965165777359743E+00
  -0.3780587188093098E-31
   0.8926680498149198E+00
  -0.1668325803346214E-31
   0.8470449750102086E+00
  -0.1975146522017522E-31
   0.9708429042669330E+00
  -0.6079340282799570E-32
   0.1000202431946631E+01
   0.5143495041954165E-32
   0.1006091577615839E+01
   0.3892032859052500E-33
   0.1015639761997977E+01
   0.4157343791611468E-32
   0.1012987271709615E+01
   0.4333823774941602E-32
   0.1012861697417805E+01
   0.9698617533154955E-33
   0.1005118612467207E+01
   0.5595776318703838E-33
   0.9863622640663745E+00
  -0.5004698743347067E-33
   0.1006593489931671E+01
   0.8183442536248565E-33
   0.9849764702307096E+00
   0.5653279216263664E-32
   0.1008140573348715E+01
   0.3977800906935723E-32
   0.1001902606873974E+01
  -0.2058043505624385E-33
   0.1000777962764609E+01
   0.1673400679124697E-33
   0.1001300678117583E+01
   0.3088276599372998E-33
   0.1001842923437932E+01
   0.8473190071554785E-34
   0.1002348926670436E+01
  -0.1481610328022303E-32
   0.1000286871387993E+01
  -0.2783171953916176E-32
   0.1000192914675156E+01
  -0.1725571144267122E-32
   0.9997755933126592E+00
  -0.2111966350491259E-32
   0.1001746394682210E+01
  -0.1023525129717361E-32
   0.1001907944787896E+01
  -0.1492993802181458E-32
   0.9986523977718932E+00
  -0.1817933806076400E-32
   0.9995364912095406E+00
  -0.1876250905935426E-32
   0.9999232355142408E+00
  -0.1714534416099159E-32
   0.1000198767986944E+01
  -0.2559571733326981E-32
   0.1000442941677067E+01
  -0.2194134337081161E-32
   0.1001058841351853E+01
  -0.5312622866444620E-33
   0.1001457792922480E+01
  -0.2051475355759824E-32
   0.1001331328856507E+01
  -0.2186749279596125E-32
   0.1001525818349062E+01
  -0.1226974368739854E-32
   0.1000861177977596E+01
  -0.2763641359709557E-32
   0.1001344306221268E+01
  -0.2638375944115636E-32
   0.1001108536260620E+01
  -0.2442283067076440E-32
   0.1000543854547027E+01
  -0.2518302193604840E-32
   0.1060180605605609E+01
   0.1169740106511257E-31
   0.1020434851446313E+01
   0.8928188043469904E-32
   0.1005937367251567E+01
   0.7271485052899372E-33
   0.1003463833916445E+01
   0.2295455476709066E-33
   0.1142067394350978E+01
   0.1140888905929078E-31
   0.1083370527282484E+01
   0.1859591936137810E-31
   0.1004378517860465E+01
   0.3923808600151005E-33
   0.1003909103423262E+01
   0.3769269783991526E-33
   0.1003789602179402E+01
  -0.1451410522231138E-33
   0.1006675430344217E+01
   0.3384237833460249E-32
   0.1012240635871708E+01
   0.7141959620617065E-32
   0.1193114846293480E+01
  -0.3842458930619612E-31
   0.1028000791361552E+01
   0.5187124102970825E-32
   0.1034785375861863E+01
   0.1549435805956215E-31
   0.1169417159578106E+01
   0.3150147417054298E-31
   0.1009874385357463E+01
   0.2797336927981918E-32
   0.1023546143335990E+01
   0.1041109190076149E-31
   0.1017121966024112E+01
   0.4404719726818613E-32
   0.1007875017663591E+01
   0.5139201339071324E-32
   0.1013904356827894E+01
   0.1706844761074781E-31
   0.1000120419973371E+01
  -0.1408723365386803E-32
   0.9442367766764501E+00
  -0.3559100432800759E-31
   0.1003512214009008E+01
  -0.4182326439971210E-33
   0.9988676266156151E+00
  -0.4904325448018034E-32
   0.1006433377412836E+01
   0.1903674947627264E-32
   0.1009136818442821E+01
  -0.1469557238444928E-32
   0.9979418413411186E+00
  -0.2566998997513734E-32
   0.9977846798161789E+00
  -0.1760372508494911E-32
   0.9961676217012392E+00
  -0.3077195133193192E-32
   0.9984778160660710E+00
  -0.2263109887951125E-32
   0.9810175331362190E+00
  -0.1170125574899067E-31
   0.9780877552767953E+00
  -0.6293878723586330E-32
   0.9479693804101741E+00
  -0.3581682892168764E-31
   0.9505424156680905E+00
  -0.3988264910028661E-31
   0.9877990056528101E+00
  -0.9720938133240833E-32
   0.9899199084748821E+00
  -0.3810122573106740E-32
   0.9925444357413999E+00
  -0.3909059359834269E-32
   0.9998150160080662E+00
  -0.1908410252297287E-32
   0.9986044256974479E+00
  -0.2999780473681788E-32
   0.9946495923491584E+00
  -0.1973937192789220E-32
   0.1006783294486161E+01
   0.1411107514952635E-32
   0.1021195773710183E+01
   0.1319396359056884E-31
   0.9979991516429972E+00
  -0.7855282695375759E-32
   0.1004785936910692E+01
  -0.6520775861159921E-33
   0.1001443253578728E+01
  -0.1032675190299318E-32
   0.1004870015573929E+01
   0.2203371020308775E-33
   0.9952898773713812E+00
  -0.2108506625684894E-32
   0.9853957099541604E+00
   0.1022427317668262E-31
   0.1000226007444910E+01
  -0.2129396291004591E-32
   0.9938930119371782E+00
  -0.2605816107231089E-32
   0.9819631293094120E+00
  -0.1652761482360898E-32
   0.9943515144927615E+00
  -0.2165788147649328E-32
   0.9968775152976399E+00
  -0.2861316045877258E-32
   0.9937161314907739E+00
  -0.1025756763446679E-32
   0.9987031086240994E+00
  -0.2300654559713163E-32
   0.1000033244278892E+01
  -0.2326261600471219E-32
   0.9996686280106689E+00
  -0.2457351656235720E-32
   0.9958480420587249E+00
  -0.6083663172348052E-33
   0.9933618045053492E+00
  -0.2421505844514222E-32
   0.1001379813514606E+01
  -0.1549540573976655E-32
   0.1018342565079116E+01
  -0.9611925389085051E-33
   0.1002761163883302E+01
  -0.4745910643974446E-32
   0.9806466643451760E+00
  -0.9435873082109071E-32
   0.1001874257979842E+01
  -0.1378597386985295E-32
   0.1008205818684662E+01
   0.1266877173188815E-32
   0.9702345995629678E+00
  -0.1171639865476908E-31
   0.9431323729231215E+00
   0.5982421856254624E-32
   0.9846786353185730E+00
  -0.1087364179540246E-31
   0.9843645601676094E+00
  -0.6787178039826196E-32
   0.9754696721937707E+00
  -0.3226047612329546E-31
   0.9908380426683795E+00
  -0.1396198670834753E-31
   0.9779133561213494E+00
  -0.3237024298868115E-31
   0.1033958406005514E+01
  -0.6944965987417135E-32
   0.1021656796291683E+01
   0.1296883773306424E-31
   0.1000033005346966E+01
  -0.1812216961793021E-32
   0.9991734290875058E+00
  -0.2853893069116764E-32
   0.9919055285383060E+00
   0.2328798063610643E-32
   0.9907248504709431E+00
  -0.3646652332856576E-32
   0.9574014550819108E+00
  -0.8288844715773126E-32
   0.9930506880940068E+00
   0.1301820628905880E-32
   0.1006289131536093E+01
   0.1383799318056030E-32
   0.1002044037553383E+01
  -0.2898692368448948E-33
   0.9896477897161683E+00
  -0.4697641466089832E-32
   0.9652799827137040E+00
  -0.6050958699331479E-32
   0.9203406997257051E+00
  -0.2556434490049136E-31
   0.9724368701987753E+00
  -0.1141397414725951E-31
   0.9781836989275352E+00
  -0.5097391147588469E-32
   0.9559726800657088E+00
  -0.5687178278546134E-32
   0.9617645757544975E+00
  -0.2370017706895720E-31
   0.9490309801053090E+00
  -0.2828139742360787E-32
   0.9366912375343865E+00
  -0.2237095873673179E-31
   0.9303104723261023E+00
  -0.2983688522624291E-31
   0.9992919130670245E+00
  -0.1524656222403314E-32
   0.9994619482033564E+00
  -0.2253216832228208E-32
   0.9988025047109488E+00
  -0.2103362565999034E-32
   0.1002017073946971E+01
  -0.4595015593725744E-33
   0.9391477998924216E+00
  -0.2465414323940958E-31
   0.9239055150465281E+00
  -0.6045660502021717E-31
   0.9359217488828089E+00
  -0.1829278824902272E-31
   0.9984137893784545E+00
  -0.2444003863310232E-32
   0.9983444540240791E+00
  -0.2323900394395280E-32
   0.1000450520513302E+01
  -0.1445676673322187E-32
   0.9793848501606132E+00
  -0.1011283962705034E-31
   0.9713545842927596E+00
  -0.7112131309138295E-32
   0.9447096592561350E+00
  -0.1688391996274365E-31
SCALARS u double 1
LOOKUP_TABLE default
   0.0000000000000000E+00
   0.0000000000000000E+00
   0.0000000000000000E+00
   0.0000000000000000E+00
   0.0000000000000000E+00
   0.0000000000000000E+00
   0.0000000000000000E+00
   0.0000000000000000E+00
   0.0000000000000000E+00
   0.0000000000000000E+00
   0.0000000000000000E+00
   0.0000000000000000E+00
   0.0000000000000000E+00
   0.0000000000000000E+00
   0.0000000000000000E+00
   0.0000000000000000E+00
   0.0000000000000000E+00
   0.0000000000000000E+00
   0.0000000000000000E+00
   0.0000000000000000E+00
   0.0000000000000000E+00
   0.0000000000000000E+00
   0.0000000000000000E+00
   0.0000000000000000E+00
   0.0000000000000000E+00
   0.0000000000000000E+00
   0.0000000000000000E+00
   0.0000000000000000E+00
   0.0000000000000000E+00
   0.0000000000000000E+00
   0.0000000000000000E+00
   0.0000000000000000E+00
   0.0000000000000000E+00
   0.0000000000000000E+00
   0.0000000000000000E+00
   0.0000000000000000E+00
   0.0000000000000000E+00
   0.0000000000000000E+00
   0.0000000000000000E+00
   0.0000000000000000E+00
   0.0000000000000000E+00
   0.0000000000000000E+00
   0.0000000000000000E+00
   0.0000000000000000E+00
   0.0000000000000000E+00
   0.0000000000000000E+00
   0.0000000000000000E+00
   0.0000000000000000E+00
   0.0000000000000000E+00
   0.0000000000000000E+00
   0.0000000000000000E+00
   0.0000000000000000E+00
   0.0000000000000000E+00
   0.0000000000000000E+00
   0.0000000000000000E+00
   0.0000000000000000E+00
   0.0000000000000000E+00
   0.0000000000000000E+00
   0.0000000000000000E+00
   0.0000000000000000E+00
   0.0000000000000000E+00
   0.0000000000000000E+00
   0.0000000000000000E+00
   0.0000000000000000E+00
   0.0000000000000000E+00
   0.0000000000000000E+00
   0.5044657153185769E+00
  -0.2399820260200842E-31
   0.5290125001256996E+00
  -0.6867451511059367E-32
   0.5144832571539263E+00
   0.1984601414994388E-34
   0.4932265007155269E+00
   0.8626232263332723E-33
   0.4881034954307292E+00
   0.5794301734101188E-32
   0.4912132665131245E+00
   0.8335231863504722E-32
   0.4932012104334690E+00
   0.6413923949328794E-32
   0.4982359621911143E+00
  -0.2868132686222672E-33
   0.4935755401451397E+00
   0.2340653784669660E-32
   0.4788817929298194E+00
  -0.6293285920546687E-32
   0.4518340488405583E+00
  -0.1447549915595454E-31
   0.4750761855212234E+00
   0.6754803905770810E-31
   0.5097784009954730E+00
  -0.4173493705510269E-33
   0.4511935386227366E+00
   0.8834227996163744E-31
   0.4980813340877317E+00
   0.2130545400631665E-32
   0.5232695275299045E+00
  -0.6433370821548395E-32
   0.4995198835912117E+00
  -0.2969828958548890E-33
   0.5239976612173767E+00
  -0.1031517268082607E-31
   0.5062462133609360E+00
   0.4343872437166939E-33
   0.5621720090414618E+00
  -0.1834014525987818E-32
   0.5246973183380559E+00
  -0.3531270783264943E-32
   0.5014415355681838E+00
   0.1648607318660520E-32
   0.5724415173379266E+00
   0.1729307966843675E-31
   0.5707004872017200E+00
  -0.1722135506466060E-33
   0.3697808153156280E+00
   0.9900898833613156E-31
   0.4030358778719036E+00
   0.6312364211666798E-31
   0.5559039170491168E+00
   0.3405790681409565E-31
   0.5550071828219307E+00
  -0.7917583063082305E-33
   0.4941866649125072E+00
   0.7228307258470580E-34
   0.4946225571723477E+00
  -0.6238585335692398E-33
   0.4922550880776459E+00
  -0.1841152262435956E-32
   0.4916952757088666E+00
  -0.9786432809610902E-33
   0.5126203612105712E+00
   0.1874927677548456E-32
   0.5320037748258689E+00
   0.3907828661818975E-32
   0.5051851732876383E+00
  -0.1095859840857554E-31
   0.4700274422223192E+00
  -0.3516568923663383E-31
   0.5096958286801645E+00
   0.1225398444817142E-32
   0.5089633499329923E+00
   0.1128474680249618E-33
   0.4955096745861748E+00
  -0.1618672465843931E-31
   0.5091189249438177E+00
  -0.3937827847781091E-31
   0.4859971782629148E+00
  -0.8336597011056447E-31
   0.5290197329655336E+00
  -0.2637264747905403E-31
   0.5276939305558169E+00
  -0.7318221846087850E-32
   0.5095384286339880E+00
  -0.1371374268723971E-32
   0.5265023575272525E+00
   0.2278391578523847E-32
   0.5255836715228615E+00
   0.4218737529708636E-32
   0.5249264246898177E+00
   0.3251773844690871E-33
   0.5039105676555533E+00
  -0.1326635040442829E-32
   0.5284460210011519E+00
  -0.1423130341652098E-31
   0.5353830987662208E+00
  -0.2419354673376272E-32
   0.5371546995993817E+00
  -0.2060571964731817E-31
   0.5324039368575705E+00
  -0.7831320153803195E-32
   0.4987533161462927E+00
  -0.9758305215726730E-33
   0.4995693380799296E+00
  -0.1057148328659117E-32
   0.4985678142319602E+00
  -0.2157787285512365E-33
   0.4978564019021830E+00
  -0.5884297906990306E-33
   0.4945363810549813E+00
   0.4912804558978027E-32
   0.4946354240653346E+00
   0.6725565381639234E-32
   0.4894932186601472E+00
   0.3881160722720947E-32
   0.4881854149309166E+00
   0.4061753038178232E-32
   0.4965709365752005E+00
   0.3341244408977438E-32
   0.4946579467471620E+00
   0.5214654950510990E-32
   0.4860622930837107E+00
   0.1567072794850115E-32
   0.4896816117889535E+00
   0.2934979627021420E-32
   0.4900401236949616E+00
   0.2933754768663329E-32
   0.4911767741909408E+00
   0.6265533845144122E-32
   0.4926166626939271E+00
   0.6828397991335162E-32
   0.4981835085210349E+00
   0.2554612813349015E-32
   0.4946289643971962E+00
   0.7026639582470029E-32
   0.4948394986224892E+00
   0.6539862808057913E-32
   0.4976378086146581E+00
   0.4018726423764094E-32
   0.4907933142529645E+00
   0.6956265693315012E-32
   0.4936012114807287E+00
   0.7223906774099711E-32
   0.4927628912636933E+00
   0.7904541780471437E-32
   0.4920514951902346E+00
   0.7189062020342820E-32
   0.4513309486353874E+00
  -0.1195032772376476E-31
   0.4773809617879323E+00
  -0.7990929710394944E-32
   0.4929577593227407E+00
  -0.7418799348121081E-33
   0.4922016431821757E+00
   0.3939015977932376E-32
   0.4645164622686780E+00
   0.1973112577768860E-31
   0.4729120395445101E+00
  -0.1900824745302741E-31
   0.4915211032813721E+00
   0.1020038901870925E-32
   0.4906741942899807E+00
   0.3157262806057680E-32
   0.4940153701932189E+00
   0.2181100662931018E-32
   0.4854929930744800E+00
   0.3888371035387541E-33
   0.4731445505150608E+00
  -0.7976432917181471E-32
   0.4017685352715074E+00
   0.1333210733231778E-31
   0.4925811127416350E+00
  -0.4403896775998193E-31
   0.4586089377545414E+00
  -0.1536202910655380E-31
   0.4595049325906092E+00
   0.5858780263472162E-32
   0.4895104444367301E+00
  -0.1612114722677524E-32
   0.4701583353008003E+00
  -0.1232581561051038E-31
   0.4742235035201741E+00
  -0.3036004480324366E-31
   0.4816343218386760E+00
  -0.3592022785065880E-32
   0.4809631439132792E+00
   0.6643907027731740E-31
   0.5081955852945388E+00
   0.5791693162826116E-33
   0.4436620420945581E+00
   0.3309808925918171E-31
   0.4960916958401396E+00
   0.1460785417332371E-32
   0.5314783349108507E+00
  -0.3715009619071061E-32
   0.4949806832964442E+00
  -0.1701260835285849E-32
   0.5219301823557118E+00
  -0.1256539288993481E-32
   0.5081293872682393E+00
   0.3276504402724658E-33
   0.5664001670778099E+00
   0.1309700843732906E-31
   0.5269142300086169E+00
   0.1660301972356757E-32
   0.5035387233640167E+00
   0.2170304493110951E-32
   0.5834535199024030E+00
   0.3540610912148600E-31
   0.5720240543055052E+00
   0.1675941667685037E-31
   0.3408859787976697E+00
   0.1056239539849326E-30
   0.3851958352804852E+00
  -0.1647388830133910E-31
   0.5717594931426939E+00
   0.5950089041969763E-31
   0.5645095790363344E+00
   0.1289590016663939E-31
   0.5689243688382950E+00
  -0.3185775639970508E-32
   0.5291696422570111E+00
  -0.7926736138229038E-32
   0.5449155772736161E+00
  -0.1260698354591887E-31
   0.5701879996569723E+00
   0.7396841344256311E-32
   0.5404097314620770E+00
  -0.2256170954235745E-31
   0.5487779046382680E+00
   0.2256841231893346E-31
   0.5790107886359722E+00
   0.3623559817793045E-31
   0.4955235725198012E+00
  -0.6419223245938997E-32
   0.5064965498886457E+00
  -0.1291749031488775E-32
   0.4994484985751083E+00
  -0.5085866633685077E-32
   0.5533092708748580E+00
   0.7510982810408725E-32
   0.4597902452480283E+00
  -0.1937567770145034E-31
   0.4983751332287523E+00
   0.3063501065397543E-32
   0.5489762939826918E+00
  -0.6232024095049952E-32
   0.5894376514245696E+00
   0.1954368482339334E-31
   0.5821700660570786E+00
   0.2856137080019158E-32
   0.5457059880237694E+00
  -0.2701619146680172E-32
   0.5785146403087468E+00
   0.1407569638070328E-32
   0.5122043911193406E+00
  -0.2202916509224729E-32
   0.5055088210334689E+00
  -0.1004805721979270E-32
   0.5048980709606541E+00
   0.2821280584046806E-33
   0.5645297506078704E+00
   0.2903605402281746E-32
   0.5552265536362506E+00
  -0.8090595224764763E-33
   0.4977583767270179E+00
   0.4727660108405699E-33
   0.5488209304667196E+00
  -0.1764487166914832E-31
   0.5486892305188177E+00