# vtk DataFile Version 2.0
FUN3D:global_image_vtk
ASCII
DATASET UNSTRUCTURED_GRID
POINTS 213 double
   -0.5474738059504574E-02    0.4999999999999747E-30    0.2504941999961484E+01
    0.1212121212121470E-30    0.8055550996138938E-04    0.4999999999999984E-30
    0.1245419063214956E+01    0.9999999999999701E-30    0.2504941999961484E+01
    0.1212121212121470E-30    0.1041110799572813E-03    0.9999999999999957E-30
    0.2497696076329003E+01    0.4999999999999853E-30    0.2504941999961484E+01
    0.1212121212121470E-30    0.1102916248165171E-03    0.4999999999999982E-30
    0.3750590986574023E+01    0.9999999999999973E-30    0.2504941999961484E+01
    0.1212121212121470E-30    0.1358046305401374E-03    0.9999999999999955E-30
    0.5003221380247613E+01    0.5000000000000139E-30    0.2504941999961484E+01
    0.1212121212121470E-30    0.9683523344461491E-04    0.4999999999999986E-30
    0.5004676745410213E+01    0.1000000000000019E-29    0.1281291377273527E+01
    0.5000000000001609E-30    0.1639128333390531E-03    0.9999999999999955E-30
    0.5004772723164809E+01    0.5000000000000218E-30    0.2775094235895176E-01
    0.1000000000000110E-29    0.1904167401678426E-03    0.4999999999999979E-30
    0.5003581213732991E+01    0.1000000000000014E-29   -0.1225853394964910E+01
    0.5000000000001248E-30    0.1608071321506645E-03    0.9999999999999955E-30
    0.5001952545688034E+01    0.5000000000000078E-30   -0.2496589021166458E+01
    0.1212121212121390E-30    0.1082184661237446E-03    0.4999999999999979E-30
    0.3750348114452023E+01    0.9999999999999962E-30   -0.2496589021166458E+01
    0.1212121212121390E-30    0.1458710028767744E-03    0.9999999999999957E-30
    0.2498611455860786E+01    0.4999999999999897E-30   -0.2496589021166458E+01
    0.1212121212121390E-30    0.1008914036254587E-03    0.4999999999999977E-30
    0.1247175253529147E+01    0.9999999999999803E-30   -0.2496589021166458E+01
    0.1212121212121390E-30    0.1108597702464412E-03    0.9999999999999955E-30
   -0.3383978115785148E-02    0.4999999999999843E-30   -0.2496589021166458E+01
    0.1212121212121390E-30    0.8107707488508373E-04    0.4999999999999979E-30
   -0.4257799575230404E-02    0.9999999999999763E-30   -0.1225734704378883E+01
    0.5000000000001248E-30    0.3420054752112469E-04    0.9999999999999954E-30
   -0.5251637157060754E-02    0.4999999999999769E-30    0.2619498345569610E-01
    0.1000000000000100E-29    0.1039613540431145E-03    0.4999999999999980E-30
   -0.5676113931367653E-02    0.9999999999999731E-30    0.1278221711771627E+01
    0.5000000000001451E-30    0.8237742971856150E-04    0.9999999999999955E-30
    0.9003209086382191E+00    0.4999999999999680E-30    0.1608979275733105E+01
    0.1000000000000152E-29    0.8718012080222230E-04    0.4999999999999979E-30
    0.3983172220881041E+01    0.9999999999999997E-30   -0.1561211796856023E+01
    0.5000000000001157E-30    0.1757351954316811E-03    0.9999999999999957E-30
    0.4035602066125263E+01    0.5000000000000067E-30    0.1486760229513980E+01
    0.1000000000000169E-29    0.1714506678095474E-03    0.4999999999999983E-30
    0.1036613696945808E+01    0.9999999999999742E-30   -0.1455626319023465E+01
    0.5000000000001227E-30    0.1047538994854996E-03    0.9999999999999955E-30
    0.1094353438944835E+01    0.4999999999999709E-30   -0.2964620713744224E+00
    0.1000000000000129E-29    0.1261326919438925E-03    0.4999999999999978E-30
    0.7298399754953697E+00    0.9999999999999659E-30    0.6874686188446059E+00
    0.5000000000000602E-30    0.1045682047596812E-03    0.9999999999999954E-30
    0.1617018610904462E+01    0.4999999999999700E-30    0.8553209657949414E+00
    0.1000000000000066E-29    0.1530917835092518E-03    0.4999999999999983E-30
    0.2143199645120234E+01    0.9999999999999805E-30   -0.1627128401290524E+01
    0.5000000000001162E-30    0.1606433273473876E-03    0.9999999999999955E-30
    0.4088840470379843E+01    0.5000000000000099E-30   -0.4351046471404206E+00
    0.1000000000000128E-29    0.2720522799659058E-03    0.4999999999999990E-30
    0.2977916500432660E+01    0.9999999999999864E-30   -0.8334990271277855E+00
    0.5000000000000404E-30    0.2246092970106250E-03    0.9999999999999957E-30
    0.3044093236197656E+01    0.4999999999999923E-30   -0.1814361118269820E+01
    0.1000000000000113E-29    0.1617179478026200E-03    0.4999999999999979E-30
    0.3427866617085304E+01    0.9999999999999927E-30    0.3813906574464901E+00
    0.5000000000001120E-30    0.2937830712453898E-03    0.9999999999999964E-30
    0.4313225396320023E+01    0.5000000000000159E-30    0.5489135083257435E+00
    0.1000000000000070E-29    0.2313893475642812E-03    0.4999999999999989E-30
    0.1823032699632841E+01    0.9999999999999724E-30    0.1771265381755795E+01
    0.5000000000001661E-30    0.1837610807679524E-03    0.9999999999999962E-30
    0.2806311135978372E+01    0.4999999999999852E-30    0.1358629571504234E+01
    0.9999999999999989E-30    0.1944713312552749E-03    0.4999999999999979E-30
    0.1891860844560957E+01    0.9999999999999740E-30   -0.8481309128925681E+00
    0.5000000000000431E-30    0.1671170219251229E-03    0.9999999999999954E-30
    0.2268769163417530E+01    0.4999999999999742E-30    0.7723707075737746E-01
    0.1000000000000116E-29    0.2073128221063425E-03    0.4999999999999983E-30
    0.5000000000000000E+01    0.4754634911382609E-45    0.2504941999961484E+01
    0.1212121212121470E-30    0.1250000000000000E+01    0.4754634911382609E-45
    0.5000000000000000E+01    0.4754634911382609E-45    0.2504941999961484E+01
    0.1212121212121470E-30    0.2500000000000000E+01    0.4754634911382609E-45
    0.5000000000000000E+01    0.4754634911382609E-45    0.2504941999961484E+01
    0.1212121212121470E-30    0.3750000000000000E+01    0.4754634911382609E-45
    0.5000000000000000E+01    0.4754634911382609E-45    0.2504941999961484E+01
    0.1212121212121470E-30    0.5000000000000000E+01    0.4754634911382609E-45
    0.3750000000000000E+01    0.4754634911382609E-45    0.2504941999961484E+01
    0.1212121212121470E-30    0.5000000000000000E+01    0.4754634911382609E-45
    0.2500000000000000E+01    0.4754634911382609E-45    0.2504941999961484E+01
    0.1212121212121470E-30    0.5000000000000000E+01    0.4754634911382609E-45
    0.1250000000000000E+01    0.4754634911382609E-45    0.2504941999961484E+01
    0.1212121212121470E-30    0.5000000000000000E+01    0.4754634911382609E-45
    0.1088678712890414E-17    0.4754634911382609E-45    0.2504941999961484E+01
    0.1212121212121470E-30    0.5000000000000000E+01    0.4754634911382609E-45
    0.1088678712890414E-17    0.4754634911382609E-45    0.2504941999961484E+01
    0.1212121212121470E-30    0.3750000000000000E+01    0.4754634911382609E-45
    0.1088678712890414E-17    0.4754634911382609E-45    0.2504941999961484E+01
    0.1212121212121470E-30    0.2500000000000000E+01    0.4754634911382609E-45
    0.1088678712890414E-17    0.4754634911382609E-45    0.2504941999961484E+01
    0.1212121212121470E-30    0.1250000000000000E+01    0.4754634911382609E-45
    0.9588956144355162E+00    0.4088323204877327E-30    0.2504941999961484E+01
    0.1212121212121470E-30    0.9696527279204159E+00    0.8253355966549823E-30
    0.3981953084978400E+01    0.7369699780845871E-31    0.2504941999961484E+01
    0.1212121212121470E-30    0.4070563876500500E+01    0.1516277355821028E-30
    0.4036122198870732E+01    0.5331184872982372E-30    0.2504941999961484E+01
    0.1212121212121470E-30    0.1017567671852929E+01    0.8139234257758244E-30
    0.9637572703692213E+00   -0.9331067766764927E-32    0.2504941999961484E+01
    0.1212121212121470E-30    0.3973598229042281E+01    0.1306014370158121E-30
    0.1546540123352509E+01    0.8002905657818533E-31    0.2504941999961484E+01
    0.1212121212121470E-30    0.2931570247918891E+01    0.3996885550953698E-30
    0.6973799367138891E+00    0.3481309067248363E-32    0.2504941999961484E+01
    0.1212121212121470E-30    0.3070319998906839E+01    0.2100037182684145E-30
    0.8903741869766002E+00    0.7712488796164027E-31    0.2504941999961484E+01
    0.1212121212121470E-30    0.2056562332029390E+01    0.4294668085386309E-30
    0.2183041992443719E+01    0.3782461580961259E-31    0.2504941999961484E+01
    0.1212121212121470E-30    0.3960694489254671E+01    0.2259705361697905E-30
    0.3855844883881473E+01    0.1784932175608800E-30    0.2504941999961484E+01
    0.1212121212121470E-30    0.2933250643805068E+01    0.3558534735527911E-30
    0.3152611372008674E+01    0.1115283363388058E-30    0.2504941999961484E+01
    0.1212121212121470E-30    0.3637668435336392E+01    0.2959845527131162E-30
    0.3103307388029135E+01    0.5185271477248291E-31    0.2504941999961484E+01
    0.1212121212121470E-30    0.4332607836744344E+01    0.1521436499765858E-30
    0.3266711050822214E+01    0.3601961362728600E-30    0.2504941999961484E+01
    0.1212121212121470E-30    0.1889656733417951E+01    0.6353768785665472E-30
    0.4232537571805414E+01    0.2580489315425677E-30    0.2504941999961484E+01
    0.1212121212121470E-30    0.1918627039918502E+01    0.4090791405801916E-30
    0.1905522344842235E+01    0.6572817491135404E-30    0.2504941999961484E+01
    0.1212121212121470E-30    0.7226292666170522E+00    0.8977306600900090E-30
    0.2879767720433331E+01    0.6107141644541251E-30    0.2504941999961484E+01
    0.1212121212121470E-30    0.9080947549972160E+00    0.8180347387425404E-30
    0.2012711351533436E+01    0.3615868018448290E-30    0.2504941999961484E+01
    0.1212121212121470E-30    0.1767082528588960E+01    0.7060364642880187E-30
    0.2669681472765471E+01    0.1849800474536327E-30    0.2504941999961484E+01
    0.1212121212121470E-30    0.2853394418098206E+01    0.4820509466857032E-30
    0.5000000000000000E+01    0.4754634911382609E-45    0.1250000000000000E+01
    0.4754634911382609E-45    0.5000000000000000E+01    0.4754634911382609E-45
    0.5000000000000000E+01    0.4754634911382609E-45    0.1088678712890414E-17
[...]
POINT_DATA 213
SCALARS rho double 1
LOOKUP_TABLE default
   0.1219134029537927E+01
  -0.6462031746539277E-31
   0.9226310391817097E+00
   0.2129420100235596E-31
   0.9116407145231165E+00
  -0.8147488010834697E-31
   0.8987535565474830E+00
   0.2556435503988891E-31
   0.7826874138494853E+00
  -0.8539177044437123E-32
   0.7115137076727275E+00
   0.2393734282936679E-30
   0.6993362430829159E+00
   0.8979311924612211E-31
   0.7025693233424539E+00
   0.4157752318573641E-31
   0.7698484622314417E+00
  -0.9173528616212929E-31
   0.8909696012045405E+00
   0.3242588109948641E-31
   0.8997151254714906E+00
  -0.7639867112500016E-31
   0.9248314576894472E+00
  -0.1464470416926349E-31
   0.1299011967131695E+01
  -0.1087003516055750E-30
   0.1346728812207193E+01
  -0.5515159102057977E-30
   0.1454805238010871E+01
  -0.2690029138808421E-30
   0.1286357161442831E+01
  -0.4170103116463640E-30
   0.9622138782210334E+00
  -0.4368130350334880E-31
   0.9060825520240653E+00
  -0.1858947586979002E-31
   0.8989012033602856E+00
   0.2096842925731092E-31
   0.9247549099279216E+00
  -0.1197034504737841E-31
   0.9119637090153722E+00
   0.3165589077336670E-32
   0.9859419367485854E+00
  -0.1753983901433349E-30
   0.8978223525837975E+00
  -0.4312352402468990E-31
   0.9010681452328076E+00
  -0.8234496671880983E-31
   0.9082030409360187E+00
  -0.2833861578431852E-31
   0.9128210508848585E+00
  -0.4034396614843827E-31
   0.8953900070116269E+00
  -0.1112386762201066E-31
   0.9139639056668567E+00
  -0.2747067171468361E-31
   0.8913491787557783E+00
   0.5935320500401113E-32
   0.9027237756298802E+00
  -0.3618390951545469E-31
   0.9077982019436082E+00
   0.1275910486991415E-31
   0.8627639952881455E+00
   0.3785887459507885E-31
   0.9090648983431990E+00
   0.9991949969576070E-31
   0.9515364878200812E+00
  -0.3002535095360908E-31
   0.1008377969536631E+01
   0.1511641900075089E-32
   0.1006992259092715E+01
   0.8023149586086481E-33
   0.1000863468605761E+01
  -0.1226395902806220E-32
   0.1000881034825507E+01
  -0.3668254769746346E-32
   0.1001118838799562E+01
  -0.4170143800420058E-32
   0.1002602161230632E+01
  -0.2805407988208316E-32
   0.1001542904323258E+01
   0.2339723999442627E-33
   0.1004881697228189E+01
  -0.7097939283665130E-33
   0.1016498584883732E+01
   0.6942526522684965E-32
   0.1057791516273972E+01
   0.2199287870193384E-31
   0.1005273565925441E+01
   0.2113508927133476E-31
   0.1000276497078630E+01
  -0.2147138805268715E-32
   0.9474564460015299E+00
  -0.3791309904786383E-31
   0.1001988895860698E+01
  -0.1352876798965407E-32
   0.9982058847773417E+00
  -0.4152903830076775E-33
   0.1004412433861155E+01
   0.2047712901383499E-33
   0.1005165250400732E+01
   0.1479201952092284E-32
   0.9992159365912554E+00
  -0.2560996799826518E-32
   0.9979184490941556E+00
  -0.1635993898055664E-32
   0.9988425602023996E+00
  -0.2951110432132456E-32
   0.9987209921782394E+00
  -0.2864651149636760E-32
   0.9783702102428724E+00
  -0.4357305393036807E-32
   0.9801219392593384E+00
  -0.2430048031982275E-32
   0.9643518268722443E+00
  -0.3067987251806744E-31
   0.9616564964119616E+00
  -0.2118923050780099E-31
   0.9870097133943808E+00
  -0.5284260908587873E-32
   0.9923591063480927E+00
  -0.1800997202512346E-32
   0.1001371512582420E+01
  -0.1024248355669631E-32
   0.1001670194600218E+01
  -0.1080918393358862E-32
   0.1001918544281613E+01
  -0.1173173440527147E-32
   0.1000930900618282E+01
  -0.7297372619355425E-33
   0.1009975201988356E+01
   0.1991342532698399E-32
   0.1006365220919952E+01
   0.3147828055159726E-32
   0.9450235164884486E+00
  -0.2348416563416726E-31
   0.9042803637282342E+00
  -0.3440731896007354E-31
   0.1007718670145816E+01
   0.2379867151473250E-33
   0.1004538759809119E+01
  -0.4483285104237610E-33
   0.8972278802919316E+00
  -0.3674417288798981E-31
   0.8933935163570540E+00
  -0.1567449114206166E-31
   0.8481306070842136E+00
  -0.1669836940108539E-31
   0.9703665402371450E+00
  -0.5016376513081847E-32
   0.9992972955763864E+00
   0.5926147234286621E-32
   0.1006483189505459E+01
  -0.7168230523428390E-33
   0.1014462288757674E+01
   0.4058629696511241E-32
   0.1012405565906100E+01
   0.4357936794399890E-32
   0.1012213217542431E+01
   0.5083985652043042E-33
   0.1005510981201437E+01
  -0.3768966649207125E-33
   0.9863398317515762E+00
  -0.3709123415307871E-33
   0.1006135418004470E+01
   0.5354923195742044E-33
   0.9841398355062198E+00
   0.5834495280766896E-32
   0.1006144170998901E+01
   0.4162994013757598E-32
   0.1001766665022619E+01
   0.5358133147962634E-33
   0.1000916158984040E+01
   0.6302735639862750E-33
   0.1001281512930444E+01
   0.5048506184925755E-33
   0.1001832098675484E+01
  -0.7378345058038181E-34
   0.1002413560603583E+01
  -0.1725522398142201E-32
   0.1000012706115381E+01
  -0.3056325983415067E-32
   0.1000323480405929E+01
  -0.2207195850097497E-32
   0.1000337111438102E+01
  -0.2834339978026065E-32
   0.1001811720750544E+01
  -0.1231895205502955E-32
   0.1002008358123019E+01
  -0.1962670289860961E-32
   0.9989487718814565E+00
  -0.2232184769763329E-32
   0.1000213317560386E+01
  -0.2147925228986727E-32
   0.1000839580061692E+01
  -0.2305330483022813E-32
   0.1000240558936234E+01
  -0.3579266758501196E-32
   0.1000178371650304E+01
  -0.2311406000831226E-32
   0.1001023259551281E+01
  -0.4206060846792623E-33
   0.1001412847948316E+01
  -0.2603331855389266E-32
   0.1001114330256227E+01
  -0.2318410545435449E-32
   0.1001500787620517E+01
  -0.1472886431376979E-32
   0.1001063174256577E+01
  -0.4131165425597038E-32
   0.1001374304552616E+01
  -0.3458934831384772E-32
   0.1001007163658478E+01
  -0.3053751289899280E-32
   0.1000371480527642E+01
  -0.3157725148597776E-32
   0.1060651571178963E+01
   0.1246915775253710E-31
   0.1020334367304332E+01
   0.8943461208435171E-32
   0.1005949624751319E+01
   0.3128265509381219E-33
   0.1003369784200803E+01
  -0.1497868961652096E-33
   0.1141354401375846E+01
   0.1092884239967671E-31
   0.1083286207118281E+01
   0.1857195702690739E-31
   0.1004327241297168E+01
   0.2069216287866937E-33
   0.1003795922659451E+01
   0.3441907645251684E-33
   0.1003700706991378E+01
  -0.1961396739928552E-33
   0.1006590269814592E+01
   0.2805934030545991E-32
   0.1012099168948933E+01
   0.7105675428029638E-32
   0.1192715926874385E+01
  -0.3850303849509566E-31
   0.1028281961063628E+01
   0.5397819776902415E-32
   0.1034490292436938E+01
   0.1587857478335944E-31
   0.1168860327164533E+01
   0.2944566994831566E-31
   0.1009803245820049E+01
   0.2310236272433675E-32
   0.1023219929878582E+01
   0.9943927287022293E-32
   0.1017195558779882E+01
   0.4275384159953950E-32
   0.1007878887802443E+01
   0.5070530915444559E-32
   0.1013794523819296E+01
   0.1717504055327232E-31
   0.1000310976562103E+01
  -0.2123005797211273E-32
   0.9455919587189516E+00
  -0.3538520313877253E-31
   0.1003344089277449E+01
  -0.4873104691156731E-33
   0.9990183434637553E+00
  -0.4999831687918612E-32
   0.1006137399567091E+01
   0.1880571145729756E-32
   0.1009057558832786E+01
  -0.1666599061760846E-32
   0.9979417475676085E+00
  -0.2818998314978521E-32
   0.9976046487233595E+00
  -0.1895682676820505E-32
   0.9960969180855919E+00
  -0.3339319405772260E-32
   0.9983734639680473E+00
  -0.2630780800949500E-32
   0.9808779190531314E+00
  -0.1165150275226073E-31
   0.9778642353370920E+00
  -0.5591219210999548E-32
   0.9482522554096406E+00
  -0.3536448121731466E-31
   0.9510716180178456E+00
  -0.3931453753496202E-31
   0.9878722390435298E+00
  -0.9977390349255486E-32
   0.9902132121902661E+00
  -0.4181047797349064E-32
   0.9926388212282811E+00
  -0.4041874834238056E-32
   0.9998960192216523E+00
  -0.2088359697340273E-32
   0.9986994500350977E+00
  -0.3140661873160989E-32
   0.9946796679422373E+00
  -0.2281480942850465E-32
   0.1006737367020746E+01
   0.1302638162462400E-32
   0.1020944589101883E+01
   0.1277761381414022E-31
   0.9978086056681063E+00
  -0.7767069778081074E-32
   0.1004741202957843E+01
  -0.7694366345697591E-33
   0.1001356994461628E+01
  -0.1294231796403370E-32
   0.1004761492516459E+01
  -0.1194586013522632E-33
   0.9953199512758960E+00
  -0.2338003815653343E-32
   0.9852685670543371E+00
   0.1053713145924097E-31
   0.1000275779442016E+01
  -0.2353529608638340E-32
   0.9939691708238368E+00
  -0.2785041295690932E-32
   0.9818671852078286E+00
  -0.1828825423366707E-32
   0.9942176453220942E+00
  -0.2385754399002401E-32
   0.9968740804335896E+00
  -0.2968144461553266E-32
   0.9929869583955443E+00
  -0.1008826542507006E-32
   0.9986781870267116E+00
  -0.2485345881684300E-32
   0.1000045070283474E+01
  -0.2618138065356023E-32
   0.9997580551475774E+00
  -0.2904742140663539E-32
   0.9953543326404743E+00
  -0.7254302739982206E-33
   0.9934386740152937E+00
  -0.2574217652778935E-32
   0.1001359470477174E+01
  -0.1672267453511903E-32
   0.1018100525057178E+01
  -0.1191576641376122E-32
   0.1002754632825295E+01
  -0.4830313654506233E-32
   0.9807211836863418E+00
  -0.9953228656098867E-32
   0.1001888908502328E+01
  -0.1492283921714601E-32
   0.1008094097884240E+01
   0.1274707387760185E-32
   0.9703595485643629E+00
  -0.1080758457624435E-31
   0.9431718430809621E+00
   0.5536490654348102E-32
   0.9845791753456354E+00
  -0.1135565338884196E-31
   0.9845644007129222E+00
  -0.6933865118540607E-32
   0.9759362993886935E+00
  -0.3212972006854144E-31
   0.9907790771222534E+00
  -0.1374290267646956E-31
   0.9774205036095449E+00
  -0.3206096378983237E-31
   0.1033863777519603E+01
  -0.6764196802958118E-32
   0.1021196216997291E+01
   0.1250188719575960E-31
   0.1000259158780278E+01
  -0.2404684516704873E-32
   0.9991305192145531E+00
  -0.3154391725282799E-32
   0.9911078263047255E+00
   0.2203243462396251E-32
   0.9906909256361213E+00
  -0.3941841713963406E-32
   0.9575615910909242E+00
  -0.8231052934387107E-32
   0.9924950547916220E+00
   0.1374850212588440E-32
   0.1006124749869903E+01
   0.9763779524052921E-33
   0.1001959833480539E+01
  -0.6476513608434306E-33
   0.9898349796018771E+00
  -0.4955524398505819E-32
   0.9657116760683742E+00
  -0.6043838277041033E-32
   0.9211023123129927E+00
  -0.2458057871895533E-31
   0.9725771647786460E+00
  -0.1131467556711591E-31
   0.9782276507242632E+00
  -0.5703796038834239E-32
   0.9569318974312350E+00
  -0.6674980387504247E-32
   0.9618613497639015E+00
  -0.2411511159568009E-31
   0.9492266153472001E+00
  -0.3277450441527923E-32
   0.9375011580955110E+00
  -0.2300704910233647E-31
   0.9320228002273753E+00
  -0.3256073167080505E-31
   0.9993330762026340E+00
  -0.1629522304129877E-32
   0.9994471229080699E+00
  -0.2459426692079409E-32
   0.9988476064363974E+00
  -0.2525960256056642E-32
   0.1001937805616037E+01
  -0.8439049255991792E-33
   0.9401059518004031E+00
  -0.2483430975627492E-31
   0.9260637255266778E+00
  -0.6195292562327496E-31
   0.9376811081812618E+00
  -0.2050551975154888E-31
   0.9982716786264119E+00
  -0.2683110927327038E-32
   0.9982359103203546E+00
  -0.2647792183391132E-32
   0.1000512420005059E+01
  -0.1752899620543076E-32
   0.9796499119507183E+00
  -0.1054354274503961E-31
   0.9713011643415292E+00
  -0.7225465719299205E-32
   0.9459752627228093E+00
  -0.1852302529013948E-31
SCALARS u double 1
LOOKUP_TABLE default
   0.0000000000000000E+00
   0.0000000000000000E+00
   0.0000000000000000E+00
   0.0000000000000000E+00
   0.0000000000000000E+00
   0.0000000000000000E+00
   0.0000000000000000E+00
   0.0000000000000000E+00
   0.0000000000000000E+00
   0.0000000000000000E+00
   0.0000000000000000E+00
   0.0000000000000000E+00
   0.0000000000000000E+00
   0.0000000000000000E+00
   0.0000000000000000E+00
   0.0000000000000000E+00
   0.0000000000000000E+00
   0.0000000000000000E+00
   0.0000000000000000E+00
   0.0000000000000000E+00
   0.0000000000000000E+00
   0.0000000000000000E+00
   0.0000000000000000E+00
   0.0000000000000000E+00
   0.0000000000000000E+00
   0.0000000000000000E+00
   0.0000000000000000E+00
   0.0000000000000000E+00
   0.0000000000000000E+00
   0.0000000000000000E+00
   0.0000000000000000E+00
   0.0000000000000000E+00
   0.0000000000000000E+00
   0.0000000000000000E+00
   0.0000000000000000E+00
   0.0000000000000000E+00
   0.0000000000000000E+00
   0.0000000000000000E+00
   0.0000000000000000E+00
   0.0000000000000000E+00
   0.0000000000000000E+00
   0.0000000000000000E+00
   0.0000000000000000E+00
   0.0000000000000000E+00
   0.0000000000000000E+00
   0.0000000000000000E+00
   0.0000000000000000E+00
   0.0000000000000000E+00
   0.0000000000000000E+00
   0.0000000000000000E+00
   0.0000000000000000E+00
   0.0000000000000000E+00
   0.0000000000000000E+00
   0.0000000000000000E+00
   0.0000000000000000E+00
   0.0000000000000000E+00
   0.0000000000000000E+00
   0.0000000000000000E+00
   0.0000000000000000E+00
   0.0000000000000000E+00
   0.0000000000000000E+00
   0.0000000000000000E+00
   0.0000000000000000E+00
   0.0000000000000000E+00
   0.0000000000000000E+00
   0.0000000000000000E+00
   0.5056111767651770E+00
  -0.2432883973398816E-31
   0.5281605651070815E+00
  -0.5041945447794314E-32
   0.5144099582719694E+00
  -0.5836225110118706E-33
   0.4943194041165678E+00
  -0.1384447380172311E-32
   0.4882422425222111E+00
   0.2513347496065505E-32
   0.4892483622800870E+00
   0.7268424525335549E-32
   0.4916752263054239E+00
   0.7272634070947057E-32
   0.4984279623630078E+00
   0.9388472445157128E-33
   0.4933346972945461E+00
   0.3029804861691385E-32
   0.4791760522694442E+00
  -0.5982867028356919E-32
   0.4525319131053883E+00
  -0.1393459298310179E-31
   0.4746543122944893E+00
   0.6794437283948113E-31
   0.5096985577885171E+00
  -0.6842472947871694E-33
   0.4534876679626479E+00
   0.8436372526027783E-31
   0.4980288744797007E+00
   0.2556715498311563E-32
   0.5238762868475267E+00
  -0.5810864774468055E-32
   0.4996139906711374E+00
  -0.2196678567698735E-33
   0.5241467736745220E+00
  -0.9306721250711478E-32
   0.5063100243142356E+00
   0.6205194776621403E-33
   0.5614642530432166E+00
  -0.1254703849674309E-32
   0.5255972114266106E+00
  -0.3191047442824001E-32
   0.5011924280772256E+00
   0.1365935030887674E-32
   0.5716355983347953E+00
   0.1755375602367230E-31
   0.5700289687644723E+00
   0.2127301970542821E-32
   0.3695026832819990E+00
   0.9879527864045321E-31
   0.4046413702931114E+00
   0.6002972775480992E-31
   0.5549314156476842E+00
   0.3414254675511836E-31
   0.5551722285232178E+00
  -0.1035319845750710E-33
   0.4951205752615623E+00
  -0.2164290681335342E-32
   0.4954806491032662E+00
  -0.2939304533327571E-32
   0.4935452972880815E+00
  -0.4776892103086405E-32
   0.4926688089892963E+00
  -0.4541369210814457E-32
   0.5127171445226993E+00
   0.1670250873912311E-32
   0.5312458820342938E+00
   0.6323438344234224E-32
   0.5064716879355452E+00
  -0.1166583328964479E-31
   0.4711116199148082E+00
  -0.3901841885372587E-31
   0.5093705876686557E+00
   0.6856875312297160E-33
   0.5083269495095298E+00
  -0.3230330752772863E-33
   0.4965792808581108E+00
  -0.1809224122758149E-31
   0.5104317267498316E+00
  -0.4153352697030255E-31
   0.4872305223833471E+00
  -0.8786815103111659E-31
   0.5300668015890729E+00
  -0.2452023106815174E-31
   0.5273089009807627E+00
  -0.4784495446049701E-32
   0.5090845522728850E+00
  -0.1602076980319666E-32
   0.5260823152276082E+00
   0.3109155910504064E-32
   0.5251038684710505E+00
   0.5244961001051758E-32
   0.5237638073408228E+00
   0.9903298597676223E-33
   0.5036432028933947E+00
  -0.1954301913184492E-32
   0.5284185071572776E+00
  -0.1077704616390639E-31
   0.5340750631344804E+00
  -0.9537734687766298E-33
   0.5374446960464692E+00
  -0.1789530766814269E-31
   0.5320535620290887E+00
  -0.4898751084773357E-32
   0.4993740624936269E+00
  -0.1098403366509478E-32
   0.4999788007511952E+00
  -0.1196242534310084E-32
   0.4987794429550254E+00
   0.3716503266710097E-34
   0.4979278727774936E+00
   0.2817077144385465E-33
   0.4931093600912022E+00
   0.4886797584472960E-32
   0.4930548348618013E+00
   0.4660615385063465E-32
   0.4891291091621381E+00
  -0.1134916818006797E-32
   0.4898905218442323E+00
   0.5811793449845493E-33
   0.4957723238474082E+00
   0.3857008562932949E-32
   0.4936867955170859E+00
   0.5810737190949892E-32
   0.4880624506806552E+00
  -0.2945069415135868E-32
   0.4911091765128237E+00
  -0.1015311955970597E-32
   0.4916623027209420E+00
  -0.6888415036519922E-33
   0.4911296089415789E+00
   0.3670374691407529E-32
   0.4915626682866362E+00
   0.3743024663310238E-32
   0.4978751254318956E+00
   0.3099765463499448E-32
   0.4929589465462570E+00
   0.6951642251876901E-32
   0.4932955388270855E+00
   0.5815350785321996E-32
   0.4968039384313710E+00
   0.4853675031973354E-32
   0.4896418973937882E+00
   0.4684228925935600E-32
   0.4922092917082662E+00
   0.6792220957616754E-32
   0.4917270756607015E+00
   0.7366702958438578E-32
   0.4912642008634534E+00
   0.4695262032841431E-32
   0.4518181682807681E+00
  -0.1173836373401691E-31
   0.4774603927060192E+00
  -0.8281295724660928E-32
   0.4928759076289942E+00
  -0.3275066248055649E-33
   0.4919282067571930E+00
   0.4371947147576119E-32
   0.4651127607245727E+00
   0.1882766623494338E-31
   0.4721718610352215E+00
  -0.1971006834977915E-31
   0.4914612802387665E+00
   0.1311528633086596E-32
   0.4907488204917747E+00
   0.3158293727671312E-32
   0.4941411239774736E+00
   0.2602818935248892E-32
   0.4856010671400566E+00
   0.7608826800685672E-33
   0.4738958805852896E+00
  -0.8364956188131462E-32
   0.4021415912988937E+00
   0.1328680148265972E-31
   0.4922267200278844E+00
  -0.4340241770603063E-31
   0.4592954493424209E+00
  -0.1593274066583143E-31
   0.4600222508111005E+00
   0.7240449629100154E-32
   0.4894474830646934E+00
  -0.1035824134609083E-32
   0.4711677191403936E+00
  -0.1192715327232053E-31
   0.4746340710170022E+00
  -0.3004073195228130E-31
   0.4817459934648134E+00
  -0.3713642744791296E-32
   0.4809665322846316E+00
   0.6640577756876140E-31
   0.5088539496265575E+00
  -0.1548791771697395E-33
   0.4462503316162617E+00
   0.3347516235998964E-31
   0.4962883750281071E+00
   0.1465398772364857E-32
   0.5325957742529339E+00
  -0.3115728191555817E-32
   0.4954414245150329E+00
  -0.1948210691400933E-32
   0.5220030095436430E+00
  -0.7093345340894316E-33
   0.5090998227141560E+00
   0.4280270879453109E-33
   0.5649650781404636E+00
   0.1591694248190358E-31
   0.5280921382346916E+00
   0.2320517691365351E-32
   0.5039011432946581E+00
   0.9595655181376526E-33
   0.5819074702424651E+00
   0.3793740813069872E-31
   0.5710399020623993E+00
   0.1994066654666936E-31
   0.3419341566471787E+00
   0.1065365455817988E-30
   0.3865039463004786E+00
  -0.1464807521018659E-31
   0.5704914268524256E+00
   0.6060582790827822E-31
   0.5644744758246930E+00
   0.1444224278301021E-31
   0.5680346588535377E+00
  -0.2006274163636120E-32
   0.5294479136629578E+00
  -0.7535870111661021E-32
   0.5447824719766916E+00
  -0.1187693472458910E-31
   0.5697500003813851E+00
   0.7640564272014427E-32
   0.5403841754909696E+00
  -0.2208094407075795E-31
   0.5487297120245418E+00
   0.2240817738662463E-31
   0.5786967975684750E+00
   0.3554391235716266E-31
   0.4958869492330278E+00
  -0.6323867108006144E-32
   0.5066931538978403E+00
  -0.1030536926033287E-32
   0.4997870823894193E+00
  -0.4854160115707396E-32
   0.5529598893799593E+00
   0.7955398191733520E-32
   0.4599360224888445E+00
  -0.1896773415219547E-31
   0.4984308883572202E+00
   0.2585672920374301E-32
   0.5487190615307079E+00
  -0.5132010304574931E-32
   0.5873570161117839E+00
   0.2107582999712026E-31
   0.5807065578997299E+00
   0.4301170582114167E-32
   0.5451131296262640E+00
  -0.1582914756717252E-32
   0.5754256936511301E+00
   0.4185797220140834E-32
   0.5124462104639340E+00
  -0.2040409679993470E-32
   0.5057331509783275E+00
  -0.9240606658200797E-33
   0.5050566463689544E+00
  -0.2159463693665065E-33
   0.5629545390981461E+00
   0.4315086916963968E-32
   0.5551490838082520E+00
   0.1151438472662163E-33
   0.4981552540535642E+00
   0.4001544922055433E-33
   0.5484856607536858E+00
  -0.1715138394939145E-31
   0.5484564968692489E+00