# vtk DataFile Version 2.0
FUN3D:global_image_vtk
ASCII
DATASET UNSTRUCTURED_GRID
POINTS 213 double
   -0.5474740594603400E-02    0.2504942002468015E+01    0.8038066513782604E-04
    0.1245419060588729E+01    0.2504942002468015E+01    0.1039420355315457E-03
    0.2497696073669951E+01    0.2504942002468015E+01    0.1101293108886625E-03
    0.3750590983903951E+01    0.2504942002468015E+01    0.1356498038757592E-03
    0.5003221377586127E+01    0.2504942002468015E+01    0.9668806236868217E-04
    0.5004676742906220E+01    0.1281291392998363E+01    0.1638058477060333E-03
    0.5004772721058898E+01    0.2775095788685259E-01    0.1903487481412225E-03
    0.5003581212092667E+01   -0.1225853379649929E+01    0.1607772012999775E-03
    0.5001952544222647E+01   -0.2496589018760901E+01    0.1082264471407011E-03
    0.3750348112983221E+01   -0.2496589018760901E+01    0.1458760651341651E-03
    0.2498611454364745E+01   -0.2496589018760901E+01    0.1008938464083786E-03
    0.1247175251993104E+01   -0.2496589018760901E+01    0.1108592957382863E-03
   -0.3383979682904936E-02   -0.2496589018760901E+01    0.8107293234871203E-04
   -0.4257801348440449E-02   -0.1225734687856262E+01    0.3415453547450653E-04
   -0.5251639246458328E-02    0.2619500007965778E-01    0.1038724994502087E-03
   -0.5676116282443466E-02    0.1278221728471008E+01    0.8224550527285965E-04
    0.9003209061970090E+00    0.1608979292482069E+01    0.8704095674000323E-04
    0.3983172219358475E+01   -0.1561211781392466E+01    0.1757125336077081E-03
    0.4035602063492015E+01    0.1486760245757025E+01    0.1713318841095574E-03
    0.1036613695255868E+01   -0.1455626302577312E+01    0.1047193358013065E-03
    0.1094353436962879E+01   -0.2964620547863022E+00    0.1260594408125648E-03
    0.7298399732447656E+00    0.6874686355485903E+00    0.1044597967373440E-03
    0.1617018608574693E+01    0.8553209825042054E+00    0.1529816073164159E-03
    0.2143199643574004E+01   -0.1627128385141894E+01    0.1606178561641691E-03
    0.4088840468516652E+01   -0.4351046315069668E+00    0.2719950835657900E-03
    0.2977916498708485E+01   -0.8334990110939411E+00    0.2245609625897149E-03
    0.3044093234685481E+01   -0.1814361102461422E+01    0.1617007901553169E-03
    0.3427866614749028E+01    0.3813906737475881E+00    0.2936972898189283E-03
    0.4313225393964806E+01    0.5489135241650743E+00    0.2313021604605225E-03
    0.1823032697010121E+01    0.1771265398461594E+01    0.1836207261416995E-03
    0.2806311133387878E+01    0.1358629588153143E+01    0.1943500587783253E-03
    0.1891860842801186E+01   -0.8481308964520677E+00    0.1670653536969283E-03
    0.2268769161311812E+01    0.7723708732351986E-01    0.2072318374125562E-03
    0.5000000000000000E+01    0.2504942002468015E+01    0.1250000000000000E+01
    0.5000000000000000E+01    0.2504942002468015E+01    0.2500000000000000E+01
    0.5000000000000000E+01    0.2504942002468015E+01    0.3750000000000000E+01
    0.5000000000000000E+01    0.2504942002468015E+01    0.5000000000000000E+01
    0.3750000000000000E+01    0.2504942002468015E+01    0.5000000000000000E+01
    0.2500000000000000E+01    0.2504942002468015E+01    0.5000000000000000E+01
    0.1250000000000000E+01    0.2504942002468015E+01    0.5000000000000000E+01
    0.0000000000000000E+00    0.2504942002468015E+01    0.5000000000000000E+01
    0.0000000000000000E+00    0.2504942002468015E+01    0.3750000000000000E+01
    0.0000000000000000E+00    0.2504942002468015E+01    0.2500000000000000E+01
    0.0000000000000000E+00    0.2504942002468015E+01    0.1250000000000000E+01
    0.9588956064218439E+00    0.2504942002468015E+01    0.9696526008694626E+00
    0.3981953079952927E+01    0.2504942002468015E+01    0.4070563859161240E+01
    0.4036122196966512E+01    0.2504942002468015E+01    0.1017567553205740E+01
    0.9637572746747129E+00    0.2504942002468015E+01    0.3973598209858041E+01
    0.1546540127929946E+01    0.2504942002468015E+01    0.2931570189025510E+01
    0.6973799442222214E+00    0.2504942002468015E+01    0.3070319964744884E+01
    0.8903741947279166E+00    0.2504942002468015E+01    0.2056562262665315E+01
    0.2183041993268189E+01    0.2504942002468015E+01    0.3960694458912845E+01
    0.3855844875188856E+01    0.2504942002468015E+01    0.2933250599517386E+01
    0.3152611367489020E+01    0.2504942002468015E+01    0.3637668398431757E+01
    0.3103307385298766E+01    0.2504942002468015E+01    0.4332607818174344E+01
    0.3266711043563175E+01    0.2504942002468015E+01    0.1889656637524574E+01
    0.4232537560766444E+01    0.2504942002468015E+01    0.1918626986171087E+01
    0.1905522338007585E+01    0.2504942002468015E+01    0.7226291174446483E+00
    0.2879767716040244E+01    0.2504942002468015E+01    0.9080946092062979E+00
    0.2012711350767002E+01    0.2504942002468015E+01    0.1767082417726314E+01
    0.2669681469718241E+01    0.2504942002468015E+01    0.2853394351007645E+01
    0.5000000000000000E+01    0.1250000000000000E+01    0.5000000000000000E+01
    0.5000000000000000E+01    0.0000000000000000E+00    0.5000000000000000E+01
    0.5000000000000000E+01   -0.1250000000000000E+01    0.5000000000000000E+01
    0.5000000000000000E+01   -0.2496589018760901E+01    0.5000000000000000E+01
    0.5000000000000000E+01   -0.2496589018760901E+01    0.3750000000000000E+01
    0.5000000000000000E+01   -0.2496589018760901E+01    0.2500000000000000E+01
    0.5000000000000000E+01   -0.2496589018760901E+01    0.1250000000000000E+01
    0.5000000000000000E+01    0.1578994732800803E+01    0.9058375365086910E+00
    0.5000000000000000E+01   -0.1583989954232354E+01    0.3982050490726493E+01
    0.5000000000000000E+01    0.1453322699199022E+01    0.4033849428301197E+01
    0.5000000000000000E+01   -0.1479596339503735E+01    0.1040505887381675E+01
    0.5000000000000000E+01   -0.3227322616384110E+00    0.1099454400140349E+01
    0.5000000000000000E+01    0.6593508822075582E+00    0.7354504170366591E+00
    0.5000000000000000E+01    0.8256214013940779E+00    0.1622302608453282E+01
    0.5000000000000000E+01   -0.1650070333782557E+01    0.2145871574390382E+01
    0.5000000000000000E+01   -0.4612828702537229E+00    0.4086422318222992E+01
    0.5000000000000000E+01   -0.8579242121530853E+00    0.2979540174134984E+01
    0.5000000000000000E+01   -0.1836846154397680E+01    0.3045064261640043E+01
    0.5000000000000000E+01    0.3508002863614053E+00    0.3428197553792836E+01
    0.5000000000000000E+01    0.5185680230613409E+00    0.4309693860063405E+01
    0.5000000000000000E+01    0.1738996113203182E+01    0.1827272193562204E+01
    0.5000000000000000E+01    0.1325493893339706E+01    0.2808563282768077E+01
    0.5000000000000000E+01   -0.8731419609589618E+00    0.1895995683864404E+01
    0.5000000000000000E+01    0.4906150219227333E-01    0.2273179336307740E+01
    0.0000000000000000E+00    0.1250000000000000E+01    0.5000000000000000E+01
    0.0000000000000000E+00    0.0000000000000000E+00    0.5000000000000000E+01
    0.0000000000000000E+00   -0.1250000000000000E+01    0.5000000000000000E+01
    0.0000000000000000E+00   -0.2496589018760901E+01    0.5000000000000000E+01
    0.1250000000000000E+01   -0.2496589018760901E+01    0.5000000000000000E+01
    0.2500000000000000E+01   -0.2496589018760901E+01    0.5000000000000000E+01
    0.3750000000000000E+01   -0.2496589018760901E+01    0.5000000000000000E+01
    0.4042003247744892E+01    0.1558308132739014E+01    0.5000000000000000E+01
    0.9304122287900499E+00   -0.1548001304379777E+01    0.5000000000000000E+01
    0.1037243024609388E+01    0.1462892710085612E+01    0.5000000000000000E+01
    0.3946240828834967E+01   -0.1445243809615570E+01    0.5000000000000000E+01
    0.4092527262848217E+01   -0.3455338993778935E+00    0.5000000000000000E+01
    0.4293103109154542E+01    0.6277660831404320E+00    0.5000000000000000E+01
    0.3241512314643519E+01    0.7429886854239611E+00    0.5000000000000000E+01
    0.2844289952419609E+01   -0.1588117879734118E+01    0.5000000000000000E+01
    0.7159905765450471E+00   -0.6002320124191652E+00    0.5000000000000000E+01
    0.1754341919796891E+01   -0.7398147869923652E+00    0.5000000000000000E+01
    0.1870296826774691E+01   -0.1788622905643739E+01    0.5000000000000000E+01
    0.9220614901912976E+00    0.3083720183248586E+00    0.5000000000000000E+01
    0.3101523624086016E+01    0.1777901774806180E+01    0.5000000000000000E+01
    0.2192512063922564E+01    0.1576861561598471E+01    0.5000000000000000E+01
    0.2024793420196460E+01    0.4773861992750707E+00    0.5000000000000000E+01
    0.2990627757741975E+01   -0.4878110785814084E+00    0.5000000000000000E+01
    0.0000000000000000E+00   -0.2496589018760901E+01    0.1250000000000000E+01
    0.0000000000000000E+00   -0.2496589018760901E+01    0.2500000000000000E+01
    0.0000000000000000E+00   -0.2496589018760901E+01    0.3750000000000000E+01
    0.0000000000000000E+00    0.1558308132739014E+01    0.4042003247744892E+01
    0.0000000000000000E+00   -0.1548001304379777E+01    0.9304122287900499E+00
    0.0000000000000000E+00    0.1462892710085612E+01    0.1037243024609388E+01
    0.0000000000000000E+00   -0.1445243809615570E+01    0.3946240828834967E+01
    0.0000000000000000E+00   -0.3455338993778935E+00    0.4092527262848217E+01
    0.0000000000000000E+00    0.6277660831404320E+00    0.4293103109154542E+01
    0.0000000000000000E+00    0.7429886854239611E+00    0.3241512314643519E+01
    0.0000000000000000E+00   -0.1588117879734118E+01    0.2844289952419609E+01
    0.0000000000000000E+00   -0.6002320124191652E+00    0.7159905765450471E+00
    0.0000000000000000E+00   -0.7398147869923652E+00    0.1754341919796891E+01
    0.0000000000000000E+00   -0.1788622905643739E+01    0.1870296826774691E+01
    0.0000000000000000E+00    0.3083720183248586E+00    0.9220614901912976E+00
    0.0000000000000000E+00    0.1777901774806180E+01    0.3101523624086016E+01
    0.0000000000000000E+00    0.1576861561598471E+01    0.2192512063922564E+01
[...]
POINT_DATA 213
SCALARS rho double 1
LOOKUP_TABLE default
   0.1346097002478948E+01
   0.9571994889248067E+00
   0.9460925261901360E+00
   0.9421713070346820E+00
   0.8435935423098873E+00
   0.7741865188967368E+00
   0.7627490142917634E+00
   0.7661376009685565E+00
   0.8310374387060347E+00
   0.9353532038707019E+00
   0.9343976630977485E+00
   0.9615835736288968E+00
   0.1448454633985335E+01
   0.1495394541028500E+01
   0.1646716569272721E+01
   0.1426577887838221E+01
   0.1009796832605311E+01
   0.9511377810213617E+00
   0.9438170787454009E+00
   0.9574429169051560E+00
   0.9414772716441260E+00
   0.1037107147282737E+01
   0.9258078146677776E+00
   0.9322440337441548E+00
   0.9538047647641330E+00
   0.9520361764660324E+00
   0.9350902082836053E+00
   0.9565433485547252E+00
   0.9378588928043823E+00
   0.9303242951161005E+00
   0.9446416457457225E+00
   0.8862304485916308E+00
   0.9423969620443422E+00
   0.9637181914062952E+00
   0.1008362563342026E+01
   0.1006713483006980E+01
   0.1001958831508889E+01
   0.1003217685900646E+01
   0.1004119832560576E+01
   0.1005207378865249E+01
   0.1004249317700393E+01
   0.1008267099146227E+01
   0.1023865869353571E+01
   0.1063750819197250E+01
   0.1019382678848655E+01
   0.1001778552200211E+01
   0.9645925746355209E+00
   0.1005262393833539E+01
   0.1000745043182689E+01
   0.1008694170620146E+01
   0.1008031885816398E+01
   0.1002353976395716E+01
   0.9980224130524304E+00
   0.1000594057057441E+01
   0.1001620903417796E+01
   0.9828094915630328E+00
   0.9843997828131329E+00
   0.9834242148376743E+00
   0.9790374676871995E+00
   0.9904789004732943E+00
   0.9935221889889535E+00
   0.1002008741378566E+01
   0.1002131973311930E+01
   0.1002272709106100E+01
   0.1001792815450941E+01
   0.1009814936365061E+01
   0.1006499289704802E+01
   0.9560826910392588E+00
   0.9252938246450328E+00
   0.1007053691827093E+01
   0.1004491502337399E+01
   0.9144854568232096E+00
   0.9091439054695681E+00
   0.8752432949072688E+00
   0.9768022173739391E+00
   0.1000530115526133E+01
   0.1005826619907013E+01
   0.1012895784006988E+01
   0.1011677277284388E+01
   0.1010416527967418E+01
   0.1005456511039986E+01
   0.9909247201155308E+00
   0.1005152840644437E+01
   0.9860799641345622E+00
   0.1005593071565183E+01
   0.1004239464915915E+01
   0.1002885827065516E+01
   0.1003350347028720E+01
   0.1003998452160246E+01
   0.1005116094476878E+01
   0.1003223534335739E+01
   0.1002668629149633E+01
   0.1002589605211207E+01
   0.1004069497855099E+01
   0.1004304401151244E+01
   0.1001642390362901E+01
   0.1002278745435326E+01
   0.1002546658382493E+01
   0.1003471913335600E+01
   0.1003380290368015E+01
   0.1003233302781764E+01
   0.1004430203499311E+01
   0.1004324628075481E+01
   0.1003652911926086E+01
   0.1003718541507078E+01
   0.1004318864828696E+01
   0.1004462407984975E+01
   0.1003629299971278E+01
   0.1064489711368732E+01
   0.1028444241800065E+01
   0.1009606837071791E+01
   0.1006626073603121E+01
   0.1163974931030784E+01
   0.1086025349019773E+01
   0.1007907651905543E+01
   0.1007251940098908E+01
   0.1006796091054485E+01
   0.1013052214973932E+01
   0.1019341253350008E+01
   0.1235134881614732E+01
   0.1032535507692941E+01
   0.1046565553996427E+01
   0.1201695800732267E+01
   0.1014670081667901E+01
   0.1032293477716948E+01
   0.1028219928374523E+01
   0.1014640071672412E+01
   0.1028999238986525E+01
   0.1002002403292472E+01
   0.9607798450302728E+00
   0.1006858995115566E+01
   0.1001326399019540E+01
   0.1010799962622223E+01
   0.1012236578134277E+01
   0.1000939793814666E+01
   0.9979315694125799E+00
   0.9980679353392160E+00
   0.1001191382429129E+01
   0.9841977150732085E+00
   0.9815061841901308E+00
   0.9648620667652970E+00
   0.9680679221347035E+00
   0.9914140154490337E+00
   0.9910913031303930E+00
   0.9925597577089759E+00
   0.1001728079097409E+01
   0.9993249299607553E+00
   0.9941443889245394E+00
   0.1006981396693501E+01
   0.1022611157980414E+01
   0.1001120777096230E+01
   0.1008783412248248E+01
   0.1004774305389347E+01
   0.1009028544222689E+01
   0.9967193913371821E+00
   0.1005562614036486E+01
   0.1003325018836344E+01
   0.9949862562380507E+00
   0.9833516922798519E+00
   0.9944520860179108E+00
   0.9973481064840527E+00
   0.9932519211096815E+00
   0.1001312037131948E+01
   0.1003000802855000E+01
   0.1002188622867354E+01
   0.9947121111063879E+00
   0.9937838198818744E+00
   0.1004861304629779E+01
   0.1020102527913111E+01
   0.1005340616877044E+01
   0.9817058992632369E+00
   0.1004974829247043E+01
   0.1012375707520158E+01
   0.9873705188393159E+00
   0.9551253471754770E+00
   0.9865273999948233E+00
   0.9865946514470623E+00
   0.9920042015574522E+00
   0.9934462884316115E+00
   0.9960612755668056E+00
   0.1037404888358468E+01
   0.1033163231357139E+01
   0.1001443049119149E+01
   0.1001928974150658E+01
   0.9912286358246166E+00
   0.9911119327430653E+00
   0.9649284231414865E+00
   0.9933727646828051E+00
   0.1006089045016295E+01
   0.1001962053438907E+01
   0.9908625083774774E+00
   0.9742250538265862E+00
   0.9420725327477848E+00
   0.9821579074357789E+00
   0.9794772730640431E+00
   0.9704319631658083E+00
   0.9720820387487034E+00
   0.9557851894287579E+00
   0.9497953596192309E+00
   0.9529801794547939E+00
   0.1002636554249195E+01
   0.1002475647470082E+01
   0.1000512858391221E+01
   0.1001675819942929E+01
   0.9610053084209005E+00
   0.9492410620685686E+00
   0.9586390072210641E+00
   0.1001120873573721E+01
   0.1000500117942632E+01
   0.1001160957076107E+01
   0.9807424710252869E+00
   0.9805587580810430E+00
   0.9629172832912766E+00
SCALARS u double 1
LOOKUP_TABLE default
   0.0000000000000000E+00
   0.0000000000000000E+00
   0.0000000000000000E+00
   0.0000000000000000E+00
   0.0000000000000000E+00
   0.0000000000000000E+00
   0.0000000000000000E+00
   0.0000000000000000E+00
   0.0000000000000000E+00
   0.0000000000000000E+00
   0.0000000000000000E+00
   0.0000000000000000E+00
   0.0000000000000000E+00
   0.0000000000000000E+00
   0.0000000000000000E+00
   0.0000000000000000E+00
   0.0000000000000000E+00
   0.0000000000000000E+00
   0.0000000000000000E+00
   0.0000000000000000E+00
   0.0000000000000000E+00
   0.0000000000000000E+00
   0.0000000000000000E+00
   0.0000000000000000E+00
   0.0000000000000000E+00
   0.0000000000000000E+00
   0.0000000000000000E+00
   0.0000000000000000E+00
   0.0000000000000000E+00
   0.0000000000000000E+00
   0.0000000000000000E+00
   0.0000000000000000E+00
   0.0000000000000000E+00
   0.4946113853394585E+00
   0.5336287281391699E+00
   0.5182728400048472E+00
   0.4930697038267687E+00
   0.4847725450551092E+00
   0.4868117867264463E+00
   0.4891438077312670E+00
   0.4958019692052376E+00
   0.4899024170043740E+00
   0.4718112866586794E+00
   0.4448940803894981E+00
   0.4844408306710034E+00
   0.5097672283159150E+00
   0.4402188702484209E+00
   0.4949591588555791E+00
   0.5222984365278306E+00
   0.4962768642565893E+00
   0.5223881856508015E+00
   0.5038139623137766E+00
   0.5644348415769629E+00
   0.5245862914638368E+00
   0.4990952225740605E+00
   0.5729387319575311E+00
   0.5693727942288709E+00
   0.3752120943198631E+00
   0.4003945013966341E+00
   0.5599616078760367E+00
   0.5562275313689565E+00
   0.4942630615416477E+00
   0.4948653066755183E+00
   0.4925633566470027E+00
   0.4913991911492236E+00
   0.5162604435578206E+00
   0.5363581789164552E+00
   0.4951233619088536E+00
   0.4520580588996559E+00
   0.5129018213744735E+00
   0.5117684050623698E+00
   0.4786283602984301E+00
   0.4931191834130141E+00
   0.4600370644816110E+00
   0.5242644767104827E+00
   0.5299863823033073E+00
   0.5129704576838073E+00
   0.5328926688738073E+00
   0.5309762144344028E+00
   0.5309758478175378E+00
   0.5063645740883723E+00
   0.5279611042885350E+00
   0.5409243200408898E+00
   0.5363680755567610E+00
   0.5374185616341828E+00
   0.4965363892189861E+00
   0.4975366020432997E+00
   0.4963812222065070E+00
   0.4955149796507701E+00
   0.4904160760725175E+00
   0.4902500837385776E+00
   0.4861633321468399E+00
   0.4854043845596501E+00
   0.4931948727428812E+00
   0.4910337298412265E+00
   0.4831704246278817E+00
   0.4872474696737300E+00
   0.4880015266065375E+00
   0.4872302651889773E+00
   0.4882169452861445E+00
   0.4952573774796729E+00
   0.4900715651494736E+00
   0.4903590910897304E+00
   0.4944353947441661E+00
   0.4868172155367453E+00
   0.4892730124456362E+00
   0.4881465468314131E+00
   0.4878254257210958E+00
   0.4449033425804796E+00
   0.4700113970901861E+00
   0.4891764057086790E+00
   0.4885988784443419E+00
   0.4510314966931194E+00
   0.4681809780905816E+00
   0.4876657028410193E+00
   0.4868261964181591E+00
   0.4909274260452764E+00
   0.4793959423426062E+00
   0.4657898790989018E+00
   0.3794350124282255E+00
   0.4903701231435827E+00
   0.4487947049389910E+00
   0.4432422630721202E+00
   0.4845739867680209E+00
   0.4621901174543435E+00
   0.4663617952259282E+00
   0.4747788230953220E+00
   0.4893601407451392E+00
   0.5085681254135522E+00
   0.4304929255381656E+00
   0.4927287952202999E+00
   0.5320316159556547E+00
   0.4913834087268671E+00
   0.5209407202606788E+00
   0.5061324427342132E+00
   0.5690632522093906E+00
   0.5275039635946416E+00
   0.5015052358704346E+00
   0.5821378400893510E+00
   0.5691510934551776E+00
   0.3402456447973574E+00
   0.3785446623990678E+00
   0.5753087182033176E+00
   0.5668544266419508E+00
   0.5703054187489032E+00
   0.5291880558279243E+00
   0.5449834685486210E+00
   0.5719092630440447E+00
   0.5385699051988598E+00
   0.5475901231292410E+00
   0.5821561986155150E+00
   0.4925319464669088E+00
   0.5041562602433661E+00
   0.4961307160734196E+00
   0.5562798843247850E+00
   0.4757784825011397E+00
   0.4950182070733005E+00
   0.5496174375425260E+00
   0.5889523094566476E+00
   0.5839566670160463E+00
   0.5468162066061852E+00
   0.5803875347583223E+00
   0.5106059524798302E+00
   0.5029538002854665E+00
   0.5033089070360178E+00
   0.5676227057496467E+00
   0.5564628401839048E+00
   0.4947142189576932E+00
   0.5506797379816697E+00
   0.5513542297914670E+00
   0.5658254153873861E+00
   0.4919961147622775E+00
   0.4927858663254191E+00
   0.3865450165342446E+00
   0.3687917700797987E+00
   0.5574386377340980E+00
   0.5761776434753103E+00
   0.4194381255916239E+00
   0.5823000254087772E+00
   0.4268225175387412E+00
   0.5397390810842860E+00
   0.5016173293086608E+00
   0.5119227344324347E+00
   0.5048439104192445E+00
   0.5752766217021366E+00
   0.5878365518830693E+00
   0.5382373233256748E+00
   0.5679642820140102E+00
   0.5352011415242491E+00
   0.5338458640061334E+00
   0.5582290622073550E+00
   0.5511577187429981E+00
   0.4256814374288714E+00
   0.5272992040076243E+00
   0.5796799230113338E+00
   0.3318330798430580E+00
   0.4761453124406654E+00
   0.5446511356529883E+00
   0.4800695691854359E+00
   0.3006222867253656E+00
   0.5031629825170437E+00
   0.5017186811614736E+00
   0.5129134283379910E+00
   0.5414111545031884E+00
   0.3435238908931544E+00
   0.3398118070630234E+00
   0.3190216712596045E+00
   0.5066191388476966E+00
   0.5123865725535552E+00
   0.5329065627706483E+00
   0.5881305140710166E+00
   0.4644885571752063E+00
   0.3529644983302095E+00
SCALARS v double 1
LOOKUP_TABLE default
   0.0000000000000000E+00
   0.0000000000000000E+00
   0.0000000000000000E+00
   0.0000000000000000E+00
   0.0000000000000000E+00
   0.0000000000000000E+00
   0.0000000000000000E+00
   0.0000000000000000E+00
   0.0000000000000000E+00
   0.0000000000000000E+00
   0.0000000000000000E+00
   0.0000000000000000E+00
   0.0000000000000000E+00
   0.0000000000000000E+00
   0.0000000000000000E+00
   0.0000000000000000E+00
   0.0000000000000000E+00
   0.0000000000000000E+00
   0.0000000000000000E+00
   0.0000000000000000E+00
   0.0000000000000000E+00
   0.0000000000000000E+00
   0.0000000000000000E+00
   0.0000000000000000E+00
   0.0000000000000000E+00
   0.0000000000000000E+00
   0.0000000000000000E+00
   0.0000000000000000E+00
   0.0000000000000000E+00
   0.0000000000000000E+00
   0.0000000000000000E+00
   0.0000000000000000E+00
   0.0000000000000000E+00
   0.0000000000000000E+00
   0.0000000000000000E+00
   0.0000000000000000E+00
   0.0000000000000000E+00
   0.0000000000000000E+00
   0.0000000000000000E+00
   0.0000000000000000E+00
   0.0000000000000000E+00
   0.0000000000000000E+00
   0.0000000000000000E+00
   0.0000000000000000E+00
   0.0000000000000000E+00
   0.0000000000000000E+00
   0.0000000000000000E+00
   0.0000000000000000E+00
   0.0000000000000000E+00
   0.0000000000000000E+00
   0.0000000000000000E+00
   0.0000000000000000E+00
   0.0000000000000000E+00
   0.0000000000000000E+00
   0.0000000000000000E+00
   0.0000000000000000E+00
   0.0000000000000000E+00
   0.0000000000000000E+00
   0.0000000000000000E+00
   0.0000000000000000E+00
   0.0000000000000000E+00
   0.8513786211584104E-03
  -0.1262645373357580E-02
  -0.1293743040751659E-02
   0.0000000000000000E+00
   0.0000000000000000E+00
   0.0000000000000000E+00
   0.0000000000000000E+00
  -0.1933741667789734E-01
   0.5035491671738756E-03
   0.2213180170844669E-02
   0.1419352364189758E-01
  -0.6752934878525441E-02
  -0.8170239131979251E-02
  -0.1325723542825132E-01
   0.4993982753401254E-02
   0.7358941673836685E-03
   0.3478413353378543E-02
   0.1946676460113613E-02
   0.3168208073678984E-02
   0.1755589533961605E-02
  -0.7295169477528071E-02
  -0.6887233774800173E-04
   0.4552566573082794E-02
  -0.4161913257864656E-03
  -0.6647668762824818E-04
  -0.2024572747785793E-03
   0.8051606992263525E-03
   0.0000000000000000E+00
   0.0000000000000000E+00
   0.0000000000000000E+00
   0.0000000000000000E+00
   0.4746736617005818E-03
   0.1623985839344442E-02
  -0.1273087719464992E-02
  -0.9977331914515818E-03
  -0.2076402798582381E-02
  -0.9960804126712801E-03
  -0.7502737846108611E-03
  -0.7419073871673354E-03
   0.6053717746315412E-04
  -0.5965998365550276E-03
   0.8040959542380477E-03
  -0.1729966872132655E-02
   0.3146019142902685E-03
  -0.5711048452004171E-04
  -0.8890335711772411E-03
  -0.1052025293124108E-02
   0.0000000000000000E+00
   0.0000000000000000E+00
   0.0000000000000000E+00
  -0.1035619366199596E-02
  -0.7789758176794455E-02
   0.1821212393831870E-01
  -0.2897361692759300E-04
  -0.1377034101727250E-02
  -0.2028387399266916E-02
  -0.5613613489549096E-02
  -0.1620404457634289E-02
  -0.6356671556459356E-02
  -0.4326823907697436E-02
   0.1517899757144367E-02
   0.3300522065759853E-01
   0.4389732041380784E-04
  -0.2766875793076662E-02
   0.3629086788986629E-02
   0.3911408604588872E-03
   0.0000000000000000E+00
   0.0000000000000000E+00
   0.0000000000000000E+00
   0.0000000000000000E+00
   0.0000000000000000E+00
   0.0000000000000000E+00
   0.0000000000000000E+00
   0.0000000000000000E+00
   0.0000000000000000E+00
   0.0000000000000000E+00
   0.0000000000000000E+00
   0.0000000000000000E+00
   0.0000000000000000E+00
   0.0000000000000000E+00
   0.0000000000000000E+00
   0.0000000000000000E+00
   0.0000000000000000E+00
   0.5001788274819275E-02
   0.3214026039933974E-02
   0.8125856975365924E-02
   0.6096308112998047E-02
   0.1117368605996991E-01
   0.1403790763829938E-01
  -0.3213857443795597E-03
   0.5161777272295307E-02
   0.2930014141823718E-02
   0.3377893877589014E-02
   0.3728473679411793E-02
  -0.1469487665279228E-01
  -0.6136572583654302E-03
   0.6639692668381559E-02
   0.1457578760802634E-02
   0.1959411290377476E-02
   0.4263950128983982E-02
  -0.2812152889749325E-02
   0.1267575156331935E-02
   0.2851883794401270E-02
   0.1534808664948472E-02
   0.2563471476583860E-02
   0.2013582396315174E-02
   0.2154279036452568E-02
   0.8583999368512374E-02
  -0.3829958107452138E-02
   0.6155658344711139E-02
   0.4727000826595545E-04
  -0.4230611736858234E-03
  -0.1674061355816324E-01
  -0.4996319177156510E-02
  -0.4827025838965278E-02
   0.3399472496592642E-02
  -0.6077006641036748E-02
   0.3218630759066958E-04
  -0.3284811391477575E-01
  -0.3181859007335575E-02
   0.4581409174239069E-02
   0.9682103759952787E-03
   0.2133430473385100E-02
   0.4530796074169828E-02
   0.2692754556555802E-02
   0.3243192960774796E-02
   0.5223626824937046E-02
   0.1957642587086518E-02
   0.7485618835635144E-03
  -0.5694619633986856E-04
  -0.5322500053115077E-02
  -0.6972361983154695E-02
  -0.9632152601091725E-03
   0.1062785309795069E-02
  -0.2105762112026821E-02
  -0.3219383493257078E-02
  -0.2544366003357682E-02
  -0.4130954458757411E-02
  -0.7565906289382244E-02
  -0.2012280317960908E-02
   0.6515191591262637E-03
  -0.1916206540655681E-03
   0.1227843211739569E-02
  -0.3502377821946071E-02
   0.4847376476767301E-02
  -0.8642815804932103E-02
   0.3344073299965511E-04
  -0.3327707750397265E-03
   0.2558602220849055E-02
   0.1615701252060626E-02
   0.2038902964548111E-02
  -0.5641068119979614E-02
SCALARS w double 1
LOOKUP_TABLE default
   0.0000000000000000E+00
   0.0000000000000000E+00
   0.0000000000000000E+00
   0.0000000000000000E+00
   0.0000000000000000E+00
   0.0000000000000000E+00
   0.0000000000000000E+00
   0.0000000000000000E+00
   0.0000000000000000E+00
   0.0000000000000000E+00
   0.0000000000000000E+00
   0.0000000000000000E+00
   0.0000000000000000E+00
   0.0000000000000000E+00
   0.0000000000000000E+00
   0.0000000000000000E+00
   0.0000000000000000E+00
   0.0000000000000000E+00
   0.0000000000000000E+00
   0.0000000000000000E+00
   0.0000000000000000E+00
   0.0000000000000000E+00
   0.0000000000000000E+00
   0.0000000000000000E+00
   0.0000000000000000E+00
   0.0000000000000000E+00
   0.0000000000000000E+00
   0.0000000000000000E+00
   0.0000000000000000E+00
   0.0000000000000000E+00
   0.0000000000000000E+00
   0.0000000000000000E+00
   0.0000000000000000E+00
  -0.1007278452077215E+00
  -0.4245737482658486E-01
   0.7150822729120651E-03
   0.5704773912043225E-02
   0.5681058596053879E-03
   0.1606293915188010E-02
   0.3371999449329295E-02
   0.2364016283507059E-02
   0.4720187209089631E-03
   0.3528384087632626E-02
   0.4533198813216876E-01
   0.6563145597102206E-01
   0.8378092795096448E-03
  -0.2266273869577366E-01
   0.4270582934651989E-02
   0.1341904176507760E-01
   0.1029701792182496E-01
   0.4870730315734528E-01
   0.2380906995662740E-02
  -0.6536073829752624E-02
  -0.7379843222304422E-03
   0.3050419977753681E-03
   0.3845967925910956E-02
  -0.3893825672875571E-01
   0.1820230683896609E-01
   0.1120471372723198E-01
   0.3395681891306163E-01
   0.8379368774964081E-02
   0.4924456867969562E-02
   0.4973604831204898E-02
   0.4900295690276795E-02
   0.6056528302935612E-02
   0.2694616138773745E-02
  -0.4127919574822214E-01
  -0.9927350779015484E-01
  -0.1120401836384373E+00
   0.5143954760825909E-02
   0.4215793443979257E-02
  -0.1002624119740255E+00
  -0.9892910734789145E-01
  -0.9835842474022778E-01
  -0.9444289285399696E-01
  -0.6791170330700741E-01
   0.5196455767606193E-02
  -0.1927437378144084E-01
  -0.1563616898914164E-01
  -0.5965344783386048E-02
   0.6822371770676555E-02
  -0.8000248193322208E-01
  -0.2776595541896307E-01
  -0.8086762072027637E-01
  -0.5863556033605120E-01
   0.3073703583736034E-02
   0.2684926238233431E-02
   0.2644441476372115E-02
   0.3457117781041802E-02
   0.3997977344851438E-02
   0.1199288827165949E-02
  -0.1359814935670789E-03
   0.2028740196398706E-02
   0.4893805806093439E-02
   0.3863982036863354E-02
   0.1126177550563565E-02
   0.1188087635610516E-02
   0.1460077468846811E-02
  -0.2239667199001264E-04
   0.9067918480062041E-04
   0.4386661916959940E-02
   0.2711981683343787E-02
   0.2316664612094431E-02
   0.5006431813531927E-02
   0.1069421622805264E-02
   0.2706481727724539E-02
   0.2010122945684918E-02
   0.3343977870826136E-04
   0.8385999245553799E-01
   0.2832386968844295E-02
  -0.8469747420128809E-03
  -0.1275692989389148E-03
   0.1410861921297350E+00
   0.1236585755783975E+00
  -0.1228981003552913E-02
  -0.4383150282791599E-02
  -0.2805635401965881E-03
  -0.6477952039787227E-02
  -0.1895757774322139E-02
   0.1559343261974603E+00
   0.7528367346987733E-01
   0.2567484927628505E-01
   0.1661254957121413E+00