# vtk DataFile Version 2.0
FUN3D:global_image_vtk
ASCII
DATASET UNSTRUCTURED_GRID
POINTS 213 double
   -0.5474740594603401E-02    0.2504942002468015E+01    0.8038066513251917E-04
    0.1245419060588731E+01    0.2504942002468015E+01    0.1039420355260749E-03
    0.2497696073669951E+01    0.2504942002468015E+01    0.1101293108839069E-03
    0.3750590983903951E+01    0.2504942002468015E+01    0.1356498038710068E-03
    0.5003221377586132E+01    0.2504942002468015E+01    0.9668806236326113E-04
    0.5004676742906220E+01    0.1281291392998363E+01    0.1638058477025169E-03
    0.5004772721058899E+01    0.2775095788685309E-01    0.1903487481390933E-03
    0.5003581212092667E+01   -0.1225853379649928E+01    0.1607772012989136E-03
    0.5001952544222647E+01   -0.2496589018760901E+01    0.1082264471413167E-03
    0.3750348112983221E+01   -0.2496589018760901E+01    0.1458760651342266E-03
    0.2498611454364745E+01   -0.2496589018760901E+01    0.1008938464083819E-03
    0.1247175251993104E+01   -0.2496589018760901E+01    0.1108592957380693E-03
   -0.3383979682904055E-02   -0.2496589018760901E+01    0.8107293234943661E-04
   -0.4257801348440016E-02   -0.1225734687856262E+01    0.3415453547316383E-04
   -0.5251639246460549E-02    0.2619500007965797E-01    0.1038724994472526E-03
   -0.5676116282444736E-02    0.1278221728471010E+01    0.8224550526933299E-04
    0.9003209061970091E+00    0.1608979292482069E+01    0.8704095673632055E-04
    0.3983172219358475E+01   -0.1561211781392465E+01    0.1757125336071052E-03
    0.4035602063492015E+01    0.1486760245757029E+01    0.1713318841063814E-03
    0.1036613695255868E+01   -0.1455626302577311E+01    0.1047193358004637E-03
    0.1094353436962879E+01   -0.2964620547863018E+00    0.1260594408104393E-03
    0.7298399732447644E+00    0.6874686355485913E+00    0.1044597967345459E-03
    0.1617018608574693E+01    0.8553209825042055E+00    0.1529816073135082E-03
    0.2143199643574004E+01   -0.1627128385141893E+01    0.1606178561636739E-03
    0.4088840468516652E+01   -0.4351046315069663E+00    0.2719950835641187E-03
    0.2977916498708485E+01   -0.8334990110939406E+00    0.2245609625880888E-03
    0.3044093234685481E+01   -0.1814361102461422E+01    0.1617007901549863E-03
    0.3427866614749028E+01    0.3813906737475889E+00    0.2936972898164131E-03
    0.4313225393964806E+01    0.5489135241650748E+00    0.2313021604579434E-03
    0.1823032697010121E+01    0.1771265398461595E+01    0.1836207261372903E-03
    0.2806311133387878E+01    0.1358629588153144E+01    0.1943500587744238E-03
    0.1891860842801184E+01   -0.8481308964520636E+00    0.1670653536951328E-03
    0.2268769161311812E+01    0.7723708732352033E-01    0.2072318374105474E-03
    0.5000000000000000E+01    0.2504942002468015E+01    0.1250000000000000E+01
    0.5000000000000000E+01    0.2504942002468015E+01    0.2500000000000000E+01
    0.5000000000000000E+01    0.2504942002468015E+01    0.3750000000000000E+01
    0.5000000000000000E+01    0.2504942002468015E+01    0.5000000000000000E+01
    0.3750000000000000E+01    0.2504942002468015E+01    0.5000000000000000E+01
    0.2500000000000000E+01    0.2504942002468015E+01    0.5000000000000000E+01
    0.1250000000000000E+01    0.2504942002468015E+01    0.5000000000000000E+01
    0.0000000000000000E+00    0.2504942002468015E+01    0.5000000000000000E+01
    0.0000000000000000E+00    0.2504942002468015E+01    0.3750000000000000E+01
    0.0000000000000000E+00    0.2504942002468015E+01    0.2500000000000000E+01
    0.0000000000000000E+00    0.2504942002468015E+01    0.1250000000000000E+01
    0.9588956064218439E+00    0.2504942002468015E+01    0.9696526008694587E+00
    0.3981953079952927E+01    0.2504942002468015E+01    0.4070563859161240E+01
    0.4036122196966513E+01    0.2504942002468015E+01    0.1017567553205737E+01
    0.9637572746747131E+00    0.2504942002468015E+01    0.3973598209858040E+01
    0.1546540127929946E+01    0.2504942002468015E+01    0.2931570189025508E+01
    0.6973799442222217E+00    0.2504942002468015E+01    0.3070319964744883E+01
    0.8903741947279170E+00    0.2504942002468015E+01    0.2056562262665313E+01
    0.2183041993268190E+01    0.2504942002468015E+01    0.3960694458912844E+01
    0.3855844875188856E+01    0.2504942002468015E+01    0.2933250599517384E+01
    0.3152611367489020E+01    0.2504942002468015E+01    0.3637668398431756E+01
    0.3103307385298766E+01    0.2504942002468015E+01    0.4332607818174344E+01
    0.3266711043563174E+01    0.2504942002468015E+01    0.1889656637524571E+01
    0.4232537560766444E+01    0.2504942002468015E+01    0.1918626986171086E+01
    0.1905522338007585E+01    0.2504942002468015E+01    0.7226291174446439E+00
    0.2879767716040244E+01    0.2504942002468015E+01    0.9080946092062936E+00
    0.2012711350767002E+01    0.2504942002468015E+01    0.1767082417726311E+01
    0.2669681469718241E+01    0.2504942002468015E+01    0.2853394351007644E+01
    0.5000000000000000E+01    0.1250000000000000E+01    0.5000000000000000E+01
    0.5000000000000000E+01    0.0000000000000000E+00    0.5000000000000000E+01
    0.5000000000000000E+01   -0.1250000000000000E+01    0.5000000000000000E+01
    0.5000000000000000E+01   -0.2496589018760901E+01    0.5000000000000000E+01
    0.5000000000000000E+01   -0.2496589018760901E+01    0.3750000000000000E+01
    0.5000000000000000E+01   -0.2496589018760901E+01    0.2500000000000000E+01
    0.5000000000000000E+01   -0.2496589018760901E+01    0.1250000000000000E+01
    0.5000000000000000E+01    0.1578994732800803E+01    0.9058375365086910E+00
    0.5000000000000000E+01   -0.1583989954232354E+01    0.3982050490726493E+01
    0.5000000000000000E+01    0.1453322699199022E+01    0.4033849428301197E+01
    0.5000000000000000E+01   -0.1479596339503735E+01    0.1040505887381675E+01
    0.5000000000000000E+01   -0.3227322616384110E+00    0.1099454400140349E+01
    0.5000000000000000E+01    0.6593508822075582E+00    0.7354504170366591E+00
    0.5000000000000000E+01    0.8256214013940779E+00    0.1622302608453282E+01
    0.5000000000000000E+01   -0.1650070333782557E+01    0.2145871574390382E+01
    0.5000000000000000E+01   -0.4612828702537229E+00    0.4086422318222992E+01
    0.5000000000000000E+01   -0.8579242121530853E+00    0.2979540174134984E+01
    0.5000000000000000E+01   -0.1836846154397680E+01    0.3045064261640043E+01
    0.5000000000000000E+01    0.3508002863614053E+00    0.3428197553792836E+01
    0.5000000000000000E+01    0.5185680230613409E+00    0.4309693860063405E+01
    0.5000000000000000E+01    0.1738996113203182E+01    0.1827272193562204E+01
    0.5000000000000000E+01    0.1325493893339706E+01    0.2808563282768077E+01
    0.5000000000000000E+01   -0.8731419609589618E+00    0.1895995683864404E+01
    0.5000000000000000E+01    0.4906150219227333E-01    0.2273179336307740E+01
    0.0000000000000000E+00    0.1250000000000000E+01    0.5000000000000000E+01
    0.0000000000000000E+00    0.0000000000000000E+00    0.5000000000000000E+01
    0.0000000000000000E+00   -0.1250000000000000E+01    0.5000000000000000E+01
    0.0000000000000000E+00   -0.2496589018760901E+01    0.5000000000000000E+01
    0.1250000000000000E+01   -0.2496589018760901E+01    0.5000000000000000E+01
    0.2500000000000000E+01   -0.2496589018760901E+01    0.5000000000000000E+01
    0.3750000000000000E+01   -0.2496589018760901E+01    0.5000000000000000E+01
    0.4042003247744892E+01    0.1558308132739014E+01    0.5000000000000000E+01
    0.9304122287900499E+00   -0.1548001304379777E+01    0.5000000000000000E+01
    0.1037243024609388E+01    0.1462892710085612E+01    0.5000000000000000E+01
    0.3946240828834967E+01   -0.1445243809615570E+01    0.5000000000000000E+01
    0.4092527262848217E+01   -0.3455338993778935E+00    0.5000000000000000E+01
    0.4293103109154542E+01    0.6277660831404320E+00    0.5000000000000000E+01
    0.3241512314643519E+01    0.7429886854239611E+00    0.5000000000000000E+01
    0.2844289952419609E+01   -0.1588117879734118E+01    0.5000000000000000E+01
    0.7159905765450471E+00   -0.6002320124191652E+00    0.5000000000000000E+01
    0.1754341919796891E+01   -0.7398147869923652E+00    0.5000000000000000E+01
    0.1870296826774691E+01   -0.1788622905643739E+01    0.5000000000000000E+01
    0.9220614901912976E+00    0.3083720183248586E+00    0.5000000000000000E+01
    0.3101523624086016E+01    0.1777901774806180E+01    0.5000000000000000E+01
    0.2192512063922564E+01    0.1576861561598471E+01    0.5000000000000000E+01
    0.2024793420196460E+01    0.4773861992750707E+00    0.5000000000000000E+01
    0.2990627757741975E+01   -0.4878110785814084E+00    0.5000000000000000E+01
    0.0000000000000000E+00   -0.2496589018760901E+01    0.1250000000000000E+01
    0.0000000000000000E+00   -0.2496589018760901E+01    0.2500000000000000E+01
    0.0000000000000000E+00   -0.2496589018760901E+01    0.3750000000000000E+01
    0.0000000000000000E+00    0.1558308132739014E+01    0.4042003247744892E+01
    0.0000000000000000E+00   -0.1548001304379777E+01    0.9304122287900499E+00
    0.0000000000000000E+00    0.1462892710085612E+01    0.1037243024609388E+01
    0.0000000000000000E+00   -0.1445243809615570E+01    0.3946240828834967E+01
    0.0000000000000000E+00   -0.3455338993778935E+00    0.4092527262848217E+01
    0.0000000000000000E+00    0.6277660831404320E+00    0.4293103109154542E+01
    0.0000000000000000E+00    0.7429886854239611E+00    0.3241512314643519E+01
    0.0000000000000000E+00   -0.1588117879734118E+01    0.2844289952419609E+01
    0.0000000000000000E+00   -0.6002320124191652E+00    0.7159905765450471E+00
    0.0000000000000000E+00   -0.7398147869923652E+00    0.1754341919796891E+01
    0.0000000000000000E+00   -0.1788622905643739E+01    0.1870296826774691E+01
    0.0000000000000000E+00    0.3083720183248586E+00    0.9220614901912976E+00
    0.0000000000000000E+00    0.1777901774806180E+01    0.3101523624086016E+01
    0.0000000000000000E+00    0.1576861561598471E+01    0.2192512063922564E+01
[...]
POINT_DATA 213
SCALARS rho double 1
LOOKUP_TABLE default
   0.1346097002717723E+01
   0.9571994890684626E+00
   0.9460925263136216E+00
   0.9421713076572954E+00
   0.8435935442565075E+00
   0.7741865190959494E+00
   0.7627490144793825E+00
   0.7661376010323516E+00
   0.8310374389321499E+00
   0.9353532040434275E+00
   0.9343976631425177E+00
   0.9615835737984814E+00
   0.1448454634268577E+01
   0.1495394541103251E+01
   0.1646716569429561E+01
   0.1426577887982135E+01
   0.1009796832751035E+01
   0.9511377811214619E+00
   0.9438170794353886E+00
   0.9574429171164216E+00
   0.9414772717513064E+00
   0.1037107147400844E+01
   0.9258078148663004E+00
   0.9322440338383828E+00
   0.9538047648511198E+00
   0.9520361765909502E+00
   0.9350902083329449E+00
   0.9565433488189480E+00
   0.9378588926634408E+00
   0.9303242953118657E+00
   0.9446416460337472E+00
   0.8862304486854933E+00
   0.9423969621880892E+00
   0.9637182005869255E+00
   0.1008362563013422E+01
   0.1006713482251464E+01
   0.1001958833746273E+01
   0.1003217686472278E+01
   0.1004119832217099E+01
   0.1005207378946202E+01
   0.1004249317624227E+01
   0.1008267099232484E+01
   0.1023865869467717E+01
   0.1063750819231001E+01
   0.1019382679036499E+01
   0.1001778551907676E+01
   0.9645925871976911E+00
   0.1005262393879129E+01
   0.1000745043333918E+01
   0.1008694170720522E+01
   0.1008031885964826E+01
   0.1002353976569025E+01
   0.9980224130652144E+00
   0.1000594057511158E+01
   0.1001620903412466E+01
   0.9828094909315483E+00
   0.9843997841878990E+00
   0.9834242146984595E+00
   0.9790374702413388E+00
   0.9904789002868510E+00
   0.9935221890700703E+00
   0.1002008744102204E+01
   0.1002131975008916E+01
   0.1002272709088438E+01
   0.1001792815383135E+01
   0.1009814937321624E+01
   0.1006499289848360E+01
   0.9560826917923309E+00
   0.9252938271602197E+00
   0.1007053692410225E+01
   0.1004491502378614E+01
   0.9144854566955891E+00
   0.9091439058738321E+00
   0.8752432937888376E+00
   0.9768022164955338E+00
   0.1000530115477411E+01
   0.1005826620249680E+01
   0.1012895783776466E+01
   0.1011677277366731E+01
   0.1010416527860721E+01
   0.1005456511632676E+01
   0.9909247191329642E+00
   0.1005152840633266E+01
   0.9860799640991931E+00
   0.1005593071683524E+01
   0.1004239464974962E+01
   0.1002885826999528E+01
   0.1003350346881400E+01
   0.1003998452169306E+01
   0.1005116094466082E+01
   0.1003223534367199E+01
   0.1002668628241171E+01
   0.1002589607050691E+01
   0.1004069497993234E+01
   0.1004304400913366E+01
   0.1001642389647138E+01
   0.1002278746155674E+01
   0.1002546659685409E+01
   0.1003471913302485E+01
   0.1003380290064578E+01
   0.1003233302883350E+01
   0.1004430203184783E+01
   0.1004324627967027E+01
   0.1003652911830266E+01
   0.1003718541389646E+01
   0.1004318864780426E+01
   0.1004462408023968E+01
   0.1003629299681130E+01
   0.1064489711783084E+01
   0.1028444241781874E+01
   0.1009606837112053E+01
   0.1006626073641073E+01
   0.1163974930852849E+01
   0.1086025348857708E+01
   0.1007907651839601E+01
   0.1007251940054267E+01
   0.1006796091036304E+01
   0.1013052215120295E+01
   0.1019341253359331E+01
   0.1235134881697143E+01
   0.1032535507878578E+01
   0.1046565553980547E+01
   0.1201695800887631E+01
   0.1014670081758555E+01
   0.1032293477847716E+01
   0.1028219928563276E+01
   0.1014640071759373E+01
   0.1028999239083325E+01
   0.1002002403757168E+01
   0.9607798457483900E+00
   0.1006858995118712E+01
   0.1001326399090900E+01
   0.1010799962617513E+01
   0.1012236578224572E+01
   0.1000939793769604E+01
   0.9979315695013681E+00
   0.9980679351283679E+00
   0.1001191382219027E+01
   0.9841977152435081E+00
   0.9815061845681656E+00
   0.9648620671843953E+00
   0.9680679225026876E+00
   0.9914140155554140E+00
   0.9910913032084715E+00
   0.9925597577565379E+00
   0.1001728079146573E+01
   0.9993249300064526E+00
   0.9941443890092141E+00
   0.1006981396750955E+01
   0.1022611158068717E+01
   0.1001120777277163E+01
   0.1008783412301098E+01
   0.1004774305498211E+01
   0.1009028544321064E+01
   0.9967193914928834E+00
   0.1005562614218098E+01
   0.1003325018861125E+01
   0.9949862562907168E+00
   0.9833516927368359E+00
   0.9944520864178770E+00
   0.9973481067447456E+00
   0.9932519210543481E+00
   0.1001312037311054E+01
   0.1003000802960117E+01
   0.1002188622932723E+01
   0.9947121111537839E+00
   0.9937838199608381E+00
   0.1004861304690309E+01
   0.1020102527995651E+01
   0.1005340616955497E+01
   0.9817058993605559E+00
   0.1004974829234851E+01
   0.1012375707504536E+01
   0.9873705192184844E+00
   0.9551253473030411E+00
   0.9865273999998000E+00
   0.9865946516528272E+00
   0.9920042014197680E+00
   0.9934462886234746E+00
   0.9960612757067174E+00
   0.1037404888395001E+01
   0.1033163231401016E+01
   0.1001443049568204E+01
   0.1001928974371334E+01
   0.9912286357482272E+00
   0.9911119327707753E+00
   0.9649284230596757E+00
   0.9933727646345063E+00
   0.1006089045126982E+01
   0.1001962053730123E+01
   0.9908625084094516E+00
   0.9742250527883661E+00
   0.9420725331844574E+00
   0.9821579075856789E+00
   0.9794772730040334E+00
   0.9704319631065955E+00
   0.9720820388053385E+00
   0.9557851898652282E+00
   0.9497953597268687E+00
   0.9529801795019858E+00
   0.1002636554160930E+01
   0.1002475647441010E+01
   0.1000512858459629E+01
   0.1001675820189551E+01
   0.9610053081011540E+00
   0.9492410622617379E+00
   0.9586390070454340E+00
   0.1001120873661670E+01
   0.1000500117835669E+01
   0.1001160957370964E+01
   0.9807424710917146E+00
   0.9805587581199047E+00
   0.9629172835907274E+00
SCALARS u double 1
LOOKUP_TABLE default
   0.0000000000000000E+00
   0.0000000000000000E+00
   0.0000000000000000E+00
   0.0000000000000000E+00
   0.0000000000000000E+00
   0.0000000000000000E+00
   0.0000000000000000E+00
   0.0000000000000000E+00
   0.0000000000000000E+00
   0.0000000000000000E+00
   0.0000000000000000E+00
   0.0000000000000000E+00
   0.0000000000000000E+00
   0.0000000000000000E+00
   0.0000000000000000E+00
   0.0000000000000000E+00
   0.0000000000000000E+00
   0.0000000000000000E+00
   0.0000000000000000E+00
   0.0000000000000000E+00
   0.0000000000000000E+00
   0.0000000000000000E+00
   0.0000000000000000E+00
   0.0000000000000000E+00
   0.0000000000000000E+00
   0.0000000000000000E+00
   0.0000000000000000E+00
   0.0000000000000000E+00
   0.0000000000000000E+00
   0.0000000000000000E+00
   0.0000000000000000E+00
   0.0000000000000000E+00
   0.0000000000000000E+00
   0.4946113751025683E+00
   0.5336287292040728E+00
   0.5182728387474719E+00
   0.4930697054042144E+00
   0.4847725485028996E+00
   0.4868117872594527E+00
   0.4891438082656592E+00
   0.4958019687031823E+00
   0.4899024171043234E+00
   0.4718112865248803E+00
   0.4448940803818270E+00
   0.4844408305881502E+00
   0.5097672236995353E+00
   0.4402188693206984E+00
   0.4949591586645705E+00
   0.5222984363626503E+00
   0.4962768641889347E+00
   0.5223881854936803E+00
   0.5038139619288374E+00
   0.5644348420291695E+00
   0.5245862905762648E+00
   0.4990952207134206E+00
   0.5729387316940429E+00
   0.5693727935823456E+00
   0.3752120942591765E+00
   0.4003945016442133E+00
   0.5599616078348902E+00
   0.5562275310889571E+00
   0.4942630647216514E+00
   0.4948653094308427E+00
   0.4925633572675783E+00
   0.4913991907865998E+00
   0.5162604435034056E+00
   0.5363581789543049E+00
   0.4951233611939724E+00
   0.4520580564832531E+00
   0.5129018209920370E+00
   0.5117684025267144E+00
   0.4786283604551257E+00
   0.4931191831816804E+00
   0.4600370655302829E+00
   0.5242644774509203E+00
   0.5299863823430575E+00
   0.5129704564067811E+00
   0.5328926688763617E+00
   0.5309762146099511E+00
   0.5309758467662463E+00
   0.5063645727789740E+00
   0.5279611056266584E+00
   0.5409243203323639E+00
   0.5363680755253442E+00
   0.5374185617387651E+00
   0.4965363891009286E+00
   0.4975366019212996E+00
   0.4963812221308524E+00
   0.4955149795889751E+00
   0.4904160759043993E+00
   0.4902500838427149E+00
   0.4861633313406132E+00
   0.4854043907649411E+00
   0.4931948728874831E+00
   0.4910337304250220E+00
   0.4831704255407937E+00
   0.4872474742603926E+00
   0.4880015332867725E+00
   0.4872302682424110E+00
   0.4882169450600017E+00
   0.4952573776386567E+00
   0.4900715652660317E+00
   0.4903590911741612E+00
   0.4944353952898071E+00
   0.4868172167454142E+00
   0.4892730137988597E+00
   0.4881465480796938E+00
   0.4878254274004885E+00
   0.4449033416822628E+00
   0.4700113971431904E+00
   0.4891764056547755E+00
   0.4885988783076370E+00
   0.4510314971592934E+00
   0.4681809782475715E+00
   0.4876657025749744E+00
   0.4868261962586045E+00
   0.4909274257268267E+00
   0.4793959422537775E+00
   0.4657898792662459E+00
   0.3794350123336322E+00
   0.4903701228975824E+00
   0.4487947049406246E+00
   0.4432422628323288E+00
   0.4845739866716504E+00
   0.4621901172513381E+00
   0.4663617951572477E+00
   0.4747788230853499E+00
   0.4893601406212027E+00
   0.5085681270829963E+00
   0.4304929256541831E+00
   0.4927287951529576E+00
   0.5320316161220262E+00
   0.4913834087921035E+00
   0.5209407200996535E+00
   0.5061324432255597E+00
   0.5690632523667037E+00
   0.5275039643790035E+00
   0.5015052366764314E+00
   0.5821378399089582E+00
   0.5691510933426743E+00
   0.3402456447253596E+00
   0.3785446621855030E+00
   0.5753087179138088E+00
   0.5668544267806295E+00
   0.5703054187187656E+00
   0.5291880556315056E+00
   0.5449834684582360E+00
   0.5719092629898018E+00
   0.5385699051186033E+00
   0.5475901229748072E+00
   0.5821561984673503E+00
   0.4925319463461331E+00
   0.5041562598542594E+00
   0.4961307159440455E+00
   0.5562798842540895E+00
   0.4757784824028129E+00
   0.4950182072245359E+00
   0.5496174372676459E+00
   0.5889523092780768E+00
   0.5839566671534699E+00
   0.5468162058173016E+00
   0.5803875349607680E+00
   0.5106059517420740E+00
   0.5029537998640301E+00
   0.5033089056099104E+00
   0.5676227055701469E+00
   0.5564628397484277E+00
   0.4947142187355309E+00
   0.5506797379162665E+00
   0.5513542296903733E+00
   0.5658254153133520E+00
   0.4919961146643577E+00
   0.4927858662485915E+00
   0.3865450161104930E+00
   0.3687917699789350E+00
   0.5574386376493490E+00
   0.5761776433536324E+00
   0.4194381254617371E+00
   0.5823000252197480E+00
   0.4268225173844500E+00
   0.5397390810852434E+00
   0.5016173293245185E+00
   0.5119227321279211E+00
   0.5048439098903533E+00
   0.5752766212612811E+00
   0.5878365518392893E+00
   0.5382373232154312E+00
   0.5679642818904490E+00
   0.5352011417313375E+00
   0.5338458631995701E+00
   0.5582290620442598E+00
   0.5511577183573775E+00
   0.4256814359855263E+00
   0.5272992037838088E+00
   0.5796799228467192E+00
   0.3318330799169113E+00
   0.4761453123851351E+00
   0.5446511355196847E+00
   0.4800695690328248E+00
   0.3006222867940027E+00
   0.5031629826149805E+00
   0.5017186809002663E+00
   0.5129134278867816E+00
   0.5414111530806965E+00
   0.3435238898140886E+00
   0.3398118071162988E+00
   0.3190216712362482E+00
   0.5066191392091349E+00
   0.5123865734965950E+00
   0.5329065621425324E+00
   0.5881305139585639E+00
   0.4644885571516235E+00
   0.3529644981872384E+00
SCALARS v double 1
LOOKUP_TABLE default
   0.0000000000000000E+00
   0.0000000000000000E+00
   0.0000000000000000E+00
   0.0000000000000000E+00
   0.0000000000000000E+00
   0.0000000000000000E+00
   0.0000000000000000E+00
   0.0000000000000000E+00
   0.0000000000000000E+00
   0.0000000000000000E+00
   0.0000000000000000E+00
   0.0000000000000000E+00
   0.0000000000000000E+00
   0.0000000000000000E+00
   0.0000000000000000E+00
   0.0000000000000000E+00
   0.0000000000000000E+00
   0.0000000000000000E+00
   0.0000000000000000E+00
   0.0000000000000000E+00
   0.0000000000000000E+00
   0.0000000000000000E+00
   0.0000000000000000E+00
   0.0000000000000000E+00
   0.0000000000000000E+00
   0.0000000000000000E+00
   0.0000000000000000E+00
   0.0000000000000000E+00
   0.0000000000000000E+00
   0.0000000000000000E+00
   0.0000000000000000E+00
   0.0000000000000000E+00
   0.0000000000000000E+00
   0.0000000000000000E+00
   0.0000000000000000E+00
   0.0000000000000000E+00
   0.0000000000000000E+00
   0.0000000000000000E+00
   0.0000000000000000E+00
   0.0000000000000000E+00
   0.0000000000000000E+00
   0.0000000000000000E+00
   0.0000000000000000E+00
   0.0000000000000000E+00
   0.0000000000000000E+00
   0.0000000000000000E+00
   0.0000000000000000E+00
   0.0000000000000000E+00
   0.0000000000000000E+00
   0.0000000000000000E+00
   0.0000000000000000E+00
   0.0000000000000000E+00
   0.0000000000000000E+00
   0.0000000000000000E+00
   0.0000000000000000E+00
   0.0000000000000000E+00
   0.0000000000000000E+00
   0.0000000000000000E+00
   0.0000000000000000E+00
   0.0000000000000000E+00
   0.0000000000000000E+00
   0.8513787337137062E-03
  -0.1262642347866141E-02
  -0.1293740749164241E-02
   0.0000000000000000E+00
   0.0000000000000000E+00
   0.0000000000000000E+00
   0.0000000000000000E+00
  -0.1933742008504511E-01
   0.5035489370325332E-03
   0.2213179785078099E-02
   0.1419352382971642E-01
  -0.6752934797199264E-02
  -0.8170240699738571E-02
  -0.1325723641589361E-01
   0.4993982548958832E-02
   0.7358928408762507E-03
   0.3478412316773849E-02
   0.1946676037849533E-02
   0.3168206778339212E-02
   0.1755588753158151E-02
  -0.7295171317285471E-02
  -0.6887279862519590E-04
   0.4552566326003250E-02
  -0.4161916551626975E-03
  -0.6647673545404271E-04
  -0.2024573521061867E-03
   0.8051606606890271E-03
   0.0000000000000000E+00
   0.0000000000000000E+00
   0.0000000000000000E+00
   0.0000000000000000E+00
   0.4746736559244702E-03
   0.1623985950684915E-02
  -0.1273087613909671E-02
  -0.9977312727174629E-03
  -0.2076398940378917E-02
  -0.9960778976279543E-03
  -0.7502720445226348E-03
  -0.7419056317591433E-03
   0.6053724108248636E-04
  -0.5965991163139520E-03
   0.8040962952813232E-03
  -0.1729966843684908E-02
   0.3146024697250542E-03
  -0.5711035197238372E-04
  -0.8890333865542471E-03
  -0.1052023404387738E-02
   0.0000000000000000E+00
   0.0000000000000000E+00
   0.0000000000000000E+00
  -0.1035619441305665E-02
  -0.7789758058209087E-02
   0.1821212402586673E-01
  -0.2897361127217837E-04
  -0.1377034145936782E-02
  -0.2028387481820835E-02
  -0.5613613444390929E-02
  -0.1620404574415120E-02
  -0.6356671605294088E-02
  -0.4326823953572033E-02
   0.1517899745245815E-02
   0.3300522063436686E-01
   0.4389733921891818E-04
  -0.2766875782701361E-02
   0.3629086845320759E-02
   0.3911408589583537E-03
   0.0000000000000000E+00
   0.0000000000000000E+00
   0.0000000000000000E+00
   0.0000000000000000E+00
   0.0000000000000000E+00
   0.0000000000000000E+00
   0.0000000000000000E+00
   0.0000000000000000E+00
   0.0000000000000000E+00
   0.0000000000000000E+00
   0.0000000000000000E+00
   0.0000000000000000E+00
   0.0000000000000000E+00
   0.0000000000000000E+00
   0.0000000000000000E+00
   0.0000000000000000E+00
   0.0000000000000000E+00
   0.5001788230802017E-02
   0.3214025958344018E-02
   0.8125856932001324E-02
   0.6096308122085405E-02
   0.1117368606547414E-01
   0.1403790762937880E-01
  -0.3213857983361496E-03
   0.5161777221954552E-02
   0.2930014069375222E-02
   0.3377893835762709E-02
   0.3728473681569053E-02
  -0.1469487667887501E-01
  -0.6136573605999064E-03
   0.6639692526003620E-02
   0.1457579020814912E-02
   0.1959411376221724E-02
   0.4263949615127263E-02
  -0.2812152675914578E-02
   0.1267574465327597E-02
   0.2851883583331608E-02
   0.1534808342215201E-02
   0.2563470894911768E-02
   0.2013581971973699E-02
   0.2154279000012015E-02
   0.8583999344619196E-02
  -0.3829958134051967E-02
   0.6155658351579486E-02
   0.4726993299202368E-04
  -0.4230612368540559E-03
  -0.1674061362019911E-01
  -0.4996319263216900E-02
  -0.4827025882008463E-02
   0.3399472468958990E-02
  -0.6077006595690290E-02
   0.3218628258793509E-04
  -0.3284811397004751E-01
  -0.3181859035103539E-02
   0.4581409171569449E-02
   0.9682094240410195E-03
   0.2133430235112928E-02
   0.4530795631436393E-02
   0.2692754231310272E-02
   0.3243192913656373E-02
   0.5223626540464057E-02
   0.1957642200190166E-02
   0.7485608884948865E-03
  -0.5694636784446662E-04
  -0.5322500275545785E-02
  -0.6972363171892789E-02
  -0.9632148773912922E-03
   0.1062785277289450E-02
  -0.2105762229358634E-02
  -0.3219383623461607E-02
  -0.2544365761221388E-02
  -0.4130954397652984E-02
  -0.7565906285430604E-02
  -0.2012280400273144E-02
   0.6515186234760916E-03
  -0.1916215156597255E-03
   0.1227842433913456E-02
  -0.3502378105288313E-02
   0.4847376292546793E-02
  -0.8642815899089476E-02
   0.3344009901166840E-04
  -0.3327712111523762E-03
   0.2558601945141986E-02
   0.1615701143073908E-02
   0.2038902926823679E-02
  -0.5641068327251897E-02
SCALARS w double 1
LOOKUP_TABLE default
   0.0000000000000000E+00
   0.0000000000000000E+00
   0.0000000000000000E+00
   0.0000000000000000E+00
   0.0000000000000000E+00
   0.0000000000000000E+00
   0.0000000000000000E+00
   0.0000000000000000E+00
   0.0000000000000000E+00
   0.0000000000000000E+00
   0.0000000000000000E+00
   0.0000000000000000E+00
   0.0000000000000000E+00
   0.0000000000000000E+00
   0.0000000000000000E+00
   0.0000000000000000E+00
   0.0000000000000000E+00
   0.0000000000000000E+00
   0.0000000000000000E+00
   0.0000000000000000E+00
   0.0000000000000000E+00
   0.0000000000000000E+00
   0.0000000000000000E+00
   0.0000000000000000E+00
   0.0000000000000000E+00
   0.0000000000000000E+00
   0.0000000000000000E+00
   0.0000000000000000E+00
   0.0000000000000000E+00
   0.0000000000000000E+00
   0.0000000000000000E+00
   0.0000000000000000E+00
   0.0000000000000000E+00
  -0.1007278425377653E+00
  -0.4245737287734125E-01
   0.7150816756354494E-03
   0.5704771839966497E-02
   0.5681057790246735E-03
   0.1606294984443582E-02
   0.3371999233959803E-02
   0.2364016203178360E-02
   0.4720186628562464E-03
   0.3528384055756426E-02
   0.4533198812971205E-01
   0.6563145599568498E-01
   0.8378099013130252E-03
  -0.2266273950320798E-01
   0.4270583083713956E-02
   0.1341904172184996E-01
   0.1029701790902330E-01
   0.4870730313841078E-01
   0.2380906940997212E-02
  -0.6536073456939654E-02
  -0.7379846948735993E-03
   0.3050426430919502E-03
   0.3845968011622196E-02
  -0.3893825541704699E-01
   0.1820230681240828E-01
   0.1120471336669721E-01
   0.3395681883119200E-01
   0.8379368670736031E-02
   0.4924455498207362E-02
   0.4973604867743931E-02
   0.4900296872724702E-02
   0.6056529923890229E-02
   0.2694617365589915E-02
  -0.4127919556130353E-01
  -0.9927350768712098E-01
  -0.1120401837133353E+00
   0.5143955535172213E-02
   0.4215791841291901E-02
  -0.1002624120175563E+00
  -0.9892910717953239E-01
  -0.9835842473070451E-01
  -0.9444289229242094E-01
  -0.6791170332967077E-01
   0.5196455276979732E-02
  -0.1927437444708363E-01
  -0.1563616899678817E-01
  -0.5965345703483363E-02
   0.6822370409027998E-02
  -0.8000247986424067E-01
  -0.2776595550221161E-01
  -0.8086762081738984E-01
  -0.5863556041279953E-01
   0.3073703352303455E-02
   0.2684926200312999E-02
   0.2644441692379600E-02
   0.3457117878902112E-02
   0.3997977158595779E-02
   0.1199288115446087E-02
  -0.1359811486724157E-03
   0.2028738895680716E-02
   0.4893805546657895E-02
   0.3863982276073698E-02
   0.1126178798392826E-02
   0.1188087194006537E-02
   0.1460077794205682E-02
  -0.2239593847597412E-04
   0.9067920740457140E-04
   0.4386661755525614E-02
   0.2711982050856577E-02
   0.2316664559190994E-02
   0.5006431836758442E-02
   0.1069422273959062E-02
   0.2706481999445356E-02
   0.2010122915590219E-02
   0.3343993070067528E-04
   0.8385999204501932E-01
   0.2832386877983797E-02
  -0.8469747336185152E-03
  -0.1275692264357336E-03
   0.1410861921389322E+00
   0.1236585755749920E+00
  -0.1228980910672075E-02
  -0.4383150291725132E-02
  -0.2805635001097992E-03
  -0.6477952028085555E-02
  -0.1895757826127178E-02
   0.1559343262041734E+00
   0.7528367344730037E-01
   0.2567484925474392E-01
   0.1661254957359272E+00