# vtk DataFile Version 2.0
FUN3D:global_image_vtk
ASCII
DATASET UNSTRUCTURED_GRID
POINTS 213 double
   -0.5474740564873852E-02    0.2504942002789484E+01    0.8036076981991991E-04
    0.1245419060613067E+01    0.2504942002789484E+01    0.1039219964411020E-03
    0.2497696073693030E+01    0.2504942002789484E+01    0.1101091303545410E-03
    0.3750590983921480E+01    0.2504942002789484E+01    0.1356295503116800E-03
    0.5003221377597162E+01    0.2504942002789484E+01    0.9666780928311749E-04
    0.5004676742911700E+01    0.1281291395105753E+01    0.1637909528624855E-03
    0.5004772721058693E+01    0.2775095996881246E-01    0.1903391340500035E-03
    0.5003581212097994E+01   -0.1225853377598350E+01    0.1607727457261974E-03
    0.5001952544232275E+01   -0.2496589018453990E+01    0.1082270288649379E-03
    0.3750348112995361E+01   -0.2496589018453990E+01    0.1458766453265096E-03
    0.2498611454377317E+01   -0.2496589018453990E+01    0.1008944626906272E-03
    0.1247175252008361E+01   -0.2496589018453990E+01    0.1108599899122777E-03
   -0.3383979660687600E-02   -0.2496589018453990E+01    0.8107374570669464E-04
   -0.4257801321128522E-02   -0.1225734685796037E+01    0.3415027227392602E-04
   -0.5251639214107765E-02    0.2619500215177433E-01    0.1038630969083968E-03
   -0.5676116249583534E-02    0.1278221730555232E+01    0.8223088441887648E-04
    0.9003209062289861E+00    0.1608979294576764E+01    0.8702487182275292E-04
    0.3983172219369338E+01   -0.1561211779370498E+01    0.1757094365010522E-03
    0.4035602063505070E+01    0.1486760247892150E+01    0.1713161164534504E-03
    0.1036613695282001E+01   -0.1455626300527721E+01    0.1047159427213295E-03
    0.1094353436995095E+01   -0.2964620527176680E+00    0.1260513109293100E-03
    0.7298399732773611E+00    0.6874686376315161E+00    0.1044475973408162E-03
    0.1617018608607686E+01    0.8553209845954690E+00    0.1529686479832741E-03
    0.2143199643591125E+01   -0.1627128383113749E+01    0.1606150792228458E-03
    0.4088840468526000E+01   -0.4351046294420281E+00    0.2719874068939746E-03
    0.2977916498723489E+01   -0.8334990090543162E+00    0.2245549555498413E-03
    0.3044093234698932E+01   -0.1814361100444684E+01    0.1616987295231841E-03
    0.3427866614767216E+01    0.3813906758578046E+00    0.2936862469231641E-03
    0.4313225393967830E+01    0.5489135262685948E+00    0.2312903716210630E-03
    0.1823032697034295E+01    0.1771265400565314E+01    0.1836038692341431E-03
    0.2806311133412000E+01    0.1358629590281434E+01    0.1943348884029340E-03
    0.1891860842827836E+01   -0.8481308943979476E+00    0.1670594417200602E-03
    0.2268769161342131E+01    0.7723708940265567E-01    0.2072220945975074E-03
    0.5000000000000000E+01    0.2504942002789484E+01    0.1250000000000000E+01
    0.5000000000000000E+01    0.2504942002789484E+01    0.2500000000000000E+01
    0.5000000000000000E+01    0.2504942002789484E+01    0.3750000000000000E+01
    0.5000000000000000E+01    0.2504942002789484E+01    0.5000000000000000E+01
    0.3750000000000000E+01    0.2504942002789484E+01    0.5000000000000000E+01
    0.2500000000000000E+01    0.2504942002789484E+01    0.5000000000000000E+01
    0.1250000000000000E+01    0.2504942002789484E+01    0.5000000000000000E+01
    0.0000000000000000E+00    0.2504942002789484E+01    0.5000000000000000E+01
    0.0000000000000000E+00    0.2504942002789484E+01    0.3750000000000000E+01
    0.0000000000000000E+00    0.2504942002789484E+01    0.2500000000000000E+01
    0.0000000000000000E+00    0.2504942002789484E+01    0.1250000000000000E+01
    0.9588956059682339E+00    0.2504942002789484E+01    0.9696525860476739E+00
    0.3981953079391246E+01    0.2504942002789484E+01    0.4070563856992251E+01
    0.4036122197333250E+01    0.2504942002789484E+01    0.1017567537540553E+01
    0.9637572752631961E+00    0.2504942002789484E+01    0.3973598207527089E+01
    0.1546540128744206E+01    0.2504942002789484E+01    0.2931570181915371E+01
    0.6973799452396056E+00    0.2504942002789484E+01    0.3070319960648219E+01
    0.8903741959038994E+00    0.2504942002789484E+01    0.2056562254454128E+01
    0.2183041993500442E+01    0.2504942002789484E+01    0.3960694455184422E+01
    0.3855844874284183E+01    0.2504942002789484E+01    0.2933250593899131E+01
    0.3152611367096485E+01    0.2504942002789484E+01    0.3637668393835075E+01
    0.3103307385041626E+01    0.2504942002789484E+01    0.4332607815872677E+01
    0.3266711043153445E+01    0.2504942002789484E+01    0.1889656625360534E+01
    0.4232537559580073E+01    0.2504942002789484E+01    0.1918626979218870E+01
    0.1905522337827050E+01    0.2504942002789484E+01    0.7226290993688320E+00
    0.2879767716236825E+01    0.2504942002789484E+01    0.9080945907815209E+00
    0.2012711351248540E+01    0.2504942002789484E+01    0.1767082404206327E+01
    0.2669681469683395E+01    0.2504942002789484E+01    0.2853394342669669E+01
    0.5000000000000000E+01    0.1250000000000000E+01    0.5000000000000000E+01
    0.5000000000000000E+01    0.0000000000000000E+00    0.5000000000000000E+01
    0.5000000000000000E+01   -0.1250000000000000E+01    0.5000000000000000E+01
    0.5000000000000000E+01   -0.2496589018453990E+01    0.5000000000000000E+01
    0.5000000000000000E+01   -0.2496589018453990E+01    0.3750000000000000E+01
    0.5000000000000000E+01   -0.2496589018453990E+01    0.2500000000000000E+01
    0.5000000000000000E+01   -0.2496589018453990E+01    0.1250000000000000E+01
    0.5000000000000000E+01    0.1578994732800803E+01    0.9058375365086910E+00
    0.5000000000000000E+01   -0.1583989954232354E+01    0.3982050490726493E+01
    0.5000000000000000E+01    0.1453322699199022E+01    0.4033849428301197E+01
    0.5000000000000000E+01   -0.1479596339503735E+01    0.1040505887381675E+01
    0.5000000000000000E+01   -0.3227322616384110E+00    0.1099454400140349E+01
    0.5000000000000000E+01    0.6593508822075582E+00    0.7354504170366591E+00
    0.5000000000000000E+01    0.8256214013940779E+00    0.1622302608453282E+01
    0.5000000000000000E+01   -0.1650070333782557E+01    0.2145871574390382E+01
    0.5000000000000000E+01   -0.4612828702537229E+00    0.4086422318222992E+01
    0.5000000000000000E+01   -0.8579242121530853E+00    0.2979540174134984E+01
    0.5000000000000000E+01   -0.1836846154397680E+01    0.3045064261640043E+01
    0.5000000000000000E+01    0.3508002863614053E+00    0.3428197553792836E+01
    0.5000000000000000E+01    0.5185680230613409E+00    0.4309693860063405E+01
    0.5000000000000000E+01    0.1738996113203182E+01    0.1827272193562204E+01
    0.5000000000000000E+01    0.1325493893339706E+01    0.2808563282768077E+01
    0.5000000000000000E+01   -0.8731419609589618E+00    0.1895995683864404E+01
    0.5000000000000000E+01    0.4906150219227333E-01    0.2273179336307740E+01
    0.0000000000000000E+00    0.1250000000000000E+01    0.5000000000000000E+01
    0.0000000000000000E+00    0.0000000000000000E+00    0.5000000000000000E+01
    0.0000000000000000E+00   -0.1250000000000000E+01    0.5000000000000000E+01
    0.0000000000000000E+00   -0.2496589018453990E+01    0.5000000000000000E+01
    0.1250000000000000E+01   -0.2496589018453990E+01    0.5000000000000000E+01
    0.2500000000000000E+01   -0.2496589018453990E+01    0.5000000000000000E+01
    0.3750000000000000E+01   -0.2496589018453990E+01    0.5000000000000000E+01
    0.4042003247744892E+01    0.1558308132739014E+01    0.5000000000000000E+01
    0.9304122287900499E+00   -0.1548001304379777E+01    0.5000000000000000E+01
    0.1037243024609388E+01    0.1462892710085612E+01    0.5000000000000000E+01
    0.3946240828834967E+01   -0.1445243809615570E+01    0.5000000000000000E+01
    0.4092527262848217E+01   -0.3455338993778935E+00    0.5000000000000000E+01
    0.4293103109154542E+01    0.6277660831404320E+00    0.5000000000000000E+01
    0.3241512314643519E+01    0.7429886854239611E+00    0.5000000000000000E+01
    0.2844289952419609E+01   -0.1588117879734118E+01    0.5000000000000000E+01
    0.7159905765450471E+00   -0.6002320124191652E+00    0.5000000000000000E+01
    0.1754341919796891E+01   -0.7398147869923652E+00    0.5000000000000000E+01
    0.1870296826774691E+01   -0.1788622905643739E+01    0.5000000000000000E+01
    0.9220614901912976E+00    0.3083720183248586E+00    0.5000000000000000E+01
    0.3101523624086016E+01    0.1777901774806180E+01    0.5000000000000000E+01
    0.2192512063922564E+01    0.1576861561598471E+01    0.5000000000000000E+01
    0.2024793420196460E+01    0.4773861992750707E+00    0.5000000000000000E+01
    0.2990627757741975E+01   -0.4878110785814084E+00    0.5000000000000000E+01
    0.0000000000000000E+00   -0.2496589018453990E+01    0.1250000000000000E+01
    0.0000000000000000E+00   -0.2496589018453990E+01    0.2500000000000000E+01
    0.0000000000000000E+00   -0.2496589018453990E+01    0.3750000000000000E+01
    0.0000000000000000E+00    0.1558308132739014E+01    0.4042003247744892E+01
    0.0000000000000000E+00   -0.1548001304379777E+01    0.9304122287900499E+00
    0.0000000000000000E+00    0.1462892710085612E+01    0.1037243024609388E+01
    0.0000000000000000E+00   -0.1445243809615570E+01    0.3946240828834967E+01
    0.0000000000000000E+00   -0.3455338993778935E+00    0.4092527262848217E+01
    0.0000000000000000E+00    0.6277660831404320E+00    0.4293103109154542E+01
    0.0000000000000000E+00    0.7429886854239611E+00    0.3241512314643519E+01
    0.0000000000000000E+00   -0.1588117879734118E+01    0.2844289952419609E+01
    0.0000000000000000E+00   -0.6002320124191652E+00    0.7159905765450471E+00
    0.0000000000000000E+00   -0.7398147869923652E+00    0.1754341919796891E+01
    0.0000000000000000E+00   -0.1788622905643739E+01    0.1870296826774691E+01
    0.0000000000000000E+00    0.3083720183248586E+00    0.9220614901912976E+00
    0.0000000000000000E+00    0.1777901774806180E+01    0.3101523624086016E+01
    0.0000000000000000E+00    0.1576861561598471E+01    0.2192512063922564E+01
[...]
POINT_DATA 213
SCALARS rho double 1
LOOKUP_TABLE default
   0.1345818456811872E+01
   0.9579739359357444E+00
   0.9476060956660820E+00
   0.9441728496830842E+00
   0.8440262125266406E+00
   0.7737994483148852E+00
   0.7628517318757525E+00
   0.7653970189617744E+00
   0.8320346677784696E+00
   0.9371484979221438E+00
   0.9357185514306683E+00
   0.9614202893487822E+00
   0.1446918148785815E+01
   0.1493671745814920E+01
   0.1644925431936142E+01
   0.1426462202432319E+01
   0.1010222007445235E+01
   0.9526501731187516E+00
   0.9454026509203572E+00
   0.9571098416566998E+00
   0.9405198271218386E+00
   0.1036281476308178E+01
   0.9263115619514480E+00
   0.9336298719627183E+00
   0.9554041454607358E+00
   0.9539772611056553E+00
   0.9364062469063353E+00
   0.9581081426968544E+00
   0.9389538804727727E+00
   0.9315489807157431E+00
   0.9462789548806960E+00
   0.8866609183032407E+00
   0.9439194203793945E+00
   0.9643677974942342E+00
   0.1007405009098442E+01
   0.1006190318960387E+01
   0.1004570048207120E+01
   0.1005767666312027E+01
   0.1004625106041029E+01
   0.1005294155828470E+01
   0.1003023859299464E+01
   0.1008147005634386E+01
   0.1023758863778716E+01
   0.1063127869893905E+01
   0.1019358153046423E+01
   0.1001855464082060E+01
   0.9661875587335483E+00
   0.1005423580169037E+01
   0.1000841601781205E+01
   0.1008818971525388E+01
   0.1007915911856742E+01
   0.1002535400246239E+01
   0.9976794604786873E+00
   0.1000644591488053E+01
   0.1001898834593355E+01
   0.9830186732995537E+00
   0.9842967575991904E+00
   0.9842911153660778E+00
   0.9804887708549369E+00
   0.9908272049696923E+00
   0.9936124718129359E+00
   0.1004767319509679E+01
   0.1004710896803841E+01
   0.1004935567396112E+01
   0.1004626752683310E+01
   0.1009763053716675E+01
   0.1004872364803860E+01
   0.9562288237840608E+00
   0.9261015784447505E+00
   0.1007945015134350E+01
   0.1004505183643813E+01
   0.9153301494283994E+00
   0.9098611852558083E+00
   0.8764019817173242E+00
   0.9758852321906407E+00
   0.9988690072405156E+00
   0.1006357929208397E+01
   0.1010950046361374E+01
   0.1010342380100268E+01
   0.1009108810362849E+01
   0.1005928960720932E+01
   0.9902160469514750E+00
   0.1003888077480030E+01
   0.9847343376300964E+00
   0.1002889480393800E+01
   0.1003901860399780E+01
   0.1003240129451592E+01
   0.1003460661901292E+01
   0.1003777585732789E+01
   0.1005320464334163E+01
   0.1003266490060111E+01
   0.1004372471233837E+01
   0.1005209549440786E+01
   0.1004099090862552E+01
   0.1004562165918198E+01
   0.1003277020948791E+01
   0.1004402380091015E+01
   0.1005768012758381E+01
   0.1004699390378562E+01
   0.1003907740210667E+01
   0.1003165026588973E+01
   0.1004437459283446E+01
   0.1004240266630384E+01
   0.1003559353904256E+01
   0.1005328158845964E+01
   0.1004830999644174E+01
   0.1004766046840497E+01
   0.1004630524926401E+01
   0.1065067502930095E+01
   0.1028659404489292E+01
   0.1009599821104739E+01
   0.1006543869576904E+01
   0.1163468409090807E+01
   0.1086035553622358E+01
   0.1007872425831276E+01
   0.1007345628937107E+01
   0.1006745645240555E+01
   0.1013058246571106E+01
   0.1019265864785269E+01
   0.1234892066548016E+01
   0.1033033377688217E+01
   0.1046519671200572E+01
   0.1201253277390415E+01
   0.1014494196846679E+01
   0.1031931431950055E+01
   0.1028535318003863E+01
   0.1014900135963219E+01
   0.1028912406948644E+01
   0.1002377790222050E+01
   0.9623453151392312E+00
   0.1006852902086030E+01
   0.1001611062350265E+01
   0.1010628537573080E+01
   0.1012295101424556E+01
   0.1001101017469363E+01
   0.9975091522805507E+00
   0.9979884820619729E+00
   0.1001180764973967E+01
   0.9839896279448044E+00
   0.9809890031347024E+00
   0.9654410184856007E+00
   0.9689527354495638E+00
   0.9914605235794519E+00
   0.9914104844479456E+00
   0.9925236981147600E+00
   0.1002001722229869E+01
   0.9995286291871931E+00
   0.9941183780442535E+00
   0.1006979020140081E+01
   0.1022350280871539E+01
   0.1000842603061140E+01
   0.1008944700950563E+01
   0.1004989015123167E+01
   0.1009110944954346E+01
   0.9968477050909931E+00
   0.1005606428699907E+01
   0.1003587896745948E+01
   0.9950740546511592E+00
   0.9829498836989838E+00
   0.9941108468274076E+00
   0.9971235536102883E+00
   0.9920148996601230E+00
   0.1001294389476865E+01
   0.1003230884855366E+01
   0.1002209875118004E+01
   0.9937262299960571E+00
   0.9938073737001938E+00
   0.1005161010335730E+01
   0.1019889417517680E+01
   0.1005459214739494E+01
   0.9817734600066468E+00
   0.1005186132714625E+01
   0.1012406247829227E+01
   0.9875247640638866E+00
   0.9550631844748487E+00
   0.9861610476389316E+00
   0.9868005252398956E+00
   0.9926992642114409E+00
   0.9932917557931651E+00
   0.9955764568335462E+00
   0.1037416262855565E+01
   0.1032699304682796E+01
   0.1001488203749212E+01
   0.1002042061984101E+01
   0.9899392890432108E+00
   0.9909042199550877E+00
   0.9648390606605786E+00
   0.9922999495707062E+00
   0.1005773774345761E+01
   0.1001760927634992E+01
   0.9911417345832619E+00
   0.9743160383290023E+00
   0.9426473004749822E+00
   0.9822942697357767E+00
   0.9792618837329634E+00
   0.9714763452185030E+00
   0.9721730572980066E+00
   0.9555658220863030E+00
   0.9504682733109467E+00
   0.9547805553767386E+00
   0.1002969304091228E+01
   0.1002617911555547E+01
   0.1000680191258208E+01
   0.1001155231041411E+01
   0.9619309524040969E+00
   0.9513852565234244E+00
   0.9605750850244104E+00
   0.1001016497364756E+01
   0.1000588702990241E+01
   0.1000952579128073E+01
   0.9810358006454313E+00
   0.9805480346804176E+00
   0.9642340769845787E+00
SCALARS u double 1
LOOKUP_TABLE default
   0.0000000000000000E+00
   0.0000000000000000E+00
   0.0000000000000000E+00
   0.0000000000000000E+00
   0.0000000000000000E+00
   0.0000000000000000E+00
   0.0000000000000000E+00
   0.0000000000000000E+00
   0.0000000000000000E+00
   0.0000000000000000E+00
   0.0000000000000000E+00
   0.0000000000000000E+00
   0.0000000000000000E+00
   0.0000000000000000E+00
   0.0000000000000000E+00
   0.0000000000000000E+00
   0.0000000000000000E+00
   0.0000000000000000E+00
   0.0000000000000000E+00
   0.0000000000000000E+00
   0.0000000000000000E+00
   0.0000000000000000E+00
   0.0000000000000000E+00
   0.0000000000000000E+00
   0.0000000000000000E+00
   0.0000000000000000E+00
   0.0000000000000000E+00
   0.0000000000000000E+00
   0.0000000000000000E+00
   0.0000000000000000E+00
   0.0000000000000000E+00
   0.0000000000000000E+00
   0.0000000000000000E+00
   0.4951776638995262E+00
   0.5334041072716641E+00
   0.5183892676888265E+00
   0.4933011129223757E+00
   0.4841547084383789E+00
   0.4837097793656930E+00
   0.4864250221191081E+00
   0.4963024680455266E+00
   0.4897005612762740E+00
   0.4720984202643568E+00
   0.4457332018474751E+00
   0.4837784608434398E+00
   0.5088333079394564E+00
   0.4417873467512839E+00
   0.4943865101623606E+00
   0.5226568387420060E+00
   0.4962001678335743E+00
   0.5224551864980599E+00
   0.5030883901035132E+00
   0.5637661231972669E+00
   0.5250377927097447E+00
   0.4979274570341068E+00
   0.5717885540967373E+00
   0.5685381165463828E+00
   0.3743499891504868E+00
   0.4011094722455064E+00
   0.5587742048144202E+00
   0.5561753886348003E+00
   0.4945991993643885E+00
   0.4954006445660802E+00
   0.4938065394813672E+00
   0.4919326782806451E+00
   0.5164183567000348E+00
   0.5360741625101869E+00
   0.4961074127767628E+00
   0.4527415916147687E+00
   0.5124271357588260E+00
   0.5107120593680838E+00
   0.4792900801128796E+00
   0.4943896213503388E+00
   0.4612188335413394E+00
   0.5255384336881755E+00
   0.5301040470115475E+00
   0.5123690583268399E+00
   0.5330374041800806E+00
   0.5309931534365712E+00
   0.5300459130804267E+00
   0.5056184965254321E+00
   0.5282444210587803E+00
   0.5402214760317096E+00
   0.5370233695732561E+00
   0.5377811657982198E+00
   0.4974610349966078E+00
   0.4980855452174152E+00
   0.4967508915242470E+00
   0.4956916638521204E+00
   0.4877979949257381E+00
   0.4875589197763979E+00
   0.4856528769067064E+00
   0.4863990097401953E+00
   0.4916282943606328E+00
   0.4891709461586611E+00
   0.4852606043588015E+00
   0.4886434795646752E+00
   0.4891409381808143E+00
   0.4864437933290085E+00
   0.4864711926227767E+00
   0.4945318445655855E+00
   0.4872275165696659E+00
   0.4875114869204115E+00
   0.4930073424053082E+00
   0.4847120832517349E+00
   0.4867437087983263E+00
   0.4860450837467452E+00
   0.4863577741425370E+00
   0.4454617981649946E+00
   0.4698118184438385E+00
   0.4890905026717258E+00
   0.4880604988866964E+00
   0.4512039458040930E+00
   0.4669903777201395E+00
   0.4874844614154217E+00
   0.4867361997886612E+00
   0.4909959169306308E+00
   0.4794281849562652E+00
   0.4667392914631139E+00
   0.3795464542466329E+00
   0.4898310675234165E+00
   0.4494337264988346E+00
   0.4437272839644580E+00
   0.4845299969840076E+00
   0.4634419319702070E+00
   0.4668179553452367E+00
   0.4747423459796642E+00
   0.4892281100840870E+00
   0.5085684902715867E+00
   0.4329304812699906E+00
   0.4925908714127775E+00
   0.5331062091515788E+00
   0.4918356629475715E+00
   0.5209073496460828E+00
   0.5064561359154349E+00
   0.5670377168567871E+00
   0.5282351659249988E+00
   0.5013257496037411E+00
   0.5801302640934020E+00
   0.5678926257068418E+00
   0.3409560559650774E+00
   0.3794539316923788E+00
   0.5737765313814966E+00
   0.5665079290979068E+00
   0.5691589523264374E+00
   0.5290224742492965E+00
   0.5445345335458612E+00
   0.5714110036153948E+00
   0.5384375710964335E+00
   0.5474787153226467E+00
   0.5819046772447204E+00
   0.4926519006818654E+00
   0.5037029849477097E+00
   0.4962863892144100E+00
   0.5557688287616706E+00
   0.4757890255372982E+00
   0.4944009279140624E+00
   0.5489462408384586E+00
   0.5871297318505001E+00
   0.5824504025245040E+00
   0.5457627896301829E+00
   0.5777910875537244E+00
   0.5100945687279532E+00
   0.5023404686909431E+00
   0.5027312919852575E+00
   0.5661388939483301E+00
   0.5558768141577720E+00
   0.4944242564516538E+00
   0.5502211646970239E+00
   0.5510029055628889E+00
   0.5651813630961932E+00
   0.4913101127007682E+00
   0.4931024972834053E+00
   0.3887760386019838E+00
   0.3712358201111449E+00
   0.5568626784072898E+00
   0.5751407631105777E+00
   0.4190186885327931E+00
   0.5812579902479978E+00
   0.4284681564775920E+00
   0.5394681344149903E+00
   0.5021859840387300E+00
   0.5109513989293961E+00
   0.5040999894262995E+00
   0.5729147890474229E+00
   0.5854804122298821E+00
   0.5378658070629815E+00
   0.5659123280210333E+00
   0.5352718002775869E+00
   0.5337647534483553E+00
   0.5573766182956459E+00
   0.5503399682872885E+00
   0.4273452598018872E+00
   0.5262782281715412E+00
   0.5780360201743484E+00
   0.3348221621814410E+00
   0.4756496458793534E+00
   0.5449945572076710E+00
   0.4814562603338030E+00
   0.3029074464453325E+00
   0.5042159063187208E+00
   0.5010163787522280E+00
   0.5126944370977566E+00
   0.5401595160823165E+00
   0.3460050616498810E+00
   0.3437883999152397E+00
   0.3211861515124154E+00
   0.5063654271482549E+00
   0.5130362944760992E+00
   0.5326989415666481E+00
   0.5867899355139844E+00
   0.4641441563975423E+00
   0.3570921521041563E+00
SCALARS v double 1
LOOKUP_TABLE default
   0.0000000000000000E+00
   0.0000000000000000E+00
   0.0000000000000000E+00
   0.0000000000000000E+00
   0.0000000000000000E+00
   0.0000000000000000E+00
   0.0000000000000000E+00
   0.0000000000000000E+00
   0.0000000000000000E+00
   0.0000000000000000E+00
   0.0000000000000000E+00
   0.0000000000000000E+00
   0.0000000000000000E+00
   0.0000000000000000E+00
   0.0000000000000000E+00
   0.0000000000000000E+00
   0.0000000000000000E+00
   0.0000000000000000E+00
   0.0000000000000000E+00
   0.0000000000000000E+00
   0.0000000000000000E+00
   0.0000000000000000E+00
   0.0000000000000000E+00
   0.0000000000000000E+00
   0.0000000000000000E+00
   0.0000000000000000E+00
   0.0000000000000000E+00
   0.0000000000000000E+00
   0.0000000000000000E+00
   0.0000000000000000E+00
   0.0000000000000000E+00
   0.0000000000000000E+00
   0.0000000000000000E+00
   0.0000000000000000E+00
   0.0000000000000000E+00
   0.0000000000000000E+00
   0.0000000000000000E+00
   0.0000000000000000E+00
   0.0000000000000000E+00
   0.0000000000000000E+00
   0.0000000000000000E+00
   0.0000000000000000E+00
   0.0000000000000000E+00
   0.0000000000000000E+00
   0.0000000000000000E+00
   0.0000000000000000E+00
   0.0000000000000000E+00
   0.0000000000000000E+00
   0.0000000000000000E+00
   0.0000000000000000E+00
   0.0000000000000000E+00
   0.0000000000000000E+00
   0.0000000000000000E+00
   0.0000000000000000E+00
   0.0000000000000000E+00
   0.0000000000000000E+00
   0.0000000000000000E+00
   0.0000000000000000E+00
   0.0000000000000000E+00
   0.0000000000000000E+00
   0.0000000000000000E+00
   0.1158615225554028E-02
   0.1239717460933134E-03
  -0.1712449413542846E-03
   0.0000000000000000E+00
   0.0000000000000000E+00
   0.0000000000000000E+00
   0.0000000000000000E+00
  -0.1831912050305373E-01
   0.5908175516729465E-03
   0.1922060521335920E-02
   0.1411441982324395E-01
  -0.6714669514554425E-02
  -0.6683153970071722E-02
  -0.1271027972457614E-01
   0.4480414084540713E-02
   0.9882453222048117E-03
   0.3050877513440638E-02
   0.1758050813089026E-02
   0.2493432670326024E-02
   0.1874981610758813E-02
  -0.7178761225867809E-02
  -0.7513211886722171E-03
   0.3980439807012008E-02
  -0.1011678475050628E-02
  -0.4361062163191203E-03
  -0.4211966390496616E-03
   0.8249648178382821E-03
   0.0000000000000000E+00
   0.0000000000000000E+00
   0.0000000000000000E+00
   0.0000000000000000E+00
   0.8208040503033941E-03
   0.1463242265404996E-02
  -0.1396216747614729E-02
  -0.1534445586215823E-03
  -0.6312525357492875E-03
   0.3604100065065214E-04
   0.2335041079239456E-03
  -0.7723977645432326E-04
  -0.1786258337471369E-03
  -0.5311394470863053E-03
   0.8438333838731123E-03
  -0.1979631936876748E-02
   0.7018847676413616E-03
   0.3055941278021659E-03
  -0.3399946966808372E-03
  -0.3685280087045083E-03
   0.0000000000000000E+00
   0.0000000000000000E+00
   0.0000000000000000E+00
  -0.7915179863169306E-03
  -0.8002722668613660E-02
   0.1715914326709498E-01
  -0.2236320636073250E-03
  -0.1374591555731056E-02
  -0.2114989302268599E-02
  -0.5167107050837628E-02
  -0.1895676092354560E-02
  -0.6933938890582790E-02
  -0.4244111813842227E-02
   0.1596401572338357E-02
   0.3251034923286025E-01
   0.5057543958777251E-04
  -0.2139495229773437E-02
   0.4178910551644104E-02
   0.4365804159479964E-03
   0.0000000000000000E+00
   0.0000000000000000E+00
   0.0000000000000000E+00
   0.0000000000000000E+00
   0.0000000000000000E+00
   0.0000000000000000E+00
   0.0000000000000000E+00
   0.0000000000000000E+00
   0.0000000000000000E+00
   0.0000000000000000E+00
   0.0000000000000000E+00
   0.0000000000000000E+00
   0.0000000000000000E+00
   0.0000000000000000E+00
   0.0000000000000000E+00
   0.0000000000000000E+00
   0.0000000000000000E+00
   0.4602634512559095E-02
   0.3355153057910689E-02
   0.8099474254431836E-02
   0.5695398414609555E-02
   0.1127532170532925E-01
   0.1356236403065207E-01
  -0.1246164755734427E-02
   0.5526986934943395E-02
   0.3102369189999000E-02
   0.3710619051004420E-02
   0.3534272964489527E-02
  -0.1542745586469444E-01
  -0.5947365426791038E-03
   0.6599582432754981E-02
   0.1183875074147512E-02
   0.2055994068188280E-02
   0.4154785594698588E-02
  -0.2916967761629996E-02
   0.1623671683815054E-02
   0.3189755787288858E-02
   0.1895954486350662E-02
   0.2062228047406037E-02
   0.1939589310094170E-02
   0.2391150530332080E-02
   0.8736839187222352E-02
  -0.3690531171888970E-02
   0.6100531184070579E-02
   0.1108075899950366E-04
  -0.5507176966415650E-03
  -0.1692022724430274E-01
  -0.5337767196471676E-02
  -0.5475902457892119E-02
   0.3348620432230695E-02
  -0.6399417285034284E-02
  -0.3027698421582663E-03
  -0.3415872475378838E-01
  -0.2937216175299804E-02
   0.4682781933166549E-02
   0.1248537355460924E-02
   0.2443234393735090E-02
   0.3891113798263970E-02
   0.2521018898494026E-02
   0.2849730739541951E-02
   0.4703728207050521E-02
   0.1903107746784777E-02
   0.7066405529746098E-03
   0.1001002292295727E-03
  -0.4935985240677693E-02
  -0.6087717828162417E-02
  -0.7287915300839556E-03
   0.7638729855524597E-03
  -0.1634484979848860E-02
  -0.3319528185919831E-02
  -0.2630720898599200E-02
  -0.4603981245849411E-02
  -0.7808694793912651E-02
  -0.2003351167474228E-02
   0.8010376364433506E-03
   0.9844880508250087E-04
   0.8538885439653216E-03
  -0.3039680308070883E-02
   0.5377301885149247E-02
  -0.8750619455867328E-02
   0.1813938064841817E-03
  -0.2722148834731769E-03
   0.2414019379250392E-02
   0.1731652516186319E-02
   0.2233797183697858E-02
  -0.5450033184966706E-02
SCALARS w double 1
LOOKUP_TABLE default
   0.0000000000000000E+00
   0.0000000000000000E+00
   0.0000000000000000E+00
   0.0000000000000000E+00
   0.0000000000000000E+00
   0.0000000000000000E+00
   0.0000000000000000E+00
   0.0000000000000000E+00
   0.0000000000000000E+00
   0.0000000000000000E+00
   0.0000000000000000E+00
   0.0000000000000000E+00
   0.0000000000000000E+00
   0.0000000000000000E+00
   0.0000000000000000E+00
   0.0000000000000000E+00
   0.0000000000000000E+00
   0.0000000000000000E+00
   0.0000000000000000E+00
   0.0000000000000000E+00
   0.0000000000000000E+00
   0.0000000000000000E+00
   0.0000000000000000E+00
   0.0000000000000000E+00
   0.0000000000000000E+00
   0.0000000000000000E+00
   0.0000000000000000E+00
   0.0000000000000000E+00
   0.0000000000000000E+00
   0.0000000000000000E+00
   0.0000000000000000E+00
   0.0000000000000000E+00
   0.0000000000000000E+00
  -0.9791033648976837E-01
  -0.4153008693454895E-01
  -0.2364227861277770E-03
   0.4793973994626406E-02
   0.2351336877765003E-02
   0.2091297866973367E-02
   0.3724588532863586E-02
   0.4514412720250725E-02
   0.9015472807569025E-03
   0.3721559464167317E-02
   0.4566546015777853E-01
   0.6494033733122469E-01
   0.1426394015578683E-02
  -0.2251989209790461E-01
   0.4353065948672296E-02
   0.1291469989762451E-01
   0.1005672256475396E-01
   0.4807176798294632E-01
   0.2007009046166075E-02
  -0.5971862407430991E-02
  -0.3799443947688830E-03
   0.6782345112162968E-03
   0.3682238490315143E-02
  -0.3771261414907721E-01
   0.1793764279920448E-01
   0.1082656897796853E-01
   0.3301062559337402E-01
   0.8264646600420143E-02
   0.4282026926878190E-02
   0.4587947875827697E-02
   0.4441412492210059E-02
   0.5180728681068018E-02
   0.1372799409483277E-02
  -0.4061041006077879E-01
  -0.9674955154276429E-01
  -0.1095574047405781E+00
   0.3810753915423972E-02
   0.2903879949448786E-02
  -0.9721902480658011E-01
  -0.9620381840256853E-01
  -0.9579007940150780E-01
  -0.9208495515552061E-01
  -0.6628373090144546E-01
   0.3850910573531258E-02
  -0.1975849937332951E-01
  -0.1637705229547164E-01
  -0.7375721896416732E-02
   0.5407177234996749E-02
  -0.7789926067363764E-01
  -0.2805905436027187E-01
  -0.7855655765438724E-01
  -0.5792996920480653E-01
   0.4489795364821206E-02
   0.3201835138988033E-02
   0.3203198100660162E-02
   0.4472796734679194E-02
   0.3733946782112897E-02
   0.9403532147439756E-03
   0.8278926669265376E-03
   0.3511378003683192E-02
   0.5445139761295366E-02
   0.4231610123741877E-02
   0.1209024767262996E-02
   0.1380795526968219E-02
   0.3863635890455195E-02
   0.1342221070614713E-02
   0.3843433011375881E-03
   0.5494302647221446E-02
   0.2833539131050992E-02
   0.2582852223066206E-02
   0.5878413509550030E-02
   0.1798484647809571E-02
   0.2334336393616396E-02
   0.2044295726056282E-02
   0.8636516988817602E-03
   0.8450859665373116E-01
   0.2734759102303469E-02
  -0.8630059486151373E-03
   0.3304297123843960E-03
   0.1408280984831703E+00
   0.1225506332642137E+00
  -0.1099014401894579E-02
  -0.4210217321892059E-02
   0.2322797475166982E-03
  -0.6037854413194687E-02
  -0.1335640436783472E-02
   0.1563936983221605E+00
   0.7570428270469130E-01
   0.2597174590967300E-01
   0.1660253653401517E+00