TITLE="fun3d_case_title"
VARIABLES="Iteration" "R_1" "R_2" "R_3" "R_4" "R_5" "C_L" "C_D" "C_M_x" "C_M_y" "C_M_z" "Wall Time" "C_x" "C_y" "C_z" "C_Lp" "C_Dp" "C_Lv" "C_Dv" "C_M_xp" "C_M_yp" "C_M_zp" "C_M_xv" "C_M_yv" "C_M_zv" "C_xp" "C_yp" "C_zp" "C_xv" "C_yv" "C_zv"
ZONE  I=1 F=POINT
1  0.2160029131E-01  0.2803577253E-01  0.2142266532E-02  0.5329975855E-02  0.5295254887E-01 -0.4835081852E+01  0.4397889977E-02 -0.2417105749E+00 -0.3764682559E+00  0.3241998510E-04  0.3474000000E+00  0.4397889977E-02  0.3588472411E-05 -0.4835081852E+01 -0.4835279945E+01  0.2689857290E-03  0.1980923534E-03  0.4128904248E-02 -0.2417070788E+00 -0.3762900859E+00  0.8497060236E-04 -0.3496189575E-05 -0.1781700539E-03 -0.5255061726E-04  0.2689857290E-03 -0.3395383680E-05 -0.4835279945E+01  0.4128904248E-02  0.6983856091E-05  0.1980923534E-03
