# vtk DataFile Version 2.0
FUN3D:global_image_vtk
ASCII
DATASET UNSTRUCTURED_GRID
POINTS 213 double
    0.0000000000000000E+00    0.2500000000000000E+01    0.0000000000000000E+00
    0.1250000000000000E+01    0.2500000000000000E+01    0.0000000000000000E+00
    0.2500000000000000E+01    0.2500000000000000E+01    0.0000000000000000E+00
    0.3750000000000000E+01    0.2500000000000000E+01    0.0000000000000000E+00
    0.5000000000000000E+01    0.2500000000000000E+01    0.0000000000000000E+00
    0.5000000000000000E+01    0.1250000000000000E+01    0.0000000000000000E+00
    0.5000000000000000E+01    0.0000000000000000E+00    0.0000000000000000E+00
    0.5000000000000000E+01   -0.1250000000000000E+01    0.0000000000000000E+00
    0.5000000000000000E+01   -0.2500000000000000E+01    0.0000000000000000E+00
    0.3750000000000000E+01   -0.2500000000000000E+01    0.0000000000000000E+00
    0.2500000000000000E+01   -0.2500000000000000E+01    0.0000000000000000E+00
    0.1250000000000000E+01   -0.2500000000000000E+01    0.0000000000000000E+00
    0.0000000000000000E+00   -0.2500000000000000E+01    0.0000000000000000E+00
    0.0000000000000000E+00   -0.1250000000000000E+01    0.0000000000000000E+00
    0.0000000000000000E+00    0.0000000000000000E+00    0.0000000000000000E+00
    0.0000000000000000E+00    0.1250000000000000E+01    0.0000000000000000E+00
    0.9058375365086910E+00    0.1578994732800803E+01    0.0000000000000000E+00
    0.3982050490726493E+01   -0.1583989954232354E+01    0.0000000000000000E+00
    0.4033849428301197E+01    0.1453322699199022E+01    0.0000000000000000E+00
    0.1040505887381675E+01   -0.1479596339503735E+01    0.0000000000000000E+00
    0.1099454400140349E+01   -0.3227322616384110E+00    0.0000000000000000E+00
    0.7354504170366591E+00    0.6593508822075582E+00    0.0000000000000000E+00
    0.1622302608453282E+01    0.8256214013940779E+00    0.0000000000000000E+00
    0.2145871574390382E+01   -0.1650070333782557E+01    0.0000000000000000E+00
    0.4086422318222992E+01   -0.4612828702537229E+00    0.0000000000000000E+00
    0.2979540174134984E+01   -0.8579242121530853E+00    0.0000000000000000E+00
    0.3045064261640043E+01   -0.1836846154397680E+01    0.0000000000000000E+00
    0.3428197553792836E+01    0.3508002863614053E+00    0.0000000000000000E+00
    0.4309693860063405E+01    0.5185680230613409E+00    0.0000000000000000E+00
    0.1827272193562204E+01    0.1738996113203182E+01    0.0000000000000000E+00
    0.2808563282768077E+01    0.1325493893339706E+01    0.0000000000000000E+00
    0.1895995683864404E+01   -0.8731419609589618E+00    0.0000000000000000E+00
    0.2273179336307740E+01    0.4906150219227333E-01    0.0000000000000000E+00
    0.5000000000000000E+01    0.2500000000000000E+01    0.1250000000000000E+01
    0.5000000000000000E+01    0.2500000000000000E+01    0.2500000000000000E+01
    0.5000000000000000E+01    0.2500000000000000E+01    0.3750000000000000E+01
    0.5000000000000000E+01    0.2500000000000000E+01    0.5000000000000000E+01
    0.3750000000000000E+01    0.2500000000000000E+01    0.5000000000000000E+01
    0.2500000000000000E+01    0.2500000000000000E+01    0.5000000000000000E+01
    0.1250000000000000E+01    0.2500000000000000E+01    0.5000000000000000E+01
    0.0000000000000000E+00    0.2500000000000000E+01    0.5000000000000000E+01
    0.0000000000000000E+00    0.2500000000000000E+01    0.3750000000000000E+01
    0.0000000000000000E+00    0.2500000000000000E+01    0.2500000000000000E+01
    0.0000000000000000E+00    0.2500000000000000E+01    0.1250000000000000E+01
    0.9631080833812172E+00    0.2500000000000000E+01    0.9613285771248219E+00
    0.3981732467264904E+01    0.2500000000000000E+01    0.4069753913607991E+01
    0.4035525118777670E+01    0.2500000000000000E+01    0.1012015867579395E+01
    0.9641717640894248E+00    0.2500000000000000E+01    0.3972455192261839E+01
    0.1547743040396780E+01    0.2500000000000000E+01    0.2928177746738678E+01
    0.6985170616192014E+00    0.2500000000000000E+01    0.3068281976055466E+01
    0.8931277594515110E+00    0.2500000000000000E+01    0.2052465503257726E+01
    0.2183293750162785E+01    0.2500000000000000E+01    0.3959073795658649E+01
    0.3855333506014705E+01    0.2500000000000000E+01    0.2931218481500625E+01
    0.3152495579421047E+01    0.2500000000000000E+01    0.3635850502723324E+01
    0.3103247580566054E+01    0.2500000000000000E+01    0.4331682712472464E+01
    0.3266837581688852E+01    0.2500000000000000E+01    0.1886092433583972E+01
    0.4231539241296245E+01    0.2500000000000000E+01    0.1915865356532799E+01
    0.1909741006522088E+01    0.2500000000000000E+01    0.7170024419130505E+00
    0.2880784107213163E+01    0.2500000000000000E+01    0.9046598906449592E+00
    0.2014316024535771E+01    0.2500000000000000E+01    0.1762464314805728E+01
    0.2670003247036656E+01    0.2500000000000000E+01    0.2850479545835163E+01
    0.5000000000000000E+01    0.1250000000000000E+01    0.5000000000000000E+01
    0.5000000000000000E+01    0.0000000000000000E+00    0.5000000000000000E+01
    0.5000000000000000E+01   -0.1250000000000000E+01    0.5000000000000000E+01
    0.5000000000000000E+01   -0.2500000000000000E+01    0.5000000000000000E+01
    0.5000000000000000E+01   -0.2500000000000000E+01    0.3750000000000000E+01
    0.5000000000000000E+01   -0.2500000000000000E+01    0.2500000000000000E+01
    0.5000000000000000E+01   -0.2500000000000000E+01    0.1250000000000000E+01
    0.5000000000000000E+01    0.1578994732800803E+01    0.9058375365086910E+00
    0.5000000000000000E+01   -0.1583989954232354E+01    0.3982050490726493E+01
    0.5000000000000000E+01    0.1453322699199022E+01    0.4033849428301197E+01
    0.5000000000000000E+01   -0.1479596339503735E+01    0.1040505887381675E+01
    0.5000000000000000E+01   -0.3227322616384110E+00    0.1099454400140349E+01
    0.5000000000000000E+01    0.6593508822075582E+00    0.7354504170366591E+00
    0.5000000000000000E+01    0.8256214013940779E+00    0.1622302608453282E+01
    0.5000000000000000E+01   -0.1650070333782557E+01    0.2145871574390382E+01
    0.5000000000000000E+01   -0.4612828702537229E+00    0.4086422318222992E+01
    0.5000000000000000E+01   -0.8579242121530853E+00    0.2979540174134984E+01
    0.5000000000000000E+01   -0.1836846154397680E+01    0.3045064261640043E+01
    0.5000000000000000E+01    0.3508002863614053E+00    0.3428197553792836E+01
    0.5000000000000000E+01    0.5185680230613409E+00    0.4309693860063405E+01
    0.5000000000000000E+01    0.1738996113203182E+01    0.1827272193562204E+01
    0.5000000000000000E+01    0.1325493893339706E+01    0.2808563282768077E+01
    0.5000000000000000E+01   -0.8731419609589618E+00    0.1895995683864404E+01
    0.5000000000000000E+01    0.4906150219227333E-01    0.2273179336307740E+01
    0.0000000000000000E+00    0.1250000000000000E+01    0.5000000000000000E+01
    0.0000000000000000E+00    0.0000000000000000E+00    0.5000000000000000E+01
    0.0000000000000000E+00   -0.1250000000000000E+01    0.5000000000000000E+01
    0.0000000000000000E+00   -0.2500000000000000E+01    0.5000000000000000E+01
    0.1250000000000000E+01   -0.2500000000000000E+01    0.5000000000000000E+01
    0.2500000000000000E+01   -0.2500000000000000E+01    0.5000000000000000E+01
    0.3750000000000000E+01   -0.2500000000000000E+01    0.5000000000000000E+01
    0.4042003247744892E+01    0.1558308132739014E+01    0.5000000000000000E+01
    0.9304122287900499E+00   -0.1548001304379777E+01    0.5000000000000000E+01
    0.1037243024609388E+01    0.1462892710085612E+01    0.5000000000000000E+01
    0.3946240828834967E+01   -0.1445243809615570E+01    0.5000000000000000E+01
    0.4092527262848217E+01   -0.3455338993778935E+00    0.5000000000000000E+01
    0.4293103109154542E+01    0.6277660831404320E+00    0.5000000000000000E+01
    0.3241512314643519E+01    0.7429886854239611E+00    0.5000000000000000E+01
    0.2844289952419609E+01   -0.1588117879734118E+01    0.5000000000000000E+01
    0.7159905765450471E+00   -0.6002320124191652E+00    0.5000000000000000E+01
    0.1754341919796891E+01   -0.7398147869923652E+00    0.5000000000000000E+01
    0.1870296826774691E+01   -0.1788622905643739E+01    0.5000000000000000E+01
    0.9220614901912976E+00    0.3083720183248586E+00    0.5000000000000000E+01
    0.3101523624086016E+01    0.1777901774806180E+01    0.5000000000000000E+01
    0.2192512063922564E+01    0.1576861561598471E+01    0.5000000000000000E+01
    0.2024793420196460E+01    0.4773861992750707E+00    0.5000000000000000E+01
    0.2990627757741975E+01   -0.4878110785814084E+00    0.5000000000000000E+01
    0.0000000000000000E+00   -0.2500000000000000E+01    0.1250000000000000E+01
    0.0000000000000000E+00   -0.2500000000000000E+01    0.2500000000000000E+01
    0.0000000000000000E+00   -0.2500000000000000E+01    0.3750000000000000E+01
    0.0000000000000000E+00    0.1558308132739014E+01    0.4042003247744892E+01
    0.0000000000000000E+00   -0.1548001304379777E+01    0.9304122287900499E+00
    0.0000000000000000E+00    0.1462892710085612E+01    0.1037243024609388E+01
    0.0000000000000000E+00   -0.1445243809615570E+01    0.3946240828834967E+01
    0.0000000000000000E+00   -0.3455338993778935E+00    0.4092527262848217E+01
    0.0000000000000000E+00    0.6277660831404320E+00    0.4293103109154542E+01
    0.0000000000000000E+00    0.7429886854239611E+00    0.3241512314643519E+01
    0.0000000000000000E+00   -0.1588117879734118E+01    0.2844289952419609E+01
    0.0000000000000000E+00   -0.6002320124191652E+00    0.7159905765450471E+00
    0.0000000000000000E+00   -0.7398147869923652E+00    0.1754341919796891E+01
    0.0000000000000000E+00   -0.1788622905643739E+01    0.1870296826774691E+01
    0.0000000000000000E+00    0.3083720183248586E+00    0.9220614901912976E+00
    0.0000000000000000E+00    0.1777901774806180E+01    0.3101523624086016E+01
    0.0000000000000000E+00    0.1576861561598471E+01    0.2192512063922564E+01
[...]
POINT_DATA 213
SCALARS rho double 1
LOOKUP_TABLE default
   0.1344270955213855E+01
   0.9569750120136862E+00
   0.9462952128374350E+00
   0.9418599440701637E+00
   0.8437293222386221E+00
   0.7737998877682465E+00
   0.7629832497808742E+00
   0.7664602537212217E+00
   0.8307907035623222E+00
   0.9352998930937918E+00
   0.9342236125452025E+00
   0.9617206041259592E+00
   0.1449461876936336E+01
   0.1494095058644954E+01
   0.1644671302645234E+01
   0.1425833119752354E+01
   0.1009014126096456E+01
   0.9508838542964978E+00
   0.9436501272223154E+00
   0.9581573494208491E+00
   0.9415859242462269E+00
   0.1036377645540260E+01
   0.9256159386128171E+00
   0.9322367532558758E+00
   0.9537498705484221E+00
   0.9518792729986247E+00
   0.9348608042489790E+00
   0.9564033051071901E+00
   0.9376102933476598E+00
   0.9300653471574962E+00
   0.9445149867574435E+00
   0.8863516890478562E+00
   0.9423588154545176E+00
   0.9635048327364617E+00
   0.1008297549735927E+01
   0.1006736553989772E+01
   0.1001962645852699E+01
   0.1003217602945176E+01
   0.1004131582450288E+01
   0.1005228065663775E+01
   0.1004260123150418E+01
   0.1008307879773725E+01
   0.1023892774974935E+01
   0.1063553497888992E+01
   0.1019182221384422E+01
   0.1001781877368457E+01
   0.9643369338555454E+00
   0.1005283283981635E+01
   0.1000720664700693E+01
   0.1008741700277393E+01
   0.1008077692322573E+01
   0.1002349144875254E+01
   0.9979976856410399E+00
   0.1000582862318732E+01
   0.1001619762511873E+01
   0.9826888381575094E+00
   0.9842444197744168E+00
   0.9833308729789358E+00
   0.9788227276903868E+00
   0.9902631625672387E+00
   0.9934556890751216E+00
   0.1002008613931454E+01
   0.1002131982029649E+01
   0.1002273919719182E+01
   0.1001792665501763E+01
   0.1009780338839231E+01
   0.1006428657063985E+01
   0.9558791214826972E+00
   0.9249413049540774E+00
   0.1007037195609970E+01
   0.1004506727062739E+01
   0.9143652918404718E+00
   0.9089680964965263E+00
   0.8751693793316422E+00
   0.9767263654412559E+00
   0.1000451687373587E+01
   0.1005832091636628E+01
   0.1012882717395040E+01
   0.1011619332397495E+01
   0.1010439587537218E+01
   0.1005469861423703E+01
   0.9907607173488195E+00
   0.1005139231602126E+01
   0.9860561975678366E+00
   0.1005608692162405E+01
   0.1004247714557938E+01
   0.1002888277276222E+01
   0.1003345282198742E+01
   0.1003992986824296E+01
   0.1005101314733722E+01
   0.1003211320020933E+01
   0.1002661071045769E+01
   0.1002582420343045E+01
   0.1004060530902103E+01
   0.1004319795840785E+01
   0.1001639907412668E+01
   0.1002270000084141E+01
   0.1002539768583490E+01
   0.1003467958590785E+01
   0.1003371830291568E+01
   0.1003231889987226E+01
   0.1004423426620508E+01
   0.1004312940834138E+01
   0.1003659621872772E+01
   0.1003722509745204E+01
   0.1004328760324909E+01
   0.1004464263879257E+01
   0.1003622342970879E+01
   0.1064422877581569E+01
   0.1028473355156073E+01
   0.1009586422686776E+01
   0.1006638533081968E+01
   0.1163935607377355E+01
   0.1086087684575557E+01
   0.1007893099945294E+01
   0.1007245176249096E+01
   0.1006797829428843E+01
   0.1013017931851014E+01
   0.1019384261978698E+01
   0.1235204513460745E+01
   0.1032529244327512E+01
   0.1046680930983658E+01
   0.1200953988146331E+01
   0.1014718554025402E+01
   0.1032290731909216E+01
   0.1028094861681496E+01
   0.1014628263782418E+01
   0.1029216987385105E+01
   0.1001995369280157E+01
   0.9606944944680968E+00
   0.1006852084339118E+01
   0.1001326773653125E+01
   0.1010821398833771E+01
   0.1012245749424384E+01
   0.1000945601018601E+01
   0.9979118089343858E+00
   0.9980626621782602E+00
   0.1001183480559178E+01
   0.9841357800028836E+00
   0.9814877612514293E+00
   0.9648488636787038E+00
   0.9680881844624423E+00
   0.9914122492214414E+00
   0.9910855407936781E+00
   0.9925540423958550E+00
   0.1001726984141061E+01
   0.9993404452049335E+00
   0.9941406498454679E+00
   0.1007038316372448E+01
   0.1022539113872220E+01
   0.1001087856079073E+01
   0.1008798048350875E+01
   0.1004773380629427E+01
   0.1009049830963739E+01
   0.9966466933112736E+00
   0.1004988314879643E+01
   0.1003325133871367E+01
   0.9949426984815536E+00
   0.9832678534034782E+00
   0.9943951490526585E+00
   0.9973415819083378E+00
   0.9932183114222336E+00
   0.1001305745724016E+01
   0.1003001082424006E+01
   0.1002183079363002E+01
   0.9947076611845242E+00
   0.9937961182366470E+00
   0.1004867433523067E+01
   0.1020077194522962E+01
   0.1005364238841600E+01
   0.9816995469265426E+00
   0.1004972581533009E+01
   0.1012381827716756E+01
   0.9871424359929463E+00
   0.9551514433075387E+00
   0.9865072247893157E+00
   0.9864529618717802E+00
   0.9918942753305621E+00
   0.9933505058817379E+00
   0.9954404699450948E+00
   0.1037336521497050E+01
   0.1033536821666714E+01
   0.1001443757696606E+01
   0.1001929897576483E+01
   0.9912472537780511E+00
   0.9910914728793057E+00
   0.9648487059099428E+00
   0.9933277431421373E+00
   0.1006058632595727E+01
   0.1001953940607015E+01
   0.9908730533885403E+00
   0.9740944828946863E+00
   0.9418804043463384E+00
   0.9819375432416803E+00
   0.9794799259706063E+00
   0.9704176383626786E+00
   0.9720478451110799E+00
   0.9557352686427849E+00
   0.9496739051102090E+00
   0.9528686683139206E+00
   0.1002659037885746E+01
   0.1002471011175658E+01
   0.1000509105334610E+01
   0.1001677420536139E+01
   0.9607927045691825E+00
   0.9491641314384831E+00
   0.9584519259964153E+00
   0.1001121051497237E+01
   0.1000495954112468E+01
   0.1001156232858294E+01
   0.9807373582495390E+00
   0.9806000169158318E+00
   0.9628485012610367E+00
SCALARS u double 1
LOOKUP_TABLE default
   0.0000000000000000E+00
   0.0000000000000000E+00
   0.0000000000000000E+00
   0.0000000000000000E+00
   0.0000000000000000E+00
   0.0000000000000000E+00
   0.0000000000000000E+00
   0.0000000000000000E+00
   0.0000000000000000E+00
   0.0000000000000000E+00
   0.0000000000000000E+00
   0.0000000000000000E+00
   0.0000000000000000E+00
   0.0000000000000000E+00
   0.0000000000000000E+00
   0.0000000000000000E+00
   0.0000000000000000E+00
   0.0000000000000000E+00
   0.0000000000000000E+00
   0.0000000000000000E+00
   0.0000000000000000E+00
   0.0000000000000000E+00
   0.0000000000000000E+00
   0.0000000000000000E+00
   0.0000000000000000E+00
   0.0000000000000000E+00
   0.0000000000000000E+00
   0.0000000000000000E+00
   0.0000000000000000E+00
   0.0000000000000000E+00
   0.0000000000000000E+00
   0.0000000000000000E+00
   0.0000000000000000E+00
   0.4950112098212500E+00
   0.5338226218131717E+00
   0.5183272464078411E+00
   0.4930668571328408E+00
   0.4847614704066348E+00
   0.4867707655884220E+00
   0.4890780531854447E+00
   0.4957851932472047E+00
   0.4898307622896403E+00
   0.4717391723731450E+00
   0.4454819056652431E+00
   0.4833909668013476E+00
   0.5098448103739278E+00
   0.4390690994215144E+00
   0.4949406000497555E+00
   0.5225336052845819E+00
   0.4962459920813002E+00
   0.5226159853009845E+00
   0.5038889215851611E+00
   0.5646883932807347E+00
   0.5247516649855259E+00
   0.4991502607940083E+00
   0.5730563108939475E+00
   0.5696033431199851E+00
   0.3737941570488846E+00
   0.3998650038772806E+00
   0.5599333623236157E+00
   0.5564591818247383E+00
   0.4942645919488534E+00
   0.4948669592035664E+00
   0.4925722774185784E+00
   0.4914259130210277E+00
   0.5162369126308519E+00
   0.5361800977765536E+00
   0.4947397787076749E+00
   0.4524089400341533E+00
   0.5128785592008295E+00
   0.5117944676253779E+00
   0.4783495947895890E+00
   0.4931679716853600E+00
   0.4603163817299932E+00
   0.5244892961323762E+00
   0.5297436260033116E+00
   0.5129578157845800E+00
   0.5328359139918449E+00
   0.5308947563939707E+00
   0.5309852305333489E+00
   0.5063657299679764E+00
   0.5282455140777480E+00
   0.5410315550098065E+00
   0.5361257691184736E+00
   0.5374107183974367E+00
   0.4965367724656907E+00
   0.4975342901635487E+00
   0.4963842776033602E+00
   0.4955220568852057E+00
   0.4904586961327743E+00
   0.4903056708021749E+00
   0.4862157669612489E+00
   0.4854071529112235E+00
   0.4932171412926987E+00
   0.4909843739264549E+00
   0.4832164002612804E+00
   0.4872625224463791E+00
   0.4880147474302791E+00
   0.4872476248706338E+00
   0.4882689080015992E+00
   0.4952601695461530E+00
   0.4900974898713814E+00
   0.4904007756050955E+00
   0.4944238883864090E+00
   0.4868045725761413E+00
   0.4892408182001815E+00
   0.4881404351851764E+00
   0.4878462919304828E+00
   0.4446862770799824E+00
   0.4700031922467017E+00
   0.4892001286092427E+00
   0.4885243416608647E+00
   0.4506538638449961E+00
   0.4687377052817756E+00
   0.4877010129112485E+00
   0.4868354702728693E+00
   0.4908993205187912E+00
   0.4793556096018325E+00
   0.4658076887495154E+00
   0.3792722698911630E+00
   0.4901597481584962E+00
   0.4486689818516856E+00
   0.4436139021213195E+00
   0.4845151062175712E+00
   0.4621828140436280E+00
   0.4665755597066873E+00
   0.4748145595267938E+00
   0.4894499876441313E+00
   0.5085609665374849E+00
   0.4315064232851189E+00
   0.4927355440180843E+00
   0.5318296106865796E+00
   0.4913404927674003E+00
   0.5207023067238661E+00
   0.5060987646528549E+00
   0.5688806543616558E+00
   0.5274018823357968E+00
   0.5015076709677900E+00
   0.5821785986307767E+00
   0.5689606561772032E+00
   0.3406395853321955E+00
   0.3789864301987809E+00
   0.5751961960598567E+00
   0.5666490702072187E+00
   0.5704107783297190E+00
   0.5291061748002358E+00
   0.5451907046307625E+00
   0.5718808313750804E+00
   0.5389084155109864E+00
   0.5475510769433560E+00
   0.5821718750191395E+00
   0.4925605735477364E+00
   0.5042160619233976E+00
   0.4961739749325812E+00
   0.5565212833941175E+00
   0.4758849099406719E+00
   0.4950281941970135E+00
   0.5498526807146258E+00
   0.5891200766693458E+00
   0.5841957230646336E+00
   0.5469100886652208E+00
   0.5805414198304792E+00
   0.5106264836949126E+00
   0.5030213075275686E+00
   0.5033662246846684E+00
   0.5676438670058500E+00
   0.5563948891200809E+00
   0.4947260088596271E+00
   0.5505248966234304E+00
   0.5510861089710154E+00
   0.5657353305379296E+00
   0.4920076012278350E+00
   0.4927303139511299E+00
   0.3865145478867673E+00
   0.3687758773536771E+00
   0.5574922980428705E+00
   0.5763759259843317E+00
   0.4194306264598104E+00
   0.5824846810950340E+00
   0.4265214677578309E+00
   0.5392804497010594E+00
   0.5012038924967112E+00
   0.5119550889459022E+00
   0.5049133757631022E+00
   0.5751970062025314E+00
   0.5876371435022915E+00
   0.5379895831408676E+00
   0.5677471769260025E+00
   0.5351266462561430E+00
   0.5338068545094673E+00
   0.5580314258760545E+00
   0.5512701237893408E+00
   0.4261841945599779E+00
   0.5273361047487815E+00
   0.5795708208484787E+00
   0.3318691046705920E+00
   0.4760279840240991E+00
   0.5446193439063983E+00
   0.4798320592681942E+00
   0.3005290718884398E+00
   0.5031060543355008E+00
   0.5017128812539315E+00
   0.5129058371820429E+00
   0.5414848760902974E+00
   0.3437604892639081E+00
   0.3397713525562022E+00
   0.3189920062673360E+00
   0.5065964076556786E+00
   0.5123517463076021E+00
   0.5330314368521936E+00
   0.5879311407742867E+00
   0.4644183917742457E+00
   0.3531276415328625E+00
SCALARS v double 1
LOOKUP_TABLE default
   0.0000000000000000E+00
   0.0000000000000000E+00
   0.0000000000000000E+00
   0.0000000000000000E+00
   0.0000000000000000E+00
   0.0000000000000000E+00
   0.0000000000000000E+00
   0.0000000000000000E+00
   0.0000000000000000E+00
   0.0000000000000000E+00
   0.0000000000000000E+00
   0.0000000000000000E+00
   0.0000000000000000E+00
   0.0000000000000000E+00
   0.0000000000000000E+00
   0.0000000000000000E+00
   0.0000000000000000E+00
   0.0000000000000000E+00
   0.0000000000000000E+00
   0.0000000000000000E+00
   0.0000000000000000E+00
   0.0000000000000000E+00
   0.0000000000000000E+00
   0.0000000000000000E+00
   0.0000000000000000E+00
   0.0000000000000000E+00
   0.0000000000000000E+00
   0.0000000000000000E+00
   0.0000000000000000E+00
   0.0000000000000000E+00
   0.0000000000000000E+00
   0.0000000000000000E+00
   0.0000000000000000E+00
   0.0000000000000000E+00
   0.0000000000000000E+00
   0.0000000000000000E+00
   0.0000000000000000E+00
   0.0000000000000000E+00
   0.0000000000000000E+00
   0.0000000000000000E+00
   0.0000000000000000E+00
   0.0000000000000000E+00
   0.0000000000000000E+00
   0.0000000000000000E+00
   0.0000000000000000E+00
   0.0000000000000000E+00
   0.0000000000000000E+00
   0.0000000000000000E+00
   0.0000000000000000E+00
   0.0000000000000000E+00
   0.0000000000000000E+00
   0.0000000000000000E+00
   0.0000000000000000E+00
   0.0000000000000000E+00
   0.0000000000000000E+00
   0.0000000000000000E+00
   0.0000000000000000E+00
   0.0000000000000000E+00
   0.0000000000000000E+00
   0.0000000000000000E+00
   0.0000000000000000E+00
   0.7979287238787574E-03
  -0.1328371422508452E-02
  -0.1331198489939700E-02
   0.0000000000000000E+00
   0.0000000000000000E+00
   0.0000000000000000E+00
   0.0000000000000000E+00
  -0.1922666419071647E-01
   0.4778876943084562E-03
   0.2183546823622728E-02
   0.1427279402884524E-01
  -0.6488455923236165E-02
  -0.7821746728948656E-02
  -0.1327739611780182E-01
   0.4914367000461505E-02
   0.6911206354143787E-03
   0.3434345521363870E-02
   0.1921157884446900E-02
   0.3148271840216568E-02
   0.1705256083621941E-02
  -0.7316789668935259E-02
  -0.7669005452574498E-04
   0.4468481337778595E-02
  -0.4385508535282606E-03
  -0.6346534076976137E-04
  -0.1963138899734461E-03
   0.8072455420085380E-03
   0.0000000000000000E+00
   0.0000000000000000E+00
   0.0000000000000000E+00
   0.0000000000000000E+00
   0.4251304316662519E-03
   0.1616522525194025E-02
  -0.1297234762476208E-02
  -0.1020885394099539E-02
  -0.2132657222250645E-02
  -0.1063525397918546E-02
  -0.8199642325643657E-03
  -0.7604437709589713E-03
   0.5199517039442153E-04
  -0.6237252211899615E-03
   0.7917350228359013E-03
  -0.1745015855914909E-02
   0.2737266761397344E-03
  -0.8976976336384001E-04
  -0.9420503451466892E-03
  -0.1098157325146835E-02
   0.0000000000000000E+00
   0.0000000000000000E+00
   0.0000000000000000E+00
  -0.1061658902633959E-02
  -0.7641163635222567E-02
   0.1860878277310390E-01
  -0.2837829328832751E-04
  -0.1383176032248168E-02
  -0.2034934415956141E-02
  -0.5666342208728744E-02
  -0.1585203798677260E-02
  -0.5947054944734193E-02
  -0.4160681563701134E-02
   0.1565578502803406E-02
   0.3329533268525574E-01
   0.3056906748992033E-04
  -0.2766890367968908E-02
   0.3566450399512873E-02
   0.3596713506961426E-03
   0.0000000000000000E+00
   0.0000000000000000E+00
   0.0000000000000000E+00
   0.0000000000000000E+00
   0.0000000000000000E+00
   0.0000000000000000E+00
   0.0000000000000000E+00
   0.0000000000000000E+00
   0.0000000000000000E+00
   0.0000000000000000E+00
   0.0000000000000000E+00
   0.0000000000000000E+00
   0.0000000000000000E+00
   0.0000000000000000E+00
   0.0000000000000000E+00
   0.0000000000000000E+00
   0.0000000000000000E+00
   0.5047027330070043E-02
   0.3230644776291702E-02
   0.8149156775637949E-02
   0.6168451879429287E-02
   0.1122936012152700E-01
   0.1429285913281948E-01
  -0.2038161924888177E-03
   0.5118221765297982E-02
   0.2914961308384584E-02
   0.3373558038038564E-02
   0.3728388142142800E-02
  -0.1465730935616361E-01
  -0.6160531759961518E-03
   0.6651754442237361E-02
   0.1542266410929203E-02
   0.1969612860341708E-02
   0.4266246702048762E-02
  -0.2790812720782594E-02
   0.1226833034899254E-02
   0.2819099388662126E-02
   0.1496984969302894E-02
   0.2575377104072911E-02
   0.2030419204043473E-02
   0.2118038077059917E-02
   0.8700516421826704E-02
  -0.3733297909646642E-02
   0.6241426439498718E-02
   0.2504783205759887E-04
  -0.3854521296292292E-03
  -0.1674691745239372E-01
  -0.4881924460013910E-02
  -0.4719757383222431E-02
   0.3445212105342212E-02
  -0.6135932143473161E-02
   0.9946412128219308E-04
  -0.3291392432919739E-01
  -0.3046112607368160E-02
   0.4722832189521065E-02
   0.9229287663532679E-03
   0.2112131849845779E-02
   0.4518668031408969E-02
   0.2720162802599897E-02
   0.3212519603756245E-02
   0.5200649816607827E-02
   0.1942105486990298E-02
   0.7316411283406827E-03
  -0.2599786542466262E-04
  -0.5375016254868998E-02
  -0.6959816879676643E-02
  -0.9444291762080588E-03
   0.1105408779126600E-02
  -0.2080015380297190E-02
  -0.3199597360738723E-02
  -0.2527581900040537E-02
  -0.4115240430917094E-02
  -0.7593731787945454E-02
  -0.1985953237687209E-02
   0.6238007490641249E-03
  -0.2233471317217817E-03
   0.1217051366759819E-02
  -0.3484235177323560E-02
   0.5228963613927836E-02
  -0.8487552229692497E-02
   0.2298163404759192E-04
  -0.3398775422211194E-03
   0.2542609994124071E-02
   0.1663503416939227E-02
   0.2021656608933161E-02
  -0.5620664649903865E-02
SCALARS w double 1
LOOKUP_TABLE default
   0.0000000000000000E+00
   0.0000000000000000E+00
   0.0000000000000000E+00
   0.0000000000000000E+00
   0.0000000000000000E+00
   0.0000000000000000E+00
   0.0000000000000000E+00
   0.0000000000000000E+00
   0.0000000000000000E+00
   0.0000000000000000E+00
   0.0000000000000000E+00
   0.0000000000000000E+00
   0.0000000000000000E+00
   0.0000000000000000E+00
   0.0000000000000000E+00
   0.0000000000000000E+00
   0.0000000000000000E+00
   0.0000000000000000E+00
   0.0000000000000000E+00
   0.0000000000000000E+00
   0.0000000000000000E+00
   0.0000000000000000E+00
   0.0000000000000000E+00
   0.0000000000000000E+00
   0.0000000000000000E+00
   0.0000000000000000E+00
   0.0000000000000000E+00
   0.0000000000000000E+00
   0.0000000000000000E+00
   0.0000000000000000E+00
   0.0000000000000000E+00
   0.0000000000000000E+00
   0.0000000000000000E+00
  -0.1007599478568266E+00
  -0.4249198681854468E-01
   0.7386030390979480E-03
   0.5730850460823740E-02
   0.5702194829121303E-03
   0.1607590337330872E-02
   0.3374148887580379E-02
   0.2371637071697025E-02
   0.4586986931186665E-03
   0.3518210032102015E-02
   0.4521845163840921E-01
   0.6522938745524166E-01
   0.8696268953562314E-03
  -0.2261170104851380E-01
   0.4316419430793837E-02
   0.1358721500442514E-01
   0.1039431653603617E-01
   0.4900546204251411E-01
   0.2437787723856980E-02
  -0.6508420399300680E-02
  -0.6996604209383794E-03
   0.3413233117897646E-03
   0.3904627715903492E-02
  -0.3893107815272235E-01
   0.1798169519279853E-01
   0.1119640408610219E-01
   0.3403779782692452E-01
   0.8439392206065956E-02
   0.4943179768558284E-02
   0.4974591546066837E-02
   0.4874408958733006E-02
   0.6029539654337572E-02
   0.2600997071348252E-02
  -0.4144375847640738E-01
  -0.9954117482345373E-01
  -0.1121675905849062E+00
   0.5073094407557300E-02
   0.4233789773553312E-02
  -0.1004717651576165E+00
  -0.9895095311462067E-01
  -0.9875375739398458E-01
  -0.9462357175572472E-01
  -0.6807028853290185E-01
   0.5157044902888095E-02
  -0.1935268600743941E-01
  -0.1575733633140316E-01
  -0.6002242000066736E-02
   0.6822558721363386E-02
  -0.8009897808746505E-01
  -0.2781040749505195E-01
  -0.8096315147476014E-01
  -0.5873184441156640E-01
   0.3083532015982888E-02
   0.2684920047674533E-02
   0.2640209703511412E-02
   0.3449288806016811E-02
   0.4006132984127203E-02
   0.1200389867313372E-02
  -0.1431419364606192E-03
   0.2043443083084466E-02
   0.4895002509494754E-02
   0.3856815562205000E-02
   0.1115545057902011E-02
   0.1185421323536822E-02
   0.1469058603966092E-02
  -0.1691403737586451E-04
   0.8942234323446269E-04
   0.4386276566679806E-02
   0.2715085122429730E-02
   0.2321709603553287E-02
   0.5009919630859830E-02
   0.1069827599946237E-02
   0.2711534591485193E-02
   0.2013520126014245E-02
   0.2868301903675545E-04
   0.8374650171642972E-01
   0.2793934748446717E-02
  -0.8348649790645499E-03
  -0.1493799576490492E-03
   0.1409547745426571E+00
   0.1239330902419106E+00
  -0.1219063851955641E-02
  -0.4381871495717854E-02
  -0.3040630531571563E-03
  -0.6512269233343543E-02
  -0.1949531011269142E-02
   0.1557637607519927E+00
   0.7490001275862222E-01
   0.2550195308662263E-01
   0.1656450603158475E+00