# vtk DataFile Version 2.0
FUN3D:global_image_vtk
ASCII
DATASET UNSTRUCTURED_GRID
POINTS 213 double
    0.0000000000000000E+00    0.2500000000000000E+01    0.0000000000000000E+00
    0.1250000000000000E+01    0.2500000000000000E+01    0.0000000000000000E+00
    0.2500000000000000E+01    0.2500000000000000E+01    0.0000000000000000E+00
    0.3750000000000000E+01    0.2500000000000000E+01    0.0000000000000000E+00
    0.5000000000000000E+01    0.2500000000000000E+01    0.0000000000000000E+00
    0.5000000000000000E+01    0.1250000000000000E+01    0.0000000000000000E+00
    0.5000000000000000E+01    0.0000000000000000E+00    0.0000000000000000E+00
    0.5000000000000000E+01   -0.1250000000000000E+01    0.0000000000000000E+00
    0.5000000000000000E+01   -0.2500000000000000E+01    0.0000000000000000E+00
    0.3750000000000000E+01   -0.2500000000000000E+01    0.0000000000000000E+00
    0.2500000000000000E+01   -0.2500000000000000E+01    0.0000000000000000E+00
    0.1250000000000000E+01   -0.2500000000000000E+01    0.0000000000000000E+00
    0.0000000000000000E+00   -0.2500000000000000E+01    0.0000000000000000E+00
    0.0000000000000000E+00   -0.1250000000000000E+01    0.0000000000000000E+00
    0.0000000000000000E+00    0.0000000000000000E+00    0.0000000000000000E+00
    0.0000000000000000E+00    0.1250000000000000E+01    0.0000000000000000E+00
    0.9058375365086910E+00    0.1578994732800803E+01    0.0000000000000000E+00
    0.3982050490726493E+01   -0.1583989954232354E+01    0.0000000000000000E+00
    0.4033849428301197E+01    0.1453322699199022E+01    0.0000000000000000E+00
    0.1040505887381675E+01   -0.1479596339503735E+01    0.0000000000000000E+00
    0.1099454400140349E+01   -0.3227322616384110E+00    0.0000000000000000E+00
    0.7354504170366591E+00    0.6593508822075582E+00    0.0000000000000000E+00
    0.1622302608453282E+01    0.8256214013940779E+00    0.0000000000000000E+00
    0.2145871574390382E+01   -0.1650070333782557E+01    0.0000000000000000E+00
    0.4086422318222992E+01   -0.4612828702537229E+00    0.0000000000000000E+00
    0.2979540174134984E+01   -0.8579242121530853E+00    0.0000000000000000E+00
    0.3045064261640043E+01   -0.1836846154397680E+01    0.0000000000000000E+00
    0.3428197553792836E+01    0.3508002863614053E+00    0.0000000000000000E+00
    0.4309693860063405E+01    0.5185680230613409E+00    0.0000000000000000E+00
    0.1827272193562204E+01    0.1738996113203182E+01    0.0000000000000000E+00
    0.2808563282768077E+01    0.1325493893339706E+01    0.0000000000000000E+00
    0.1895995683864404E+01   -0.8731419609589618E+00    0.0000000000000000E+00
    0.2273179336307740E+01    0.4906150219227333E-01    0.0000000000000000E+00
    0.5000000000000000E+01    0.2500000000000000E+01    0.1250000000000000E+01
    0.5000000000000000E+01    0.2500000000000000E+01    0.2500000000000000E+01
    0.5000000000000000E+01    0.2500000000000000E+01    0.3750000000000000E+01
    0.5000000000000000E+01    0.2500000000000000E+01    0.5000000000000000E+01
    0.3750000000000000E+01    0.2500000000000000E+01    0.5000000000000000E+01
    0.2500000000000000E+01    0.2500000000000000E+01    0.5000000000000000E+01
    0.1250000000000000E+01    0.2500000000000000E+01    0.5000000000000000E+01
    0.0000000000000000E+00    0.2500000000000000E+01    0.5000000000000000E+01
    0.0000000000000000E+00    0.2500000000000000E+01    0.3750000000000000E+01
    0.0000000000000000E+00    0.2500000000000000E+01    0.2500000000000000E+01
    0.0000000000000000E+00    0.2500000000000000E+01    0.1250000000000000E+01
    0.9631080833812172E+00    0.2500000000000000E+01    0.9613285771248219E+00
    0.3981732467264904E+01    0.2500000000000000E+01    0.4069753913607991E+01
    0.4035525118777670E+01    0.2500000000000000E+01    0.1012015867579395E+01
    0.9641717640894248E+00    0.2500000000000000E+01    0.3972455192261839E+01
    0.1547743040396780E+01    0.2500000000000000E+01    0.2928177746738678E+01
    0.6985170616192014E+00    0.2500000000000000E+01    0.3068281976055466E+01
    0.8931277594515110E+00    0.2500000000000000E+01    0.2052465503257726E+01
    0.2183293750162785E+01    0.2500000000000000E+01    0.3959073795658649E+01
    0.3855333506014705E+01    0.2500000000000000E+01    0.2931218481500625E+01
    0.3152495579421047E+01    0.2500000000000000E+01    0.3635850502723324E+01
    0.3103247580566054E+01    0.2500000000000000E+01    0.4331682712472464E+01
    0.3266837581688852E+01    0.2500000000000000E+01    0.1886092433583972E+01
    0.4231539241296245E+01    0.2500000000000000E+01    0.1915865356532799E+01
    0.1909741006522088E+01    0.2500000000000000E+01    0.7170024419130505E+00
    0.2880784107213163E+01    0.2500000000000000E+01    0.9046598906449592E+00
    0.2014316024535771E+01    0.2500000000000000E+01    0.1762464314805728E+01
    0.2670003247036656E+01    0.2500000000000000E+01    0.2850479545835163E+01
    0.5000000000000000E+01    0.1250000000000000E+01    0.5000000000000000E+01
    0.5000000000000000E+01    0.0000000000000000E+00    0.5000000000000000E+01
    0.5000000000000000E+01   -0.1250000000000000E+01    0.5000000000000000E+01
    0.5000000000000000E+01   -0.2500000000000000E+01    0.5000000000000000E+01
    0.5000000000000000E+01   -0.2500000000000000E+01    0.3750000000000000E+01
    0.5000000000000000E+01   -0.2500000000000000E+01    0.2500000000000000E+01
    0.5000000000000000E+01   -0.2500000000000000E+01    0.1250000000000000E+01
    0.5000000000000000E+01    0.1578994732800803E+01    0.9058375365086910E+00
    0.5000000000000000E+01   -0.1583989954232354E+01    0.3982050490726493E+01
    0.5000000000000000E+01    0.1453322699199022E+01    0.4033849428301197E+01
    0.5000000000000000E+01   -0.1479596339503735E+01    0.1040505887381675E+01
    0.5000000000000000E+01   -0.3227322616384110E+00    0.1099454400140349E+01
    0.5000000000000000E+01    0.6593508822075582E+00    0.7354504170366591E+00
    0.5000000000000000E+01    0.8256214013940779E+00    0.1622302608453282E+01
    0.5000000000000000E+01   -0.1650070333782557E+01    0.2145871574390382E+01
    0.5000000000000000E+01   -0.4612828702537229E+00    0.4086422318222992E+01
    0.5000000000000000E+01   -0.8579242121530853E+00    0.2979540174134984E+01
    0.5000000000000000E+01   -0.1836846154397680E+01    0.3045064261640043E+01
    0.5000000000000000E+01    0.3508002863614053E+00    0.3428197553792836E+01
    0.5000000000000000E+01    0.5185680230613409E+00    0.4309693860063405E+01
    0.5000000000000000E+01    0.1738996113203182E+01    0.1827272193562204E+01
    0.5000000000000000E+01    0.1325493893339706E+01    0.2808563282768077E+01
    0.5000000000000000E+01   -0.8731419609589618E+00    0.1895995683864404E+01
    0.5000000000000000E+01    0.4906150219227333E-01    0.2273179336307740E+01
    0.0000000000000000E+00    0.1250000000000000E+01    0.5000000000000000E+01
    0.0000000000000000E+00    0.0000000000000000E+00    0.5000000000000000E+01
    0.0000000000000000E+00   -0.1250000000000000E+01    0.5000000000000000E+01
    0.0000000000000000E+00   -0.2500000000000000E+01    0.5000000000000000E+01
    0.1250000000000000E+01   -0.2500000000000000E+01    0.5000000000000000E+01
    0.2500000000000000E+01   -0.2500000000000000E+01    0.5000000000000000E+01
    0.3750000000000000E+01   -0.2500000000000000E+01    0.5000000000000000E+01
    0.4042003247744892E+01    0.1558308132739014E+01    0.5000000000000000E+01
    0.9304122287900499E+00   -0.1548001304379777E+01    0.5000000000000000E+01
    0.1037243024609388E+01    0.1462892710085612E+01    0.5000000000000000E+01
    0.3946240828834967E+01   -0.1445243809615570E+01    0.5000000000000000E+01
    0.4092527262848217E+01   -0.3455338993778935E+00    0.5000000000000000E+01
    0.4293103109154542E+01    0.6277660831404320E+00    0.5000000000000000E+01
    0.3241512314643519E+01    0.7429886854239611E+00    0.5000000000000000E+01
    0.2844289952419609E+01   -0.1588117879734118E+01    0.5000000000000000E+01
    0.7159905765450471E+00   -0.6002320124191652E+00    0.5000000000000000E+01
    0.1754341919796891E+01   -0.7398147869923652E+00    0.5000000000000000E+01
    0.1870296826774691E+01   -0.1788622905643739E+01    0.5000000000000000E+01
    0.9220614901912976E+00    0.3083720183248586E+00    0.5000000000000000E+01
    0.3101523624086016E+01    0.1777901774806180E+01    0.5000000000000000E+01
    0.2192512063922564E+01    0.1576861561598471E+01    0.5000000000000000E+01
    0.2024793420196460E+01    0.4773861992750707E+00    0.5000000000000000E+01
    0.2990627757741975E+01   -0.4878110785814084E+00    0.5000000000000000E+01
    0.0000000000000000E+00   -0.2500000000000000E+01    0.1250000000000000E+01
    0.0000000000000000E+00   -0.2500000000000000E+01    0.2500000000000000E+01
    0.0000000000000000E+00   -0.2500000000000000E+01    0.3750000000000000E+01
    0.0000000000000000E+00    0.1558308132739014E+01    0.4042003247744892E+01
    0.0000000000000000E+00   -0.1548001304379777E+01    0.9304122287900499E+00
    0.0000000000000000E+00    0.1462892710085612E+01    0.1037243024609388E+01
    0.0000000000000000E+00   -0.1445243809615570E+01    0.3946240828834967E+01
    0.0000000000000000E+00   -0.3455338993778935E+00    0.4092527262848217E+01
    0.0000000000000000E+00    0.6277660831404320E+00    0.4293103109154542E+01
    0.0000000000000000E+00    0.7429886854239611E+00    0.3241512314643519E+01
    0.0000000000000000E+00   -0.1588117879734118E+01    0.2844289952419609E+01
    0.0000000000000000E+00   -0.6002320124191652E+00    0.7159905765450471E+00
    0.0000000000000000E+00   -0.7398147869923652E+00    0.1754341919796891E+01
    0.0000000000000000E+00   -0.1788622905643739E+01    0.1870296826774691E+01
    0.0000000000000000E+00    0.3083720183248586E+00    0.9220614901912976E+00
    0.0000000000000000E+00    0.1777901774806180E+01    0.3101523624086016E+01
    0.0000000000000000E+00    0.1576861561598471E+01    0.2192512063922564E+01
[...]
POINT_DATA 213
SCALARS rho double 1
LOOKUP_TABLE default
   0.1344271201576404E+01
   0.9569755321709502E+00
   0.9462957794272197E+00
   0.9418604189084160E+00
   0.8437293500079962E+00
   0.7738003617489969E+00
   0.7629838434199470E+00
   0.7664614262761656E+00
   0.8307910520534265E+00
   0.9353000082905639E+00
   0.9342241228695839E+00
   0.9617212422298396E+00
   0.1449462310727007E+01
   0.1494095575091867E+01
   0.1644671734108566E+01
   0.1425833351776252E+01
   0.1009014616285771E+01
   0.9508842615180720E+00
   0.9436503237335776E+00
   0.9581578206326231E+00
   0.9415864358860299E+00
   0.1036378078181732E+01
   0.9256165244758131E+00
   0.9322373613302833E+00
   0.9537501757152944E+00
   0.9518795572088985E+00
   0.9348611704656755E+00
   0.9564034636184923E+00
   0.9376105143677268E+00
   0.9300659050683208E+00
   0.9445154397134021E+00
   0.8863522898263881E+00
   0.9423591877641284E+00
   0.9635002133336166E+00
   0.1008299046824722E+01
   0.1006735317318203E+01
   0.1001964652447965E+01
   0.1003219633620503E+01
   0.1004132113417751E+01
   0.1005228657918586E+01
   0.1004260455802871E+01
   0.1008308256829588E+01
   0.1023893235162599E+01
   0.1063554072900114E+01
   0.1019182538049608E+01
   0.1001780809408132E+01
   0.9643308637995004E+00
   0.1005283770844606E+01
   0.1000721229479652E+01
   0.1008742157279739E+01
   0.1008078159713409E+01
   0.1002349869414245E+01
   0.9979987216424461E+00
   0.1000583611929571E+01
   0.1001620181794618E+01
   0.9826893318029660E+00
   0.9842439586229628E+00
   0.9833313614212561E+00
   0.9788206261876035E+00
   0.9902638642988770E+00
   0.9934562070593681E+00
   0.1002011786490446E+01
   0.1002134499034534E+01
   0.1002276365498956E+01
   0.1001794823606816E+01
   0.1009778591925952E+01
   0.1006429000204070E+01
   0.9558792970647013E+00
   0.9249396963325744E+00
   0.1007036723700452E+01
   0.1004504940760963E+01
   0.9143653099956213E+00
   0.9089674685563081E+00
   0.8751692857605524E+00
   0.9767272466917541E+00
   0.1000452594183710E+01
   0.1005831064673250E+01
   0.1012882664881974E+01
   0.1011618828369089E+01
   0.1010438587107981E+01
   0.1005468285378345E+01
   0.9907612576187074E+00
   0.1005140318541946E+01
   0.9860568252862433E+00
   0.1005609709330610E+01
   0.1004248054267291E+01
   0.1002888485012036E+01
   0.1003345469608205E+01
   0.1003992785955960E+01
   0.1005101783613203E+01
   0.1003211721882928E+01
   0.1002663227799237E+01
   0.1002586287007687E+01
   0.1004060925884160E+01
   0.1004320394816538E+01
   0.1001642018328249E+01
   0.1002273181464040E+01
   0.1002543533961354E+01
   0.1003469594789691E+01
   0.1003372716130032E+01
   0.1003232280867488E+01
   0.1004423938342002E+01
   0.1004313146317853E+01
   0.1003659896947212E+01
   0.1003723162412570E+01
   0.1004329786540537E+01
   0.1004465096751776E+01
   0.1003623450179862E+01
   0.1064422871854929E+01
   0.1028473841572437E+01
   0.1009586747033043E+01
   0.1006638897546531E+01
   0.1163936085746688E+01
   0.1086088038089349E+01
   0.1007893504677465E+01
   0.1007245610899072E+01
   0.1006798136489054E+01
   0.1013018390228912E+01
   0.1019384805614611E+01
   0.1235204798799092E+01
   0.1032529498804505E+01
   0.1046681519253406E+01
   0.1200954249599458E+01
   0.1014719000562796E+01
   0.1032291279385698E+01
   0.1028095408099693E+01
   0.1014628815049422E+01
   0.1029217432385885E+01
   0.1001994865713146E+01
   0.9606938319310920E+00
   0.1006852666884642E+01
   0.1001327244585914E+01
   0.1010822020341925E+01
   0.1012246167930818E+01
   0.1000946085088798E+01
   0.9979120737306513E+00
   0.9980632836374304E+00
   0.1001184211332793E+01
   0.9841362817557991E+00
   0.9814880851391102E+00
   0.9648491041601458E+00
   0.9680886328040536E+00
   0.9914125462615232E+00
   0.9910858495058122E+00
   0.9925545214486484E+00
   0.1001727564222707E+01
   0.9993409835511482E+00
   0.9941410804358667E+00
   0.1007038802871354E+01
   0.1022539535242312E+01
   0.1001088160129166E+01
   0.1008798586275929E+01
   0.1004773912450086E+01
   0.1009050315465354E+01
   0.9966470842121254E+00
   0.1004988664279275E+01
   0.1003325614979984E+01
   0.9949431494531336E+00
   0.9832681153913407E+00
   0.9943957748489642E+00
   0.9973420849089040E+00
   0.9932190223263532E+00
   0.1001306542549485E+01
   0.1003001703895958E+01
   0.1002183633888302E+01
   0.9947078221239173E+00
   0.9937965469736123E+00
   0.1004867940420973E+01
   0.1020077610133737E+01
   0.1005364603226776E+01
   0.9816998685147754E+00
   0.1004973106337210E+01
   0.1012382429244798E+01
   0.9871427411396673E+00
   0.9551518403742857E+00
   0.9865076513643122E+00
   0.9864533312565150E+00
   0.9918947533771886E+00
   0.9933508576008386E+00
   0.9954409147377311E+00
   0.1037336833918174E+01
   0.1033537236486046E+01
   0.1001443351581127E+01
   0.1001930558811049E+01
   0.9912478137002142E+00
   0.9910920211342139E+00
   0.9648493821554176E+00
   0.9933282249388556E+00
   0.1006058579082498E+01
   0.1001953998419332E+01
   0.9908736037978909E+00
   0.9740945278082497E+00
   0.9418802059474655E+00
   0.9819380137496657E+00
   0.9794804027446581E+00
   0.9704178578715246E+00
   0.9720484317136124E+00
   0.9557354591711498E+00
   0.9496738001286159E+00
   0.9528685559690961E+00
   0.1002659624612301E+01
   0.1002471701051242E+01
   0.1000509363113771E+01
   0.1001677330712404E+01
   0.9607933032069367E+00
   0.9491632286166706E+00
   0.9584517066574527E+00
   0.1001121273042016E+01
   0.1000496195992460E+01
   0.1001156675786618E+01
   0.9807376507988093E+00
   0.9806005296537634E+00
   0.9628482738058644E+00
SCALARS u double 1
LOOKUP_TABLE default
   0.0000000000000000E+00
   0.0000000000000000E+00
   0.0000000000000000E+00
   0.0000000000000000E+00
   0.0000000000000000E+00
   0.0000000000000000E+00
   0.0000000000000000E+00
   0.0000000000000000E+00
   0.0000000000000000E+00
   0.0000000000000000E+00
   0.0000000000000000E+00
   0.0000000000000000E+00
   0.0000000000000000E+00
   0.0000000000000000E+00
   0.0000000000000000E+00
   0.0000000000000000E+00
   0.0000000000000000E+00
   0.0000000000000000E+00
   0.0000000000000000E+00
   0.0000000000000000E+00
   0.0000000000000000E+00
   0.0000000000000000E+00
   0.0000000000000000E+00
   0.0000000000000000E+00
   0.0000000000000000E+00
   0.0000000000000000E+00
   0.0000000000000000E+00
   0.0000000000000000E+00
   0.0000000000000000E+00
   0.0000000000000000E+00
   0.0000000000000000E+00
   0.0000000000000000E+00
   0.0000000000000000E+00
   0.4950178595502046E+00
   0.5338222017469558E+00
   0.5183269620153570E+00
   0.4930649866592197E+00
   0.4847578064139277E+00
   0.4867665539825262E+00
   0.4890762764953727E+00
   0.4957848398071011E+00
   0.4898301190860889E+00
   0.4717387498222696E+00
   0.4454813121881302E+00
   0.4833907001000967E+00
   0.5098397364058823E+00
   0.4390714191587934E+00
   0.4949403330874120E+00
   0.5225329995873097E+00
   0.4962453889326733E+00
   0.5226154493472800E+00
   0.5038881211168358E+00
   0.5646883849099954E+00
   0.5247509026311163E+00
   0.4991465627531484E+00
   0.5730562198701626E+00
   0.5696051802609737E+00
   0.3737941478129191E+00
   0.3998658453286891E+00
   0.5599326691556773E+00
   0.5564587605226120E+00
   0.4942627385265178E+00
   0.4948659575926226E+00
   0.4925736012470777E+00
   0.4914269414883798E+00
   0.5162358259553070E+00
   0.5361800017107059E+00
   0.4947407043130703E+00
   0.4524113775757061E+00
   0.5128778464310930E+00
   0.5117942490099298E+00
   0.4783506683903810E+00
   0.4931689915391587E+00
   0.4603169965989849E+00
   0.5244892687228970E+00
   0.5297434631516174E+00
   0.5129580268918660E+00
   0.5328360413502627E+00
   0.5308943140318986E+00
   0.5309857501592987E+00
   0.5063657306279933E+00
   0.5282462825569438E+00
   0.5410313561975241E+00
   0.5361259823062654E+00
   0.5374105983311155E+00
   0.4965364365691673E+00
   0.4975340455467503E+00
   0.4963842128245881E+00
   0.4955219701419523E+00
   0.4904580799748249E+00
   0.4903043256028807E+00
   0.4862181880726145E+00
   0.4854049017481800E+00
   0.4932163565673694E+00
   0.4909832558059404E+00
   0.4832193884862574E+00
   0.4872622234754745E+00
   0.4880124495971384E+00
   0.4872445057598008E+00
   0.4882695542628785E+00
   0.4952596857446996E+00
   0.4900966045673262E+00
   0.4903998948781067E+00
   0.4944232186211167E+00
   0.4868001671603593E+00
   0.4892385091282008E+00
   0.4881392325079964E+00
   0.4878456787370788E+00
   0.4446865211400632E+00
   0.4700026789869144E+00
   0.4891998118787563E+00
   0.4885247150450239E+00
   0.4506529424517564E+00
   0.4687378142070270E+00
   0.4877009509581720E+00
   0.4868352765919181E+00
   0.4908994061240234E+00
   0.4793550504545158E+00
   0.4658069787252098E+00
   0.3792719052477589E+00
   0.4901596479369741E+00
   0.4486684160921190E+00
   0.4436134245980399E+00
   0.4845146385506501E+00
   0.4621821415583420E+00
   0.4665748257100880E+00
   0.4748138582658992E+00
   0.4894496552809443E+00
   0.5085557133174461E+00
   0.4315066141415570E+00
   0.4927348510774765E+00
   0.5318289415725647E+00
   0.4913398271709060E+00
   0.5207019799741308E+00
   0.5060964091533353E+00
   0.5688798001206246E+00
   0.5273992947504167E+00
   0.5015044322563402E+00
   0.5821788709767738E+00
   0.5689615938533040E+00
   0.3406393694089765E+00
   0.3789866183145888E+00
   0.5751958862500157E+00
   0.5666485980986257E+00
   0.5704108941935603E+00
   0.5291056386061828E+00
   0.5451902685143568E+00
   0.5718804654794980E+00
   0.5389078921175867E+00
   0.5475507289201812E+00
   0.5821713893203775E+00
   0.4925601119434325E+00
   0.5042157025140936E+00
   0.4961734789795171E+00
   0.5565207912485037E+00
   0.4758845684503906E+00
   0.4950267528883510E+00
   0.5498525420777516E+00
   0.5891201991764586E+00
   0.5841957725495223E+00
   0.5469097804815142E+00
   0.5805417760569928E+00
   0.5106251073280289E+00
   0.5030199970850974E+00
   0.5033624340157651E+00
   0.5676446663680375E+00
   0.5563943335446738E+00
   0.4947255309379086E+00
   0.5505244314616552E+00
   0.5510857979508028E+00
   0.5657351052307534E+00
   0.4920069156889724E+00
   0.4927298307119971E+00
   0.3865139199989692E+00
   0.3687753222048809E+00
   0.5574921080063107E+00
   0.5763755600103151E+00
   0.4194304203416408E+00
   0.5824843051022072E+00
   0.4265210020708014E+00
   0.5392800013996289E+00
   0.5012033324928982E+00
   0.5119513329639520E+00
   0.5049119003168426E+00
   0.5751975171928850E+00
   0.5876371607968011E+00
   0.5379903761819851E+00
   0.5677472900395861E+00
   0.5351249761369271E+00
   0.5338057209422470E+00
   0.5580314213537557E+00
   0.5512708164734144E+00
   0.4261852753013184E+00
   0.5273355983300129E+00
   0.5795711709246961E+00
   0.3318684610458377E+00
   0.4760280763220373E+00
   0.5446193820263332E+00
   0.4798325558921292E+00
   0.3005289189247892E+00
   0.5031050611694809E+00
   0.5017115345575412E+00
   0.5129033224092127E+00
   0.5414840543207027E+00
   0.3437602834755217E+00
   0.3397706393920480E+00
   0.3189921914882420E+00
   0.5065935577721828E+00
   0.5123483748656585E+00
   0.5330313665454489E+00
   0.5879310239235663E+00
   0.4644180227987736E+00
   0.3531267602332522E+00
SCALARS v double 1
LOOKUP_TABLE default
   0.0000000000000000E+00
   0.0000000000000000E+00
   0.0000000000000000E+00
   0.0000000000000000E+00
   0.0000000000000000E+00
   0.0000000000000000E+00
   0.0000000000000000E+00
   0.0000000000000000E+00
   0.0000000000000000E+00
   0.0000000000000000E+00
   0.0000000000000000E+00
   0.0000000000000000E+00
   0.0000000000000000E+00
   0.0000000000000000E+00
   0.0000000000000000E+00
   0.0000000000000000E+00
   0.0000000000000000E+00
   0.0000000000000000E+00
   0.0000000000000000E+00
   0.0000000000000000E+00
   0.0000000000000000E+00
   0.0000000000000000E+00
   0.0000000000000000E+00
   0.0000000000000000E+00
   0.0000000000000000E+00
   0.0000000000000000E+00
   0.0000000000000000E+00
   0.0000000000000000E+00
   0.0000000000000000E+00
   0.0000000000000000E+00
   0.0000000000000000E+00
   0.0000000000000000E+00
   0.0000000000000000E+00
   0.0000000000000000E+00
   0.0000000000000000E+00
   0.0000000000000000E+00
   0.0000000000000000E+00
   0.0000000000000000E+00
   0.0000000000000000E+00
   0.0000000000000000E+00
   0.0000000000000000E+00
   0.0000000000000000E+00
   0.0000000000000000E+00
   0.0000000000000000E+00
   0.0000000000000000E+00
   0.0000000000000000E+00
   0.0000000000000000E+00
   0.0000000000000000E+00
   0.0000000000000000E+00
   0.0000000000000000E+00
   0.0000000000000000E+00
   0.0000000000000000E+00
   0.0000000000000000E+00
   0.0000000000000000E+00
   0.0000000000000000E+00
   0.0000000000000000E+00
   0.0000000000000000E+00
   0.0000000000000000E+00
   0.0000000000000000E+00
   0.0000000000000000E+00
   0.0000000000000000E+00
   0.7970528220097974E-03
  -0.1329260887823394E-02
  -0.1332565167765979E-02
   0.0000000000000000E+00
   0.0000000000000000E+00
   0.0000000000000000E+00
   0.0000000000000000E+00
  -0.1922539798596745E-01
   0.4770859705375851E-03
   0.2183384883066112E-02
   0.1427344561639065E-01
  -0.6487909254599681E-02
  -0.7821185360828167E-02
  -0.1327700635868497E-01
   0.4914537591077060E-02
   0.6907518361647603E-03
   0.3434480255741836E-02
   0.1920877517384320E-02
   0.3148009168884918E-02
   0.1704812668428195E-02
  -0.7316101624891451E-02
  -0.7696685900472161E-04
   0.4468907343218773E-02
  -0.4385697037876154E-03
  -0.6384012993124271E-04
  -0.1963404719251904E-03
   0.8071298085459970E-03
   0.0000000000000000E+00
   0.0000000000000000E+00
   0.0000000000000000E+00
   0.0000000000000000E+00
   0.4257292466645442E-03
   0.1616311249378164E-02
  -0.1297549470491681E-02
  -0.1022759193551108E-02
  -0.2134310316833590E-02
  -0.1063978829263295E-02
  -0.8199793469314215E-03
  -0.7616970425541449E-03
   0.5202749633076039E-04
  -0.6244030200687222E-03
   0.7916523288436876E-03
  -0.1745235940514034E-02
   0.2747320122612564E-03
  -0.8938384640731871E-04
  -0.9424166155653496E-03
  -0.1100209308734866E-02
   0.0000000000000000E+00
   0.0000000000000000E+00
   0.0000000000000000E+00
  -0.1061760746901269E-02
  -0.7641073032909681E-02
   0.1860872139610991E-01
  -0.2835177267056118E-04
  -0.1383134571088825E-02
  -0.2035130615679953E-02
  -0.5666392858109362E-02
  -0.1585209845074868E-02
  -0.5946944963762213E-02
  -0.4160575849413527E-02
   0.1565608800693853E-02
   0.3329547008945503E-01
   0.3055282133732422E-04
  -0.2766865623808593E-02
   0.3566529658021413E-02
   0.3596079201500966E-03
   0.0000000000000000E+00
   0.0000000000000000E+00
   0.0000000000000000E+00
   0.0000000000000000E+00
   0.0000000000000000E+00
   0.0000000000000000E+00
   0.0000000000000000E+00
   0.0000000000000000E+00
   0.0000000000000000E+00
   0.0000000000000000E+00
   0.0000000000000000E+00
   0.0000000000000000E+00
   0.0000000000000000E+00
   0.0000000000000000E+00
   0.0000000000000000E+00
   0.0000000000000000E+00
   0.0000000000000000E+00
   0.5047092196035588E-02
   0.3230833441062541E-02
   0.8149195421765410E-02
   0.6168440111158052E-02
   0.1122937413786817E-01
   0.1429288536379562E-01
  -0.2038370102812127E-03
   0.5118254451997268E-02
   0.2914970700965311E-02
   0.3373636518241317E-02
   0.3728378983028662E-02
  -0.1465717220242115E-01
  -0.6159648879105428E-03
   0.6651667929124853E-02
   0.1542069624929301E-02
   0.1969674987699961E-02
   0.4266324655556741E-02
  -0.2790877344546853E-02
   0.1226923923278861E-02
   0.2819202416910748E-02
   0.1497479999261403E-02
   0.2575415523718486E-02
   0.2030697906113827E-02
   0.2118068611962588E-02
   0.8700481890196784E-02
  -0.3733387628691092E-02
   0.6241255735936552E-02
   0.2517228483095783E-04
  -0.3853997749923228E-03
  -0.1674683071261412E-01
  -0.4882003480979111E-02
  -0.4719969859275883E-02
   0.3445246677210426E-02
  -0.6135737201115280E-02
   0.9938042988019714E-04
  -0.3291377438944022E-01
  -0.3046152546026094E-02
   0.4722811288204525E-02
   0.9228771789127196E-03
   0.2112193427882292E-02
   0.4518852779962232E-02
   0.2720502929790766E-02
   0.3212631039368921E-02
   0.5200831321883917E-02
   0.1941855352592179E-02
   0.7316308887725926E-03
  -0.2551767014519404E-04
  -0.5374591578265274E-02
  -0.6959410175233281E-02
  -0.9443809776839110E-03
   0.1105342101923607E-02
  -0.2080577687490699E-02
  -0.3199985343938901E-02
  -0.2527664901363059E-02
  -0.4114990195158549E-02
  -0.7593851388152641E-02
  -0.1985685280992387E-02
   0.6240632859472293E-03
  -0.2238699556243601E-03
   0.1216996452971143E-02
  -0.3483892964949315E-02
   0.5229329360872292E-02
  -0.8487505812492155E-02
   0.2317134893223963E-04
  -0.3395061746620603E-03
   0.2542689273990875E-02
   0.1663495600126540E-02
   0.2021475312801623E-02
  -0.5620742791176326E-02
SCALARS w double 1
LOOKUP_TABLE default
   0.0000000000000000E+00
   0.0000000000000000E+00
   0.0000000000000000E+00
   0.0000000000000000E+00
   0.0000000000000000E+00
   0.0000000000000000E+00
   0.0000000000000000E+00
   0.0000000000000000E+00
   0.0000000000000000E+00
   0.0000000000000000E+00
   0.0000000000000000E+00
   0.0000000000000000E+00
   0.0000000000000000E+00
   0.0000000000000000E+00
   0.0000000000000000E+00
   0.0000000000000000E+00
   0.0000000000000000E+00
   0.0000000000000000E+00
   0.0000000000000000E+00
   0.0000000000000000E+00
   0.0000000000000000E+00
   0.0000000000000000E+00
   0.0000000000000000E+00
   0.0000000000000000E+00
   0.0000000000000000E+00
   0.0000000000000000E+00
   0.0000000000000000E+00
   0.0000000000000000E+00
   0.0000000000000000E+00
   0.0000000000000000E+00
   0.0000000000000000E+00
   0.0000000000000000E+00
   0.0000000000000000E+00
  -0.1007613259360015E+00
  -0.4249296400744283E-01
   0.7372257894622653E-03
   0.5725824790643189E-02
   0.5699525584558561E-03
   0.1609845023484009E-02
   0.3375128779349720E-02
   0.2371795322901508E-02
   0.4590669129591414E-03
   0.3518236748122466E-02
   0.4521816463577435E-01
   0.6522935305361369E-01
   0.8689678543991346E-03
  -0.2261157818551205E-01
   0.4316589543573973E-02
   0.1358737597473605E-01
   0.1039455278438057E-01
   0.4900550694062634E-01
   0.2437491135983013E-02
  -0.6509921279400514E-02
  -0.7011838367271663E-03
   0.3411499881514810E-03
   0.3904114478451540E-02
  -0.3893254917466902E-01
   0.1798167113305093E-01
   0.1119638680095580E-01
   0.3403773146173668E-01
   0.8438835131475350E-02
   0.4937330739183703E-02
   0.4970355717590852E-02
   0.4871519120758687E-02
   0.6027175778902967E-02
   0.2599276522622410E-02
  -0.4144394507149925E-01
  -0.9954186320811370E-01
  -0.1121678822665196E+00
   0.5070930361173851E-02
   0.4230807133697427E-02
  -0.1004723862076703E+00
  -0.9895200117514277E-01
  -0.9875428652843588E-01
  -0.9462494676446113E-01
  -0.6807084406391224E-01
   0.5154971013384609E-02
  -0.1935311830549096E-01
  -0.1575781013028963E-01
  -0.6002775524668663E-02
   0.6819088859522130E-02
  -0.8010049969487219E-01
  -0.2781086541754839E-01
  -0.8096408444688168E-01
  -0.5873252293535457E-01
   0.3083651021861877E-02
   0.2685172252453480E-02
   0.2640460527306366E-02
   0.3450224168302192E-02
   0.4007150090438994E-02
   0.1201281879005833E-02
  -0.1438405386844644E-03
   0.2039908505357930E-02
   0.4895760698335070E-02
   0.3857441156928215E-02
   0.1114198240733905E-02
   0.1182700172297721E-02
   0.1465312806606885E-02
  -0.1649762608405966E-04
   0.9002394604286953E-04
   0.4386725268381069E-02
   0.2715785913843715E-02
   0.2322823219430102E-02
   0.5010662595355257E-02
   0.1071746444591774E-02
   0.2712282052795541E-02
   0.2014019996921981E-02
   0.2884049326453658E-04
   0.8374661477083174E-01
   0.2793883470731907E-02
  -0.8346558590899174E-03
  -0.1492865901449155E-03
   0.1409548581194864E+00
   0.1239334074775496E+00
  -0.1219080703416586E-02
  -0.4381937073691065E-02
  -0.3042998758113430E-03
  -0.6512243215195259E-02
  -0.1949559705749913E-02
   0.1557638452697321E+00
   0.7490009745731287E-01
   0.2550184569316581E-01
   0.1656451267879502E+00