# vtk DataFile Version 2.0
FUN3D:global_image_vtk
ASCII
DATASET UNSTRUCTURED_GRID
POINTS 213 double
    0.0000000000000000E+00    0.2500000000000000E+01    0.0000000000000000E+00
    0.1250000000000000E+01    0.2500000000000000E+01    0.0000000000000000E+00
    0.2500000000000000E+01    0.2500000000000000E+01    0.0000000000000000E+00
    0.3750000000000000E+01    0.2500000000000000E+01    0.0000000000000000E+00
    0.5000000000000000E+01    0.2500000000000000E+01    0.0000000000000000E+00
    0.5000000000000000E+01    0.1250000000000000E+01    0.0000000000000000E+00
    0.5000000000000000E+01    0.0000000000000000E+00    0.0000000000000000E+00
    0.5000000000000000E+01   -0.1250000000000000E+01    0.0000000000000000E+00
    0.5000000000000000E+01   -0.2500000000000000E+01    0.0000000000000000E+00
    0.3750000000000000E+01   -0.2500000000000000E+01    0.0000000000000000E+00
    0.2500000000000000E+01   -0.2500000000000000E+01    0.0000000000000000E+00
    0.1250000000000000E+01   -0.2500000000000000E+01    0.0000000000000000E+00
    0.0000000000000000E+00   -0.2500000000000000E+01    0.0000000000000000E+00
    0.0000000000000000E+00   -0.1250000000000000E+01    0.0000000000000000E+00
    0.0000000000000000E+00    0.0000000000000000E+00    0.0000000000000000E+00
    0.0000000000000000E+00    0.1250000000000000E+01    0.0000000000000000E+00
    0.9058375365086910E+00    0.1578994732800803E+01    0.0000000000000000E+00
    0.3982050490726493E+01   -0.1583989954232354E+01    0.0000000000000000E+00
    0.4033849428301197E+01    0.1453322699199022E+01    0.0000000000000000E+00
    0.1040505887381675E+01   -0.1479596339503735E+01    0.0000000000000000E+00
    0.1099454400140349E+01   -0.3227322616384110E+00    0.0000000000000000E+00
    0.7354504170366591E+00    0.6593508822075582E+00    0.0000000000000000E+00
    0.1622302608453282E+01    0.8256214013940779E+00    0.0000000000000000E+00
    0.2145871574390382E+01   -0.1650070333782557E+01    0.0000000000000000E+00
    0.4086422318222992E+01   -0.4612828702537229E+00    0.0000000000000000E+00
    0.2979540174134984E+01   -0.8579242121530853E+00    0.0000000000000000E+00
    0.3045064261640043E+01   -0.1836846154397680E+01    0.0000000000000000E+00
    0.3428197553792836E+01    0.3508002863614053E+00    0.0000000000000000E+00
    0.4309693860063405E+01    0.5185680230613409E+00    0.0000000000000000E+00
    0.1827272193562204E+01    0.1738996113203182E+01    0.0000000000000000E+00
    0.2808563282768077E+01    0.1325493893339706E+01    0.0000000000000000E+00
    0.1895995683864404E+01   -0.8731419609589618E+00    0.0000000000000000E+00
    0.2273179336307740E+01    0.4906150219227333E-01    0.0000000000000000E+00
    0.5000000000000000E+01    0.2500000000000000E+01    0.1250000000000000E+01
    0.5000000000000000E+01    0.2500000000000000E+01    0.2500000000000000E+01
    0.5000000000000000E+01    0.2500000000000000E+01    0.3750000000000000E+01
    0.5000000000000000E+01    0.2500000000000000E+01    0.5000000000000000E+01
    0.3750000000000000E+01    0.2500000000000000E+01    0.5000000000000000E+01
    0.2500000000000000E+01    0.2500000000000000E+01    0.5000000000000000E+01
    0.1250000000000000E+01    0.2500000000000000E+01    0.5000000000000000E+01
    0.0000000000000000E+00    0.2500000000000000E+01    0.5000000000000000E+01
    0.0000000000000000E+00    0.2500000000000000E+01    0.3750000000000000E+01
    0.0000000000000000E+00    0.2500000000000000E+01    0.2500000000000000E+01
    0.0000000000000000E+00    0.2500000000000000E+01    0.1250000000000000E+01
    0.9631080833812172E+00    0.2500000000000000E+01    0.9613285771248219E+00
    0.3981732467264904E+01    0.2500000000000000E+01    0.4069753913607991E+01
    0.4035525118777670E+01    0.2500000000000000E+01    0.1012015867579395E+01
    0.9641717640894248E+00    0.2500000000000000E+01    0.3972455192261839E+01
    0.1547743040396780E+01    0.2500000000000000E+01    0.2928177746738678E+01
    0.6985170616192014E+00    0.2500000000000000E+01    0.3068281976055466E+01
    0.8931277594515110E+00    0.2500000000000000E+01    0.2052465503257726E+01
    0.2183293750162785E+01    0.2500000000000000E+01    0.3959073795658649E+01
    0.3855333506014705E+01    0.2500000000000000E+01    0.2931218481500625E+01
    0.3152495579421047E+01    0.2500000000000000E+01    0.3635850502723324E+01
    0.3103247580566054E+01    0.2500000000000000E+01    0.4331682712472464E+01
    0.3266837581688852E+01    0.2500000000000000E+01    0.1886092433583972E+01
    0.4231539241296245E+01    0.2500000000000000E+01    0.1915865356532799E+01
    0.1909741006522088E+01    0.2500000000000000E+01    0.7170024419130505E+00
    0.2880784107213163E+01    0.2500000000000000E+01    0.9046598906449592E+00
    0.2014316024535771E+01    0.2500000000000000E+01    0.1762464314805728E+01
    0.2670003247036656E+01    0.2500000000000000E+01    0.2850479545835163E+01
    0.5000000000000000E+01    0.1250000000000000E+01    0.5000000000000000E+01
    0.5000000000000000E+01    0.0000000000000000E+00    0.5000000000000000E+01
    0.5000000000000000E+01   -0.1250000000000000E+01    0.5000000000000000E+01
    0.5000000000000000E+01   -0.2500000000000000E+01    0.5000000000000000E+01
    0.5000000000000000E+01   -0.2500000000000000E+01    0.3750000000000000E+01
    0.5000000000000000E+01   -0.2500000000000000E+01    0.2500000000000000E+01
    0.5000000000000000E+01   -0.2500000000000000E+01    0.1250000000000000E+01
    0.5000000000000000E+01    0.1578994732800803E+01    0.9058375365086910E+00
    0.5000000000000000E+01   -0.1583989954232354E+01    0.3982050490726493E+01
    0.5000000000000000E+01    0.1453322699199022E+01    0.4033849428301197E+01
    0.5000000000000000E+01   -0.1479596339503735E+01    0.1040505887381675E+01
    0.5000000000000000E+01   -0.3227322616384110E+00    0.1099454400140349E+01
    0.5000000000000000E+01    0.6593508822075582E+00    0.7354504170366591E+00
    0.5000000000000000E+01    0.8256214013940779E+00    0.1622302608453282E+01
    0.5000000000000000E+01   -0.1650070333782557E+01    0.2145871574390382E+01
    0.5000000000000000E+01   -0.4612828702537229E+00    0.4086422318222992E+01
    0.5000000000000000E+01   -0.8579242121530853E+00    0.2979540174134984E+01
    0.5000000000000000E+01   -0.1836846154397680E+01    0.3045064261640043E+01
    0.5000000000000000E+01    0.3508002863614053E+00    0.3428197553792836E+01
    0.5000000000000000E+01    0.5185680230613409E+00    0.4309693860063405E+01
    0.5000000000000000E+01    0.1738996113203182E+01    0.1827272193562204E+01
    0.5000000000000000E+01    0.1325493893339706E+01    0.2808563282768077E+01
    0.5000000000000000E+01   -0.8731419609589618E+00    0.1895995683864404E+01
    0.5000000000000000E+01    0.4906150219227333E-01    0.2273179336307740E+01
    0.0000000000000000E+00    0.1250000000000000E+01    0.5000000000000000E+01
    0.0000000000000000E+00    0.0000000000000000E+00    0.5000000000000000E+01
    0.0000000000000000E+00   -0.1250000000000000E+01    0.5000000000000000E+01
    0.0000000000000000E+00   -0.2500000000000000E+01    0.5000000000000000E+01
    0.1250000000000000E+01   -0.2500000000000000E+01    0.5000000000000000E+01
    0.2500000000000000E+01   -0.2500000000000000E+01    0.5000000000000000E+01
    0.3750000000000000E+01   -0.2500000000000000E+01    0.5000000000000000E+01
    0.4042003247744892E+01    0.1558308132739014E+01    0.5000000000000000E+01
    0.9304122287900499E+00   -0.1548001304379777E+01    0.5000000000000000E+01
    0.1037243024609388E+01    0.1462892710085612E+01    0.5000000000000000E+01
    0.3946240828834967E+01   -0.1445243809615570E+01    0.5000000000000000E+01
    0.4092527262848217E+01   -0.3455338993778935E+00    0.5000000000000000E+01
    0.4293103109154542E+01    0.6277660831404320E+00    0.5000000000000000E+01
    0.3241512314643519E+01    0.7429886854239611E+00    0.5000000000000000E+01
    0.2844289952419609E+01   -0.1588117879734118E+01    0.5000000000000000E+01
    0.7159905765450471E+00   -0.6002320124191652E+00    0.5000000000000000E+01
    0.1754341919796891E+01   -0.7398147869923652E+00    0.5000000000000000E+01
    0.1870296826774691E+01   -0.1788622905643739E+01    0.5000000000000000E+01
    0.9220614901912976E+00    0.3083720183248586E+00    0.5000000000000000E+01
    0.3101523624086016E+01    0.1777901774806180E+01    0.5000000000000000E+01
    0.2192512063922564E+01    0.1576861561598471E+01    0.5000000000000000E+01
    0.2024793420196460E+01    0.4773861992750707E+00    0.5000000000000000E+01
    0.2990627757741975E+01   -0.4878110785814084E+00    0.5000000000000000E+01
    0.0000000000000000E+00   -0.2500000000000000E+01    0.1250000000000000E+01
    0.0000000000000000E+00   -0.2500000000000000E+01    0.2500000000000000E+01
    0.0000000000000000E+00   -0.2500000000000000E+01    0.3750000000000000E+01
    0.0000000000000000E+00    0.1558308132739014E+01    0.4042003247744892E+01
    0.0000000000000000E+00   -0.1548001304379777E+01    0.9304122287900499E+00
    0.0000000000000000E+00    0.1462892710085612E+01    0.1037243024609388E+01
    0.0000000000000000E+00   -0.1445243809615570E+01    0.3946240828834967E+01
    0.0000000000000000E+00   -0.3455338993778935E+00    0.4092527262848217E+01
    0.0000000000000000E+00    0.6277660831404320E+00    0.4293103109154542E+01
    0.0000000000000000E+00    0.7429886854239611E+00    0.3241512314643519E+01
    0.0000000000000000E+00   -0.1588117879734118E+01    0.2844289952419609E+01
    0.0000000000000000E+00   -0.6002320124191652E+00    0.7159905765450471E+00
    0.0000000000000000E+00   -0.7398147869923652E+00    0.1754341919796891E+01
    0.0000000000000000E+00   -0.1788622905643739E+01    0.1870296826774691E+01
    0.0000000000000000E+00    0.3083720183248586E+00    0.9220614901912976E+00
    0.0000000000000000E+00    0.1777901774806180E+01    0.3101523624086016E+01
    0.0000000000000000E+00    0.1576861561598471E+01    0.2192512063922564E+01
[...]
POINT_DATA 213
SCALARS rho double 1
LOOKUP_TABLE default
   0.1344271201809856E+01
   0.9569755323105029E+00
   0.9462957795561669E+00
   0.9418604195578044E+00
   0.8437293519676148E+00
   0.7738003619027459E+00
   0.7629838436039167E+00
   0.7664614263380465E+00
   0.8307910522821903E+00
   0.9353000084592705E+00
   0.9342241229112730E+00
   0.9617212423953579E+00
   0.1449462311005988E+01
   0.1494095575165995E+01
   0.1644671734262025E+01
   0.1425833351918756E+01
   0.1009014616427669E+01
   0.9508842616186092E+00
   0.9436503244279418E+00
   0.9581578208379532E+00
   0.9415864359917083E+00
   0.1036378078298899E+01
   0.9256165246699346E+00
   0.9322373614223151E+00
   0.9537501757970115E+00
   0.9518795573313370E+00
   0.9348611705095033E+00
   0.9564034638739376E+00
   0.9376105142214489E+00
   0.9300659052604205E+00
   0.9445154400049117E+00
   0.8863522899182894E+00
   0.9423591879034081E+00
   0.9635002222692326E+00
   0.1008299046511824E+01
   0.1006735316575925E+01
   0.1001964654623427E+01
   0.1003219634173252E+01
   0.1004132113065993E+01
   0.1005228658007301E+01
   0.1004260455725626E+01
   0.1008308256910470E+01
   0.1023893235276036E+01
   0.1063554072930439E+01
   0.1019182538232256E+01
   0.1001780809116639E+01
   0.9643308761118542E+00
   0.1005283770889982E+01
   0.1000721229625449E+01
   0.1008742157378099E+01
   0.1008078159856318E+01
   0.1002349869586846E+01
   0.9979987216645270E+00
   0.1000583612376770E+01
   0.1001620181788028E+01
   0.9826893311849366E+00
   0.9842439599616576E+00
   0.9833313612876801E+00
   0.9788206286473570E+00
   0.9902638641226095E+00
   0.9934562071390213E+00
   0.1002011789124446E+01
   0.1002134500668977E+01
   0.1002276365488628E+01
   0.1001794823535147E+01
   0.1009778592830737E+01
   0.1006429000342208E+01
   0.9558792977694137E+00
   0.9249396988430596E+00
   0.1007036724249303E+01
   0.1004504940781688E+01
   0.9143653099076298E+00
   0.9089674689458859E+00
   0.8751692846638003E+00
   0.9767272458286337E+00
   0.1000452594132549E+01
   0.1005831064986308E+01
   0.1012882664662561E+01
   0.1011618828447290E+01
   0.1010438586995327E+01
   0.1005468285935138E+01
   0.9907612566647314E+00
   0.1005140318532562E+01
   0.9860568252588024E+00
   0.1005609709450101E+01
   0.1004248054327676E+01
   0.1002888484948496E+01
   0.1003345469464872E+01
   0.1003992785958468E+01
   0.1005101783606777E+01
   0.1003211721916352E+01
   0.1002663226919961E+01
   0.1002586288799426E+01
   0.1004060926020392E+01
   0.1004320394585383E+01
   0.1001642017654768E+01
   0.1002273182174152E+01
   0.1002543535220662E+01
   0.1003469594758981E+01
   0.1003372715839129E+01
   0.1003232280972824E+01
   0.1004423938038933E+01
   0.1004313146219972E+01
   0.1003659896852535E+01
   0.1003723162296285E+01
   0.1004329786492513E+01
   0.1004465096794157E+01
   0.1003623449913345E+01
   0.1064422872256451E+01
   0.1028473841556522E+01
   0.1009586747070226E+01
   0.1006638897585887E+01
   0.1163936085578823E+01
   0.1086088037934071E+01
   0.1007893504613652E+01
   0.1007245610856968E+01
   0.1006798136476315E+01
   0.1013018390370420E+01
   0.1019384805626682E+01
   0.1235204798882470E+01
   0.1032529498981323E+01
   0.1046681519240825E+01
   0.1200954249746412E+01
   0.1014719000651943E+01
   0.1032291279513183E+01
   0.1028095408286441E+01
   0.1014628815137524E+01
   0.1029217432481669E+01
   0.1001994866149271E+01
   0.9606938326078045E+00
   0.1006852666889410E+01
   0.1001327244645928E+01
   0.1010822020339723E+01
   0.1012246168019421E+01
   0.1000946085049562E+01
   0.9979120738158389E+00
   0.9980632834437556E+00
   0.1001184211133275E+01
   0.9841362819111479E+00
   0.9814880854925502E+00
   0.9648491045754641E+00
   0.9680886331472688E+00
   0.9914125463735782E+00
   0.9910858495832697E+00
   0.9925545214974749E+00
   0.1001727564273054E+01
   0.9993409835971421E+00
   0.9941410805163332E+00
   0.1007038802927458E+01
   0.1022539535327271E+01
   0.1001088160308554E+01
   0.1008798586329533E+01
   0.1004773912558150E+01
   0.1009050315560636E+01
   0.9966470843613736E+00
   0.1004988664455624E+01
   0.1003325615007944E+01
   0.9949431495093624E+00
   0.9832681158388392E+00
   0.9943957752458962E+00
   0.9973420851649971E+00
   0.9932190222759293E+00
   0.1001306542723636E+01
   0.1003001704002642E+01
   0.1002183633949365E+01
   0.9947078221693919E+00
   0.9937965470518186E+00
   0.1004867940483304E+01
   0.1020077610212066E+01
   0.1005364603301718E+01
   0.9816998686087905E+00
   0.1004973106326573E+01
   0.1012382429231666E+01
   0.9871427414994066E+00
   0.9551518404976890E+00
   0.9865076513660677E+00
   0.9864533314568295E+00
   0.9918947532510181E+00
   0.9933508577873283E+00
   0.9954409148778016E+00
   0.1037336833955742E+01
   0.1033537236528267E+01
   0.1001443352009334E+01
   0.1001930559030867E+01
   0.9912478136273647E+00
   0.9910920211639300E+00
   0.9648493820780778E+00
   0.9933282248911459E+00
   0.1006058579184768E+01
   0.1001953998695857E+01
   0.9908736038319773E+00
   0.9740945267854823E+00
   0.9418802063778148E+00
   0.9819380139015949E+00
   0.9794804026862054E+00
   0.9704178578205697E+00
   0.9720484317631981E+00
   0.9557354595992215E+00
   0.9496738002396697E+00
   0.9528685560138144E+00
   0.1002659624529818E+01
   0.1002471701028764E+01
   0.1000509363171272E+01
   0.1001677330947277E+01
   0.9607933028990043E+00
   0.9491632288010137E+00
   0.9584517065445791E+00
   0.1001121273130674E+01
   0.1000496195892907E+01
   0.1001156676067641E+01
   0.9807376508646003E+00
   0.9806005296963004E+00
   0.9628482740999758E+00
SCALARS u double 1
LOOKUP_TABLE default
   0.0000000000000000E+00
   0.0000000000000000E+00
   0.0000000000000000E+00
   0.0000000000000000E+00
   0.0000000000000000E+00
   0.0000000000000000E+00
   0.0000000000000000E+00
   0.0000000000000000E+00
   0.0000000000000000E+00
   0.0000000000000000E+00
   0.0000000000000000E+00
   0.0000000000000000E+00
   0.0000000000000000E+00
   0.0000000000000000E+00
   0.0000000000000000E+00
   0.0000000000000000E+00
   0.0000000000000000E+00
   0.0000000000000000E+00
   0.0000000000000000E+00
   0.0000000000000000E+00
   0.0000000000000000E+00
   0.0000000000000000E+00
   0.0000000000000000E+00
   0.0000000000000000E+00
   0.0000000000000000E+00
   0.0000000000000000E+00
   0.0000000000000000E+00
   0.0000000000000000E+00
   0.0000000000000000E+00
   0.0000000000000000E+00
   0.0000000000000000E+00
   0.0000000000000000E+00
   0.0000000000000000E+00
   0.4950178496126861E+00
   0.5338222027801509E+00
   0.5183269607884224E+00
   0.4930649882034647E+00
   0.4847578097542707E+00
   0.4867665544671289E+00
   0.4890762770333024E+00
   0.4957848393338453E+00
   0.4898301191836470E+00
   0.4717387496892003E+00
   0.4454813121851949E+00
   0.4833907000165844E+00
   0.5098397318992948E+00
   0.4390714183101064E+00
   0.4949403329005338E+00
   0.5225329994293975E+00
   0.4962453888651255E+00
   0.5226154491967933E+00
   0.5038881207532050E+00
   0.5646883853397132E+00
   0.5247509017867735E+00
   0.4991465609202658E+00
   0.5730562196054303E+00
   0.5696051796485015E+00
   0.3737941477531287E+00
   0.3998658456093644E+00
   0.5599326691087000E+00
   0.5564587602571303E+00
   0.4942627416023588E+00
   0.4948659601842891E+00
   0.4925736018181121E+00
   0.4914269411198316E+00
   0.5162358259060963E+00
   0.5361800017482332E+00
   0.4947407036549549E+00
   0.4524113751572225E+00
   0.5128778460725872E+00
   0.5117942465537707E+00
   0.4783506685032314E+00
   0.4931689913201923E+00
   0.4603169976187463E+00
   0.5244892694433374E+00
   0.5297434631996575E+00
   0.5129580256751711E+00
   0.5328360413714480E+00
   0.5308943142061019E+00
   0.5309857491604523E+00
   0.5063657293557222E+00
   0.5282462838759082E+00
   0.5410313564856736E+00
   0.5361259822809470E+00
   0.5374105984399077E+00
   0.4965364364633737E+00
   0.4975340454330098E+00
   0.4963842127501257E+00
   0.4955219700938012E+00
   0.4904580798172985E+00
   0.4903043256698180E+00
   0.4862181872454754E+00
   0.4854049077420345E+00
   0.4932163567065678E+00
   0.4909832563678666E+00
   0.4832193893172184E+00
   0.4872622277828337E+00
   0.4880124559360718E+00
   0.4872445085861909E+00
   0.4882695540067629E+00
   0.4952596858966751E+00
   0.4900966046505540E+00
   0.4903998949525505E+00
   0.4944232191418652E+00
   0.4868001682809977E+00
   0.4892385104168521E+00
   0.4881392336542946E+00
   0.4878456802654957E+00
   0.4446865202757157E+00
   0.4700026790362453E+00
   0.4891998118274892E+00
   0.4885247149056724E+00
   0.4506529428920163E+00
   0.4687378143514199E+00
   0.4877009507021188E+00
   0.4868352764490866E+00
   0.4908994058205465E+00
   0.4793550503677181E+00
   0.4658069788833282E+00
   0.3792719051488112E+00
   0.4901596477064747E+00
   0.4486684160893645E+00
   0.4436134243711534E+00
   0.4845146384556867E+00
   0.4621821413668789E+00
   0.4665748256380144E+00
   0.4748138582500255E+00
   0.4894496551561946E+00
   0.5085557148882623E+00
   0.4315066142519357E+00
   0.4927348510122271E+00
   0.5318289417280878E+00
   0.4913398272293704E+00
   0.5207019798181999E+00
   0.5060964096338235E+00
   0.5688798002679955E+00
   0.5273992955057428E+00
   0.5015044330160654E+00
   0.5821788708011165E+00
   0.5689615937516089E+00
   0.3406393693307903E+00
   0.3789866180986405E+00
   0.5751958859649264E+00
   0.5666485982312953E+00
   0.5704108941707772E+00
   0.5291056384214251E+00
   0.5451902684278980E+00
   0.5718804654260818E+00
   0.5389078920381125E+00
   0.5475507287701367E+00
   0.5821713891728237E+00
   0.4925601118284889E+00
   0.5042157021406803E+00
   0.4961734788533538E+00
   0.5565207911769079E+00
   0.4758845683516257E+00
   0.4950267530331594E+00
   0.5498525418165811E+00
   0.5891201989938598E+00
   0.5841957726768295E+00
   0.5469097797274647E+00
   0.5805417762425963E+00
   0.5106251066064298E+00
   0.5030199966674841E+00
   0.5033624326030989E+00
   0.5676446662118994E+00
   0.5563943331347704E+00
   0.4947255307261809E+00
   0.5505244313987417E+00
   0.5510857978504248E+00
   0.5657351051616196E+00
   0.4920069155992577E+00
   0.4927298306367124E+00
   0.3865139195744703E+00
   0.3687753221089990E+00
   0.5574921079248765E+00
   0.5763755598843905E+00
   0.4194304202087035E+00
   0.5824843049081103E+00
   0.4265210019189690E+00
   0.5392800013990012E+00
   0.5012033325089448E+00
   0.5119513307118377E+00
   0.5049118997993597E+00
   0.5751975167883863E+00
   0.5876371607568879E+00
   0.5379903760773526E+00
   0.5677472899218091E+00
   0.5351249763379357E+00
   0.5338057201844146E+00
   0.5580314211995451E+00
   0.5512708160990549E+00
   0.4261852738860886E+00
   0.5273355980920718E+00
   0.5795711707749432E+00
   0.3318684611191869E+00
   0.4760280762675728E+00
   0.5446193818936705E+00
   0.4798325557413300E+00
   0.3005289189894152E+00
   0.5031050612610185E+00
   0.5017115343087910E+00
   0.5129033219678119E+00
   0.5414840529464913E+00
   0.3437602824131810E+00
   0.3397706394393042E+00
   0.3189921914669566E+00
   0.5065935581144910E+00
   0.5123483757598707E+00
   0.5330313659369201E+00
   0.5879310238131832E+00
   0.4644180227737769E+00
   0.3531267600908982E+00
SCALARS v double 1
LOOKUP_TABLE default
   0.0000000000000000E+00
   0.0000000000000000E+00
   0.0000000000000000E+00
   0.0000000000000000E+00
   0.0000000000000000E+00
   0.0000000000000000E+00
   0.0000000000000000E+00
   0.0000000000000000E+00
   0.0000000000000000E+00
   0.0000000000000000E+00
   0.0000000000000000E+00
   0.0000000000000000E+00
   0.0000000000000000E+00
   0.0000000000000000E+00
   0.0000000000000000E+00
   0.0000000000000000E+00
   0.0000000000000000E+00
   0.0000000000000000E+00
   0.0000000000000000E+00
   0.0000000000000000E+00
   0.0000000000000000E+00
   0.0000000000000000E+00
   0.0000000000000000E+00
   0.0000000000000000E+00
   0.0000000000000000E+00
   0.0000000000000000E+00
   0.0000000000000000E+00
   0.0000000000000000E+00
   0.0000000000000000E+00
   0.0000000000000000E+00
   0.0000000000000000E+00
   0.0000000000000000E+00
   0.0000000000000000E+00
   0.0000000000000000E+00
   0.0000000000000000E+00
   0.0000000000000000E+00
   0.0000000000000000E+00
   0.0000000000000000E+00
   0.0000000000000000E+00
   0.0000000000000000E+00
   0.0000000000000000E+00
   0.0000000000000000E+00
   0.0000000000000000E+00
   0.0000000000000000E+00
   0.0000000000000000E+00
   0.0000000000000000E+00
   0.0000000000000000E+00
   0.0000000000000000E+00
   0.0000000000000000E+00
   0.0000000000000000E+00
   0.0000000000000000E+00
   0.0000000000000000E+00
   0.0000000000000000E+00
   0.0000000000000000E+00
   0.0000000000000000E+00
   0.0000000000000000E+00
   0.0000000000000000E+00
   0.0000000000000000E+00
   0.0000000000000000E+00
   0.0000000000000000E+00
   0.0000000000000000E+00
   0.7970529006039941E-03
  -0.1329257952728897E-02
  -0.1332562959697425E-02
   0.0000000000000000E+00
   0.0000000000000000E+00
   0.0000000000000000E+00
   0.0000000000000000E+00
  -0.1922540132177939E-01
   0.4770857353814648E-03
   0.2183384513784049E-02
   0.1427344579946802E-01
  -0.6487909167917742E-02
  -0.7821186914751326E-02
  -0.1327700733484362E-01
   0.4914537386776248E-02
   0.6907505554645689E-03
   0.3434479252314728E-02
   0.1920877101271712E-02
   0.3148007920825842E-02
   0.1704811918475407E-02
  -0.7316103413219947E-02
  -0.7696730597550707E-04
   0.4468907113991844E-02
  -0.4385700137108935E-03
  -0.6384018043298397E-04
  -0.1963405499722895E-03
   0.8071297663867910E-03
   0.0000000000000000E+00
   0.0000000000000000E+00
   0.0000000000000000E+00
   0.0000000000000000E+00
   0.4257292280108515E-03
   0.1616311356650839E-02
  -0.1297549358107911E-02
  -0.1022757365147993E-02
  -0.2134306579428924E-02
  -0.1063976385472268E-02
  -0.8199776258249863E-03
  -0.7616953683471703E-03
   0.5202755923939129E-04
  -0.6244023306375510E-03
   0.7916526608677854E-03
  -0.1745235906396378E-02
   0.2747325826916845E-03
  -0.8938369667272231E-04
  -0.9424164228730141E-03
  -0.1100207503446136E-02
   0.0000000000000000E+00
   0.0000000000000000E+00
   0.0000000000000000E+00
  -0.1061760821263879E-02
  -0.7641072920316608E-02
   0.1860872147769964E-01
  -0.2835176787052545E-04
  -0.1383134616491288E-02
  -0.2035130701778072E-02
  -0.5666392814429076E-02
  -0.1585209957703870E-02
  -0.5946945009000050E-02
  -0.4160575891191062E-02
   0.1565608792212702E-02
   0.3329547006610353E-01
   0.3055283970990975E-04
  -0.2766865611568363E-02
   0.3566529712372916E-02
   0.3596079174395883E-03
   0.0000000000000000E+00
   0.0000000000000000E+00
   0.0000000000000000E+00
   0.0000000000000000E+00
   0.0000000000000000E+00
   0.0000000000000000E+00
   0.0000000000000000E+00
   0.0000000000000000E+00
   0.0000000000000000E+00
   0.0000000000000000E+00
   0.0000000000000000E+00
   0.0000000000000000E+00
   0.0000000000000000E+00
   0.0000000000000000E+00
   0.0000000000000000E+00
   0.0000000000000000E+00
   0.0000000000000000E+00
   0.5047092150963291E-02
   0.3230833365760532E-02
   0.8149195380600251E-02
   0.6168440117586257E-02
   0.1122937414343960E-01
   0.1429288535341604E-01
  -0.2038370667378116E-03
   0.5118254405622487E-02
   0.2914970631892931E-02
   0.3373636479040145E-02
   0.3728378984962451E-02
  -0.1465717222779116E-01
  -0.6159649851411134E-03
   0.6651667790273460E-02
   0.1542069878185026E-02
   0.1969675069222629E-02
   0.4266324159513026E-02
  -0.2790877132459745E-02
   0.1226923264815927E-02
   0.2819202223857164E-02
   0.1497479698578093E-02
   0.2575414962259690E-02
   0.2030697500581998E-02
   0.2118068580115870E-02
   0.8700481865435783E-02
  -0.3733387654888233E-02
   0.6241255738608449E-02
   0.2517221363274914E-04
  -0.3853998356599265E-03
  -0.1674683077149323E-01
  -0.4882003569353652E-02
  -0.4719969909137799E-02
   0.3445246651534473E-02
  -0.6135737152305283E-02
   0.9938040254328697E-04
  -0.3291377444549817E-01
  -0.3046152573053025E-02
   0.4722811283420918E-02
   0.9228762684476651E-03
   0.2112193206510092E-02
   0.4518852356263983E-02
   0.2720502619590011E-02
   0.3212630991688495E-02
   0.5200831045343695E-02
   0.1941854972843118E-02
   0.7316299248666386E-03
  -0.2551782999940435E-04
  -0.5374591783442308E-02
  -0.6959411343029230E-02
  -0.9443805929326393E-03
   0.1105342068054399E-02
  -0.2080577806890482E-02
  -0.3199985474507045E-02
  -0.2527664658255908E-02
  -0.4114990125299543E-02
  -0.7593851382530261E-02
  -0.1985685359824696E-02
   0.6240627735717805E-03
  -0.2238707893608295E-03
   0.1216995699998864E-02
  -0.3483893233733918E-02
   0.5229329194736464E-02
  -0.8487505901760058E-02
   0.2317073942777501E-04
  -0.3395065908894130E-03
   0.2542689007135326E-02
   0.1663495494795992E-02
   0.2021475272858939E-02
  -0.5620742996603681E-02
SCALARS w double 1
LOOKUP_TABLE default
   0.0000000000000000E+00
   0.0000000000000000E+00
   0.0000000000000000E+00
   0.0000000000000000E+00
   0.0000000000000000E+00
   0.0000000000000000E+00
   0.0000000000000000E+00
   0.0000000000000000E+00
   0.0000000000000000E+00
   0.0000000000000000E+00
   0.0000000000000000E+00
   0.0000000000000000E+00
   0.0000000000000000E+00
   0.0000000000000000E+00
   0.0000000000000000E+00
   0.0000000000000000E+00
   0.0000000000000000E+00
   0.0000000000000000E+00
   0.0000000000000000E+00
   0.0000000000000000E+00
   0.0000000000000000E+00
   0.0000000000000000E+00
   0.0000000000000000E+00
   0.0000000000000000E+00
   0.0000000000000000E+00
   0.0000000000000000E+00
   0.0000000000000000E+00
   0.0000000000000000E+00
   0.0000000000000000E+00
   0.0000000000000000E+00
   0.0000000000000000E+00
   0.0000000000000000E+00
   0.0000000000000000E+00
  -0.1007613232947105E+00
  -0.4249296209538117E-01
   0.7372252129236224E-03
   0.5725822752475710E-02
   0.5699524791180835E-03
   0.1609846120202911E-02
   0.3375128563669266E-02
   0.2371795247568652E-02
   0.4590668563251485E-03
   0.3518236715202598E-02
   0.4521816463373864E-01
   0.6522935307696202E-01
   0.8689684659885365E-03
  -0.2261157897957409E-01
   0.4316589686677003E-02
   0.1358737593846990E-01
   0.1039455277298216E-01
   0.4900550692403986E-01
   0.2437491073015693E-02
  -0.6509920923175630E-02
  -0.7011842055035096E-03
   0.3411506310837735E-03
   0.3904114553154607E-02
  -0.3893254789512922E-01
   0.1798167110658880E-01
   0.1119638643453407E-01
   0.3403773137684203E-01
   0.8438835025841415E-02
   0.4937329398042031E-02
   0.4970355720992114E-02
   0.4871520218611624E-02
   0.6027177328038612E-02
   0.2599277693386999E-02
  -0.4144394489566271E-01
  -0.9954186310394651E-01
  -0.1121678822891833E+00
   0.5070931090903179E-02
   0.4230805579097213E-02
  -0.1004723862380069E+00
  -0.9895200101100067E-01
  -0.9875428652014617E-01
  -0.9462494620133868E-01
  -0.6807084408290046E-01
   0.5154970525212012E-02
  -0.1935311894707788E-01
  -0.1575781014259301E-01
  -0.6002776410798071E-02
   0.6819087534659912E-02
  -0.8010049765081713E-01
  -0.2781086549147309E-01
  -0.8096408452964043E-01
  -0.5873252300028671E-01
   0.3083650793336361E-02
   0.2685172209519252E-02
   0.2640460732061708E-02
   0.3450224269832596E-02
   0.4007149911681896E-02
   0.1201281216797302E-02
  -0.1438401713942051E-03
   0.2039907225810163E-02
   0.4895760447638076E-02
   0.3857441394083126E-02
   0.1114199424095414E-02
   0.1182699710000833E-02
   0.1465313112503197E-02
  -0.1649690355700446E-04
   0.9002399063288336E-04
   0.4386725104097463E-02
   0.2715786280924605E-02
   0.2322823175030304E-02
   0.5010662626439404E-02
   0.1071747096619701E-02
   0.2712282341148743E-02
   0.2014019981161298E-02
   0.2884062963937608E-04
   0.8374661437731762E-01
   0.2793883381656983E-02
  -0.8346558494726720E-03
  -0.1492865196466829E-03
   0.1409548581286566E+00
   0.1239334074732176E+00
  -0.1219080613370074E-02
  -0.4381937093775548E-02
  -0.3042998467174497E-03
  -0.6512243204954059E-02
  -0.1949559756507056E-02
   0.1557638452778503E+00
   0.7490009743738427E-01
   0.2550184567050623E-01
   0.1656451268116464E+00