title="tecplot geometry and solution file"
variables = x y z rho u v w p mach temperature
zone t="boundary 1 bc-1", solutiontime= 0.7000000E+02, strandid=1001, i=32, j=46, f=feblock
  0.000000000000E+00  0.000000000000E+00  0.000000000000E+00  0.000000000000E+00  0.000000000000E+00  0.000000000000E+00  0.000000000000E+00
  0.000000000000E+00  0.000000000000E+00  0.000000000000E+00  0.000000000000E+00  0.000000000000E+00  0.000000000000E+00  0.000000000000E+00
  0.000000000000E+00  0.000000000000E+00  0.000000000000E+00  0.000000000000E+00  0.000000000000E+00  0.000000000000E+00  0.000000000000E+00
  0.000000000000E+00  0.000000000000E+00  0.000000000000E+00  0.000000000000E+00  0.000000000000E+00  0.000000000000E+00  0.000000000000E+00
  0.000000000000E+00  0.000000000000E+00  0.000000000000E+00  0.000000000000E+00
  0.250000000000E+01  0.250000000000E+01  0.125000000000E+01  0.146289271009E+01  0.157686156160E+01  0.308372018325E+00  0.000000000000E+00
 -0.125000000000E+01 -0.600232012419E+00  0.250000000000E+01  0.477386199275E+00  0.742988685424E+00 -0.739814786992E+00  0.177790177481E+01
  0.155830813274E+01  0.250000000000E+01 -0.250000000000E+01 -0.154800130438E+01 -0.487811078581E+00  0.250000000000E+01  0.627766083140E+00
 -0.345533899378E+00 -0.178862290564E+01 -0.158811787973E+01  0.125000000000E+01 -0.250000000000E+01 -0.144524380962E+01  0.000000000000E+00
 -0.125000000000E+01 -0.250000000000E+01 -0.250000000000E+01 -0.250000000000E+01
  0.000000000000E+00  0.125000000000E+01  0.000000000000E+00  0.103724302461E+01  0.219251206392E+01  0.922061490191E+00  0.000000000000E+00
  0.000000000000E+00  0.715990576545E+00  0.250000000000E+01  0.202479342020E+01  0.324151231464E+01  0.175434191980E+01  0.310152362409E+01
  0.404200324774E+01  0.375000000000E+01  0.000000000000E+00  0.930412228790E+00  0.299062775774E+01  0.500000000000E+01  0.429310310915E+01
  0.409252726285E+01  0.187029682677E+01  0.284428995242E+01  0.500000000000E+01  0.125000000000E+01  0.394624082883E+01  0.500000000000E+01
  0.500000000000E+01  0.250000000000E+01  0.375000000000E+01  0.500000000000E+01
  0.134427120157E+01  0.106355407290E+01  0.142583335177E+01  0.108608803810E+01  0.103229127938E+01  0.120095424959E+01  0.164467173410E+01
  0.149409557509E+01  0.123520479880E+01  0.102389323516E+01  0.102809540809E+01  0.101301839022E+01  0.103252949880E+01  0.101471900056E+01
  0.100663889754E+01  0.100830825682E+01  0.144946231072E+01  0.116393608575E+01  0.101462881505E+01  0.100426045581E+01  0.100679813649E+01
  0.100724561090E+01  0.104668151925E+01  0.101938480561E+01  0.100424805427E+01  0.106442287184E+01  0.100789350467E+01  0.100288848501E+01
  0.100334546961E+01  0.102847384157E+01  0.100958674703E+01  0.100399278595E+01
  0.000000000000E+00  0.445481312192E+00  0.000000000000E+00  0.468737814197E+00  0.462182141567E+00  0.443613424609E+00  0.000000000000E+00
  0.000000000000E+00  0.379271905252E+00  0.471738749826E+00  0.466574825716E+00  0.479355050459E+00  0.490159647946E+00  0.484514638554E+00
  0.488524715044E+00  0.489830119086E+00  0.000000000000E+00  0.450652942436E+00  0.474813858268E+00  0.495784839823E+00  0.490899406132E+00
  0.486835276596E+00  0.448668416094E+00  0.465806978723E+00  0.496536436574E+00  0.444686521173E+00  0.487700950965E+00  0.497534045553E+00
  0.496384212828E+00  0.470002678986E+00  0.489199811882E+00  0.495521970147E+00
  0.000000000000E+00  0.000000000000E+00  0.000000000000E+00  0.186087213931E-01 -0.276686562416E-02  0.332954700880E-01  0.000000000000E+00
  0.000000000000E+00 -0.594694496240E-02  0.000000000000E+00  0.356652965601E-02 -0.566639285946E-02 -0.416057584701E-02  0.305528207177E-04
 -0.106176074403E-02  0.000000000000E+00  0.000000000000E+00 -0.764107303702E-02  0.359607919858E-03  0.000000000000E+00 -0.203513061271E-02
 -0.138313457001E-02  0.156560880135E-02 -0.158520984155E-02 -0.638401283443E-04  0.000000000000E+00 -0.283517740474E-04 -0.196340471210E-03
  0.807129806841E-03  0.000000000000E+00  0.000000000000E+00  0.000000000000E+00
  0.000000000000E+00  0.452181646371E-01  0.000000000000E+00  0.123933407475E+00  0.247647439958E-01  0.165645126787E+00  0.000000000000E+00
  0.000000000000E+00  0.155763845270E+00  0.351823674797E-02  0.259784106019E-01 -0.651224321678E-02  0.749000974570E-01  0.371840208102E-02
 -0.149286593117E-03  0.459066912227E-03  0.000000000000E+00  0.140954858119E+00 -0.808565895454E-02  0.237179531784E-02 -0.304299878718E-03
 -0.438193707806E-02  0.255018456925E-01 -0.194955970628E-02  0.308365102101E-02  0.837466147854E-01 -0.121908070440E-02  0.268517224648E-02
  0.264046052232E-02  0.279388347106E-02 -0.834655859156E-03  0.345022416529E-02
  0.960184515548E+00  0.782340675626E+00  0.101844257337E+01  0.808726775754E+00  0.746126009001E+00  0.879446930638E+00  0.117475424002E+01
  0.106720117537E+01  0.916620902972E+00  0.737395335257E+00  0.743554144908E+00  0.725759307645E+00  0.757455444868E+00  0.729188429715E+00
  0.720785110732E+00  0.722781739119E+00  0.103532120656E+01  0.858317600609E+00  0.728065215782E+00  0.718615339857E+00  0.721013513260E+00
  0.721151661467E+00  0.760019077779E+00  0.732628564846E+00  0.718531208535E+00  0.791043462912E+00  0.722108035471E+00  0.717199429559E+00
  0.717636920499E+00  0.741799944127E+00  0.724056673652E+00  0.718400689757E+00
  0.000000000000E+00  0.441238238417E+00  0.000000000000E+00  0.475214961796E+00  0.460123580272E+00  0.468827756054E+00  0.000000000000E+00
  0.000000000000E+00  0.402302252327E+00  0.469814866974E+00  0.464410992740E+00  0.478713919946E+00  0.489298227018E+00  0.483068464337E+00
  0.487929997327E+00  0.488961578622E+00  0.000000000000E+00  0.464775595986E+00  0.473795475386E+00  0.495346539859E+00  0.490266031380E+00
  0.486285986007E+00  0.445717357445E+00  0.464382072844E+00  0.496127345644E+00  0.443624008638E+00  0.486964359150E+00  0.497246230722E+00
  0.496059214486E+00  0.467732142372E+00  0.488211983969E+00  0.495098202848E+00
  0.999990418744E+00  0.102982723097E+01  0.999990357178E+00  0.104247302828E+01  0.101190083988E+01  0.102520616694E+01  0.999990394394E+00
  0.999990676924E+00  0.103891214268E+01  0.100826280896E+01  0.101252840415E+01  0.100300551353E+01  0.102702888784E+01  0.100605566767E+01
  0.100244403180E+01  0.100355662856E+01  0.999991292264E+00  0.103239744481E+01  0.100459526378E+01  0.100179337938E+01  0.100260308594E+01
  0.100234969021E+01  0.101657160208E+01  0.100617547479E+01  0.100168846499E+01  0.104043315620E+01  0.100303379769E+01  0.100118728691E+01
  0.100134173037E+01  0.100976794917E+01  0.100405373396E+01  0.100176114782E+01
        12        19        11        11
        11         5        12        12
        10        14         5         5
        19        13        11        11
        19        24        13        13
        30        23        24        24
        19        12        22        22
        28        22        21        21
        11        13         6         6
         7         6         9         9
        15        12        14        14
        18        13        23        23
        15        25        21        21
        27        19        22        22
        18         8         9         9
        27        31        24        24
         4        11         6         6
         5        14        12        12
         4         2         5         5
        21        12        15        15
        14        16        15        15
        24        19        27        27
        22        29        27        27
        23        26        18        18
        17         8        18        18
         5        11         4         4
         6         3         4         4
        26        23        30        30
         5         2        10        10
        16        14        10        10
         3         6         7         7
        21        25        28        28
        29        22        28        28
         6        13         9         9
         2         4         1         1
        31        27        32        32
        25        15        20        20
        24        23        13        13
         8         7         9         9
        13        18         9         9
        31        30        24        24
        12        21        22        22
        29        32        27        27
         3         1         4         4
        26        17        18        18
        16        20        15        15
zone t="boundary 2 bc-2", solutiontime= 0.7000000E+02, strandid=1002, i=33, j=48, f=feblock
  0.500000000000E+01  0.375000000000E+01  0.250000000000E+01  0.288078410721E+01  0.125000000000E+01  0.190974100652E+01  0.326683758169E+01
  0.201431602454E+01  0.000000000000E+00  0.963108083381E+00  0.500000000000E+01  0.403552511878E+01  0.423153924130E+01  0.500000000000E+01
  0.385533350601E+01  0.500000000000E+01  0.398173246726E+01  0.315249557942E+01  0.267000324704E+01  0.154774304040E+01  0.218329375016E+01
  0.893127759452E+00  0.000000000000E+00  0.698517061619E+00  0.964171764089E+00  0.310324758057E+01  0.000000000000E+00  0.000000000000E+00
  0.125000000000E+01  0.500000000000E+01  0.375000000000E+01  0.250000000000E+01  0.000000000000E+00
 -0.250000000000E+01 -0.250000000000E+01 -0.250000000000E+01 -0.250000000000E+01 -0.250000000000E+01 -0.250000000000E+01 -0.250000000000E+01
 -0.250000000000E+01 -0.250000000000E+01 -0.250000000000E+01 -0.250000000000E+01 -0.250000000000E+01 -0.250000000000E+01 -0.250000000000E+01
 -0.250000000000E+01 -0.250000000000E+01 -0.250000000000E+01 -0.250000000000E+01 -0.250000000000E+01 -0.250000000000E+01 -0.250000000000E+01
 -0.250000000000E+01 -0.250000000000E+01 -0.250000000000E+01 -0.250000000000E+01 -0.250000000000E+01 -0.250000000000E+01 -0.250000000000E+01
 -0.250000000000E+01 -0.250000000000E+01 -0.250000000000E+01 -0.250000000000E+01 -0.250000000000E+01
  0.000000000000E+00  0.000000000000E+00  0.000000000000E+00  0.904659890645E+00  0.000000000000E+00  0.717002441913E+00  0.188609243358E+01
  0.176246431481E+01  0.000000000000E+00  0.961328577125E+00  0.125000000000E+01  0.101201586758E+01  0.191586535653E+01  0.250000000000E+01
  0.293121848150E+01  0.375000000000E+01  0.406975391361E+01  0.363585050272E+01  0.285047954584E+01  0.292817774674E+01  0.395907379566E+01
  0.205246550326E+01  0.125000000000E+01  0.306828197606E+01  0.397245519226E+01  0.433168271247E+01  0.250000000000E+01  0.375000000000E+01
  0.500000000000E+01  0.500000000000E+01  0.500000000000E+01  0.500000000000E+01  0.500000000000E+01
  0.830791052052E+00  0.935300008284E+00  0.934224122864E+00  0.968088632789E+00  0.961721242222E+00  0.964849104148E+00  0.984136281749E+00
  0.991412546258E+00  0.144946231072E+01  0.102921743238E+01  0.955879297037E+00  0.960693831902E+00  0.981488085126E+00  0.100642900020E+01
  0.997912073727E+00  0.100977859191E+01  0.100199486570E+01  0.998063283642E+00  0.991085849502E+00  0.100132724458E+01  0.100094608509E+01
  0.101224616793E+01  0.106442287184E+01  0.101082202034E+01  0.100685266688E+01  0.100118421133E+01  0.102847384157E+01  0.100958674703E+01
  0.100510178361E+01  0.100179482360E+01  0.100266322781E+01  0.100321172188E+01  0.100399278595E+01
  0.000000000000E+00  0.000000000000E+00  0.000000000000E+00  0.378986618319E+00  0.000000000000E+00  0.340639369411E+00  0.582178870983E+00
  0.575195886258E+00  0.000000000000E+00  0.489449655286E+00  0.494740704343E+00  0.431506614146E+00  0.568961593860E+00  0.536180001710E+00
  0.568879800119E+00  0.516235825958E+00  0.508555713289E+00  0.527399294743E+00  0.566648598098E+00  0.531828941570E+00  0.506096409154E+00
  0.520701979981E+00  0.444686521173E+00  0.491339827171E+00  0.492734851082E+00  0.501504432245E+00  0.470002678986E+00  0.489199811882E+00
  0.490458079984E+00  0.491426941489E+00  0.486218188071E+00  0.490304325593E+00  0.495521970147E+00
  0.000000000000E+00  0.000000000000E+00  0.000000000000E+00  0.000000000000E+00  0.000000000000E+00  0.000000000000E+00  0.000000000000E+00
  0.000000000000E+00  0.000000000000E+00  0.000000000000E+00  0.000000000000E+00  0.000000000000E+00  0.000000000000E+00  0.000000000000E+00
  0.000000000000E+00  0.000000000000E+00  0.000000000000E+00  0.000000000000E+00  0.000000000000E+00  0.000000000000E+00  0.000000000000E+00
  0.000000000000E+00  0.000000000000E+00  0.000000000000E+00  0.000000000000E+00  0.000000000000E+00  0.000000000000E+00  0.000000000000E+00
  0.000000000000E+00  0.000000000000E+00  0.000000000000E+00  0.000000000000E+00  0.000000000000E+00
  0.000000000000E+00  0.000000000000E+00  0.000000000000E+00 -0.229673650429E-02  0.000000000000E+00  0.183565501338E-01  0.121123594180E-01
  0.454988203329E-01  0.000000000000E+00  0.870793830438E-01 -0.995418632118E-01 -0.211861794971E-01 -0.306438189653E-01 -0.414439450750E-01
 -0.137864491521E-02  0.259927650201E-02  0.609558992094E-03  0.503693736869E-03  0.150968802806E-01  0.284027164331E-01  0.564173398055E-02
  0.553421860857E-01  0.837466147854E-01  0.110441693721E-01  0.679175421251E-02 -0.758034628732E-03  0.279388347106E-02 -0.834655859156E-03
  0.400715008751E-02  0.602717574937E-02 -0.143840534698E-03  0.120128189424E-02  0.345022416529E-02
  0.593416975816E+00  0.668065538768E+00  0.667297044764E+00  0.684257708640E+00  0.686937717241E+00  0.679201280729E+00  0.695811759844E+00
  0.702343917804E+00  0.103532120656E+01  0.723694704243E+00  0.672591988084E+00  0.675702932221E+00  0.694093306266E+00  0.720959954519E+00
  0.712691338452E+00  0.724770836782E+00  0.716580608650E+00  0.713299056322E+00  0.706429624312E+00  0.717737333346E+00  0.715376677889E+00
  0.730937812145E+00  0.791043462912E+00  0.724372948775E+00  0.721010803439E+00  0.715457605740E+00  0.741799944127E+00  0.724056673652E+00
  0.719313007535E+00  0.715892844555E+00  0.716608965954E+00  0.717368014757E+00  0.718400689757E+00
  0.000000000000E+00  0.000000000000E+00  0.000000000000E+00  0.380991725517E+00  0.000000000000E+00  0.343629902501E+00  0.585285997936E+00
  0.579373345328E+00  0.000000000000E+00  0.501056496643E+00  0.508459636491E+00  0.435372376081E+00  0.572639779008E+00  0.537002216251E+00
  0.568922577244E+00  0.514994217086E+00  0.508247269503E+00  0.527252854700E+00  0.567446690172E+00  0.531657148367E+00  0.505980959997E+00
  0.520795550505E+00  0.443624008638E+00  0.490663634161E+00  0.492155782275E+00  0.501390726940E+00  0.467732142372E+00  0.488211983969E+00
  0.490002657454E+00  0.491352292040E+00  0.486075382695E+00  0.490036359612E+00  0.495098202848E+00
  0.999991230154E+00  0.999991175015E+00  0.999991158230E+00  0.989538312558E+00  0.999991226060E+00  0.985523838840E+00  0.989838990644E+00
  0.991798508740E+00  0.999991292264E+00  0.984410634783E+00  0.985091722602E+00  0.984688434230E+00  0.990058507585E+00  0.100289631571E+01
  0.999855498398E+00  0.100485312288E+01  0.100121556152E+01  0.100055647294E+01  0.997896876980E+00  0.100350037625E+01  0.100058071455E+01
  0.101093288315E+01  0.104043315620E+01  0.100326477647E+01  0.100254501777E+01  0.100045589682E+01  0.100976794917E+01  0.100405373396E+01
  0.100192659785E+01  0.100045434331E+01  0.100058775919E+01  0.100109996599E+01  0.100176114782E+01
        15         7        19        19
         8        20        19        19
        18        19        21        21
         7         4         8         8
         3         6         4         4
        19         7         8         8
        19        18        15        15
        14        13        15        15
         8        22        20        20
        27        24        22        22
        19        20        21        21
        32        26        21        21
        17        18        26        26
        17        16        15        15
        25        29        21        21
        12         7        13        13
        10         8         6         6
        25        20        24        24
         4         6         8         8
        12         2         4         4
        10        23        22        22
        26        31        17        17
        30        16        17        17
         4         7        12        12
        13        11        12        12
        21        20        25        25
        24        28        25        25
        22         8        10        10
         6         5        10        10
        31        26        32        32
         4         2         3         3
         5         6         3         3
        11        13        14        14
        22        23        27        27
        28        24        27        27
        15        13         7         7
         2        12         1         1
        29        25        33        33
        23        10         9         9
        21        26        18        18
        16        14        15        15
        18        17        15        15
        29        32        21        21
        22        24        20        20
        28        33        25        25
        11         1        12        12
        31        30        17        17
         5         9        10        10
zone t="boundary 3 bc-3", solutiontime= 0.7000000E+02, strandid=1003, i=33, j=48, f=feblock
  0.375000000000E+01  0.250000000000E+01  0.500000000000E+01  0.403552511878E+01  0.288078410721E+01  0.125000000000E+01  0.190974100652E+01
  0.500000000000E+01  0.326683758169E+01  0.423153924130E+01  0.201431602454E+01  0.000000000000E+00  0.963108083381E+00  0.500000000000E+01
  0.267000324704E+01  0.385533350601E+01  0.893127759452E+00  0.154774304040E+01  0.000000000000E+00  0.500000000000E+01  0.315249557942E+01
  0.218329375016E+01  0.398173246726E+01  0.000000000000E+00  0.698517061619E+00  0.964171764089E+00  0.125000000000E+01  0.000000000000E+00
  0.500000000000E+01  0.310324758057E+01  0.250000000000E+01  0.375000000000E+01  0.000000000000E+00
  0.250000000000E+01  0.250000000000E+01  0.250000000000E+01  0.250000000000E+01  0.250000000000E+01  0.250000000000E+01  0.250000000000E+01
  0.250000000000E+01  0.250000000000E+01  0.250000000000E+01  0.250000000000E+01  0.250000000000E+01  0.250000000000E+01  0.250000000000E+01
  0.250000000000E+01  0.250000000000E+01  0.250000000000E+01  0.250000000000E+01  0.250000000000E+01  0.250000000000E+01  0.250000000000E+01
  0.250000000000E+01  0.250000000000E+01  0.250000000000E+01  0.250000000000E+01  0.250000000000E+01  0.250000000000E+01  0.250000000000E+01
  0.250000000000E+01  0.250000000000E+01  0.250000000000E+01  0.250000000000E+01  0.250000000000E+01
  0.000000000000E+00  0.000000000000E+00  0.000000000000E+00  0.101201586758E+01  0.904659890645E+00  0.000000000000E+00  0.717002441913E+00
  0.125000000000E+01  0.188609243358E+01  0.191586535653E+01  0.176246431481E+01  0.000000000000E+00  0.961328577125E+00  0.250000000000E+01
  0.285047954584E+01  0.293121848150E+01  0.205246550326E+01  0.292817774674E+01  0.125000000000E+01  0.375000000000E+01  0.363585050272E+01
  0.395907379566E+01  0.406975391361E+01  0.250000000000E+01  0.306828197606E+01  0.397245519226E+01  0.500000000000E+01  0.375000000000E+01
  0.500000000000E+01  0.433168271247E+01  0.500000000000E+01  0.500000000000E+01  0.500000000000E+01
  0.941860418860E+00  0.946295779414E+00  0.843729349921E+00  0.964330863352E+00  0.978820626138E+00  0.956975532166E+00  0.983331361427E+00
  0.963500213020E+00  0.982689331822E+00  0.984243958585E+00  0.990263864302E+00  0.134427120157E+01  0.101918253804E+01  0.100829904685E+01
  0.993456207050E+00  0.997998721646E+00  0.100807815971E+01  0.100072122947E+01  0.106355407290E+01  0.100673531733E+01  0.100058361192E+01
  0.100234986941E+01  0.100178080942E+01  0.102389323516E+01  0.100874215727E+01  0.100528377084E+01  0.100522865792E+01  0.100830825682E+01
  0.100196465240E+01  0.100162018179E+01  0.100413211340E+01  0.100321963360E+01  0.100426045581E+01
  0.000000000000E+00  0.000000000000E+00  0.000000000000E+00  0.439071419126E+00  0.399865845268E+00  0.000000000000E+00  0.373794147804E+00
  0.495017859883E+00  0.573056219878E+00  0.569605180290E+00  0.559932669155E+00  0.000000000000E+00  0.483390700102E+00  0.533822201712E+00
  0.556458760544E+00  0.564688384925E+00  0.522615449353E+00  0.522532999594E+00  0.445481312192E+00  0.518326962039E+00  0.524750902668E+00
  0.503888121140E+00  0.509839736500E+00  0.471738749826E+00  0.496245388937E+00  0.494940333096E+00  0.489076276507E+00  0.489830119086E+00
  0.493064986643E+00  0.499146562788E+00  0.486766553958E+00  0.484757806366E+00  0.495784839823E+00
  0.000000000000E+00  0.000000000000E+00  0.000000000000E+00  0.000000000000E+00  0.000000000000E+00  0.000000000000E+00  0.000000000000E+00
  0.000000000000E+00  0.000000000000E+00  0.000000000000E+00  0.000000000000E+00  0.000000000000E+00  0.000000000000E+00  0.000000000000E+00
  0.000000000000E+00  0.000000000000E+00  0.000000000000E+00  0.000000000000E+00  0.000000000000E+00  0.000000000000E+00  0.000000000000E+00
  0.000000000000E+00  0.000000000000E+00  0.000000000000E+00  0.000000000000E+00  0.000000000000E+00  0.000000000000E+00  0.000000000000E+00
  0.000000000000E+00  0.000000000000E+00  0.000000000000E+00  0.000000000000E+00  0.000000000000E+00
  0.000000000000E+00  0.000000000000E+00  0.000000000000E+00 -0.226115781519E-01  0.111963868251E-01  0.000000000000E+00  0.179816711345E-01
 -0.100761326046E+00  0.390411448972E-02 -0.389325492126E-01  0.340377314761E-01  0.000000000000E+00  0.652293530539E-01 -0.424929640673E-01
  0.843883513659E-02 -0.650992128454E-02  0.490055069418E-01  0.135873759785E-01  0.452181646371E-01  0.737225815351E-03 -0.701183828547E-03
  0.243749113153E-02  0.868967852235E-03  0.351823674797E-02  0.103945527849E-01  0.431658953794E-02  0.337512876865E-02  0.459066912227E-03
  0.572582483721E-02  0.341149991230E-03  0.160984502990E-02  0.569952549668E-03  0.237179531784E-02
  0.672750896893E+00  0.675918950434E+00  0.602658033506E+00  0.676093817000E+00  0.691308979597E+00  0.683547310302E+00  0.690066543410E+00
  0.677274843492E+00  0.695201867515E+00  0.696250884155E+00  0.703344124676E+00  0.960184515548E+00  0.719726424529E+00  0.722866671034E+00
  0.709447815599E+00  0.713700986993E+00  0.726067497576E+00  0.716602987848E+00  0.782340675626E+00  0.722284562421E+00  0.716128690468E+00
  0.716551704338E+00  0.716546577920E+00  0.737395335257E+00  0.722682984384E+00  0.719441326587E+00  0.719566151977E+00  0.722781739119E+00
  0.716030211399E+00  0.715847876734E+00  0.718146843758E+00  0.717062520299E+00  0.718615339857E+00
  0.000000000000E+00  0.000000000000E+00  0.000000000000E+00  0.443767851978E+00  0.402286937191E+00  0.000000000000E+00  0.377550347168E+00
  0.509232303757E+00  0.575832200483E+00  0.573707467430E+00  0.562554066050E+00  0.000000000000E+00  0.490563275283E+00  0.534527160061E+00
  0.556586972364E+00  0.564391596021E+00  0.522730462525E+00  0.522051957840E+00  0.441238238417E+00  0.517182364794E+00  0.524228611467E+00
  0.503687398986E+00  0.509488557594E+00  0.469814866974E+00  0.495614370334E+00  0.494483710979E+00  0.488562341138E+00  0.488961578622E+00
  0.492980742035E+00  0.499005498568E+00  0.486460842265E+00  0.484596857759E+00  0.495346539859E+00
  0.999990271160E+00  0.999990226304E+00  0.999990396196E+00  0.981542103204E+00  0.988774189664E+00  0.999990284241E+00  0.982469591301E+00
  0.984104381167E+00  0.990427577673E+00  0.990355317210E+00  0.994363027919E+00  0.999990418744E+00  0.988652137107E+00  0.100368372122E+01
  0.999769224643E+00  0.100118503172E+01  0.100834889321E+01  0.100252113520E+01  0.102982723097E+01  0.100443321097E+01  0.100199539020E+01
  0.100082058839E+01  0.100138193870E+01  0.100826280896E+01  0.100298790017E+01  0.100192392083E+01  0.100215269912E+01  0.100355662856E+01
  0.100047670699E+01  0.100056592873E+01  0.100126822740E+01  0.100066575135E+01  0.100179337938E+01
        15         9        16        16
        15        18        11        11
        22        15        21        21
        11         5         9         9
         5         7         2         2
        11         9        15        15
        16        21        15        15
        16        10        14        14
        18        17        11        11
        17        25        24        24
        22        18        15        15
        22        30        31        31
        30        21        23        23
        16        20        23        23
        22        27        26        26
        10         9         4         4
         7        11        13        13
        25        18        26        26
        11         7         5         5
         5         1         4         4
        17        19        13        13
        23        32        30        30
        23        20        29        29
         4         9         5         5
         4         8        10        10
        26        18        22        22
        26        28        25        25
        13        11        17        17
        13         6         7         7
        31        30        32        32
         2         1         5         5
         2         7         6         6
        14        10         8         8
        24        19        17        17
        24        25        28        28
         9        10        16        16
         3         4         1         1
        33        26        27        27
        12        13        19        19
        21        30        22        22
        16        14        20        20
        16        23        21        21
        22        31        27        27
        18        25        17        17
        26        33        28        28
         4         3         8         8
        23        29        32        32
        13        12         6         6
zone t="boundary 4 bc-4", solutiontime= 0.7000000E+02, strandid=1004, i=32, j=46, f=feblock
  0.125000000000E+01  0.219251206392E+01  0.103724302461E+01  0.500000000000E+01  0.250000000000E+01  0.375000000000E+01  0.404200324774E+01
  0.500000000000E+01  0.000000000000E+00  0.310152362409E+01  0.202479342020E+01  0.324151231464E+01  0.922061490191E+00  0.000000000000E+00
  0.299062775774E+01  0.394624082883E+01  0.500000000000E+01  0.409252726285E+01  0.500000000000E+01  0.429310310915E+01  0.175434191980E+01
  0.284428995242E+01  0.000000000000E+00  0.000000000000E+00  0.715990576545E+00  0.930412228790E+00  0.125000000000E+01  0.187029682677E+01
  0.500000000000E+01  0.375000000000E+01  0.250000000000E+01  0.000000000000E+00
  0.250000000000E+01  0.157686156160E+01  0.146289271009E+01  0.250000000000E+01  0.250000000000E+01  0.250000000000E+01  0.155830813274E+01
  0.125000000000E+01  0.250000000000E+01  0.177790177481E+01  0.477386199275E+00  0.742988685424E+00  0.308372018325E+00  0.125000000000E+01
 -0.487811078581E+00 -0.144524380962E+01 -0.125000000000E+01 -0.345533899378E+00  0.000000000000E+00  0.627766083140E+00 -0.739814786992E+00
 -0.158811787973E+01  0.000000000000E+00 -0.125000000000E+01 -0.600232012419E+00 -0.154800130438E+01 -0.250000000000E+01 -0.178862290564E+01
 -0.250000000000E+01 -0.250000000000E+01 -0.250000000000E+01 -0.250000000000E+01
  0.500000000000E+01  0.500000000000E+01  0.500000000000E+01  0.500000000000E+01  0.500000000000E+01  0.500000000000E+01  0.500000000000E+01
  0.500000000000E+01  0.500000000000E+01  0.500000000000E+01  0.500000000000E+01  0.500000000000E+01  0.500000000000E+01  0.500000000000E+01
  0.500000000000E+01  0.500000000000E+01  0.500000000000E+01  0.500000000000E+01  0.500000000000E+01  0.500000000000E+01  0.500000000000E+01
  0.500000000000E+01  0.500000000000E+01  0.500000000000E+01  0.500000000000E+01  0.500000000000E+01  0.500000000000E+01  0.500000000000E+01
  0.500000000000E+01  0.500000000000E+01  0.500000000000E+01  0.500000000000E+01
  0.100522865792E+01  0.100432978653E+01  0.100432039482E+01  0.100196465240E+01  0.100413211340E+01  0.100321963360E+01  0.100258628696E+01
  0.100201178642E+01  0.100426045581E+01  0.100372316241E+01  0.100446509675E+01  0.100346959477E+01  0.100365989694E+01  0.100424805427E+01
  0.100362345019E+01  0.100164201834E+01  0.100227636549E+01  0.100227318144E+01  0.100213449898E+01  0.100254353390E+01  0.100442393834E+01
  0.100337271613E+01  0.100288848501E+01  0.100334546961E+01  0.100323228086E+01  0.100406092588E+01  0.100510178361E+01  0.100431314632E+01
  0.100179482360E+01  0.100266322781E+01  0.100321172188E+01  0.100399278595E+01
  0.489076276507E+00  0.489238509104E+00  0.490983255801E+00  0.493064986643E+00  0.486766553958E+00  0.484757806366E+00  0.485404901652E+00
  0.494262738485E+00  0.495784839823E+00  0.486800167124E+00  0.488139232468E+00  0.487244505680E+00  0.494423218617E+00  0.496536436574E+00
  0.487845678688E+00  0.483219388459E+00  0.492573601230E+00  0.487262223374E+00  0.494865957537E+00  0.488012449454E+00  0.490096604563E+00
  0.488269554261E+00  0.497534045553E+00  0.496384212828E+00  0.495259685747E+00  0.493216356569E+00  0.490458079984E+00  0.490399894880E+00
  0.491426941489E+00  0.486218188071E+00  0.490304325593E+00  0.495521970147E+00
  0.000000000000E+00 -0.893838488441E-04 -0.129754947275E-02  0.000000000000E+00  0.000000000000E+00  0.000000000000E+00  0.425729209867E-03
  0.797052777414E-03  0.000000000000E+00  0.274732006142E-03 -0.942416618550E-03 -0.819979369713E-03 -0.174523594307E-02 -0.638401283443E-04
 -0.110020934665E-02 -0.102275923299E-02 -0.133256519705E-02 -0.213431036980E-02 -0.132926093716E-02 -0.106397888460E-02 -0.624403036153E-03
 -0.761697081383E-03 -0.196340471210E-03  0.807129806841E-03  0.520274940226E-04  0.161631124917E-02  0.000000000000E+00  0.791652328672E-03
  0.000000000000E+00  0.000000000000E+00  0.000000000000E+00  0.000000000000E+00