title="tecplot geometry and solution file"
variables = x y z rho u v w p mach temperature
zone t="boundary 1 bc-1", solutiontime= 0.2000000E+02, strandid=1001, i=32, j=46, f=feblock
  0.000000000000E+00  0.000000000000E+00  0.000000000000E+00  0.000000000000E+00  0.000000000000E+00  0.000000000000E+00  0.000000000000E+00
  0.000000000000E+00  0.000000000000E+00  0.000000000000E+00  0.000000000000E+00  0.000000000000E+00  0.000000000000E+00  0.000000000000E+00
  0.000000000000E+00  0.000000000000E+00  0.000000000000E+00  0.000000000000E+00  0.000000000000E+00  0.000000000000E+00  0.000000000000E+00
  0.000000000000E+00  0.000000000000E+00  0.000000000000E+00  0.000000000000E+00  0.000000000000E+00  0.000000000000E+00  0.000000000000E+00
  0.000000000000E+00  0.000000000000E+00  0.000000000000E+00  0.000000000000E+00
  0.250000000000E+01  0.250000000000E+01  0.125000000000E+01  0.146289271009E+01  0.157686156160E+01  0.308372018325E+00  0.000000000000E+00
 -0.125000000000E+01 -0.600232012419E+00  0.250000000000E+01  0.477386199275E+00  0.742988685424E+00 -0.739814786992E+00  0.177790177481E+01
  0.155830813274E+01  0.250000000000E+01 -0.250000000000E+01 -0.154800130438E+01 -0.487811078581E+00  0.250000000000E+01  0.627766083140E+00
 -0.345533899378E+00 -0.178862290564E+01 -0.158811787973E+01  0.125000000000E+01 -0.250000000000E+01 -0.144524380962E+01  0.000000000000E+00
 -0.125000000000E+01 -0.250000000000E+01 -0.250000000000E+01 -0.250000000000E+01
  0.000000000000E+00  0.125000000000E+01  0.000000000000E+00  0.103724302461E+01  0.219251206392E+01  0.922061490191E+00  0.000000000000E+00
  0.000000000000E+00  0.715990576545E+00  0.250000000000E+01  0.202479342020E+01  0.324151231464E+01  0.175434191980E+01  0.310152362409E+01
  0.404200324774E+01  0.375000000000E+01  0.000000000000E+00  0.930412228790E+00  0.299062775774E+01  0.500000000000E+01  0.429310310915E+01
  0.409252726285E+01  0.187029682677E+01  0.284428995242E+01  0.500000000000E+01  0.125000000000E+01  0.394624082883E+01  0.500000000000E+01
  0.500000000000E+01  0.250000000000E+01  0.375000000000E+01  0.500000000000E+01
  0.134426715797E+01  0.106353735174E+01  0.142583498914E+01  0.108608900246E+01  0.103227535350E+01  0.120094178771E+01  0.164466267557E+01
  0.149408766849E+01  0.123519836556E+01  0.102388245471E+01  0.102808059926E+01  0.101300805488E+01  0.103252522591E+01  0.101471112378E+01
  0.100663028794E+01  0.100829268035E+01  0.144946344566E+01  0.116391656484E+01  0.101461512486E+01  0.100425922205E+01  0.100678952134E+01
  0.100722912975E+01  0.104666399531E+01  0.101936994462E+01  0.100424229522E+01  0.106441596276E+01  0.100787578555E+01  0.100286960678E+01
  0.100332755616E+01  0.102846351741E+01  0.100957062482E+01  0.100398666018E+01
  0.000000000000E+00  0.445502039811E+00  0.000000000000E+00  0.468722492124E+00  0.462215584605E+00  0.443630713028E+00  0.000000000000E+00
  0.000000000000E+00  0.379280763159E+00  0.471751657248E+00  0.466598952386E+00  0.479367991560E+00  0.490162129897E+00  0.484523786308E+00
  0.488507888427E+00  0.489832983466E+00  0.000000000000E+00  0.450681151113E+00  0.474830739695E+00  0.495838252421E+00  0.490907306209E+00
  0.486837911547E+00  0.448685951579E+00  0.465828689284E+00  0.496553086185E+00  0.444694159467E+00  0.487707982245E+00  0.497546431655E+00
  0.496392515191E+00  0.470013162943E+00  0.489214132277E+00  0.495539741969E+00
  0.000000000000E+00  0.000000000000E+00  0.000000000000E+00  0.186089533737E-01 -0.276740225267E-02  0.332961235361E-01  0.000000000000E+00
  0.000000000000E+00 -0.594957577322E-02  0.000000000000E+00  0.356391237902E-02 -0.567711432362E-02 -0.416506011062E-02  0.271705605319E-04
 -0.106255535285E-02  0.000000000000E+00  0.000000000000E+00 -0.764319047746E-02  0.350737780387E-03  0.000000000000E+00 -0.204373459616E-02
 -0.139251543492E-02  0.156589389410E-02 -0.159339952697E-02 -0.667868575136E-04  0.000000000000E+00 -0.286111373031E-04 -0.196208541019E-03
  0.818389197100E-03  0.000000000000E+00  0.000000000000E+00  0.000000000000E+00
  0.000000000000E+00  0.452273410619E-01  0.000000000000E+00  0.123915782556E+00  0.247678337550E-01  0.165641144518E+00  0.000000000000E+00
  0.000000000000E+00  0.155765190001E+00  0.351561066125E-02  0.259799630950E-01 -0.651568743183E-02  0.748924857795E-01  0.371199878382E-02
 -0.161292720257E-03  0.449469631642E-03  0.000000000000E+00  0.140949442278E+00 -0.808864047675E-02  0.234301244635E-02 -0.316793827880E-03
 -0.438256498428E-02  0.254934411548E-01 -0.195690016255E-02  0.306189575961E-02  0.837386947853E-01 -0.119849326878E-02  0.269104635784E-02
  0.265392705459E-02  0.278339166937E-02 -0.838474427744E-03  0.344745074994E-02
  0.960181488670E+00  0.782328558022E+00  0.101844359499E+01  0.808716218642E+00  0.746112719706E+00  0.879437596436E+00  0.117474759985E+01
  0.106719537816E+01  0.916612311704E+00  0.737382632958E+00  0.743541301606E+00  0.725748420978E+00  0.757445220297E+00  0.729178353407E+00
  0.720770428108E+00  0.722769232944E+00  0.103532188157E+01  0.858306570681E+00  0.728052609118E+00  0.718607479052E+00  0.720999786445E+00
  0.721136240600E+00  0.760004708437E+00  0.732614316075E+00  0.718521756095E+00  0.791033448905E+00  0.722091350374E+00  0.717182309495E+00
  0.717623117745E+00  0.741787500225E+00  0.724041113728E+00  0.718394423735E+00
  0.000000000000E+00  0.441259421045E+00  0.000000000000E+00  0.475199376599E+00  0.460157493755E+00  0.468842441000E+00  0.000000000000E+00
  0.000000000000E+00  0.402311666697E+00  0.469829274792E+00  0.464435664007E+00  0.478728161364E+00  0.489301840631E+00  0.483078997878E+00
  0.487916079819E+00  0.488964882486E+00  0.000000000000E+00  0.464799620956E+00  0.473813265338E+00  0.495402172556E+00  0.490276534099E+00
  0.486289870976E+00  0.445734731669E+00  0.464404905848E+00  0.496145687620E+00  0.443631298989E+00  0.486972674302E+00  0.497259895787E+00
  0.496067943613E+00  0.467744088969E+00  0.488227629650E+00  0.495116588124E+00
  0.999990274378E+00  0.102982747098E+01  0.999990211951E+00  0.104245849422E+01  0.101189842811E+01  0.102520592389E+01  0.999990249808E+00
  0.999990536658E+00  0.103890781607E+01  0.100825605653E+01  0.101252549945E+01  0.100300070120E+01  0.102701927450E+01  0.100604957494E+01
  0.100243218533E+01  0.100355476722E+01  0.999991161243E+00  0.103240149273E+01  0.100459142367E+01  0.100178365166E+01  0.100259257732E+01
  0.100234465726E+01  0.101656940200E+01  0.100617057420E+01  0.100168103188E+01  0.104042673843E+01  0.100302825508E+01  0.100118223397E+01
  0.100134034860E+01  0.100976114635E+01  0.100404819069E+01  0.100175852242E+01
        12        19        11        11
        11         5        12        12
        10        14         5         5
        19        13        11        11
        19        24        13        13
        30        23        24        24
        19        12        22        22
        28        22        21        21
        11        13         6         6
         7         6         9         9
        15        12        14        14
        18        13        23        23
        15        25        21        21
        27        19        22        22
        18         8         9         9
        27        31        24        24
         4        11         6         6
         5        14        12        12
         4         2         5         5
        21        12        15        15
        14        16        15        15
        24        19        27        27
        22        29        27        27
        23        26        18        18
        17         8        18        18
         5        11         4         4
         6         3         4         4
        26        23        30        30
         5         2        10        10
        16        14        10        10
         3         6         7         7
        21        25        28        28
        29        22        28        28
         6        13         9         9
         2         4         1         1
        31        27        32        32
        25        15        20        20
        24        23        13        13
         8         7         9         9
        13        18         9         9
        31        30        24        24
        12        21        22        22
        29        32        27        27
         3         1         4         4
        26        17        18        18
        16        20        15        15
zone t="boundary 2 bc-2", solutiontime= 0.2000000E+02, strandid=1002, i=33, j=48, f=feblock
  0.500000000000E+01  0.375000000000E+01  0.250000000000E+01  0.288078410721E+01  0.125000000000E+01  0.190974100652E+01  0.326683758169E+01
  0.201431602454E+01  0.000000000000E+00  0.963108083381E+00  0.500000000000E+01  0.403552511878E+01  0.423153924130E+01  0.500000000000E+01
  0.385533350601E+01  0.500000000000E+01  0.398173246726E+01  0.315249557942E+01  0.267000324704E+01  0.154774304040E+01  0.218329375016E+01
  0.893127759452E+00  0.000000000000E+00  0.698517061619E+00  0.964171764089E+00  0.310324758057E+01  0.000000000000E+00  0.000000000000E+00
  0.125000000000E+01  0.500000000000E+01  0.375000000000E+01  0.250000000000E+01  0.000000000000E+00
 -0.250000000000E+01 -0.250000000000E+01 -0.250000000000E+01 -0.250000000000E+01 -0.250000000000E+01 -0.250000000000E+01 -0.250000000000E+01
 -0.250000000000E+01 -0.250000000000E+01 -0.250000000000E+01 -0.250000000000E+01 -0.250000000000E+01 -0.250000000000E+01 -0.250000000000E+01
 -0.250000000000E+01 -0.250000000000E+01 -0.250000000000E+01 -0.250000000000E+01 -0.250000000000E+01 -0.250000000000E+01 -0.250000000000E+01
 -0.250000000000E+01 -0.250000000000E+01 -0.250000000000E+01 -0.250000000000E+01 -0.250000000000E+01 -0.250000000000E+01 -0.250000000000E+01
 -0.250000000000E+01 -0.250000000000E+01 -0.250000000000E+01 -0.250000000000E+01 -0.250000000000E+01
  0.000000000000E+00  0.000000000000E+00  0.000000000000E+00  0.904659890645E+00  0.000000000000E+00  0.717002441913E+00  0.188609243358E+01
  0.176246431481E+01  0.000000000000E+00  0.961328577125E+00  0.125000000000E+01  0.101201586758E+01  0.191586535653E+01  0.250000000000E+01
  0.293121848150E+01  0.375000000000E+01  0.406975391361E+01  0.363585050272E+01  0.285047954584E+01  0.292817774674E+01  0.395907379566E+01
  0.205246550326E+01  0.125000000000E+01  0.306828197606E+01  0.397245519226E+01  0.433168271247E+01  0.250000000000E+01  0.375000000000E+01
  0.500000000000E+01  0.500000000000E+01  0.500000000000E+01  0.500000000000E+01  0.500000000000E+01
  0.830783442821E+00  0.935295010494E+00  0.934199814429E+00  0.968078576146E+00  0.961708165599E+00  0.964847879109E+00  0.984107396576E+00
  0.991409297097E+00  0.144946344566E+01  0.102920936737E+01  0.955852491768E+00  0.960704176833E+00  0.981461779159E+00  0.100642085539E+01
  0.997904239415E+00  0.100979436596E+01  0.100198707625E+01  0.998056296426E+00  0.991073070973E+00  0.100131020279E+01  0.100093460593E+01
  0.101223649502E+01  0.106441596276E+01  0.101080738004E+01  0.100683975586E+01  0.100116897926E+01  0.102846351741E+01  0.100957062482E+01
  0.100508735213E+01  0.100172926256E+01  0.100263232852E+01  0.100320025186E+01  0.100398666018E+01
  0.000000000000E+00  0.000000000000E+00  0.000000000000E+00  0.378965392328E+00  0.000000000000E+00  0.340647480219E+00  0.582143946902E+00
  0.575194021323E+00  0.000000000000E+00  0.489464704178E+00  0.494720380325E+00  0.431486216983E+00  0.568932774716E+00  0.536179733314E+00
  0.568935693330E+00  0.516295154021E+00  0.508655096739E+00  0.527482804465E+00  0.566664379415E+00  0.531844474797E+00  0.506166690730E+00
  0.520712566440E+00  0.444694159467E+00  0.491349374363E+00  0.492748942076E+00  0.501553579127E+00  0.470013162943E+00  0.489214132277E+00
  0.490452688509E+00  0.491388545062E+00  0.486045473447E+00  0.490248761608E+00  0.495539741969E+00
  0.000000000000E+00  0.000000000000E+00  0.000000000000E+00  0.000000000000E+00  0.000000000000E+00  0.000000000000E+00  0.000000000000E+00
  0.000000000000E+00  0.000000000000E+00  0.000000000000E+00  0.000000000000E+00  0.000000000000E+00  0.000000000000E+00  0.000000000000E+00
  0.000000000000E+00  0.000000000000E+00  0.000000000000E+00  0.000000000000E+00  0.000000000000E+00  0.000000000000E+00  0.000000000000E+00
  0.000000000000E+00  0.000000000000E+00  0.000000000000E+00  0.000000000000E+00  0.000000000000E+00  0.000000000000E+00  0.000000000000E+00
  0.000000000000E+00  0.000000000000E+00  0.000000000000E+00  0.000000000000E+00  0.000000000000E+00
  0.000000000000E+00  0.000000000000E+00  0.000000000000E+00 -0.228651907426E-02  0.000000000000E+00  0.183642802877E-01  0.121356575606E-01
  0.455240392139E-01  0.000000000000E+00  0.870805119759E-01 -0.995460640784E-01 -0.212079187631E-01 -0.306594432510E-01 -0.414699174015E-01
 -0.139005577112E-02  0.261909224344E-02  0.595668834811E-03  0.496483679419E-03  0.151297248776E-01  0.284404835005E-01  0.564517880824E-02
  0.553427151904E-01  0.837386947853E-01  0.110563202249E-01  0.680848581759E-02 -0.786256620815E-03  0.278339166937E-02 -0.838474427744E-03
  0.400070123067E-02  0.607040890164E-02 -0.141855979318E-03  0.120301984537E-02  0.344745074994E-02
  0.593411461877E+00  0.668061879686E+00  0.667279592643E+00  0.684248064892E+00  0.686928286114E+00  0.679190262984E+00  0.695799725879E+00
  0.702332154257E+00  0.103532188157E+01  0.723688273092E+00  0.672573446253E+00  0.675691782473E+00  0.694082289499E+00  0.720956481602E+00
  0.712682289791E+00  0.724783545207E+00  0.716575153545E+00  0.713285645056E+00  0.706419950997E+00  0.717724769145E+00  0.715362424632E+00
  0.730926747586E+00  0.791033448905E+00  0.724358667113E+00  0.720997191090E+00  0.715435260857E+00  0.741787500225E+00  0.724041113728E+00
  0.719303294355E+00  0.715838517979E+00  0.716585973801E+00  0.717365050346E+00  0.718394423735E+00
  0.000000000000E+00  0.000000000000E+00  0.000000000000E+00  0.380971031769E+00  0.000000000000E+00  0.343641048974E+00  0.585247862305E+00
  0.579377378549E+00  0.000000000000E+00  0.501071892223E+00  0.508440275775E+00  0.435358856517E+00  0.572608572844E+00  0.537003068787E+00
  0.568979880680E+00  0.515053008189E+00  0.508346535099E+00  0.527339445913E+00  0.567463586031E+00  0.531674773503E+00  0.506053394782E+00
  0.520807529697E+00  0.443631298989E+00  0.490674719862E+00  0.492171575034E+00  0.501443922032E+00  0.467744088969E+00  0.488227629650E+00
  0.489997009319E+00  0.491317004797E+00  0.485903026167E+00  0.489979041912E+00  0.495116588124E+00
  0.999991097327E+00  0.999991041401E+00  0.999991024695E+00  0.989534645692E+00  0.999991093931E+00  0.985509103317E+00  0.989850924421E+00
  0.991785147504E+00  0.999991161243E+00  0.984409600663E+00  0.985092190336E+00  0.984661582904E+00  0.990069329171E+00  0.100289960094E+01
  0.999850653297E+00  0.100485504524E+01  0.100121572298E+01  0.100054466532E+01  0.997896078868E+00  0.100349988845E+01  0.100057225372E+01
  0.101092724047E+01  0.104042673843E+01  0.100325952697E+01  0.100253894590E+01  0.100043987173E+01  0.100976114635E+01  0.100404819069E+01
  0.100192745433E+01  0.100044389500E+01  0.100058649096E+01  0.100110727507E+01  0.100175852242E+01
        15         7        19        19
         8        20        19        19
        18        19        21        21
         7         4         8         8
         3         6         4         4
        19         7         8         8
        19        18        15        15
        14        13        15        15
         8        22        20        20
        27        24        22        22
        19        20        21        21
        32        26        21        21
        17        18        26        26
        17        16        15        15
        25        29        21        21
        12         7        13        13
        10         8         6         6
        25        20        24        24
         4         6         8         8
        12         2         4         4
        10        23        22        22
        26        31        17        17
        30        16        17        17
         4         7        12        12
        13        11        12        12
        21        20        25        25
        24        28        25        25
        22         8        10        10
         6         5        10        10
        31        26        32        32
         4         2         3         3
         5         6         3         3
        11        13        14        14
        22        23        27        27
        28        24        27        27
        15        13         7         7
         2        12         1         1
        29        25        33        33
        23        10         9         9
        21        26        18        18
        16        14        15        15
        18        17        15        15
        29        32        21        21
        22        24        20        20
        28        33        25        25
        11         1        12        12
        31        30        17        17
         5         9        10        10
zone t="boundary 3 bc-3", solutiontime= 0.2000000E+02, strandid=1003, i=33, j=48, f=feblock
  0.375000000000E+01  0.250000000000E+01  0.500000000000E+01  0.403552511878E+01  0.288078410721E+01  0.125000000000E+01  0.190974100652E+01
  0.500000000000E+01  0.326683758169E+01  0.423153924130E+01  0.201431602454E+01  0.000000000000E+00  0.963108083381E+00  0.500000000000E+01
  0.267000324704E+01  0.385533350601E+01  0.893127759452E+00  0.154774304040E+01  0.000000000000E+00  0.500000000000E+01  0.315249557942E+01
  0.218329375016E+01  0.398173246726E+01  0.000000000000E+00  0.698517061619E+00  0.964171764089E+00  0.125000000000E+01  0.000000000000E+00
  0.500000000000E+01  0.310324758057E+01  0.250000000000E+01  0.375000000000E+01  0.000000000000E+00
  0.250000000000E+01  0.250000000000E+01  0.250000000000E+01  0.250000000000E+01  0.250000000000E+01  0.250000000000E+01  0.250000000000E+01
  0.250000000000E+01  0.250000000000E+01  0.250000000000E+01  0.250000000000E+01  0.250000000000E+01  0.250000000000E+01  0.250000000000E+01
  0.250000000000E+01  0.250000000000E+01  0.250000000000E+01  0.250000000000E+01  0.250000000000E+01  0.250000000000E+01  0.250000000000E+01
  0.250000000000E+01  0.250000000000E+01  0.250000000000E+01  0.250000000000E+01  0.250000000000E+01  0.250000000000E+01  0.250000000000E+01
  0.250000000000E+01  0.250000000000E+01  0.250000000000E+01  0.250000000000E+01  0.250000000000E+01
  0.000000000000E+00  0.000000000000E+00  0.000000000000E+00  0.101201586758E+01  0.904659890645E+00  0.000000000000E+00  0.717002441913E+00
  0.125000000000E+01  0.188609243358E+01  0.191586535653E+01  0.176246431481E+01  0.000000000000E+00  0.961328577125E+00  0.250000000000E+01
  0.285047954584E+01  0.293121848150E+01  0.205246550326E+01  0.292817774674E+01  0.125000000000E+01  0.375000000000E+01  0.363585050272E+01
  0.395907379566E+01  0.406975391361E+01  0.250000000000E+01  0.306828197606E+01  0.397245519226E+01  0.500000000000E+01  0.375000000000E+01
  0.500000000000E+01  0.433168271247E+01  0.500000000000E+01  0.500000000000E+01  0.500000000000E+01
  0.941867689060E+00  0.946282135947E+00  0.843727921737E+00  0.964400930841E+00  0.978854089376E+00  0.956961753976E+00  0.983321837952E+00
  0.963537769693E+00  0.982672046112E+00  0.984234072310E+00  0.990249493869E+00  0.134426715797E+01  0.101917351113E+01  0.100830885743E+01
  0.993442025619E+00  0.998000180665E+00  0.100806081380E+01  0.100070011333E+01  0.106353735174E+01  0.100676922099E+01  0.100058013830E+01
  0.100233617649E+01  0.100177154185E+01  0.102388245471E+01  0.100872427296E+01  0.100526523017E+01  0.100522301506E+01  0.100829268035E+01
  0.100185742107E+01  0.100160321559E+01  0.100409380512E+01  0.100312442010E+01  0.100425922205E+01
  0.000000000000E+00  0.000000000000E+00  0.000000000000E+00  0.439022145952E+00  0.399808628930E+00  0.000000000000E+00  0.373781876571E+00
  0.494928051248E+00  0.573032193244E+00  0.569564581854E+00  0.559935401596E+00  0.000000000000E+00  0.483396826459E+00  0.533811320473E+00
  0.556500244457E+00  0.564763912536E+00  0.522634573930E+00  0.522556620705E+00  0.445502039811E+00  0.518380770254E+00  0.524843839149E+00
  0.503953548463E+00  0.509945525001E+00  0.471751657248E+00  0.496257324704E+00  0.494963488478E+00  0.489129693168E+00  0.489832983466E+00
  0.493003497665E+00  0.499229155735E+00  0.486735815523E+00  0.484535862277E+00  0.495838252421E+00
  0.000000000000E+00  0.000000000000E+00  0.000000000000E+00  0.000000000000E+00  0.000000000000E+00  0.000000000000E+00  0.000000000000E+00
  0.000000000000E+00  0.000000000000E+00  0.000000000000E+00  0.000000000000E+00  0.000000000000E+00  0.000000000000E+00  0.000000000000E+00
  0.000000000000E+00  0.000000000000E+00  0.000000000000E+00  0.000000000000E+00  0.000000000000E+00  0.000000000000E+00  0.000000000000E+00
  0.000000000000E+00  0.000000000000E+00  0.000000000000E+00  0.000000000000E+00  0.000000000000E+00  0.000000000000E+00  0.000000000000E+00
  0.000000000000E+00  0.000000000000E+00  0.000000000000E+00  0.000000000000E+00  0.000000000000E+00
  0.000000000000E+00  0.000000000000E+00  0.000000000000E+00 -0.226393833586E-01  0.112003213541E-01  0.000000000000E+00  0.179825683502E-01
 -0.100768258131E+00  0.390763140907E-02 -0.389580620017E-01  0.340488129569E-01  0.000000000000E+00  0.652254745126E-01 -0.425015594190E-01
  0.845631323704E-02 -0.650699471755E-02  0.490101849155E-01  0.136108069650E-01  0.452273410619E-01  0.800510561603E-03 -0.696463067718E-03
  0.244026251279E-02  0.926234210628E-03  0.351561066125E-02  0.103959682339E-01  0.431220078210E-02  0.333958173648E-02  0.449469631642E-03
  0.583873024704E-02  0.340065093157E-03  0.163647853706E-02  0.684567526435E-03  0.234301244635E-02
  0.672755991059E+00  0.675909105556E+00  0.602656925984E+00  0.676087361847E+00  0.691292350341E+00  0.683537368727E+00  0.690058731018E+00
  0.677283328511E+00  0.695190006055E+00  0.696240578577E+00  0.703330082058E+00  0.960181488670E+00  0.719710377292E+00  0.722872294407E+00
  0.709435483935E+00  0.713693451852E+00  0.726050937202E+00  0.716587452224E+00  0.782328558022E+00  0.722305431174E+00  0.716113255774E+00
  0.716528116968E+00  0.716535062555E+00  0.737382632958E+00  0.722665462874E+00  0.719417979953E+00  0.719559286918E+00  0.722769232944E+00
  0.715957632967E+00  0.715824069024E+00  0.718133061520E+00  0.717024312936E+00  0.718607479052E+00
  0.000000000000E+00  0.000000000000E+00  0.000000000000E+00  0.443737866168E+00  0.402241243749E+00  0.000000000000E+00  0.377538333624E+00
  0.509151719900E+00  0.575807930560E+00  0.573669880128E+00  0.562559009637E+00  0.000000000000E+00  0.490572156249E+00  0.534517535232E+00
  0.556629586406E+00  0.564470432614E+00  0.522751323613E+00  0.522076301101E+00  0.441259421045E+00  0.517237384962E+00  0.524326189306E+00
  0.503757662662E+00  0.509596111277E+00  0.469829274792E+00  0.495627930022E+00  0.494510268607E+00  0.488616414817E+00  0.488964882486E+00
  0.492919200857E+00  0.499092139898E+00  0.486425600946E+00  0.484365054353E+00  0.495402172556E+00
  0.999990124327E+00  0.999990078891E+00  0.999990251171E+00  0.981461419537E+00  0.988716603404E+00  0.999990137789E+00  0.982467983664E+00
  0.984078351405E+00  0.990428100939E+00  0.990350606051E+00  0.994357604803E+00  0.999990274378E+00  0.988638850206E+00  0.100368176349E+01
  0.999766118099E+00  0.100117299771E+01  0.100834324494E+01  0.100252055511E+01  0.102982747098E+01  0.100442840579E+01  0.100197727269E+01
  0.100080131525E+01  0.100137510967E+01  0.100825605653E+01  0.100298136483E+01  0.100190988578E+01  0.100214876360E+01  0.100355476722E+01
  0.100048236912E+01  0.100054959992E+01  0.100128721141E+01  0.100070740777E+01  0.100178365166E+01
        15         9        16        16
        15        18        11        11
        22        15        21        21
        11         5         9         9
         5         7         2         2
        11         9        15        15
        16        21        15        15
        16        10        14        14
        18        17        11        11
        17        25        24        24
        22        18        15        15
        22        30        31        31
        30        21        23        23
        16        20        23        23
        22        27        26        26
        10         9         4         4
         7        11        13        13
        25        18        26        26
        11         7         5         5
         5         1         4         4
        17        19        13        13
        23        32        30        30
        23        20        29        29
         4         9         5         5
         4         8        10        10
        26        18        22        22
        26        28        25        25
        13        11        17        17
        13         6         7         7
        31        30        32        32
         2         1         5         5
         2         7         6         6
        14        10         8         8
        24        19        17        17
        24        25        28        28
         9        10        16        16
         3         4         1         1
        33        26        27        27
        12        13        19        19
        21        30        22        22
        16        14        20        20
        16        23        21        21
        22        31        27        27
        18        25        17        17
        26        33        28        28
         4         3         8         8
        23        29        32        32
        13        12         6         6
zone t="boundary 4 bc-4", solutiontime= 0.2000000E+02, strandid=1004, i=32, j=46, f=feblock
  0.125000000000E+01  0.219251206392E+01  0.103724302461E+01  0.500000000000E+01  0.250000000000E+01  0.375000000000E+01  0.404200324774E+01
  0.500000000000E+01  0.000000000000E+00  0.310152362409E+01  0.202479342020E+01  0.324151231464E+01  0.922061490191E+00  0.000000000000E+00
  0.299062775774E+01  0.394624082883E+01  0.500000000000E+01  0.409252726285E+01  0.500000000000E+01  0.429310310915E+01  0.175434191980E+01
  0.284428995242E+01  0.000000000000E+00  0.000000000000E+00  0.715990576545E+00  0.930412228790E+00  0.125000000000E+01  0.187029682677E+01
  0.500000000000E+01  0.375000000000E+01  0.250000000000E+01  0.000000000000E+00
  0.250000000000E+01  0.157686156160E+01  0.146289271009E+01  0.250000000000E+01  0.250000000000E+01  0.250000000000E+01  0.155830813274E+01
  0.125000000000E+01  0.250000000000E+01  0.177790177481E+01  0.477386199275E+00  0.742988685424E+00  0.308372018325E+00  0.125000000000E+01
 -0.487811078581E+00 -0.144524380962E+01 -0.125000000000E+01 -0.345533899378E+00  0.000000000000E+00  0.627766083140E+00 -0.739814786992E+00
 -0.158811787973E+01  0.000000000000E+00 -0.125000000000E+01 -0.600232012419E+00 -0.154800130438E+01 -0.250000000000E+01 -0.178862290564E+01
 -0.250000000000E+01 -0.250000000000E+01 -0.250000000000E+01 -0.250000000000E+01
  0.500000000000E+01  0.500000000000E+01  0.500000000000E+01  0.500000000000E+01  0.500000000000E+01  0.500000000000E+01  0.500000000000E+01
  0.500000000000E+01  0.500000000000E+01  0.500000000000E+01  0.500000000000E+01  0.500000000000E+01  0.500000000000E+01  0.500000000000E+01
  0.500000000000E+01  0.500000000000E+01  0.500000000000E+01  0.500000000000E+01  0.500000000000E+01  0.500000000000E+01  0.500000000000E+01
  0.500000000000E+01  0.500000000000E+01  0.500000000000E+01  0.500000000000E+01  0.500000000000E+01  0.500000000000E+01  0.500000000000E+01
  0.500000000000E+01  0.500000000000E+01  0.500000000000E+01  0.500000000000E+01
  0.100522301506E+01  0.100430412365E+01  0.100429819435E+01  0.100185742107E+01  0.100409380512E+01  0.100312442010E+01  0.100249905656E+01
  0.100192636001E+01  0.100425922205E+01  0.100366027683E+01  0.100444683498E+01  0.100343730343E+01  0.100364963523E+01  0.100424229522E+01
  0.100359221874E+01  0.100160860552E+01  0.100223013891E+01  0.100221147922E+01  0.100205881527E+01  0.100246493200E+01  0.100441741509E+01
  0.100336329632E+01  0.100286960678E+01  0.100332755616E+01  0.100322048376E+01  0.100404935042E+01  0.100508735213E+01  0.100430737939E+01
  0.100172926256E+01  0.100263232852E+01  0.100320025186E+01  0.100398666018E+01
  0.489129693168E+00  0.489233941287E+00  0.491008134154E+00  0.493003497665E+00  0.486735815523E+00  0.484535862277E+00  0.485190990498E+00
  0.494181406569E+00  0.495838252421E+00  0.486687315631E+00  0.488138726745E+00  0.487155294814E+00  0.494443662675E+00  0.496553086185E+00
  0.487763047277E+00  0.483082025736E+00  0.492508795655E+00  0.487116892477E+00  0.494805211927E+00  0.487847665525E+00  0.490094387067E+00
  0.488157864483E+00  0.497546431655E+00  0.496392515191E+00  0.495268279078E+00  0.493225198901E+00  0.490452688509E+00  0.490379615672E+00
  0.491388545062E+00  0.486045473447E+00  0.490248761608E+00  0.495539741969E+00
  0.000000000000E+00 -0.103162046608E-03 -0.131129296229E-02  0.000000000000E+00  0.000000000000E+00  0.000000000000E+00  0.467135909463E-03
  0.848295558806E-03  0.000000000000E+00  0.267573002109E-03 -0.947941717422E-03 -0.833846299562E-03 -0.174495431278E-02 -0.667868575136E-04
 -0.110426532167E-02 -0.103579005556E-02 -0.134056472699E-02 -0.215503920280E-02 -0.130478153738E-02 -0.105189859474E-02 -0.594074047160E-03
 -0.749381506891E-03 -0.196208541019E-03  0.818389197100E-03  0.658837430770E-04  0.163945105806E-02  0.000000000000E+00  0.805153823439E-03
  0.000000000000E+00  0.000000000000E+00  0.000000000000E+00  0.000000000000E+00