title="tecplot geometry and solution file"
variables = x y z mach temperature lambda1 lambda2 lambda3 lambda4 lambda5
zone t="boundary 1 bc-1", solutiontime= 0.7000000E+02, strandid=1001, i=32, j=46, f=feblock
  0.000000000000E+00  0.000000000000E+00  0.000000000000E+00  0.000000000000E+00  0.000000000000E+00  0.000000000000E+00  0.000000000000E+00
  0.000000000000E+00  0.000000000000E+00  0.000000000000E+00  0.000000000000E+00  0.000000000000E+00  0.000000000000E+00  0.000000000000E+00
  0.000000000000E+00  0.000000000000E+00  0.000000000000E+00  0.000000000000E+00  0.000000000000E+00  0.000000000000E+00  0.000000000000E+00
  0.000000000000E+00  0.000000000000E+00  0.000000000000E+00  0.000000000000E+00  0.000000000000E+00  0.000000000000E+00  0.000000000000E+00
  0.000000000000E+00  0.000000000000E+00  0.000000000000E+00  0.000000000000E+00
  0.250000000000E+01  0.250000000000E+01  0.125000000000E+01  0.146289271009E+01  0.157686156160E+01  0.308372018325E+00  0.000000000000E+00
 -0.125000000000E+01 -0.600232012419E+00  0.250000000000E+01  0.477386199275E+00  0.742988685424E+00 -0.739814786992E+00  0.177790177481E+01
  0.155830813274E+01  0.250000000000E+01 -0.250000000000E+01 -0.154800130438E+01 -0.487811078581E+00  0.250000000000E+01  0.627766083140E+00
 -0.345533899378E+00 -0.178862290564E+01 -0.158811787973E+01  0.125000000000E+01 -0.250000000000E+01 -0.144524380962E+01  0.000000000000E+00
 -0.125000000000E+01 -0.250000000000E+01 -0.250000000000E+01 -0.250000000000E+01
  0.000000000000E+00  0.125000000000E+01  0.000000000000E+00  0.103724302461E+01  0.219251206392E+01  0.922061490191E+00  0.000000000000E+00
  0.000000000000E+00  0.715990576545E+00  0.250000000000E+01  0.202479342020E+01  0.324151231464E+01  0.175434191980E+01  0.310152362409E+01
  0.404200324774E+01  0.375000000000E+01  0.000000000000E+00  0.930412228790E+00  0.299062775774E+01  0.500000000000E+01  0.429310310915E+01
  0.409252726285E+01  0.187029682677E+01  0.284428995242E+01  0.500000000000E+01  0.125000000000E+01  0.394624082883E+01  0.500000000000E+01
  0.500000000000E+01  0.250000000000E+01  0.375000000000E+01  0.500000000000E+01
  0.000000000000E+00  0.441238238418E+00  0.000000000000E+00  0.475214961796E+00  0.460123580272E+00  0.468827756054E+00  0.000000000000E+00
  0.000000000000E+00  0.402302252327E+00  0.469814866974E+00  0.464410992740E+00  0.478713919946E+00  0.489298227018E+00  0.483068464338E+00
  0.487929997327E+00  0.488961578622E+00  0.000000000000E+00  0.464775595985E+00  0.473795475386E+00  0.495346539859E+00  0.490266031380E+00
  0.486285986007E+00  0.445717357445E+00  0.464382072844E+00  0.496127345644E+00  0.443624008640E+00  0.486964359150E+00  0.497246230722E+00
  0.496059214486E+00  0.467732142372E+00  0.488211983969E+00  0.495098202848E+00
  0.999990418744E+00  0.102982723097E+01  0.999990357178E+00  0.104247302828E+01  0.101190083988E+01  0.102520616694E+01  0.999990394394E+00
  0.999990676924E+00  0.103891214268E+01  0.100826280896E+01  0.101252840415E+01  0.100300551353E+01  0.102702888784E+01  0.100605566767E+01
  0.100244403180E+01  0.100355662856E+01  0.999991292264E+00  0.103239744481E+01  0.100459526378E+01  0.100179337938E+01  0.100260308594E+01
  0.100234969021E+01  0.101657160208E+01  0.100617547479E+01  0.100168846499E+01  0.104043315620E+01  0.100303379769E+01  0.100118728691E+01
  0.100134173037E+01  0.100976794917E+01  0.100405373396E+01  0.100176114782E+01
  0.570949895669E-02  0.281448657588E-01  0.686861183304E-02  0.472514510739E-01  0.246645108713E-02  0.624824510040E-01  0.542658037673E-02
  0.220754235226E-02  0.666823869699E-01 -0.224135081281E-02  0.373959311852E-02 -0.733674469719E-02  0.527205361966E-02 -0.397299745645E-02
 -0.976442608881E-02 -0.941830305094E-02  0.400492643892E-02  0.489372748114E-01 -0.559828460547E-02 -0.367304905368E-01 -0.130833765785E-01
 -0.898693620935E-02  0.340857210514E-02 -0.523874559660E-02 -0.380702084093E-01  0.328959940190E-01 -0.720294596598E-02 -0.422405924750E-01
 -0.374718239125E-01 -0.415698387912E-02 -0.807908876995E-02 -0.352250297046E-01
  0.193125828006E-03  0.400349066342E-02  0.315049396949E-03  0.594837908195E-02 -0.213278969463E-04  0.950291623305E-02  0.405328741216E-03
  0.431984045581E-03  0.100196473051E-01 -0.901902289945E-03  0.294411766063E-03 -0.155052343962E-02  0.163875475825E-03 -0.116255091319E-02
 -0.191636451275E-02 -0.207520613938E-02  0.379926207354E-03  0.769806511868E-02 -0.111616701028E-02 -0.755118368229E-02 -0.259745030562E-02
 -0.172034331379E-02 -0.363588826815E-04 -0.994499488162E-03 -0.797235957266E-02  0.417804906680E-02 -0.141572005168E-02 -0.887251782975E-02
 -0.784035348355E-02 -0.103443864296E-02 -0.170875944698E-02 -0.732943060193E-02
  0.358613622781E-03  0.120921043943E-03  0.479708841539E-03  0.126087503096E-02  0.204964895842E-03  0.697834770654E-03  0.440236055265E-03
 -0.281241493538E-03  0.821589881589E-04 -0.128994230696E-04  0.228182650604E-03  0.225543129457E-03 -0.658827807424E-04  0.753549701668E-04
 -0.161759411529E-04 -0.469699149904E-05 -0.301948347073E-03 -0.948425965926E-03  0.112792329366E-03  0.193448558383E-05  0.189132059540E-04
  0.193364571472E-04  0.380337545482E-04 -0.101136672685E-03  0.122767776137E-03 -0.129479020467E-03 -0.496532908414E-04  0.158937267263E-04
 -0.618831848765E-04 -0.265011724435E-04 -0.110562411184E-04  0.530407993572E-05
 -0.141602085533E-02 -0.120927833095E-02 -0.161281062731E-02  0.743646958892E-04  0.148015108560E-02  0.172424748627E-02 -0.972940186928E-03
 -0.968269448102E-03  0.119244506308E-02  0.159911031258E-02  0.308825828733E-02  0.170730463380E-02  0.358747530776E-02  0.153905301660E-02
  0.115384479534E-02  0.133126014101E-02 -0.762796474733E-03  0.921482241196E-03  0.202574028981E-02  0.498196152746E-03  0.109767191244E-02
  0.133336237838E-02  0.252551982118E-02  0.167738508465E-02  0.480552536743E-03  0.126415104605E-02  0.124002449972E-02  0.455844124283E-03
  0.547640011334E-03  0.193242485043E-02  0.127816690896E-02  0.533895722608E-03
 -0.459085346091E-02 -0.116162094268E-01 -0.661344566335E-02 -0.189131357665E-01 -0.104511919533E-02 -0.259630179720E-01  0.445351216557E-03
  0.104404845819E-02 -0.277091546037E-01  0.892510551811E-03 -0.165809653135E-02  0.286358191793E-02 -0.223507924744E-02  0.155555697248E-02
  0.389366608232E-02  0.378843621133E-02 -0.139874514524E-02 -0.204086446260E-01  0.206991042376E-02  0.152493428070E-01  0.528323592829E-02
  0.355774791490E-02 -0.153671156446E-02  0.188651339169E-02  0.158329808279E-01 -0.133815056483E-01  0.281695694100E-02  0.176190138064E-01
  0.155941293823E-01  0.151859337353E-02  0.322071736031E-02  0.146216020592E-01
        12        19        11        11
        11         5        12        12
        10        14         5         5
        19        13        11        11
        19        24        13        13
        30        23        24        24
        19        12        22        22
        28        22        21        21
        11        13         6         6
         7         6         9         9
        15        12        14        14
        18        13        23        23
        15        25        21        21
        27        19        22        22
        18         8         9         9
        27        31        24        24
         4        11         6         6
         5        14        12        12
         4         2         5         5
        21        12        15        15
        14        16        15        15
        24        19        27        27
        22        29        27        27
        23        26        18        18
        17         8        18        18
         5        11         4         4
         6         3         4         4
        26        23        30        30
         5         2        10        10
        16        14        10        10
         3         6         7         7
        21        25        28        28
        29        22        28        28
         6        13         9         9
         2         4         1         1
        31        27        32        32
        25        15        20        20
        24        23        13        13
         8         7         9         9
        13        18         9         9
        31        30        24        24
        12        21        22        22
        29        32        27        27
         3         1         4         4
        26        17        18        18
        16        20        15        15
zone t="boundary 2 bc-2", solutiontime= 0.7000000E+02, strandid=1002, i=33, j=48, f=feblock
  0.500000000000E+01  0.375000000000E+01  0.250000000000E+01  0.288078410721E+01  0.125000000000E+01  0.190974100652E+01  0.326683758169E+01
  0.201431602454E+01  0.000000000000E+00  0.963108083381E+00  0.500000000000E+01  0.403552511878E+01  0.423153924130E+01  0.500000000000E+01
  0.385533350601E+01  0.500000000000E+01  0.398173246726E+01  0.315249557942E+01  0.267000324704E+01  0.154774304040E+01  0.218329375016E+01
  0.893127759452E+00  0.000000000000E+00  0.698517061619E+00  0.964171764089E+00  0.310324758057E+01  0.000000000000E+00  0.000000000000E+00
  0.125000000000E+01  0.500000000000E+01  0.375000000000E+01  0.250000000000E+01  0.000000000000E+00
 -0.250000000000E+01 -0.250000000000E+01 -0.250000000000E+01 -0.250000000000E+01 -0.250000000000E+01 -0.250000000000E+01 -0.250000000000E+01
 -0.250000000000E+01 -0.250000000000E+01 -0.250000000000E+01 -0.250000000000E+01 -0.250000000000E+01 -0.250000000000E+01 -0.250000000000E+01
 -0.250000000000E+01 -0.250000000000E+01 -0.250000000000E+01 -0.250000000000E+01 -0.250000000000E+01 -0.250000000000E+01 -0.250000000000E+01
 -0.250000000000E+01 -0.250000000000E+01 -0.250000000000E+01 -0.250000000000E+01 -0.250000000000E+01 -0.250000000000E+01 -0.250000000000E+01
 -0.250000000000E+01 -0.250000000000E+01 -0.250000000000E+01 -0.250000000000E+01 -0.250000000000E+01
  0.000000000000E+00  0.000000000000E+00  0.000000000000E+00  0.904659890645E+00  0.000000000000E+00  0.717002441913E+00  0.188609243358E+01
  0.176246431481E+01  0.000000000000E+00  0.961328577125E+00  0.125000000000E+01  0.101201586758E+01  0.191586535653E+01  0.250000000000E+01
  0.293121848150E+01  0.375000000000E+01  0.406975391361E+01  0.363585050272E+01  0.285047954584E+01  0.292817774674E+01  0.395907379566E+01
  0.205246550326E+01  0.125000000000E+01  0.306828197606E+01  0.397245519226E+01  0.433168271247E+01  0.250000000000E+01  0.375000000000E+01
  0.500000000000E+01  0.500000000000E+01  0.500000000000E+01  0.500000000000E+01  0.500000000000E+01
  0.000000000000E+00  0.000000000000E+00  0.000000000000E+00  0.380991725517E+00  0.000000000000E+00  0.343629902501E+00  0.585285997937E+00
  0.579373345328E+00  0.000000000000E+00  0.501056496643E+00  0.508459636492E+00  0.435372376081E+00  0.572639779008E+00  0.537002216251E+00
  0.568922577244E+00  0.514994217086E+00  0.508247269503E+00  0.527252854700E+00  0.567446690172E+00  0.531657148367E+00  0.505980959997E+00
  0.520795550505E+00  0.443624008640E+00  0.490663634162E+00  0.492155782275E+00  0.501390726941E+00  0.467732142372E+00  0.488211983969E+00
  0.490002657454E+00  0.491352292040E+00  0.486075382695E+00  0.490036359612E+00  0.495098202848E+00
  0.999991230154E+00  0.999991175015E+00  0.999991158230E+00  0.989538312558E+00  0.999991226060E+00  0.985523838840E+00  0.989838990644E+00
  0.991798508740E+00  0.999991292264E+00  0.984410634783E+00  0.985091722602E+00  0.984688434231E+00  0.990058507586E+00  0.100289631571E+01
  0.999855498398E+00  0.100485312288E+01  0.100121556152E+01  0.100055647294E+01  0.997896876980E+00  0.100350037625E+01  0.100058071455E+01
  0.101093288315E+01  0.104043315620E+01  0.100326477647E+01  0.100254501777E+01  0.100045589682E+01  0.100976794917E+01  0.100405373396E+01
  0.100192659785E+01  0.100045434331E+01  0.100058775919E+01  0.100109996600E+01  0.100176114782E+01
 -0.304377556384E-02 -0.225969149845E-02 -0.129469821831E-02  0.326034653170E-01  0.326888423474E-02  0.101962442371E+00 -0.594402442158E-02
  0.227128298548E-02  0.400492643892E-02  0.474008964706E-01 -0.762321880433E-02 -0.921753115249E-02 -0.587160173757E-02 -0.503587178688E-02
 -0.364298853724E-02 -0.330545673613E-02 -0.243187886596E-02 -0.282541411034E-02 -0.491596150346E-02 -0.615155330258E-02 -0.365615340448E-02
  0.235330254342E-02  0.328959940190E-01 -0.408255427064E-02 -0.686033159887E-02 -0.439108825675E-02 -0.415698387912E-02 -0.807908876995E-02
 -0.317532804749E-01 -0.384020505870E-02 -0.145985088748E-01 -0.279512488611E-01 -0.352250297046E-01
  0.825436756592E-03 -0.250620567861E-03  0.297399552703E-04  0.552360735707E-02 -0.543641088811E-03  0.126989613074E-01 -0.160761295104E-03
 -0.439578292265E-03  0.379926207354E-03  0.564944009201E-02  0.173857691459E-02 -0.444090601462E-04  0.830374957770E-03  0.128459962267E-02
  0.808873925899E-03  0.774839600216E-03  0.911589679634E-03  0.735215933346E-03  0.176857319542E-03 -0.636210256239E-03  0.305753336330E-03
 -0.390302057162E-03  0.417804906680E-02 -0.320155230684E-03 -0.809015274422E-03  0.432679810879E-03 -0.103443864296E-02 -0.170875944698E-02
 -0.572803671793E-02  0.189811655977E-03 -0.147367456559E-02 -0.436477726236E-02 -0.732943060193E-02
 -0.202363889016E-03  0.518652022660E-04  0.311678335567E-03  0.752968252063E-03  0.162285390887E-03  0.124434055989E-02 -0.977183703272E-04
  0.161715640182E-04 -0.301948347073E-03  0.459304967975E-03 -0.111252073563E-03 -0.357400224370E-03  0.850917004203E-05  0.928066802877E-05
  0.985053202898E-05 -0.160794223435E-04  0.180123917674E-05 -0.987032783577E-05  0.217362170771E-04  0.393337115859E-04 -0.200160857819E-04
  0.392737202631E-04 -0.129479020467E-03  0.688627740333E-05 -0.412468550136E-05 -0.756158669594E-05 -0.265011724435E-04 -0.110562411184E-04
 -0.428625019234E-05 -0.326174425938E-05 -0.118890164181E-08  0.207774673481E-05  0.530407993572E-05
 -0.226307209471E-03 -0.264352567065E-03 -0.404239406931E-03  0.130465903330E-02 -0.911024996861E-03  0.218870749005E-03  0.199159814156E-02
  0.257149623518E-02 -0.762796474733E-03  0.120267289462E-02  0.406718420357E-03  0.147263253578E-02  0.789649495795E-03  0.338870774262E-03
  0.761731987070E-03  0.268406563530E-03  0.706676035983E-03  0.100197685822E-02  0.123455224553E-02  0.124188943036E-02  0.114331345286E-02
  0.196923265488E-02  0.126415104605E-02  0.131229411730E-02  0.113627832951E-02  0.988643268725E-03  0.193242485043E-02  0.127816690896E-02
  0.755640576466E-03  0.408612459132E-03  0.883294760053E-03  0.953071709585E-03  0.533895722608E-03
  0.852384625378E-03  0.256569800858E-02  0.444724524486E-02 -0.147027367669E-01  0.500193736955E-02 -0.435675616865E-01  0.182491905263E-02
 -0.962115232649E-03 -0.139874514524E-02 -0.195715796926E-01  0.164401257854E-02  0.287033492604E-02  0.145478514559E-02  0.967589357919E-03
  0.724264511707E-03  0.668787741371E-03  0.340448832017E-03  0.530342497531E-03  0.140303604943E-02  0.215312035056E-02  0.987817946615E-03
 -0.990129421985E-03 -0.133815056483E-01  0.134612560665E-02  0.251490164920E-02  0.120544818158E-02  0.151859337353E-02  0.322071736031E-02
  0.129060101021E-01  0.116202817351E-02  0.548037583409E-02  0.111192456829E-01  0.146216020592E-01
        15         7        19        19
         8        20        19        19
        18        19        21        21
         7         4         8         8
         3         6         4         4
        19         7         8         8
        19        18        15        15
        14        13        15        15
         8        22        20        20
        27        24        22        22
        19        20        21        21
        32        26        21        21
        17        18        26        26
        17        16        15        15
        25        29        21        21
        12         7        13        13
        10         8         6         6
        25        20        24        24
         4         6         8         8
        12         2         4         4
        10        23        22        22
        26        31        17        17
        30        16        17        17
         4         7        12        12
        13        11        12        12
        21        20        25        25
        24        28        25        25
        22         8        10        10
         6         5        10        10
        31        26        32        32
         4         2         3         3
         5         6         3         3
        11        13        14        14
        22        23        27        27
        28        24        27        27
        15        13         7         7
         2        12         1         1
        29        25        33        33
        23        10         9         9
        21        26        18        18
        16        14        15        15
        18        17        15        15
        29        32        21        21
        22        24        20        20
        28        33        25        25
        11         1        12        12
        31        30        17        17
         5         9        10        10
zone t="boundary 3 bc-3", solutiontime= 0.7000000E+02, strandid=1003, i=33, j=48, f=feblock
  0.375000000000E+01  0.250000000000E+01  0.500000000000E+01  0.403552511878E+01  0.288078410721E+01  0.125000000000E+01  0.190974100652E+01
  0.500000000000E+01  0.326683758169E+01  0.423153924130E+01  0.201431602454E+01  0.000000000000E+00  0.963108083381E+00  0.500000000000E+01
  0.267000324704E+01  0.385533350601E+01  0.893127759452E+00  0.154774304040E+01  0.000000000000E+00  0.500000000000E+01  0.315249557942E+01
  0.218329375016E+01  0.398173246726E+01  0.000000000000E+00  0.698517061619E+00  0.964171764089E+00  0.125000000000E+01  0.000000000000E+00
  0.500000000000E+01  0.310324758057E+01  0.250000000000E+01  0.375000000000E+01  0.000000000000E+00
  0.250000000000E+01  0.250000000000E+01  0.250000000000E+01  0.250000000000E+01  0.250000000000E+01  0.250000000000E+01  0.250000000000E+01
  0.250000000000E+01  0.250000000000E+01  0.250000000000E+01  0.250000000000E+01  0.250000000000E+01  0.250000000000E+01  0.250000000000E+01
  0.250000000000E+01  0.250000000000E+01  0.250000000000E+01  0.250000000000E+01  0.250000000000E+01  0.250000000000E+01  0.250000000000E+01
  0.250000000000E+01  0.250000000000E+01  0.250000000000E+01  0.250000000000E+01  0.250000000000E+01  0.250000000000E+01  0.250000000000E+01
  0.250000000000E+01  0.250000000000E+01  0.250000000000E+01  0.250000000000E+01  0.250000000000E+01
  0.000000000000E+00  0.000000000000E+00  0.000000000000E+00  0.101201586758E+01  0.904659890645E+00  0.000000000000E+00  0.717002441913E+00
  0.125000000000E+01  0.188609243358E+01  0.191586535653E+01  0.176246431481E+01  0.000000000000E+00  0.961328577125E+00  0.250000000000E+01
  0.285047954584E+01  0.293121848150E+01  0.205246550326E+01  0.292817774674E+01  0.125000000000E+01  0.375000000000E+01  0.363585050272E+01
  0.395907379566E+01  0.406975391361E+01  0.250000000000E+01  0.306828197606E+01  0.397245519226E+01  0.500000000000E+01  0.375000000000E+01
  0.500000000000E+01  0.433168271247E+01  0.500000000000E+01  0.500000000000E+01  0.500000000000E+01
  0.000000000000E+00  0.000000000000E+00  0.000000000000E+00  0.443767851971E+00  0.402286937187E+00  0.000000000000E+00  0.377550347167E+00
  0.509232303765E+00  0.575832200483E+00  0.573707467431E+00  0.562554066051E+00  0.000000000000E+00  0.490563275283E+00  0.534527160060E+00
  0.556586972364E+00  0.564391596022E+00  0.522730462526E+00  0.522051957840E+00  0.441238238418E+00  0.517182364794E+00  0.524228611468E+00
  0.503687398987E+00  0.509488557597E+00  0.469814866974E+00  0.495614370334E+00  0.494483710979E+00  0.488562341139E+00  0.488961578622E+00
  0.492980742035E+00  0.499005498570E+00  0.486460842266E+00  0.484596857761E+00  0.495346539859E+00
  0.999990271160E+00  0.999990226304E+00  0.999990396196E+00  0.981542103217E+00  0.988774189663E+00  0.999990284241E+00  0.982469591301E+00
  0.984104381171E+00  0.990427577672E+00  0.990355317210E+00  0.994363027919E+00  0.999990418744E+00  0.988652137107E+00  0.100368372122E+01
  0.999769224643E+00  0.100118503172E+01  0.100834889321E+01  0.100252113520E+01  0.102982723097E+01  0.100443321097E+01  0.100199539020E+01
  0.100082058839E+01  0.100138193870E+01  0.100826280896E+01  0.100298790017E+01  0.100192392083E+01  0.100215269912E+01  0.100355662856E+01
  0.100047670699E+01  0.100056592873E+01  0.100126822740E+01  0.100066575135E+01  0.100179337938E+01
 -0.181246566394E-02  0.101414524641E-02 -0.283643725608E-02  0.136310885132E-01  0.553273380077E-01  0.352110800451E-02  0.558257771227E-01
 -0.972265831937E-02 -0.519170390785E-02 -0.629039394758E-02  0.846603253169E-02  0.570949895669E-02  0.377591999401E-01 -0.484441975675E-02
 -0.538996072551E-02 -0.403621275246E-02  0.122519179935E-03 -0.518968366105E-02  0.281448657588E-01 -0.334963846650E-02 -0.248016912772E-02
 -0.331430939750E-02 -0.256753625917E-02 -0.224135081281E-02 -0.450664561634E-02 -0.879099763707E-02 -0.276122593723E-01 -0.941830305094E-02
 -0.319926150470E-02 -0.394445599522E-02 -0.257913092039E-01 -0.139618653095E-01 -0.367304905368E-01
 -0.376344826218E-03 -0.380471795783E-03  0.704082795129E-03  0.405988156380E-02  0.759458739720E-02 -0.787288765829E-03  0.676747943137E-02
  0.163003428652E-02  0.178080842482E-04  0.899305084627E-03  0.185270331761E-04  0.193125828006E-03  0.259405541284E-02  0.126879226252E-02
  0.243615486993E-04  0.694087345581E-03 -0.127213402096E-02 -0.476721596224E-03  0.400349066342E-02  0.822896165360E-03  0.736128888880E-03
  0.411767017670E-03  0.846902436151E-03 -0.901902289945E-03 -0.100741129437E-02 -0.110499635846E-02 -0.489165822050E-02 -0.207520613938E-02
  0.293425133539E-03  0.475972476604E-03 -0.398343419608E-02 -0.137987376012E-02 -0.755118368229E-02
 -0.675452630000E-04  0.262814607943E-04  0.961489161575E-04 -0.239697187955E-03 -0.757597054103E-03  0.315207053373E-03 -0.600122840235E-05
  0.441827752925E-05 -0.872711984786E-04  0.187422638888E-04 -0.729984355480E-04  0.358613622781E-03  0.443463240646E-03  0.350487393495E-04
 -0.478041329460E-06  0.805032142888E-05 -0.149131762441E-03 -0.572773661662E-04  0.120921043943E-03  0.194522988793E-04  0.761779496609E-05
  0.439479883981E-04  0.157264873657E-05 -0.128994230696E-04 -0.370487247635E-04  0.128255025898E-04  0.165063240097E-04 -0.469699149904E-05
  0.680246732969E-05  0.110390141366E-06  0.397610051111E-05 -0.102925823862E-05  0.193448558383E-05
 -0.425536089777E-03 -0.805615150724E-03 -0.248331596414E-03  0.580582413823E-03  0.993292465284E-03 -0.807273684930E-03  0.353512817167E-03
  0.330277740710E-03  0.182726453322E-02  0.893727360091E-03  0.268231542056E-02 -0.141602085533E-02  0.886000498408E-03  0.369820402034E-03
  0.101223722903E-02  0.832542956027E-03  0.230927560975E-02  0.109307424019E-02 -0.120927833095E-02  0.341381143782E-03  0.984996084356E-03
  0.103986027964E-02  0.747094468851E-03  0.159911031258E-02  0.154453435172E-02  0.107027795650E-02  0.784869391618E-03  0.133126014101E-02
  0.375238775225E-03  0.976381444700E-03  0.950212461816E-03  0.864273832135E-03  0.498196152746E-03
  0.652268047919E-02  0.288579166627E-02  0.130925767292E-02 -0.727415117349E-02 -0.240413943029E-01  0.286664864609E-03 -0.234811289184E-01
  0.245107878476E-02  0.156323040289E-02  0.160337913302E-02 -0.333460821388E-02 -0.459085346091E-02 -0.148472336269E-01  0.911840654217E-03
  0.165445621504E-02  0.907769778923E-03  0.475172891777E-04  0.176146855768E-02 -0.116162094268E-01  0.656571708692E-03  0.405937569507E-03
  0.838979150434E-03  0.414154272619E-03  0.892510551811E-03  0.162786822566E-02  0.330152127390E-02  0.111608588951E-01  0.378843621133E-02
  0.905597197017E-03  0.103823447340E-02  0.102297624542E-01  0.522425495085E-02  0.152493428070E-01
        15         9        16        16
        15        18        11        11
        22        15        21        21
        11         5         9         9
         5         7         2         2
        11         9        15        15
        16        21        15        15
        16        10        14        14
        18        17        11        11
        17        25        24        24
        22        18        15        15
        22        30        31        31
        30        21        23        23
        16        20        23        23
        22        27        26        26
        10         9         4         4
         7        11        13        13
        25        18        26        26
        11         7         5         5
         5         1         4         4
        17        19        13        13
        23        32        30        30
        23        20        29        29
         4         9         5         5
         4         8        10        10
        26        18        22        22
        26        28        25        25
        13        11        17        17
        13         6         7         7
        31        30        32        32
         2         1         5         5
         2         7         6         6
        14        10         8         8
        24        19        17        17
        24        25        28        28
         9        10        16        16
         3         4         1         1
        33        26        27        27
        12        13        19        19
        21        30        22        22
        16        14        20        20
        16        23        21        21
        22        31        27        27
        18        25        17        17
        26        33        28        28
         4         3         8         8
        23        29        32        32
        13        12         6         6
zone t="boundary 4 bc-4", solutiontime= 0.7000000E+02, strandid=1004, i=32, j=46, f=feblock
  0.125000000000E+01  0.219251206392E+01  0.103724302461E+01  0.500000000000E+01  0.250000000000E+01  0.375000000000E+01  0.404200324774E+01
  0.500000000000E+01  0.000000000000E+00  0.310152362409E+01  0.202479342020E+01  0.324151231464E+01  0.922061490191E+00  0.000000000000E+00
  0.299062775774E+01  0.394624082883E+01  0.500000000000E+01  0.409252726285E+01  0.500000000000E+01  0.429310310915E+01  0.175434191980E+01
  0.284428995242E+01  0.000000000000E+00  0.000000000000E+00  0.715990576545E+00  0.930412228790E+00  0.125000000000E+01  0.187029682677E+01
  0.500000000000E+01  0.375000000000E+01  0.250000000000E+01  0.000000000000E+00
  0.250000000000E+01  0.157686156160E+01  0.146289271009E+01  0.250000000000E+01  0.250000000000E+01  0.250000000000E+01  0.155830813274E+01
  0.125000000000E+01  0.250000000000E+01  0.177790177481E+01  0.477386199275E+00  0.742988685424E+00  0.308372018325E+00  0.125000000000E+01
 -0.487811078581E+00 -0.144524380962E+01 -0.125000000000E+01 -0.345533899378E+00  0.000000000000E+00  0.627766083140E+00 -0.739814786992E+00
 -0.158811787973E+01  0.000000000000E+00 -0.125000000000E+01 -0.600232012419E+00 -0.154800130438E+01 -0.250000000000E+01 -0.178862290564E+01
 -0.250000000000E+01 -0.250000000000E+01 -0.250000000000E+01 -0.250000000000E+01
  0.500000000000E+01  0.500000000000E+01  0.500000000000E+01  0.500000000000E+01  0.500000000000E+01  0.500000000000E+01  0.500000000000E+01
  0.500000000000E+01  0.500000000000E+01  0.500000000000E+01  0.500000000000E+01  0.500000000000E+01  0.500000000000E+01  0.500000000000E+01
  0.500000000000E+01  0.500000000000E+01  0.500000000000E+01  0.500000000000E+01  0.500000000000E+01  0.500000000000E+01  0.500000000000E+01
  0.500000000000E+01  0.500000000000E+01  0.500000000000E+01  0.500000000000E+01  0.500000000000E+01  0.500000000000E+01  0.500000000000E+01
  0.500000000000E+01  0.500000000000E+01  0.500000000000E+01  0.500000000000E+01
  0.488562341139E+00  0.488873032190E+00  0.490562859008E+00  0.492980742035E+00  0.486460842266E+00  0.484596857761E+00  0.485347839168E+00
  0.494163546244E+00  0.495346539859E+00  0.486528146737E+00  0.487819888657E+00  0.487068824666E+00  0.494045825543E+00  0.496127345644E+00
  0.487612248631E+00  0.483219641417E+00  0.492395524030E+00  0.487214085145E+00  0.494738995157E+00  0.487958482370E+00  0.489677130929E+00
  0.488028988723E+00  0.497246230722E+00  0.496059214486E+00  0.494950977562E+00  0.492800285634E+00  0.490002657454E+00  0.490005003498E+00
  0.491352292040E+00  0.486075382695E+00  0.490036359612E+00  0.495098202848E+00
  0.100215269912E+01  0.100152655428E+01  0.100178349846E+01  0.100047670699E+01  0.100126822740E+01  0.100066575135E+01  0.100025358887E+01
  0.100050392281E+01  0.100179337938E+01  0.100112369427E+01  0.100133047555E+01  0.100072434606E+01  0.100164369001E+01  0.100168846499E+01
  0.100096276497E+01  0.100000874944E+01  0.100082864588E+01  0.100022269848E+01  0.100062146520E+01  0.100023497975E+01  0.100174638491E+01
  0.100098857876E+01  0.100118728691E+01  0.100134173037E+01  0.100132638128E+01  0.100179876461E+01  0.100192659785E+01  0.100163751619E+01
  0.100045434331E+01  0.100058775919E+01  0.100109996600E+01  0.100176114782E+01
 -0.276122593723E-01 -0.268264520615E-01 -0.276046134812E-01 -0.319926150470E-02 -0.257913092039E-01 -0.139618653095E-01 -0.972226974748E-02
 -0.319070851452E-02 -0.367304905368E-01 -0.214287782399E-01 -0.290119029077E-01 -0.202872496647E-01 -0.338541383866E-01 -0.380702084093E-01
 -0.230510574157E-01 -0.957662637836E-02 -0.372026660867E-02 -0.121009753199E-01 -0.300736990358E-02 -0.119870431518E-01 -0.359663700450E-01
 -0.218272655112E-01 -0.422405924750E-01 -0.374718239125E-01 -0.393452124757E-01 -0.316540161136E-01 -0.317532804749E-01 -0.335872740406E-01
 -0.384020505870E-02 -0.145985088748E-01 -0.279512488611E-01 -0.352250297046E-01