title="tecplot geometry and solution file"
variables = x y z mach temperature lambda1 lambda2 lambda3 lambda4 lambda5
zone t="boundary 1 bc-1", solutiontime= 0.4000000E+02, strandid=1001, i=32, j=46, f=feblock
  0.000000000000E+00  0.000000000000E+00  0.000000000000E+00  0.000000000000E+00  0.000000000000E+00  0.000000000000E+00  0.000000000000E+00
  0.000000000000E+00  0.000000000000E+00  0.000000000000E+00  0.000000000000E+00  0.000000000000E+00  0.000000000000E+00  0.000000000000E+00
  0.000000000000E+00  0.000000000000E+00  0.000000000000E+00  0.000000000000E+00  0.000000000000E+00  0.000000000000E+00  0.000000000000E+00
  0.000000000000E+00  0.000000000000E+00  0.000000000000E+00  0.000000000000E+00  0.000000000000E+00  0.000000000000E+00  0.000000000000E+00
  0.000000000000E+00  0.000000000000E+00  0.000000000000E+00  0.000000000000E+00
  0.250000000000E+01  0.250000000000E+01  0.125000000000E+01  0.146289271009E+01  0.157686156160E+01  0.308372018325E+00  0.000000000000E+00
 -0.125000000000E+01 -0.600232012419E+00  0.250000000000E+01  0.477386199275E+00  0.742988685424E+00 -0.739814786992E+00  0.177790177481E+01
  0.155830813274E+01  0.250000000000E+01 -0.250000000000E+01 -0.154800130438E+01 -0.487811078581E+00  0.250000000000E+01  0.627766083140E+00
 -0.345533899378E+00 -0.178862290564E+01 -0.158811787973E+01  0.125000000000E+01 -0.250000000000E+01 -0.144524380962E+01  0.000000000000E+00
 -0.125000000000E+01 -0.250000000000E+01 -0.250000000000E+01 -0.250000000000E+01
  0.000000000000E+00  0.125000000000E+01  0.000000000000E+00  0.103724302461E+01  0.219251206392E+01  0.922061490191E+00  0.000000000000E+00
  0.000000000000E+00  0.715990576545E+00  0.250000000000E+01  0.202479342020E+01  0.324151231464E+01  0.175434191980E+01  0.310152362409E+01
  0.404200324774E+01  0.375000000000E+01  0.000000000000E+00  0.930412228790E+00  0.299062775774E+01  0.500000000000E+01  0.429310310915E+01
  0.409252726285E+01  0.187029682677E+01  0.284428995242E+01  0.500000000000E+01  0.125000000000E+01  0.394624082883E+01  0.500000000000E+01
  0.500000000000E+01  0.250000000000E+01  0.375000000000E+01  0.500000000000E+01
  0.000000000000E+00  0.441238238418E+00  0.000000000000E+00  0.475214961796E+00  0.460123580272E+00  0.468827756054E+00  0.000000000000E+00
  0.000000000000E+00  0.402302252327E+00  0.469814866974E+00  0.464410992740E+00  0.478713919946E+00  0.489298227018E+00  0.483068464338E+00
  0.487929997327E+00  0.488961578622E+00  0.000000000000E+00  0.464775595985E+00  0.473795475386E+00  0.495346539859E+00  0.490266031380E+00
  0.486285986007E+00  0.445717357445E+00  0.464382072844E+00  0.496127345644E+00  0.443624008640E+00  0.486964359150E+00  0.497246230722E+00
  0.496059214486E+00  0.467732142372E+00  0.488211983969E+00  0.495098202848E+00
  0.999990418744E+00  0.102982723097E+01  0.999990357178E+00  0.104247302828E+01  0.101190083988E+01  0.102520616694E+01  0.999990394394E+00
  0.999990676924E+00  0.103891214268E+01  0.100826280896E+01  0.101252840415E+01  0.100300551353E+01  0.102702888784E+01  0.100605566767E+01
  0.100244403180E+01  0.100355662856E+01  0.999991292264E+00  0.103239744481E+01  0.100459526378E+01  0.100179337938E+01  0.100260308594E+01
  0.100234969021E+01  0.101657160208E+01  0.100617547479E+01  0.100168846499E+01  0.104043315620E+01  0.100303379769E+01  0.100118728691E+01
  0.100134173037E+01  0.100976794917E+01  0.100405373396E+01  0.100176114782E+01
  0.570919192421E-02  0.281429912751E-01  0.686896263178E-02  0.472515419748E-01  0.246636103652E-02  0.624873504858E-01  0.542715497918E-02
  0.220747937965E-02  0.666836556729E-01 -0.224068571283E-02  0.373746062830E-02 -0.733562709763E-02  0.526851123964E-02 -0.397265965495E-02
 -0.976420811937E-02 -0.941667583258E-02  0.400487252204E-02  0.489345967330E-01 -0.559780957012E-02 -0.367327281295E-01 -0.130818585347E-01
 -0.897863121596E-02  0.341006135702E-02 -0.523934135458E-02 -0.380737930464E-01  0.329002826078E-01 -0.720208322147E-02 -0.422509647642E-01
 -0.374773669547E-01 -0.415663356147E-02 -0.807933909228E-02 -0.352252769844E-01
  0.193118340902E-03  0.400303323452E-02  0.315009413733E-03  0.594821589338E-02 -0.213855495014E-04  0.950384212642E-02  0.405340634065E-03
  0.431955610069E-03  0.100197230622E-01 -0.901811416568E-03  0.294062434010E-03 -0.155021485114E-02  0.163124220010E-03 -0.116253068808E-02
 -0.191670467739E-02 -0.207490227681E-02  0.379934087495E-03  0.769752465895E-02 -0.111598477558E-02 -0.755109318480E-02 -0.259746461044E-02
 -0.171866371177E-02 -0.360740614938E-04 -0.994709237495E-03 -0.797261490226E-02  0.417883851249E-02 -0.141579787484E-02 -0.887403922636E-02
 -0.784130314207E-02 -0.103435176273E-02 -0.170892637371E-02 -0.732907541008E-02
  0.358564519303E-03  0.120909381949E-03  0.479616386027E-03  0.126044145775E-02  0.204905436270E-03  0.697559283400E-03  0.440275616744E-03
 -0.281191713056E-03  0.820197368314E-04 -0.129070884433E-04  0.228114816423E-03  0.225759266313E-03 -0.658141977848E-04  0.753718134712E-04
 -0.161982607113E-04 -0.469540527404E-05 -0.301949963636E-03 -0.948194070560E-03  0.112859114676E-03  0.193306561029E-05  0.191682136740E-04
  0.195156867079E-04  0.380355428122E-04 -0.101121665363E-03  0.122624858477E-03 -0.129474219927E-03 -0.496246223703E-04  0.153966060425E-04
 -0.621699381585E-04 -0.265038774754E-04 -0.110629033412E-04  0.530432445146E-05
 -0.141598267515E-02 -0.120913473684E-02 -0.161289451804E-02  0.742631578001E-04  0.148001218499E-02  0.172426261565E-02 -0.973031206481E-03
 -0.968239405550E-03  0.119252946729E-02  0.159913870021E-02  0.308842007702E-02  0.170716467423E-02  0.358768134115E-02  0.153900507443E-02
  0.115396007689E-02  0.133153163958E-02 -0.762786827609E-03  0.921633656326E-03  0.202572297565E-02  0.498054954955E-03  0.109803845451E-02
  0.133370226143E-02  0.252551890429E-02  0.167734204416E-02  0.480529650051E-03  0.126414097584E-02  0.123996135992E-02  0.455896379474E-03
  0.547702226925E-03  0.193239805534E-02  0.127821565211E-02  0.533877193822E-03
 -0.459057689546E-02 -0.116153925277E-01 -0.661383809060E-02 -0.189131415866E-01 -0.104507298478E-02 -0.259650084792E-01  0.445054760928E-03
  0.104414977801E-02 -0.277096385823E-01  0.892243524983E-03 -0.165721513408E-02  0.286311048798E-02 -0.223359010686E-02  0.155543556024E-02
  0.389363825475E-02  0.378773254914E-02 -0.139868021997E-02 -0.204075338542E-01  0.206969814368E-02  0.152502365285E-01  0.528262346713E-02
  0.355419815792E-02 -0.153733352023E-02  0.188677100677E-02  0.158344260421E-01 -0.133832704783E-01  0.281662523011E-02  0.176233231238E-01
  0.155964743253E-01  0.151845156182E-02  0.322082148718E-02  0.146216601852E-01
        12        19        11        11
        11         5        12        12
        10        14         5         5
        19        13        11        11
        19        24        13        13
        30        23        24        24
        19        12        22        22
        28        22        21        21
        11        13         6         6
         7         6         9         9
        15        12        14        14
        18        13        23        23
        15        25        21        21
        27        19        22        22
        18         8         9         9
        27        31        24        24
         4        11         6         6
         5        14        12        12
         4         2         5         5
        21        12        15        15
        14        16        15        15
        24        19        27        27
        22        29        27        27
        23        26        18        18
        17         8        18        18
         5        11         4         4
         6         3         4         4
        26        23        30        30
         5         2        10        10
        16        14        10        10
         3         6         7         7
        21        25        28        28
        29        22        28        28
         6        13         9         9
         2         4         1         1
        31        27        32        32
        25        15        20        20
        24        23        13        13
         8         7         9         9
        13        18         9         9
        31        30        24        24
        12        21        22        22
        29        32        27        27
         3         1         4         4
        26        17        18        18
        16        20        15        15
zone t="boundary 2 bc-2", solutiontime= 0.4000000E+02, strandid=1002, i=33, j=48, f=feblock
  0.500000000000E+01  0.375000000000E+01  0.250000000000E+01  0.288078410721E+01  0.125000000000E+01  0.190974100652E+01  0.326683758169E+01
  0.201431602454E+01  0.000000000000E+00  0.963108083381E+00  0.500000000000E+01  0.403552511878E+01  0.423153924130E+01  0.500000000000E+01
  0.385533350601E+01  0.500000000000E+01  0.398173246726E+01  0.315249557942E+01  0.267000324704E+01  0.154774304040E+01  0.218329375016E+01
  0.893127759452E+00  0.000000000000E+00  0.698517061619E+00  0.964171764089E+00  0.310324758057E+01  0.000000000000E+00  0.000000000000E+00
  0.125000000000E+01  0.500000000000E+01  0.375000000000E+01  0.250000000000E+01  0.000000000000E+00
 -0.250000000000E+01 -0.250000000000E+01 -0.250000000000E+01 -0.250000000000E+01 -0.250000000000E+01 -0.250000000000E+01 -0.250000000000E+01
 -0.250000000000E+01 -0.250000000000E+01 -0.250000000000E+01 -0.250000000000E+01 -0.250000000000E+01 -0.250000000000E+01 -0.250000000000E+01
 -0.250000000000E+01 -0.250000000000E+01 -0.250000000000E+01 -0.250000000000E+01 -0.250000000000E+01 -0.250000000000E+01 -0.250000000000E+01
 -0.250000000000E+01 -0.250000000000E+01 -0.250000000000E+01 -0.250000000000E+01 -0.250000000000E+01 -0.250000000000E+01 -0.250000000000E+01
 -0.250000000000E+01 -0.250000000000E+01 -0.250000000000E+01 -0.250000000000E+01 -0.250000000000E+01
  0.000000000000E+00  0.000000000000E+00  0.000000000000E+00  0.904659890645E+00  0.000000000000E+00  0.717002441913E+00  0.188609243358E+01
  0.176246431481E+01  0.000000000000E+00  0.961328577125E+00  0.125000000000E+01  0.101201586758E+01  0.191586535653E+01  0.250000000000E+01
  0.293121848150E+01  0.375000000000E+01  0.406975391361E+01  0.363585050272E+01  0.285047954584E+01  0.292817774674E+01  0.395907379566E+01
  0.205246550326E+01  0.125000000000E+01  0.306828197606E+01  0.397245519226E+01  0.433168271247E+01  0.250000000000E+01  0.375000000000E+01
  0.500000000000E+01  0.500000000000E+01  0.500000000000E+01  0.500000000000E+01  0.500000000000E+01
  0.000000000000E+00  0.000000000000E+00  0.000000000000E+00  0.380991725517E+00  0.000000000000E+00  0.343629902501E+00  0.585285997937E+00
  0.579373345328E+00  0.000000000000E+00  0.501056496643E+00  0.508459636492E+00  0.435372376081E+00  0.572639779008E+00  0.537002216251E+00
  0.568922577244E+00  0.514994217086E+00  0.508247269503E+00  0.527252854700E+00  0.567446690172E+00  0.531657148367E+00  0.505980959997E+00
  0.520795550505E+00  0.443624008640E+00  0.490663634162E+00  0.492155782275E+00  0.501390726941E+00  0.467732142372E+00  0.488211983969E+00
  0.490002657454E+00  0.491352292040E+00  0.486075382695E+00  0.490036359612E+00  0.495098202848E+00
  0.999991230154E+00  0.999991175015E+00  0.999991158230E+00  0.989538312558E+00  0.999991226060E+00  0.985523838840E+00  0.989838990644E+00
  0.991798508740E+00  0.999991292264E+00  0.984410634783E+00  0.985091722602E+00  0.984688434231E+00  0.990058507586E+00  0.100289631571E+01
  0.999855498398E+00  0.100485312288E+01  0.100121556152E+01  0.100055647294E+01  0.997896876980E+00  0.100350037625E+01  0.100058071455E+01
  0.101093288315E+01  0.104043315620E+01  0.100326477647E+01  0.100254501777E+01  0.100045589682E+01  0.100976794917E+01  0.100405373396E+01
  0.100192659785E+01  0.100045434331E+01  0.100058775919E+01  0.100109996600E+01  0.100176114782E+01
 -0.304367225613E-02 -0.225969210543E-02 -0.129475104653E-02  0.326042412865E-01  0.326881406483E-02  0.101961802865E+00 -0.594358396353E-02
  0.227198792052E-02  0.400487252204E-02  0.474001857783E-01 -0.762354582924E-02 -0.921448800762E-02 -0.587220127072E-02 -0.503577775509E-02
 -0.364306817434E-02 -0.330545011605E-02 -0.243182449736E-02 -0.282538175453E-02 -0.491589947403E-02 -0.615052485714E-02 -0.365590081375E-02
  0.235360378638E-02  0.329002826078E-01 -0.408255778816E-02 -0.686159003999E-02 -0.439085028968E-02 -0.415663356147E-02 -0.807933909228E-02
 -0.317563434589E-01 -0.384025548218E-02 -0.145987658095E-01 -0.279516575389E-01 -0.352252769844E-01
  0.825419594778E-03 -0.250589722685E-03  0.297364444453E-04  0.552376767511E-02 -0.543632695614E-03  0.126987879174E-01 -0.160647616187E-03
 -0.439333941687E-03  0.379934087495E-03  0.564924761491E-02  0.173848448699E-02 -0.437372190144E-04  0.830202442677E-03  0.128461549618E-02
  0.808876964108E-03  0.774834884031E-03  0.911588479136E-03  0.735209634741E-03  0.176993958952E-03 -0.635841683266E-03  0.305678684274E-03
 -0.390074021541E-03  0.417883851249E-02 -0.320162871561E-03 -0.809451068218E-03  0.432636087851E-03 -0.103435176273E-02 -0.170892637371E-02
 -0.572833679432E-02  0.189809810883E-03 -0.147367169819E-02 -0.436459136211E-02 -0.732907541008E-02
 -0.202375320999E-03  0.518524889898E-04  0.311669787247E-03  0.752984429399E-03  0.162283029465E-03  0.124433762749E-02 -0.977068477753E-04
  0.161805195827E-04 -0.301949963636E-03  0.459284338010E-03 -0.111253216640E-03 -0.357371532266E-03  0.850192266835E-05  0.928080156511E-05
  0.984821724675E-05 -0.160782874480E-04  0.180121777017E-05 -0.986629834999E-05  0.217396903959E-04  0.393400049805E-04 -0.200063028185E-04
  0.392457802028E-04 -0.129474219927E-03  0.687877199880E-05 -0.413808694000E-05 -0.756102319573E-05 -0.265038774754E-04 -0.110629033412E-04
 -0.429140989598E-05 -0.326131540041E-05 -0.188017814441E-08  0.207780615799E-05  0.530432445146E-05
 -0.226311893079E-03 -0.264348891084E-03 -0.404235609025E-03  0.130460988314E-02 -0.911016999406E-03  0.218877376979E-03  0.199153733604E-02
  0.257145910147E-02 -0.762786827609E-03  0.120261228360E-02  0.406709731252E-03  0.147240247728E-02  0.789641466059E-03  0.338867761465E-03
  0.761733092819E-03  0.268407660363E-03  0.706670014824E-03  0.100199327811E-02  0.123455206712E-02  0.124198900195E-02  0.114326228694E-02
  0.196932021717E-02  0.126414097584E-02  0.131233354586E-02  0.113625590756E-02  0.988578798092E-03  0.193239805534E-02  0.127821565211E-02
  0.755636383547E-03  0.408620154561E-03  0.883304944902E-03  0.953107780238E-03  0.533877193822E-03
  0.852309807360E-03  0.256567547241E-02  0.444723104930E-02 -0.147030784445E-01  0.500194066617E-02 -0.435672820227E-01  0.182472384912E-02
 -0.962450061610E-03 -0.139868021997E-02 -0.195712762626E-01  0.164416216996E-02  0.286899660477E-02  0.145505687067E-02  0.967551348842E-03
  0.724289489879E-03  0.668787629002E-03  0.340428090404E-03  0.530325330177E-03  0.140297646498E-02  0.215263417496E-02  0.987734214432E-03
 -0.990292292293E-03 -0.133832704783E-01  0.134611933100E-02  0.251546486528E-02  0.120537051844E-02  0.151845156182E-02  0.322082148718E-02
  0.129072393502E-01  0.116204489759E-02  0.548046681721E-02  0.111193460176E-01  0.146216601852E-01
        15         7        19        19
         8        20        19        19
        18        19        21        21
         7         4         8         8
         3         6         4         4
        19         7         8         8
        19        18        15        15
        14        13        15        15
         8        22        20        20
        27        24        22        22
        19        20        21        21
        32        26        21        21
        17        18        26        26
        17        16        15        15
        25        29        21        21
        12         7        13        13
        10         8         6         6
        25        20        24        24
         4         6         8         8
        12         2         4         4
        10        23        22        22
        26        31        17        17
        30        16        17        17
         4         7        12        12
        13        11        12        12
        21        20        25        25
        24        28        25        25
        22         8        10        10
         6         5        10        10
        31        26        32        32
         4         2         3         3
         5         6         3         3
        11        13        14        14
        22        23        27        27
        28        24        27        27
        15        13         7         7
         2        12         1         1
        29        25        33        33
        23        10         9         9
        21        26        18        18
        16        14        15        15
        18        17        15        15
        29        32        21        21
        22        24        20        20
        28        33        25        25
        11         1        12        12
        31        30        17        17
         5         9        10        10
zone t="boundary 3 bc-3", solutiontime= 0.4000000E+02, strandid=1003, i=33, j=48, f=feblock
  0.375000000000E+01  0.250000000000E+01  0.500000000000E+01  0.403552511878E+01  0.288078410721E+01  0.125000000000E+01  0.190974100652E+01
  0.500000000000E+01  0.326683758169E+01  0.423153924130E+01  0.201431602454E+01  0.000000000000E+00  0.963108083381E+00  0.500000000000E+01
  0.267000324704E+01  0.385533350601E+01  0.893127759452E+00  0.154774304040E+01  0.000000000000E+00  0.500000000000E+01  0.315249557942E+01
  0.218329375016E+01  0.398173246726E+01  0.000000000000E+00  0.698517061619E+00  0.964171764089E+00  0.125000000000E+01  0.000000000000E+00
  0.500000000000E+01  0.310324758057E+01  0.250000000000E+01  0.375000000000E+01  0.000000000000E+00
  0.250000000000E+01  0.250000000000E+01  0.250000000000E+01  0.250000000000E+01  0.250000000000E+01  0.250000000000E+01  0.250000000000E+01
  0.250000000000E+01  0.250000000000E+01  0.250000000000E+01  0.250000000000E+01  0.250000000000E+01  0.250000000000E+01  0.250000000000E+01
  0.250000000000E+01  0.250000000000E+01  0.250000000000E+01  0.250000000000E+01  0.250000000000E+01  0.250000000000E+01  0.250000000000E+01
  0.250000000000E+01  0.250000000000E+01  0.250000000000E+01  0.250000000000E+01  0.250000000000E+01  0.250000000000E+01  0.250000000000E+01
  0.250000000000E+01  0.250000000000E+01  0.250000000000E+01  0.250000000000E+01  0.250000000000E+01
  0.000000000000E+00  0.000000000000E+00  0.000000000000E+00  0.101201586758E+01  0.904659890645E+00  0.000000000000E+00  0.717002441913E+00
  0.125000000000E+01  0.188609243358E+01  0.191586535653E+01  0.176246431481E+01  0.000000000000E+00  0.961328577125E+00  0.250000000000E+01
  0.285047954584E+01  0.293121848150E+01  0.205246550326E+01  0.292817774674E+01  0.125000000000E+01  0.375000000000E+01  0.363585050272E+01
  0.395907379566E+01  0.406975391361E+01  0.250000000000E+01  0.306828197606E+01  0.397245519226E+01  0.500000000000E+01  0.375000000000E+01
  0.500000000000E+01  0.433168271247E+01  0.500000000000E+01  0.500000000000E+01  0.500000000000E+01
  0.000000000000E+00  0.000000000000E+00  0.000000000000E+00  0.443767851971E+00  0.402286937187E+00  0.000000000000E+00  0.377550347167E+00
  0.509232303765E+00  0.575832200483E+00  0.573707467431E+00  0.562554066051E+00  0.000000000000E+00  0.490563275283E+00  0.534527160060E+00
  0.556586972364E+00  0.564391596022E+00  0.522730462526E+00  0.522051957840E+00  0.441238238418E+00  0.517182364794E+00  0.524228611468E+00
  0.503687398987E+00  0.509488557597E+00  0.469814866974E+00  0.495614370334E+00  0.494483710979E+00  0.488562341139E+00  0.488961578622E+00
  0.492980742035E+00  0.499005498570E+00  0.486460842266E+00  0.484596857761E+00  0.495346539859E+00
  0.999990271160E+00  0.999990226304E+00  0.999990396196E+00  0.981542103217E+00  0.988774189663E+00  0.999990284241E+00  0.982469591301E+00
  0.984104381171E+00  0.990427577672E+00  0.990355317210E+00  0.994363027919E+00  0.999990418744E+00  0.988652137107E+00  0.100368372122E+01
  0.999769224643E+00  0.100118503172E+01  0.100834889321E+01  0.100252113520E+01  0.102982723097E+01  0.100443321097E+01  0.100199539020E+01
  0.100082058839E+01  0.100138193870E+01  0.100826280896E+01  0.100298790017E+01  0.100192392083E+01  0.100215269912E+01  0.100355662856E+01
  0.100047670699E+01  0.100056592873E+01  0.100126822740E+01  0.100066575135E+01  0.100179337938E+01
 -0.181223670204E-02  0.101408416616E-02 -0.283643993821E-02  0.136343227118E-01  0.553231287735E-01  0.352097552444E-02  0.558211083679E-01
 -0.972324687579E-02 -0.519066927171E-02 -0.629105654049E-02  0.846650363838E-02  0.570919192421E-02  0.377546800612E-01 -0.484434174409E-02
 -0.539020168408E-02 -0.403625692566E-02  0.122843718828E-03 -0.518963970339E-02  0.281429912751E-01 -0.334962907303E-02 -0.248024996958E-02
 -0.331451277778E-02 -0.256770883748E-02 -0.224068571283E-02 -0.450725501722E-02 -0.879078088303E-02 -0.276133485805E-01 -0.941667583258E-02
 -0.319928910774E-02 -0.394415931928E-02 -0.257919981912E-01 -0.139620525064E-01 -0.367327281295E-01
 -0.376317726903E-03 -0.380412885264E-03  0.704040968091E-03  0.406011117905E-02  0.759339000865E-02 -0.787202429228E-03  0.676609611387E-02
  0.162985890833E-02  0.180773734336E-04  0.899104999819E-03  0.185431008657E-04  0.193118340902E-03  0.259270219993E-02  0.126882018151E-02
  0.243694925851E-04  0.694086135096E-03 -0.127228942304E-02 -0.476667030375E-03  0.400303323452E-02  0.822901696233E-03  0.736133950776E-03
  0.411694041390E-03  0.846860554103E-03 -0.901811416568E-03 -0.100772945229E-02 -0.110489143873E-02 -0.489211398053E-02 -0.207490227681E-02
  0.293435898263E-03  0.476005359019E-03 -0.398328588708E-02 -0.137988708378E-02 -0.755109318480E-02
 -0.675424665322E-04  0.262771122419E-04  0.961347370335E-04 -0.239687891989E-03 -0.757535069191E-03  0.315197255552E-03 -0.598517447066E-05
  0.441914154508E-05 -0.872889137837E-04  0.187507460455E-04 -0.730057713525E-04  0.358564519303E-03  0.443540899775E-03  0.350490435753E-04
 -0.484365561504E-06  0.804903235214E-05 -0.149049017884E-03 -0.572667271181E-04  0.120909381949E-03  0.194508454522E-04  0.761814758294E-05
  0.439465805220E-04  0.157367684477E-05 -0.129070884433E-04 -0.370456514544E-04  0.128369158730E-04  0.165195778708E-04 -0.469540527404E-05
  0.680188330354E-05  0.112926730210E-06  0.397355544745E-05 -0.102685228708E-05  0.193306561029E-05
 -0.425566961789E-03 -0.805560090642E-03 -0.248309787903E-03  0.580418066287E-03  0.993338397012E-03 -0.807243671078E-03  0.353668876262E-03
  0.330339856393E-03  0.182724060329E-02  0.893723261446E-03  0.268224352000E-02 -0.141598267515E-02  0.886175161582E-03  0.369809284308E-03
  0.101224177219E-02  0.832525648080E-03  0.230940914955E-02  0.109311745824E-02 -0.120913473684E-02  0.341384675384E-03  0.984989186545E-03
  0.103985033638E-02  0.747098132573E-03  0.159913870021E-02  0.154465158133E-02  0.107020947235E-02  0.784930723589E-03  0.133153163958E-02
  0.375243109767E-03  0.976343888258E-03  0.950213954888E-03  0.864288399257E-03  0.498054954955E-03
  0.652257495648E-02  0.288584253205E-02  0.130934072119E-02 -0.727545276855E-02 -0.240395233949E-01  0.286703331879E-03 -0.234790339780E-01
  0.245136176650E-02  0.156275775086E-02  0.160368291457E-02 -0.333482102595E-02 -0.459057689546E-02 -0.148452224071E-01  0.911802875012E-03
  0.165454405011E-02  0.907784281838E-03  0.474119093220E-04  0.176143396042E-02 -0.116153925277E-01  0.656566161961E-03  0.405961169230E-03
  0.839067346627E-03  0.414227535558E-03  0.892243524983E-03  0.162818215094E-02  0.330141545790E-02  0.111613647010E-01  0.378773254914E-02
  0.905601751229E-03  0.103811039569E-02  0.102299971794E-01  0.522432086940E-02  0.152502365285E-01
        15         9        16        16
        15        18        11        11
        22        15        21        21
        11         5         9         9
         5         7         2         2
        11         9        15        15
        16        21        15        15
        16        10        14        14
        18        17        11        11
        17        25        24        24
        22        18        15        15
        22        30        31        31
        30        21        23        23
        16        20        23        23
        22        27        26        26
        10         9         4         4
         7        11        13        13
        25        18        26        26
        11         7         5         5
         5         1         4         4
        17        19        13        13
        23        32        30        30
        23        20        29        29
         4         9         5         5
         4         8        10        10
        26        18        22        22
        26        28        25        25
        13        11        17        17
        13         6         7         7
        31        30        32        32
         2         1         5         5
         2         7         6         6
        14        10         8         8
        24        19        17        17
        24        25        28        28
         9        10        16        16
         3         4         1         1
        33        26        27        27
        12        13        19        19
        21        30        22        22
        16        14        20        20
        16        23        21        21
        22        31        27        27
        18        25        17        17
        26        33        28        28
         4         3         8         8
        23        29        32        32
        13        12         6         6
zone t="boundary 4 bc-4", solutiontime= 0.4000000E+02, strandid=1004, i=32, j=46, f=feblock
  0.125000000000E+01  0.219251206392E+01  0.103724302461E+01  0.500000000000E+01  0.250000000000E+01  0.375000000000E+01  0.404200324774E+01
  0.500000000000E+01  0.000000000000E+00  0.310152362409E+01  0.202479342020E+01  0.324151231464E+01  0.922061490191E+00  0.000000000000E+00
  0.299062775774E+01  0.394624082883E+01  0.500000000000E+01  0.409252726285E+01  0.500000000000E+01  0.429310310915E+01  0.175434191980E+01
  0.284428995242E+01  0.000000000000E+00  0.000000000000E+00  0.715990576545E+00  0.930412228790E+00  0.125000000000E+01  0.187029682677E+01
  0.500000000000E+01  0.375000000000E+01  0.250000000000E+01  0.000000000000E+00
  0.250000000000E+01  0.157686156160E+01  0.146289271009E+01  0.250000000000E+01  0.250000000000E+01  0.250000000000E+01  0.155830813274E+01
  0.125000000000E+01  0.250000000000E+01  0.177790177481E+01  0.477386199275E+00  0.742988685424E+00  0.308372018325E+00  0.125000000000E+01
 -0.487811078581E+00 -0.144524380962E+01 -0.125000000000E+01 -0.345533899378E+00  0.000000000000E+00  0.627766083140E+00 -0.739814786992E+00
 -0.158811787973E+01  0.000000000000E+00 -0.125000000000E+01 -0.600232012419E+00 -0.154800130438E+01 -0.250000000000E+01 -0.178862290564E+01
 -0.250000000000E+01 -0.250000000000E+01 -0.250000000000E+01 -0.250000000000E+01
  0.500000000000E+01  0.500000000000E+01  0.500000000000E+01  0.500000000000E+01  0.500000000000E+01  0.500000000000E+01  0.500000000000E+01
  0.500000000000E+01  0.500000000000E+01  0.500000000000E+01  0.500000000000E+01  0.500000000000E+01  0.500000000000E+01  0.500000000000E+01
  0.500000000000E+01  0.500000000000E+01  0.500000000000E+01  0.500000000000E+01  0.500000000000E+01  0.500000000000E+01  0.500000000000E+01
  0.500000000000E+01  0.500000000000E+01  0.500000000000E+01  0.500000000000E+01  0.500000000000E+01  0.500000000000E+01  0.500000000000E+01
  0.500000000000E+01  0.500000000000E+01  0.500000000000E+01  0.500000000000E+01
  0.488562341139E+00  0.488873032190E+00  0.490562859008E+00  0.492980742035E+00  0.486460842266E+00  0.484596857761E+00  0.485347839168E+00
  0.494163546244E+00  0.495346539859E+00  0.486528146737E+00  0.487819888657E+00  0.487068824666E+00  0.494045825543E+00  0.496127345644E+00
  0.487612248631E+00  0.483219641417E+00  0.492395524030E+00  0.487214085145E+00  0.494738995157E+00  0.487958482370E+00  0.489677130929E+00
  0.488028988723E+00  0.497246230722E+00  0.496059214486E+00  0.494950977562E+00  0.492800285634E+00  0.490002657454E+00  0.490005003498E+00
  0.491352292040E+00  0.486075382695E+00  0.490036359612E+00  0.495098202848E+00
  0.100215269912E+01  0.100152655428E+01  0.100178349846E+01  0.100047670699E+01  0.100126822740E+01  0.100066575135E+01  0.100025358887E+01
  0.100050392281E+01  0.100179337938E+01  0.100112369427E+01  0.100133047555E+01  0.100072434606E+01  0.100164369001E+01  0.100168846499E+01
  0.100096276497E+01  0.100000874944E+01  0.100082864588E+01  0.100022269848E+01  0.100062146520E+01  0.100023497975E+01  0.100174638491E+01
  0.100098857876E+01  0.100118728691E+01  0.100134173037E+01  0.100132638128E+01  0.100179876461E+01  0.100192659785E+01  0.100163751619E+01
  0.100045434331E+01  0.100058775919E+01  0.100109996600E+01  0.100176114782E+01
 -0.276133485805E-01 -0.268266849650E-01 -0.276056128200E-01 -0.319928910774E-02 -0.257919981912E-01 -0.139620525064E-01 -0.972220807454E-02
 -0.319075097402E-02 -0.367327281295E-01 -0.214299250739E-01 -0.290130187117E-01 -0.202873546280E-01 -0.338603172960E-01 -0.380737930464E-01
 -0.230514416571E-01 -0.957666852144E-02 -0.372019845362E-02 -0.121013072506E-01 -0.300730601552E-02 -0.119872773074E-01 -0.359650537716E-01
 -0.218280960289E-01 -0.422509647642E-01 -0.374773669547E-01 -0.393509863316E-01 -0.316536533893E-01 -0.317563434589E-01 -0.335885400488E-01
 -0.384025548218E-02 -0.145987658095E-01 -0.279516575389E-01 -0.352252769844E-01