# vtk DataFile Version 2.0
FUN3D:global_image_vtk
ASCII
DATASET UNSTRUCTURED_GRID
POINTS 213 double
    0.0000000000000000E+00    0.2500000000000000E+01    0.0000000000000000E+00
    0.1250000000000000E+01    0.2500000000000000E+01    0.0000000000000000E+00
    0.2500000000000000E+01    0.2500000000000000E+01    0.0000000000000000E+00
    0.3750000000000000E+01    0.2500000000000000E+01    0.0000000000000000E+00
    0.5000000000000000E+01    0.2500000000000000E+01    0.0000000000000000E+00
    0.5000000000000000E+01    0.1250000000000000E+01    0.0000000000000000E+00
    0.5000000000000000E+01    0.0000000000000000E+00    0.0000000000000000E+00
    0.5000000000000000E+01   -0.1250000000000000E+01    0.0000000000000000E+00
    0.5000000000000000E+01   -0.2500000000000000E+01    0.0000000000000000E+00
    0.3750000000000000E+01   -0.2500000000000000E+01    0.0000000000000000E+00
    0.2500000000000000E+01   -0.2500000000000000E+01    0.0000000000000000E+00
    0.1250000000000000E+01   -0.2500000000000000E+01    0.0000000000000000E+00
    0.0000000000000000E+00   -0.2500000000000000E+01    0.0000000000000000E+00
    0.0000000000000000E+00   -0.1250000000000000E+01    0.0000000000000000E+00
    0.0000000000000000E+00    0.0000000000000000E+00    0.0000000000000000E+00
    0.0000000000000000E+00    0.1250000000000000E+01    0.0000000000000000E+00
    0.9058375365086910E+00    0.1578994732800803E+01    0.0000000000000000E+00
    0.3982050490726493E+01   -0.1583989954232354E+01    0.0000000000000000E+00
    0.4033849428301197E+01    0.1453322699199022E+01    0.0000000000000000E+00
    0.1040505887381675E+01   -0.1479596339503735E+01    0.0000000000000000E+00
    0.1099454400140349E+01   -0.3227322616384110E+00    0.0000000000000000E+00
    0.7354504170366591E+00    0.6593508822075582E+00    0.0000000000000000E+00
    0.1622302608453282E+01    0.8256214013940779E+00    0.0000000000000000E+00
    0.2145871574390382E+01   -0.1650070333782557E+01    0.0000000000000000E+00
    0.4086422318222992E+01   -0.4612828702537229E+00    0.0000000000000000E+00
    0.2979540174134984E+01   -0.8579242121530853E+00    0.0000000000000000E+00
    0.3045064261640043E+01   -0.1836846154397680E+01    0.0000000000000000E+00
    0.3428197553792836E+01    0.3508002863614053E+00    0.0000000000000000E+00
    0.4309693860063405E+01    0.5185680230613409E+00    0.0000000000000000E+00
    0.1827272193562204E+01    0.1738996113203182E+01    0.0000000000000000E+00
    0.2808563282768077E+01    0.1325493893339706E+01    0.0000000000000000E+00
    0.1895995683864404E+01   -0.8731419609589618E+00    0.0000000000000000E+00
    0.2273179336307740E+01    0.4906150219227333E-01    0.0000000000000000E+00
    0.5000000000000000E+01    0.2500000000000000E+01    0.1250000000000000E+01
    0.5000000000000000E+01    0.2500000000000000E+01    0.2500000000000000E+01
    0.5000000000000000E+01    0.2500000000000000E+01    0.3750000000000000E+01
    0.5000000000000000E+01    0.2500000000000000E+01    0.5000000000000000E+01
    0.3750000000000000E+01    0.2500000000000000E+01    0.5000000000000000E+01
    0.2500000000000000E+01    0.2500000000000000E+01    0.5000000000000000E+01
    0.1250000000000000E+01    0.2500000000000000E+01    0.5000000000000000E+01
    0.0000000000000000E+00    0.2500000000000000E+01    0.5000000000000000E+01
    0.0000000000000000E+00    0.2500000000000000E+01    0.3750000000000000E+01
    0.0000000000000000E+00    0.2500000000000000E+01    0.2500000000000000E+01
    0.0000000000000000E+00    0.2500000000000000E+01    0.1250000000000000E+01
    0.9631080833812172E+00    0.2500000000000000E+01    0.9613285771248219E+00
    0.3981732467264904E+01    0.2500000000000000E+01    0.4069753913607991E+01
    0.4035525118777670E+01    0.2500000000000000E+01    0.1012015867579395E+01
    0.9641717640894248E+00    0.2500000000000000E+01    0.3972455192261839E+01
    0.1547743040396780E+01    0.2500000000000000E+01    0.2928177746738678E+01
    0.6985170616192014E+00    0.2500000000000000E+01    0.3068281976055466E+01
    0.8931277594515110E+00    0.2500000000000000E+01    0.2052465503257726E+01
    0.2183293750162785E+01    0.2500000000000000E+01    0.3959073795658649E+01
    0.3855333506014705E+01    0.2500000000000000E+01    0.2931218481500625E+01
    0.3152495579421047E+01    0.2500000000000000E+01    0.3635850502723324E+01
    0.3103247580566054E+01    0.2500000000000000E+01    0.4331682712472464E+01
    0.3266837581688852E+01    0.2500000000000000E+01    0.1886092433583972E+01
    0.4231539241296245E+01    0.2500000000000000E+01    0.1915865356532799E+01
    0.1909741006522088E+01    0.2500000000000000E+01    0.7170024419130505E+00
    0.2880784107213163E+01    0.2500000000000000E+01    0.9046598906449592E+00
    0.2014316024535771E+01    0.2500000000000000E+01    0.1762464314805728E+01
    0.2670003247036656E+01    0.2500000000000000E+01    0.2850479545835163E+01
    0.5000000000000000E+01    0.1250000000000000E+01    0.5000000000000000E+01
    0.5000000000000000E+01    0.0000000000000000E+00    0.5000000000000000E+01
    0.5000000000000000E+01   -0.1250000000000000E+01    0.5000000000000000E+01
    0.5000000000000000E+01   -0.2500000000000000E+01    0.5000000000000000E+01
    0.5000000000000000E+01   -0.2500000000000000E+01    0.3750000000000000E+01
    0.5000000000000000E+01   -0.2500000000000000E+01    0.2500000000000000E+01
    0.5000000000000000E+01   -0.2500000000000000E+01    0.1250000000000000E+01
    0.5000000000000000E+01    0.1578994732800803E+01    0.9058375365086910E+00
    0.5000000000000000E+01   -0.1583989954232354E+01    0.3982050490726493E+01
    0.5000000000000000E+01    0.1453322699199022E+01    0.4033849428301197E+01
    0.5000000000000000E+01   -0.1479596339503735E+01    0.1040505887381675E+01
    0.5000000000000000E+01   -0.3227322616384110E+00    0.1099454400140349E+01
    0.5000000000000000E+01    0.6593508822075582E+00    0.7354504170366591E+00
    0.5000000000000000E+01    0.8256214013940779E+00    0.1622302608453282E+01
    0.5000000000000000E+01   -0.1650070333782557E+01    0.2145871574390382E+01
    0.5000000000000000E+01   -0.4612828702537229E+00    0.4086422318222992E+01
    0.5000000000000000E+01   -0.8579242121530853E+00    0.2979540174134984E+01
    0.5000000000000000E+01   -0.1836846154397680E+01    0.3045064261640043E+01
    0.5000000000000000E+01    0.3508002863614053E+00    0.3428197553792836E+01
    0.5000000000000000E+01    0.5185680230613409E+00    0.4309693860063405E+01
    0.5000000000000000E+01    0.1738996113203182E+01    0.1827272193562204E+01
    0.5000000000000000E+01    0.1325493893339706E+01    0.2808563282768077E+01
    0.5000000000000000E+01   -0.8731419609589618E+00    0.1895995683864404E+01
    0.5000000000000000E+01    0.4906150219227333E-01    0.2273179336307740E+01
    0.0000000000000000E+00    0.1250000000000000E+01    0.5000000000000000E+01
    0.0000000000000000E+00    0.0000000000000000E+00    0.5000000000000000E+01
    0.0000000000000000E+00   -0.1250000000000000E+01    0.5000000000000000E+01
    0.0000000000000000E+00   -0.2500000000000000E+01    0.5000000000000000E+01
    0.1250000000000000E+01   -0.2500000000000000E+01    0.5000000000000000E+01
    0.2500000000000000E+01   -0.2500000000000000E+01    0.5000000000000000E+01
    0.3750000000000000E+01   -0.2500000000000000E+01    0.5000000000000000E+01
    0.4042003247744892E+01    0.1558308132739014E+01    0.5000000000000000E+01
    0.9304122287900499E+00   -0.1548001304379777E+01    0.5000000000000000E+01
    0.1037243024609388E+01    0.1462892710085612E+01    0.5000000000000000E+01
    0.3946240828834967E+01   -0.1445243809615570E+01    0.5000000000000000E+01
    0.4092527262848217E+01   -0.3455338993778935E+00    0.5000000000000000E+01
    0.4293103109154542E+01    0.6277660831404320E+00    0.5000000000000000E+01
    0.3241512314643519E+01    0.7429886854239611E+00    0.5000000000000000E+01
    0.2844289952419609E+01   -0.1588117879734118E+01    0.5000000000000000E+01
    0.7159905765450471E+00   -0.6002320124191652E+00    0.5000000000000000E+01
    0.1754341919796891E+01   -0.7398147869923652E+00    0.5000000000000000E+01
    0.1870296826774691E+01   -0.1788622905643739E+01    0.5000000000000000E+01
    0.9220614901912976E+00    0.3083720183248586E+00    0.5000000000000000E+01
    0.3101523624086016E+01    0.1777901774806180E+01    0.5000000000000000E+01
    0.2192512063922564E+01    0.1576861561598471E+01    0.5000000000000000E+01
    0.2024793420196460E+01    0.4773861992750707E+00    0.5000000000000000E+01
    0.2990627757741975E+01   -0.4878110785814084E+00    0.5000000000000000E+01
    0.0000000000000000E+00   -0.2500000000000000E+01    0.1250000000000000E+01
    0.0000000000000000E+00   -0.2500000000000000E+01    0.2500000000000000E+01
    0.0000000000000000E+00   -0.2500000000000000E+01    0.3750000000000000E+01
    0.0000000000000000E+00    0.1558308132739014E+01    0.4042003247744892E+01
    0.0000000000000000E+00   -0.1548001304379777E+01    0.9304122287900499E+00
    0.0000000000000000E+00    0.1462892710085612E+01    0.1037243024609388E+01
    0.0000000000000000E+00   -0.1445243809615570E+01    0.3946240828834967E+01
    0.0000000000000000E+00   -0.3455338993778935E+00    0.4092527262848217E+01
    0.0000000000000000E+00    0.6277660831404320E+00    0.4293103109154542E+01
    0.0000000000000000E+00    0.7429886854239611E+00    0.3241512314643519E+01
    0.0000000000000000E+00   -0.1588117879734118E+01    0.2844289952419609E+01
    0.0000000000000000E+00   -0.6002320124191652E+00    0.7159905765450471E+00
    0.0000000000000000E+00   -0.7398147869923652E+00    0.1754341919796891E+01
    0.0000000000000000E+00   -0.1788622905643739E+01    0.1870296826774691E+01
    0.0000000000000000E+00    0.3083720183248586E+00    0.9220614901912976E+00
    0.0000000000000000E+00    0.1777901774806180E+01    0.3101523624086016E+01
    0.0000000000000000E+00    0.1576861561598471E+01    0.2192512063922564E+01
[...]
POINT_DATA 213
SCALARS p double 1
LOOKUP_TABLE default
   0.9601845740242915E+00
   0.6835472545549689E+00
   0.6759188554620927E+00
   0.6727508793739655E+00
   0.6026583842149567E+00
   0.5527092224082955E+00
   0.5449824281754838E+00
   0.5474659210496544E+00
   0.5934157100107975E+00
   0.6680652534599687E+00
   0.6672971071696970E+00
   0.6869378061643899E+00
   0.1035319215967286E+01
   0.1067199245062659E+01
   0.1174752257522793E+01
   0.1018442051355043E+01
   0.7207176559281999E+00
   0.6791962902771658E+00
   0.6740293101422615E+00
   0.6843920963180611E+00
   0.6725552701194134E+00
   0.7402627338528559E+00
   0.6611481362466355E+00
   0.6658775743608782E+00
   0.6812431870867800E+00
   0.6799071409947727E+00
   0.6677515832890920E+00
   0.6831383896473666E+00
   0.6697150748044688E+00
   0.6643261876019401E+00
   0.6746471020967958E+00
   0.6331027444236651E+00
   0.6731069512870075E+00
   0.6772748606162802E+00
   0.7228666462644194E+00
   0.7222845323625415E+00
   0.7160301817059146E+00
   0.7170624703820877E+00
   0.7181467832706863E+00
   0.7195660953908910E+00
   0.7186152939441585E+00
   0.7227816709939466E+00
   0.7373952390463552E+00
   0.7823405623731294E+00
   0.7197263589587878E+00
   0.7165465362442606E+00
   0.6760937654451550E+00
   0.7194412641922073E+00
   0.7166029227603524E+00
   0.7226829109729208E+00
   0.7260674140055218E+00
   0.7165516437826501E+00
   0.7137009467301535E+00
   0.7161286369456769E+00
   0.7158478221790529E+00
   0.6952018279016884E+00
   0.6962508660105818E+00
   0.6900664825702377E+00
   0.6913089214758145E+00
   0.7033440686571270E+00
   0.7094477591260854E+00
   0.7160833444428988E+00
   0.7162551806526153E+00
   0.7165048971080760E+00
   0.7158927992232403E+00
   0.7247708298256360E+00
   0.7209599624940025E+00
   0.6725916907411349E+00
   0.6451086117578634E+00
   0.7221025485950585E+00
   0.7196942788984769E+00
   0.6358201233144758E+00
   0.6307823994932484E+00
   0.5995171497159713E+00
   0.6915342868693751E+00
   0.7155282297281091E+00
   0.7212040273143444E+00
   0.7290141687002690E+00
   0.7268955521749924E+00
   0.7265266119781936E+00
   0.7204471071515829E+00
   0.7037444564122904E+00
   0.7205074720199912E+00
   0.7023658444745818E+00
   0.7220890692797327E+00
   0.7185311616916564E+00
   0.7171993831116811E+00
   0.7176368709133955E+00
   0.7184006346828106E+00
   0.7193129381151592E+00
   0.7173679395336298E+00
   0.7166089050647668E+00
   0.7163146175236447E+00
   0.7184763665597859E+00
   0.7186510913637337E+00
   0.7154647738099589E+00
   0.7160687958189673E+00
   0.7162707474315869E+00
   0.7172831169120217E+00
   0.7174032352306013E+00
   0.7175449119531957E+00
   0.7186985330957402E+00
   0.7185411569143708E+00
   0.7180782373251587E+00
   0.7177506857918414E+00
   0.7184734753633863E+00
   0.7184295820755334E+00
   0.7175640062876478E+00
   0.7910432358139519E+00
   0.7417997376126974E+00
   0.7240565801837059E+00
   0.7207850483195352E+00
   0.8583171414263455E+00
   0.8087266582475021E+00
   0.7221079498931967E+00
   0.7211515872043760E+00
   0.7210134488484207E+00
   0.7257592115280544E+00
   0.7326284036607799E+00
   0.9166201479000692E+00
   0.7574552511230230E+00
   0.7600187866206121E+00
   0.8794464998696083E+00
   0.7291883438038494E+00
   0.7461258923399058E+00
   0.7435539730040810E+00
   0.7280650735038238E+00
   0.7236946763045443E+00
   0.7165805629880767E+00
   0.6757027343806860E+00
   0.7210107214274356E+00
   0.7177372390181110E+00
   0.7243728499640717E+00
   0.7309376750510241E+00
   0.7153766025235119E+00
   0.7126912818714463E+00
   0.7132989920995974E+00
   0.7154575407853413E+00
   0.6958116454764064E+00
   0.6940931889033154E+00
   0.6792013357825887E+00
   0.6842575724936169E+00
   0.7023438531949951E+00
   0.7064295576215452E+00
   0.7092517272500941E+00
   0.7176150519701981E+00
   0.7173907507179925E+00
   0.7117195298811408E+00
   0.7288325394551388E+00
   0.7352320755135126E+00
   0.7097528667165666E+00
   0.7230454856250467E+00
   0.7189791260722040E+00
   0.7231643012768879E+00
   0.7128301571205700E+00
   0.6918504427565438E+00
   0.7175392719219496E+00
   0.7113154407356354E+00
   0.6973279122825292E+00
   0.7095405084388509E+00
   0.7134566864279498E+00
   0.7078903640366531E+00
   0.7159200129383708E+00
   0.7175571221473848E+00
   0.7166975364325718E+00
   0.7110658755090401E+00
   0.7103507995000856E+00
   0.7187207608836055E+00
   0.7362200277985241E+00
   0.7210421340822680E+00
   0.6966939456336906E+00
   0.7191727736895613E+00
   0.7279738955353875E+00
   0.6957914052748896E+00
   0.6741416330502567E+00
   0.7020822668504346E+00
   0.7006029871232087E+00
   0.6996546969650101E+00
   0.7043407158199237E+00
   0.6875489169299679E+00
   0.7541446164822895E+00
   0.7257239737785647E+00
   0.7163731270744628E+00
   0.7164942518077558E+00
   0.7072984461485895E+00
   0.7062390211666545E+00
   0.6798335014375979E+00
   0.7081025609906578E+00
   0.7211943107175086E+00
   0.7177390645439442E+00
   0.7069476660856913E+00
   0.6847284195752591E+00
   0.6585994500473789E+00
   0.6907374311116149E+00
   0.6956029693809364E+00
   0.6931211809600618E+00
   0.6873769268034450E+00
   0.6731746130705084E+00
   0.6669554868609857E+00
   0.6793677409763840E+00
   0.7172154570556123E+00
   0.7168066289261391E+00
   0.7154500209758140E+00
   0.7175318002721683E+00
   0.6789124216252619E+00
   0.6691426204019627E+00
   0.6790155449042425E+00
   0.7156263625239628E+00
   0.7152942599644253E+00
   0.7168559605118542E+00
   0.6951126136580886E+00
   0.6910823188904053E+00
   0.6838695901293891E+00
SCALARS mach double 1
LOOKUP_TABLE default
   0.0000000000000000E+00
   0.0000000000000000E+00
   0.0000000000000000E+00
   0.0000000000000000E+00
   0.0000000000000000E+00
   0.0000000000000000E+00
   0.0000000000000000E+00
   0.0000000000000000E+00
   0.0000000000000000E+00
   0.0000000000000000E+00
   0.0000000000000000E+00
   0.0000000000000000E+00
   0.0000000000000000E+00
   0.0000000000000000E+00
   0.0000000000000000E+00
   0.0000000000000000E+00
   0.0000000000000000E+00
   0.0000000000000000E+00
   0.0000000000000000E+00
   0.0000000000000000E+00
   0.0000000000000000E+00
   0.0000000000000000E+00
   0.0000000000000000E+00
   0.0000000000000000E+00
   0.0000000000000000E+00
   0.0000000000000000E+00
   0.0000000000000000E+00
   0.0000000000000000E+00
   0.0000000000000000E+00
   0.0000000000000000E+00
   0.0000000000000000E+00
   0.0000000000000000E+00
   0.0000000000000000E+00
   0.5092321286882386E+00
   0.5345270965428686E+00
   0.5171823317910105E+00
   0.4929807447877022E+00
   0.4845969275475662E+00
   0.4864609365068382E+00
   0.4885624283426434E+00
   0.4953465920244710E+00
   0.4889616546284166E+00
   0.4698149743589451E+00
   0.4412383483839614E+00
   0.4905632998403534E+00
   0.5094885711783387E+00
   0.4437677454590786E+00
   0.4944837802123341E+00
   0.5220520001695299E+00
   0.4956144424140241E+00
   0.5227305173848371E+00
   0.5036874575340846E+00
   0.5643915777492764E+00
   0.5242286307631812E+00
   0.4990055522222012E+00
   0.5758321797542904E+00
   0.5737074052850136E+00
   0.3775503695450418E+00
   0.4022869445744062E+00
   0.5625540644123830E+00
   0.5565869821701172E+00
   0.4941635423173969E+00
   0.4947389853327494E+00
   0.4923955109685261E+00
   0.4913523047146084E+00
   0.5149940906510072E+00
   0.5370020989444532E+00
   0.5084603626756788E+00
   0.4720987497508590E+00
   0.5119110004439285E+00
   0.5110367654699163E+00
   0.4956047896359259E+00
   0.5103561974845781E+00
   0.4808056292974712E+00
   0.5354790213868446E+00
   0.5337784729895201E+00
   0.5120041820967468E+00
   0.5311733880874834E+00
   0.5295542088127091E+00
   0.5292773790035644E+00
   0.5056211277685299E+00
   0.5358292845436755E+00
   0.5407860454911977E+00
   0.5429798208267050E+00
   0.5391875778798602E+00
   0.4961273949168937E+00
   0.4972462797680678E+00
   0.4960592708923276E+00
   0.4950982648172468E+00
   0.4900027671137506E+00
   0.4900364792339906E+00
   0.4860754752275607E+00
   0.4853478962756881E+00
   0.4928003736773016E+00
   0.4905629392636374E+00
   0.4832197228497443E+00
   0.4872141411591294E+00
   0.4879585254990592E+00
   0.4870689160914476E+00
   0.4880291071053272E+00
   0.4949510522567058E+00
   0.4896772494467650E+00
   0.4900051245530807E+00
   0.4940459043954833E+00
   0.4865282327582460E+00
   0.4888731270442542E+00
   0.4878199984598582E+00
   0.4876123576287891E+00
   0.4436241038325116E+00
   0.4677323553618972E+00
   0.4882120873616330E+00
   0.4879300731180233E+00
   0.4647757214141847E+00
   0.4752149870209027E+00
   0.4869644619573439E+00
   0.4862860839017940E+00
   0.4902661034461347E+00
   0.4787140341842364E+00
   0.4643822746341337E+00
   0.4023025167976113E+00
   0.4892982416505282E+00
   0.4457176180510619E+00
   0.4688278154046667E+00
   0.4830685578878479E+00
   0.4601237088558935E+00
   0.4644111289415801E+00
   0.4737956518906969E+00
   0.5010560691401184E+00
   0.5082472571596077E+00
   0.4353730265724018E+00
   0.4921558737488860E+00
   0.5316571439089073E+00
   0.4906637304530639E+00
   0.5207955793988529E+00
   0.5059810165926771E+00
   0.5689225538705063E+00
   0.5272528531301447E+00
   0.5013907846756158E+00
   0.5852861574241052E+00
   0.5726400411898839E+00
   0.3436298249495282E+00
   0.3809919065000212E+00
   0.5793732642824619E+00
   0.5674466611269205E+00
   0.5707661301875799E+00
   0.5288674105865155E+00
   0.5447474708199087E+00
   0.5732738932134729E+00
   0.5383806742352751E+00
   0.5542561224411963E+00
   0.5870628107921062E+00
   0.4918959448320270E+00
   0.5038453890705666E+00
   0.4955067982845022E+00
   0.5581662346260584E+00
   0.4899056023112405E+00
   0.4947399858114708E+00
   0.5497811572678013E+00
   0.5912734681445136E+00
   0.5845151569140427E+00
   0.5465424483995890E+00
   0.5815226327963624E+00
   0.5103943166660155E+00
   0.5026513620293335E+00
   0.5030709427743110E+00
   0.5675226582922589E+00
   0.5563190488095495E+00
   0.4944364432531740E+00
   0.5523477306645915E+00
   0.5528919112373017E+00
   0.5690573841044618E+00
   0.4915644805559385E+00
   0.4913820764975774E+00
   0.3894733665634270E+00
   0.3711849878507570E+00
   0.5592900888969403E+00
   0.5784861273160499E+00
   0.4227809176929657E+00
   0.5854895193072509E+00
   0.4393478858449922E+00
   0.5443824414565382E+00
   0.5169049097856304E+00
   0.5115815953673865E+00
   0.5046277146447655E+00
   0.5758026301608525E+00
   0.5884501301008093E+00
   0.5427333905795318E+00
   0.5687409195432055E+00
   0.5341714863617291E+00
   0.5330406137193942E+00
   0.5585868075466138E+00
   0.5562747472404301E+00
   0.4330679888818528E+00
   0.5315658203819709E+00
   0.5812986078241776E+00
   0.3318904260716072E+00
   0.4786019948049017E+00
   0.5494651718965220E+00
   0.4851065755308542E+00
   0.3009035383570776E+00
   0.5029782577802356E+00
   0.5014720025596255E+00
   0.5126186510692333E+00
   0.5407121394677461E+00
   0.3456737236944788E+00
   0.3422982186265153E+00
   0.3204829445609325E+00
   0.5064074943953223E+00
   0.5121142797206769E+00
   0.5323885968803970E+00
   0.5909251026950710E+00
   0.4690182245389182E+00
   0.3541839068089703E+00
SCALARS temperature double 1
LOOKUP_TABLE default
   0.9999902950284513E+00
   0.9999898271435395E+00
   0.9999894087637183E+00
   0.9999893394392524E+00
   0.9999896268534592E+00
   0.9999902801417760E+00
   0.9999914900878982E+00
   0.9999928209134572E+00
   0.9999934873786587E+00
   0.9999936900574020E+00
   0.9999935431152207E+00
   0.9999931372824761E+00
   0.9999927217915974E+00
   0.9999921680956677E+00
   0.9999914167002294E+00
   0.9999907579027303E+00
   0.9999903697584235E+00
   0.9999933954805921E+00
   0.9999895978573314E+00
   0.9999925183348207E+00
   0.9999916437866579E+00
   0.9999909171541088E+00
   0.9999905799388696E+00
   0.9999931528570614E+00
   0.9999921404299033E+00
   0.9999926888376103E+00
   0.9999934788854837E+00
   0.9999904888573123E+00
   0.9999906830730272E+00
   0.9999897964856567E+00
   0.9999896175367022E+00
   0.9999923171068718E+00
   0.9999912292550931E+00
   0.9841043090466388E+00
   0.1003683694135098E+01
   0.1004433194609071E+01
   0.1000476700230774E+01
   0.1000665733599425E+01
   0.1001268202306399E+01
   0.1002152675098923E+01
   0.1001793362787295E+01
   0.1003556600475969E+01
   0.1008262773085658E+01
   0.1029827194985591E+01
   0.9886520710365680E+00
   0.1001381923415682E+01
   0.9815418954596919E+00
   0.1001923895553429E+01
   0.1002521110429497E+01
   0.1002987871300773E+01
   0.1008348853202327E+01
   0.1000820565986973E+01
   0.1001185012186225E+01
   0.1001995366351201E+01
   0.1000565910527731E+01
   0.9904275458623134E+00
   0.9903552856939506E+00
   0.9824694624337057E+00
   0.9887739901941779E+00
   0.9943629970726667E+00
   0.9997691971132713E+00
   0.1000503916786846E+01
   0.1000621460740088E+01
   0.1000828643138278E+01
   0.1000454345081549E+01
   0.1004853066485825E+01
   0.1002896218370460E+01
   0.9850919064061132E+00
   0.9764441061582855E+00
   0.1003879513322257E+01
   0.1003053310348336E+01
   0.9735159853363126E+00
   0.9715375443687192E+00
   0.9590423275275906E+00
   0.9912163938357539E+00
   0.1001286318255599E+01
   0.1003832204858104E+01
   0.1007638626038982E+01
   0.1005965508811955E+01
   0.1006629406147144E+01
   0.1003140495984685E+01
   0.9944295066628803E+00
   0.1003551877339682E+01
   0.9972166486000688E+00
   0.1005285310165648E+01
   0.1001688448090961E+01
   0.1001187269278706E+01
   0.1001341710215459E+01
   0.1001761124952671E+01
   0.1001926568350519E+01
   0.1001099937538362E+01
   0.1000587741826660E+01
   0.1000253577251464E+01
   0.1001798737766683E+01
   0.1001783476603654E+01
   0.1000008748527448E+01
   0.1000222691903914E+01
   0.1000234973114633E+01
   0.1000724329727744E+01
   0.1000988554964500E+01
   0.1001326359561221E+01
   0.1001746357187586E+01
   0.1001637486194962E+01
   0.1001643667248819E+01
   0.1001123672576327E+01
   0.1001526529576609E+01
   0.1001330452479779E+01
   0.1000962745028953E+01
   0.1040432926696377E+01
   0.1009767884154639E+01
   0.1004053693521647E+01
   0.1002444004783248E+01
   0.1032397392140630E+01
   0.1042472942317083E+01
   0.1003033763767896E+01
   0.1002349664165525E+01
   0.1002603058420036E+01
   0.1003005482890655E+01
   0.1006175446919795E+01
   0.1038912236237525E+01
   0.1027028657000774E+01
   0.1016571530786248E+01
   0.1025206182931814E+01
   0.1006055632896287E+01
   0.1011900805243331E+01
   0.1012528338771673E+01
   0.1004595240900131E+01
   0.9844111124161202E+00
   0.1001215546986524E+01
   0.9846890808957462E+00
   0.1002544987420023E+01
   0.1003500295699928E+01
   0.1003264753673530E+01
   0.1010932762470368E+01
   0.1000580687232039E+01
   0.9998553692434066E+00
   0.1000556429306815E+01
   0.1000455873865007E+01
   0.9898389089668880E+00
   0.9900584648288322E+00
   0.9855247071744315E+00
   0.9895390558751929E+00
   0.9917985165800483E+00
   0.9978967934749969E+00
   0.1000400893404981E+01
   0.1002928479815745E+01
   0.1005009412288959E+01
   0.1002279614390575E+01
   0.1013233653209168E+01
   0.1006635843036585E+01
   0.9925739951029477E+00
   0.1003434961081350E+01
   0.1001788392862335E+01
   0.1003349470793245E+01
   0.1001319611341990E+01
   0.9637827337987037E+00
   0.1001225370462117E+01
   0.1000903075232848E+01
   0.9928717293275420E+00
   0.9989551104882156E+00
   0.1001501285688905E+01
   0.9978126688143309E+00
   0.1000980250259613E+01
   0.1001573610614519E+01
   0.1001190372069891E+01
   0.1000788544303932E+01
   0.1000698902760626E+01
   0.1001334702522324E+01
   0.1010421198734687E+01
   0.1004072587674199E+01
   0.9935537408851958E+00
   0.1001859604021580E+01
   0.1006698191131880E+01
   0.9867957633574549E+00
   0.9881138552934747E+00
   0.9963584704738632E+00
   0.9943138584832533E+00
   0.9875207330506156E+00
   0.9926774936466203E+00
   0.9669773016413516E+00
   0.1017801039671600E+01
   0.9830453693234019E+00
   0.1001476925412508E+01
   0.1001159214869485E+01
   0.9989608784643350E+00
   0.9976213901569260E+00
   0.9864413010912689E+00
   0.9980019947307330E+00
   0.1003591635942911E+01
   0.1002875045334429E+01
   0.9988425890253461E+00
   0.9841137244270014E+00
   0.9789347054642710E+00
   0.9848202573738012E+00
   0.9942457253983537E+00
   0.9999509975217468E+00
   0.9900002898680390E+00
   0.9860937293055858E+00
   0.9832200792069864E+00
   0.9981607934628535E+00
   0.1001438280658002E+01
   0.1001055040852918E+01
   0.1001120129553339E+01
   0.1002862397488562E+01
   0.9892632943019035E+00
   0.9869749579386381E+00
   0.9918320814370089E+00
   0.1000754853401015E+01
   0.1000915369204778E+01
   0.1002438879622794E+01
   0.9922711649827404E+00
   0.9866562988285896E+00
   0.9943602864306882E+00
SCALARS lambda1 double 1
LOOKUP_TABLE default
  -0.1533495260826955E+00
  -0.9682576737010651E-01
  -0.3323598132657225E-01
   0.4327657874434244E-01
   0.7124214576256402E-01
   0.6291285693550182E-01
   0.8134239269692049E-01
   0.5309245223080533E-01
   0.6268681923022490E-01
   0.4929067019540858E-01
   0.2985389910132604E-01
  -0.5962871829846452E-01
  -0.7592743323657983E-01
  -0.4258420397348048E-01
  -0.1277412023786894E+00
  -0.1744481021098880E+00
  -0.1053267828594927E+00
   0.5638341654782410E-01
   0.6036950790619014E-01
  -0.4931971763956419E-01
  -0.3669810248656397E-01
  -0.8725653296999576E-01
  -0.3641362966097238E-01
  -0.2199669707314182E-02
   0.6540811517189146E-01
   0.6258218838934679E-02
   0.5229448334700016E-02
   0.2734987586587817E-01
   0.6614849611131973E-01
  -0.3966335440320146E-01
  -0.7426419210440820E-02
  -0.3577235066510917E-01
  -0.1527624193966378E-01
   0.2445488619337058E+00
   0.1160132979357540E+00
   0.7901808288613249E-01
   0.7483170171180538E-01
   0.3258277347158420E+00
   0.5997946832623202E+00
   0.6446967260303338E+00
   0.8484199345472607E+00
   0.2340188066063554E+00
   0.4152715585341828E-01
  -0.7760229920039090E+00
  -0.1052004751813132E+01
   0.6018556816849101E-01
  -0.4097536408292011E+00
   0.2092676621165350E+00
   0.1310266448749852E+00
   0.1113536197527811E+00
  -0.3318528502612444E-01
   0.7897968545079402E-01
   0.9551076362112293E-01
   0.5784962955107702E-01
   0.9216172394346317E-01
   0.1221116504014555E+00
   0.1536187611822359E+00
  -0.1549152934834820E+01
  -0.1558459876767702E+01
  -0.2617769403174304E+00
   0.1357013911725150E+00
   0.7452068232594954E-01
   0.6909605103363446E-01
   0.8424252595064635E-01
   0.8642833717204906E-01
   0.7421853464873046E-01
   0.1104440481562862E+00
   0.1647659352854093E+00
   0.3066285884750169E+00
   0.6064894545922789E-01
   0.6338859849042146E-01
   0.1106995971059109E+00
   0.1381639977201813E+00
   0.8729059438477370E-01
   0.1751499843997014E+00
   0.1275025497431144E+00
   0.5542818331658218E-01
   0.9488385080216293E-01
   0.9255308136365825E-01
   0.8131656339711064E-01
   0.5036123866803798E-01
   0.1552618514516503E+00
   0.1005326279425324E+00
   0.1359135584800344E+00
   0.1219556496424217E+00
   0.8777373172852759E+00
   0.9650757601085836E+00
   0.8545006425825413E+00
   0.8043451022944320E+00
   0.7251233900435060E+00
   0.6367635651458425E+00
   0.3311972854066833E+00
   0.2264280156997726E+00
   0.7242381186436443E+00
   0.6403564752454057E+00
   0.2177617395129083E+00
   0.2775491965542433E+00
   0.2772136042824666E+00
   0.4691630138688691E+00
   0.4971303453121795E+00
   0.9033836941128588E+00
   0.8238483466901819E+00
   0.7655581772338973E+00
   0.7782910385261873E+00
   0.4991885120523283E+00
   0.6221585171065546E+00
   0.6699656815313986E+00
   0.5285526202862570E+00
  -0.6081747625054951E+00
   0.8651919387821795E-01
   0.1738044620747980E+00
   0.2379884886728167E+00
  -0.9501793698047193E+00
  -0.1240533839001594E+01
   0.1595713018196206E+00
   0.2049489031711837E+00
   0.3081362533018842E+00
   0.1757651896982397E+00
   0.1084565226844764E+00
  -0.1463705813536126E+01
  -0.8141336373326385E-01
  -0.4640124337002931E-01