title="tecplot geometry and solution file"
variables = x y z mach temperature lambda1 lambda2 lambda3 lambda4 lambda5
zone t="boundary 1 bc-1", solutiontime= 0.3000000E+02, strandid=1001, i=32, j=46, f=feblock
  0.000000000000E+00  0.000000000000E+00  0.000000000000E+00  0.000000000000E+00  0.000000000000E+00  0.000000000000E+00  0.000000000000E+00
  0.000000000000E+00  0.000000000000E+00  0.000000000000E+00  0.000000000000E+00  0.000000000000E+00  0.000000000000E+00  0.000000000000E+00
  0.000000000000E+00  0.000000000000E+00  0.000000000000E+00  0.000000000000E+00  0.000000000000E+00  0.000000000000E+00  0.000000000000E+00
  0.000000000000E+00  0.000000000000E+00  0.000000000000E+00  0.000000000000E+00  0.000000000000E+00  0.000000000000E+00  0.000000000000E+00
  0.000000000000E+00  0.000000000000E+00  0.000000000000E+00  0.000000000000E+00
  0.250000000000E+01  0.250000000000E+01  0.125000000000E+01  0.146289271009E+01  0.157686156160E+01  0.308372018325E+00  0.000000000000E+00
 -0.125000000000E+01 -0.600232012419E+00  0.250000000000E+01  0.477386199275E+00  0.742988685424E+00 -0.739814786992E+00  0.177790177481E+01
  0.155830813274E+01  0.250000000000E+01 -0.250000000000E+01 -0.154800130438E+01 -0.487811078581E+00  0.250000000000E+01  0.627766083140E+00
 -0.345533899378E+00 -0.178862290564E+01 -0.158811787973E+01  0.125000000000E+01 -0.250000000000E+01 -0.144524380962E+01  0.000000000000E+00
 -0.125000000000E+01 -0.250000000000E+01 -0.250000000000E+01 -0.250000000000E+01
  0.000000000000E+00  0.125000000000E+01  0.000000000000E+00  0.103724302461E+01  0.219251206392E+01  0.922061490191E+00  0.000000000000E+00
  0.000000000000E+00  0.715990576545E+00  0.250000000000E+01  0.202479342020E+01  0.324151231464E+01  0.175434191980E+01  0.310152362409E+01
  0.404200324774E+01  0.375000000000E+01  0.000000000000E+00  0.930412228790E+00  0.299062775774E+01  0.500000000000E+01  0.429310310915E+01
  0.409252726285E+01  0.187029682677E+01  0.284428995242E+01  0.500000000000E+01  0.125000000000E+01  0.394624082883E+01  0.500000000000E+01
  0.500000000000E+01  0.250000000000E+01  0.375000000000E+01  0.500000000000E+01
  0.000000000000E+00  0.441238348384E+00  0.000000000000E+00  0.475214987021E+00  0.460123708856E+00  0.468827815405E+00  0.000000000000E+00
  0.000000000000E+00  0.402302516798E+00  0.469814974359E+00  0.464411128942E+00  0.478714034184E+00  0.489298241651E+00  0.483068557888E+00
  0.487930073118E+00  0.488961654628E+00  0.000000000000E+00  0.464775721414E+00  0.473795651891E+00  0.495346592024E+00  0.490266103446E+00
  0.486286083902E+00  0.445717618051E+00  0.464382274634E+00  0.496127394917E+00  0.443624103833E+00  0.486964461957E+00  0.497246279768E+00
  0.496059270892E+00  0.467732355362E+00  0.488212087362E+00  0.495098264817E+00
  0.999990295028E+00  0.102982719499E+01  0.999990757903E+00  0.104247294232E+01  0.101190080524E+01  0.102520618293E+01  0.999991416700E+00
  0.999992168096E+00  0.103891223624E+01  0.100826277309E+01  0.101252833877E+01  0.100300548289E+01  0.102702865700E+01  0.100605563290E+01
  0.100244400478E+01  0.100355660048E+01  0.999992721792E+00  0.103239739214E+01  0.100459524090E+01  0.100179336279E+01  0.100260305842E+01
  0.100234966417E+01  0.101657153079E+01  0.100617544692E+01  0.100168844809E+01  0.104043292670E+01  0.100303376377E+01  0.100118726928E+01
  0.100134171022E+01  0.100976788415E+01  0.100405369352E+01  0.100176112495E+01
 -0.153348293239E+00 -0.778039602713E+00 -0.174303499835E+00 -0.124206989698E+01 -0.855359288842E-01 -0.147323056271E+01 -0.127682528727E+00
 -0.426254620626E-01 -0.146436319859E+01  0.430401894781E-01 -0.979190413151E-01  0.176503599893E+00 -0.811567134561E-01  0.983880111152E-01
  0.234536721743E+00  0.234173733479E+00 -0.759376609196E-01 -0.951527072736E+00  0.129126124248E+00  0.852278087538E+00  0.304135162059E+00
  0.202993980236E+00 -0.461580514659E-01  0.109057367979E+00  0.881587449452E+00 -0.608630716313E+00  0.157922913619E+00  0.971257065244E+00
  0.856740008806E+00  0.878911030564E-01  0.173552990921E+00  0.804943202591E+00
 -0.598673341973E-02 -0.113007450566E+00 -0.837802903756E-02 -0.159089091988E+00 -0.392350046109E-02 -0.222991109097E+00 -0.905753147580E-02
 -0.786117777120E-02 -0.217666393820E+00  0.199255968106E-01 -0.871590370549E-02  0.371780947877E-01  0.276479225113E-02  0.287915835086E-01
  0.459418846850E-01  0.514807529585E-01 -0.694014194968E-02 -0.147897864983E+00  0.258803616132E-01  0.174979537370E+00  0.603001680696E-01
  0.388700525561E-01  0.526976491936E-02  0.210344321943E-01  0.184565823113E+00 -0.745952309349E-01  0.311511936765E-01  0.204039396608E+00
  0.179248917168E+00  0.222534612385E-01  0.370036658069E-01  0.167431573867E+00
 -0.104034073861E-01 -0.317898672052E-02 -0.139246517078E-01 -0.315428910595E-01 -0.347111964290E-02 -0.156310249206E-01 -0.115132868438E-01
  0.435155253594E-02  0.877689188164E-03  0.344725927497E-03 -0.314020092695E-02 -0.310783419364E-02  0.371568339107E-02 -0.435228370574E-03
  0.138681463296E-02  0.670994885795E-04  0.590743734435E-02  0.198078035064E-01 -0.173437702285E-03 -0.883415109225E-04  0.986083692044E-03
  0.114123279693E-02  0.655716827877E-03  0.360749890580E-02 -0.215556607939E-02  0.254728029474E-02  0.208602508681E-02  0.563774018188E-03
  0.198054235719E-02  0.555034502914E-03  0.197415083730E-03 -0.169277402001E-03
  0.372205128705E-01  0.333163314025E-01  0.403894207969E-01  0.274968253999E-04 -0.360955419810E-01 -0.384038242460E-01  0.227137954807E-01
  0.194980010943E-01 -0.275129233911E-01 -0.395983933680E-01 -0.726497182154E-01 -0.399846179968E-01 -0.799599369536E-01 -0.374954990159E-01
 -0.275808534296E-01 -0.325203556166E-01  0.147728569063E-01 -0.231669562534E-01 -0.458384868295E-01 -0.115457365700E-01 -0.254998326580E-01
 -0.303075386159E-01 -0.538968547292E-01 -0.370730877931E-01 -0.110948943603E-01 -0.275381873816E-01 -0.277237721295E-01 -0.105030218603E-01
 -0.125368284650E-01 -0.417666284922E-01 -0.283657941530E-01 -0.123118646010E-01
  0.122864682961E+00  0.320507949449E+00  0.166787113757E+00  0.497162459125E+00  0.355801903344E-01  0.611519497095E+00 -0.869395699652E-02
 -0.257705833697E-01  0.608266188154E+00 -0.173371674581E-01  0.427655440121E-01 -0.690015402250E-01  0.349943934984E-01 -0.387766832764E-01
 -0.936753262313E-01 -0.944531424220E-01  0.251854088109E-01  0.397657816055E+00 -0.478554233201E-01 -0.353809055340E+00 -0.122830887852E+00
 -0.802714241561E-01  0.222466981581E-01 -0.389969809763E-01 -0.366634387848E+00  0.248134199544E+00 -0.615746378371E-01 -0.405111994763E+00
 -0.356525435524E+00 -0.318655008844E-01 -0.689352276262E-01 -0.334093495409E+00
        12        19        11        11
        11         5        12        12
        10        14         5         5
        19        13        11        11
        19        24        13        13
        30        23        24        24
        19        12        22        22
        28        22        21        21
        11        13         6         6
         7         6         9         9
        15        12        14        14
        18        13        23        23
        15        25        21        21
        27        19        22        22
        18         8         9         9
        27        31        24        24
         4        11         6         6
         5        14        12        12
         4         2         5         5
        21        12        15        15
        14        16        15        15
        24        19        27        27
        22        29        27        27
        23        26        18        18
        17         8        18        18
         5        11         4         4
         6         3         4         4
        26        23        30        30
         5         2        10        10
        16        14        10        10
         3         6         7         7
        21        25        28        28
        29        22        28        28
         6        13         9         9
         2         4         1         1
        31        27        32        32
        25        15        20        20
        24        23        13        13
         8         7         9         9
        13        18         9         9
        31        30        24        24
        12        21        22        22
        29        32        27        27
         3         1         4         4
        26        17        18        18
        16        20        15        15
zone t="boundary 2 bc-2", solutiontime= 0.3000000E+02, strandid=1002, i=33, j=48, f=feblock
  0.500000000000E+01  0.375000000000E+01  0.250000000000E+01  0.288078410721E+01  0.125000000000E+01  0.190974100652E+01  0.326683758169E+01
  0.201431602454E+01  0.000000000000E+00  0.963108083381E+00  0.500000000000E+01  0.403552511878E+01  0.423153924130E+01  0.500000000000E+01
  0.385533350601E+01  0.500000000000E+01  0.398173246726E+01  0.315249557942E+01  0.267000324704E+01  0.154774304040E+01  0.218329375016E+01
  0.893127759452E+00  0.000000000000E+00  0.698517061619E+00  0.964171764089E+00  0.310324758057E+01  0.000000000000E+00  0.000000000000E+00
  0.125000000000E+01  0.500000000000E+01  0.375000000000E+01  0.250000000000E+01  0.000000000000E+00
 -0.250000000000E+01 -0.250000000000E+01 -0.250000000000E+01 -0.250000000000E+01 -0.250000000000E+01 -0.250000000000E+01 -0.250000000000E+01
 -0.250000000000E+01 -0.250000000000E+01 -0.250000000000E+01 -0.250000000000E+01 -0.250000000000E+01 -0.250000000000E+01 -0.250000000000E+01
 -0.250000000000E+01 -0.250000000000E+01 -0.250000000000E+01 -0.250000000000E+01 -0.250000000000E+01 -0.250000000000E+01 -0.250000000000E+01
 -0.250000000000E+01 -0.250000000000E+01 -0.250000000000E+01 -0.250000000000E+01 -0.250000000000E+01 -0.250000000000E+01 -0.250000000000E+01
 -0.250000000000E+01 -0.250000000000E+01 -0.250000000000E+01 -0.250000000000E+01 -0.250000000000E+01
  0.000000000000E+00  0.000000000000E+00  0.000000000000E+00  0.904659890645E+00  0.000000000000E+00  0.717002441913E+00  0.188609243358E+01
  0.176246431481E+01  0.000000000000E+00  0.961328577125E+00  0.125000000000E+01  0.101201586758E+01  0.191586535653E+01  0.250000000000E+01
  0.293121848150E+01  0.375000000000E+01  0.406975391361E+01  0.363585050272E+01  0.285047954584E+01  0.292817774674E+01  0.395907379566E+01
  0.205246550326E+01  0.125000000000E+01  0.306828197606E+01  0.397245519226E+01  0.433168271247E+01  0.250000000000E+01  0.375000000000E+01
  0.500000000000E+01  0.500000000000E+01  0.500000000000E+01  0.500000000000E+01  0.500000000000E+01
  0.000000000000E+00  0.000000000000E+00  0.000000000000E+00  0.380991906500E+00  0.000000000000E+00  0.343629824950E+00  0.585286157424E+00
  0.579373264282E+00  0.000000000000E+00  0.501056069140E+00  0.508460362676E+00  0.435373026572E+00  0.572640041190E+00  0.537002098944E+00
  0.568922553871E+00  0.514994090651E+00  0.508247257160E+00  0.527252853130E+00  0.567446661127E+00  0.531657143909E+00  0.505981016593E+00
  0.520795579399E+00  0.443624103833E+00  0.490663730453E+00  0.492155873749E+00  0.501390784676E+00  0.467732355362E+00  0.488212087362E+00
  0.490002767114E+00  0.491352304715E+00  0.486075475228E+00  0.490036479234E+00  0.495098264817E+00
  0.999993487379E+00  0.999993690057E+00  0.999993543115E+00  0.989539055875E+00  0.999993137282E+00  0.985524707174E+00  0.989838908967E+00
  0.991798516580E+00  0.999992721792E+00  0.984411112416E+00  0.985091906406E+00  0.984689080896E+00  0.990058464829E+00  0.100289621837E+01
  0.999855369243E+00  0.100485306649E+01  0.100121554699E+01  0.100055642931E+01  0.997896793475E+00  0.100350029570E+01  0.100058068723E+01
  0.101093276247E+01  0.104043292670E+01  0.100326475367E+01  0.100254498742E+01  0.100045587387E+01  0.100976788415E+01  0.100405369352E+01
  0.100192656835E+01  0.100045434508E+01  0.100058774183E+01  0.100109993754E+01  0.100176112495E+01
  0.627184522333E-01  0.492983775389E-01  0.298702481532E-01 -0.582055157889E+00 -0.596704025982E-01 -0.192649678520E+01  0.128317948374E+00
 -0.203838317118E-01 -0.759376609196E-01 -0.891244993802E+00  0.164678864102E+00  0.189639098713E+00  0.129358752491E+00  0.110481764032E+00
  0.812435857487E-01  0.742446828682E-01  0.546787558081E-01  0.632217837407E-01  0.104017361648E+00  0.123975748697E+00  0.824453111922E-01
 -0.314319920710E-01 -0.608630716313E+00  0.839551938202E-01  0.152159905809E+00  0.993148518588E-01  0.878911030564E-01  0.173552990921E+00
  0.724439970372E+00  0.864200709816E-01  0.331103350955E+00  0.636603622422E+00  0.804943202591E+00
 -0.170015114716E-01  0.472818025082E-02 -0.443275449573E-03 -0.100182219739E+00  0.108968223052E-01 -0.239409114499E+00  0.337209316461E-03
  0.100007496293E-01 -0.694014194968E-02 -0.104711498780E+00 -0.371961493263E-01 -0.165546962613E-02 -0.190314762042E-01 -0.282578818795E-01
 -0.188622450660E-01 -0.174093207188E-01 -0.208738555832E-01 -0.174114608541E-01 -0.650038583318E-02  0.103388038916E-01 -0.743805046132E-02
  0.899169071472E-02 -0.745952309349E-01  0.568573065154E-02  0.175405105528E-01 -0.102852637871E-01  0.222534612385E-01  0.370036658069E-01
  0.130324117258E+00 -0.436317060277E-02  0.332767250789E-01  0.989764049899E-01  0.167431573867E+00
  0.378587357690E-02 -0.100512241599E-02 -0.589771343482E-02 -0.135962632932E-01 -0.315818491361E-02 -0.239145097091E-01  0.188743435685E-02
 -0.158484713615E-03  0.590743734435E-02 -0.918047062479E-02  0.219030028086E-02  0.704979344807E-02 -0.136159592133E-03 -0.210263886713E-03
 -0.167212489060E-03  0.330632150964E-03 -0.416377346164E-04  0.173299105669E-03 -0.269995837726E-03 -0.653346915247E-03  0.424271910712E-03
 -0.684433416369E-03  0.254728029474E-02 -0.121582036466E-03  0.703230755875E-04  0.147535870938E-03  0.555034502914E-03  0.197415083730E-03
  0.635887882752E-04  0.571520472842E-04 -0.144508018630E-04 -0.420154591670E-04 -0.169277402001E-03
  0.492813149775E-02  0.496931462497E-02  0.753539697991E-02 -0.255725877653E-01  0.174074096805E-01 -0.535745512285E-02 -0.385278829620E-01
 -0.513247081247E-01  0.147728569063E-01 -0.240478788028E-01 -0.734548904035E-02 -0.270021006542E-01 -0.155585582809E-01 -0.703916427561E-02
 -0.161303086830E-01 -0.591698978722E-02 -0.157142970498E-01 -0.221778645371E-01 -0.262372171557E-01 -0.272166770883E-01 -0.256031046819E-01
 -0.408395096354E-01 -0.275381873816E-01 -0.289732783413E-01 -0.256216397400E-01 -0.221555474218E-01 -0.417666284922E-01 -0.283657941530E-01
 -0.172850217363E-01 -0.921568896210E-02 -0.200538290474E-01 -0.217508215951E-01 -0.123118646010E-01
 -0.168959420509E-01 -0.478125605526E-01 -0.833119454915E-01  0.265612275863E+00 -0.997899875913E-01  0.825283034323E+00 -0.380440667797E-01
  0.108652488761E-01  0.251854088109E-01  0.369213623304E+00 -0.356592083197E-01 -0.574063132463E-01 -0.317598197081E-01 -0.211826719603E-01
 -0.158544738431E-01 -0.150142663473E-01 -0.751302321405E-02 -0.114875053310E-01 -0.284508727371E-01 -0.420519674742E-01 -0.220513042389E-01
  0.144685133351E-01  0.248134199544E+00 -0.270254905648E-01 -0.555120481169E-01 -0.271164828553E-01 -0.318655008844E-01 -0.689352276262E-01
 -0.294347344409E+00 -0.261167901701E-01 -0.124253237997E+00 -0.253126456689E+00 -0.334093495409E+00
        15         7        19        19
         8        20        19        19
        18        19        21        21
         7         4         8         8
         3         6         4         4
        19         7         8         8
        19        18        15        15
        14        13        15        15
         8        22        20        20
        27        24        22        22
        19        20        21        21
        32        26        21        21
        17        18        26        26
        17        16        15        15
        25        29        21        21
        12         7        13        13
        10         8         6         6
        25        20        24        24
         4         6         8         8
        12         2         4         4
        10        23        22        22
        26        31        17        17
        30        16        17        17
         4         7        12        12
        13        11        12        12
        21        20        25        25
        24        28        25        25
        22         8        10        10
         6         5        10        10
        31        26        32        32
         4         2         3         3
         5         6         3         3
        11        13        14        14
        22        23        27        27
        28        24        27        27
        15        13         7         7
         2        12         1         1
        29        25        33        33
        23        10         9         9
        21        26        18        18
        16        14        15        15
        18        17        15        15
        29        32        21        21
        22        24        20        20
        28        33        25        25
        11         1        12        12
        31        30        17        17
         5         9        10        10
zone t="boundary 3 bc-3", solutiontime= 0.3000000E+02, strandid=1003, i=33, j=48, f=feblock
  0.375000000000E+01  0.250000000000E+01  0.500000000000E+01  0.403552511878E+01  0.288078410721E+01  0.125000000000E+01  0.190974100652E+01
  0.500000000000E+01  0.326683758169E+01  0.423153924130E+01  0.201431602454E+01  0.000000000000E+00  0.963108083381E+00  0.500000000000E+01
  0.267000324704E+01  0.385533350601E+01  0.893127759452E+00  0.154774304040E+01  0.000000000000E+00  0.500000000000E+01  0.315249557942E+01
  0.218329375016E+01  0.398173246726E+01  0.000000000000E+00  0.698517061619E+00  0.964171764089E+00  0.125000000000E+01  0.000000000000E+00
  0.500000000000E+01  0.310324758057E+01  0.250000000000E+01  0.375000000000E+01  0.000000000000E+00
  0.250000000000E+01  0.250000000000E+01  0.250000000000E+01  0.250000000000E+01  0.250000000000E+01  0.250000000000E+01  0.250000000000E+01
  0.250000000000E+01  0.250000000000E+01  0.250000000000E+01  0.250000000000E+01  0.250000000000E+01  0.250000000000E+01  0.250000000000E+01
  0.250000000000E+01  0.250000000000E+01  0.250000000000E+01  0.250000000000E+01  0.250000000000E+01  0.250000000000E+01  0.250000000000E+01
  0.250000000000E+01  0.250000000000E+01  0.250000000000E+01  0.250000000000E+01  0.250000000000E+01  0.250000000000E+01  0.250000000000E+01
  0.250000000000E+01  0.250000000000E+01  0.250000000000E+01  0.250000000000E+01  0.250000000000E+01
  0.000000000000E+00  0.000000000000E+00  0.000000000000E+00  0.101201586758E+01  0.904659890645E+00  0.000000000000E+00  0.717002441913E+00
  0.125000000000E+01  0.188609243358E+01  0.191586535653E+01  0.176246431481E+01  0.000000000000E+00  0.961328577125E+00  0.250000000000E+01
  0.285047954584E+01  0.293121848150E+01  0.205246550326E+01  0.292817774674E+01  0.125000000000E+01  0.375000000000E+01  0.363585050272E+01
  0.395907379566E+01  0.406975391361E+01  0.250000000000E+01  0.306828197606E+01  0.397245519226E+01  0.500000000000E+01  0.375000000000E+01
  0.500000000000E+01  0.433168271247E+01  0.500000000000E+01  0.500000000000E+01  0.500000000000E+01
  0.000000000000E+00  0.000000000000E+00  0.000000000000E+00  0.443767745459E+00  0.402286944574E+00  0.000000000000E+00  0.377550369545E+00
  0.509232128688E+00  0.575832179754E+00  0.573707405285E+00  0.562554064412E+00  0.000000000000E+00  0.490563299840E+00  0.534527096543E+00
  0.556586982170E+00  0.564391577749E+00  0.522730517385E+00  0.522052000170E+00  0.441238348384E+00  0.517182331791E+00  0.524228630763E+00
  0.503687457534E+00  0.509488571178E+00  0.469814974359E+00  0.495614442414E+00  0.494483780212E+00  0.488562428343E+00  0.488961654628E+00
  0.492980744788E+00  0.499005552222E+00  0.486460936507E+00  0.484596927548E+00  0.495346592024E+00
  0.999989339439E+00  0.999989408764E+00  0.999989626853E+00  0.981541895460E+00  0.988773990194E+00  0.999989827144E+00  0.982469462434E+00
  0.984104309047E+00  0.990427545862E+00  0.990355285694E+00  0.994362997073E+00  0.999990295028E+00  0.988652071037E+00  0.100368369414E+01
  0.999769197113E+00  0.100118501219E+01  0.100834885320E+01  0.100252111043E+01  0.102982719499E+01  0.100443319461E+01  0.100199536635E+01
  0.100082056599E+01  0.100138192342E+01  0.100826277309E+01  0.100298787130E+01  0.100192389555E+01  0.100215267510E+01  0.100355660048E+01
  0.100047670023E+01  0.100056591053E+01  0.100126820231E+01  0.100066573360E+01  0.100179336279E+01
  0.433699059486E-01 -0.333426101483E-01  0.712424724009E-01 -0.408545534704E+00 -0.156220255654E+01 -0.968923974822E-01 -0.155242726490E+01
  0.244273543646E+00  0.122818136700E+00  0.153360304042E+00 -0.261942883977E+00 -0.153348293239E+00 -0.105404282060E+01  0.116068778297E+00
  0.135610850437E+00  0.955118864910E-01 -0.336014967517E-01  0.131114657874E+00 -0.778039602713E+00  0.790333888847E-01  0.577753510226E-01
  0.791181699367E-01  0.602624396786E-01  0.430401894781E-01  0.112184793720E+00  0.209553236084E+00  0.642122777033E+00  0.234173733479E+00
  0.748552820518E-01  0.919909282866E-01  0.600367125544E+00  0.325668338464E+00  0.852278087538E+00
  0.101389713054E-01  0.977450026904E-02 -0.179044731273E-01 -0.113581408085E+00 -0.215807036303E+00  0.204440688245E-01 -0.192998163962E+00
 -0.397088702641E-01  0.195966921401E-02 -0.209821028429E-01 -0.560933346305E-02 -0.598673341973E-02 -0.799229687422E-01 -0.303718889071E-01
  0.198123879362E-02 -0.159588664691E-01  0.283735277860E-01  0.137708332541E-01 -0.113007450566E+00 -0.193775404406E-01 -0.168036340940E-01
 -0.916940809504E-02 -0.195735688688E-01  0.199255968106E-01  0.262980917427E-01  0.262646648442E-01  0.113890447326E+00  0.514807529585E-01
 -0.681463889782E-02 -0.108177452301E-01  0.931132908799E-01  0.323299753596E-01  0.174979537370E+00
  0.191076337410E-02 -0.107804020251E-02 -0.237620267743E-02  0.783886748700E-02  0.221886481871E-01 -0.863073913953E-02  0.478848594826E-03
 -0.628788264283E-05  0.245569989604E-02 -0.371524055399E-03  0.205423701309E-02 -0.104034073861E-01 -0.117103575816E-01 -0.882009878258E-03
  0.119728210579E-03 -0.109932113686E-03  0.400663017026E-02  0.154226206808E-02 -0.317898672052E-02 -0.494558425137E-03 -0.245537487628E-03
 -0.106153811983E-02 -0.178901283618E-04  0.344725927497E-03  0.907482283369E-03 -0.301336915343E-03 -0.436712523133E-03  0.670994885795E-04
 -0.175988109923E-03  0.777556413725E-05 -0.984997822711E-04  0.248606195163E-04 -0.883415109225E-04
  0.120276435069E-01  0.225176409142E-01  0.620195508872E-02 -0.160215847641E-01 -0.262856131473E-01  0.216433823874E-01 -0.782408828023E-02
 -0.952031642674E-02 -0.486577165511E-01 -0.233857542504E-01 -0.708454773628E-01  0.372205128705E-01 -0.231787151226E-01 -0.932769314014E-02
 -0.248815538344E-01 -0.207521074961E-01 -0.595950081797E-01 -0.265833745161E-01  0.333163314025E-01 -0.826245144276E-02 -0.238929917400E-01
 -0.246980575995E-01 -0.178250557326E-01 -0.395983933680E-01 -0.383009454957E-01 -0.255044063017E-01 -0.182649051649E-01 -0.325203556166E-01
 -0.878189827674E-02 -0.231813012155E-01 -0.221359372489E-01 -0.201779166895E-01 -0.115457365700E-01
 -0.181480766291E+00 -0.786393196434E-01 -0.356143228446E-01  0.211189876289E+00  0.676202176106E+00 -0.736187428792E-02  0.652359356973E+00
 -0.624245005593E-01 -0.380642587619E-01 -0.396600903356E-01  0.102364815238E+00  0.122864682961E+00  0.415417744933E+00 -0.218378668573E-01
 -0.428977038102E-01 -0.216221836999E-01  0.104318963459E-01 -0.454452770393E-01  0.320507949449E+00 -0.155077559539E-01 -0.954642733918E-02
 -0.203813136645E-01 -0.981869153073E-02 -0.173371674581E-01 -0.409801367221E-01 -0.788369971628E-01 -0.259600932938E+00 -0.944531424220E-01
 -0.212085189110E-01 -0.242757710921E-01 -0.238226352353E+00 -0.121903809457E+00 -0.353809055340E+00
        15         9        16        16
        15        18        11        11
        22        15        21        21
        11         5         9         9
         5         7         2         2
        11         9        15        15
        16        21        15        15
        16        10        14        14
        18        17        11        11
        17        25        24        24
        22        18        15        15
        22        30        31        31
        30        21        23        23
        16        20        23        23
        22        27        26        26
        10         9         4         4
         7        11        13        13
        25        18        26        26
        11         7         5         5
         5         1         4         4
        17        19        13        13
        23        32        30        30
        23        20        29        29
         4         9         5         5
         4         8        10        10
        26        18        22        22
        26        28        25        25
        13        11        17        17
        13         6         7         7
        31        30        32        32
         2         1         5         5
         2         7         6         6
        14        10         8         8
        24        19        17        17
        24        25        28        28
         9        10        16        16
         3         4         1         1
        33        26        27        27
        12        13        19        19
        21        30        22        22
        16        14        20        20
        16        23        21        21
        22        31        27        27
        18        25        17        17
        26        33        28        28
         4         3         8         8
        23        29        32        32
        13        12         6         6
zone t="boundary 4 bc-4", solutiontime= 0.3000000E+02, strandid=1004, i=32, j=46, f=feblock
  0.125000000000E+01  0.219251206392E+01  0.103724302461E+01  0.500000000000E+01  0.250000000000E+01  0.375000000000E+01  0.404200324774E+01
  0.500000000000E+01  0.000000000000E+00  0.310152362409E+01  0.202479342020E+01  0.324151231464E+01  0.922061490191E+00  0.000000000000E+00
  0.299062775774E+01  0.394624082883E+01  0.500000000000E+01  0.409252726285E+01  0.500000000000E+01  0.429310310915E+01  0.175434191980E+01
  0.284428995242E+01  0.000000000000E+00  0.000000000000E+00  0.715990576545E+00  0.930412228790E+00  0.125000000000E+01  0.187029682677E+01
  0.500000000000E+01  0.375000000000E+01  0.250000000000E+01  0.000000000000E+00
  0.250000000000E+01  0.157686156160E+01  0.146289271009E+01  0.250000000000E+01  0.250000000000E+01  0.250000000000E+01  0.155830813274E+01
  0.125000000000E+01  0.250000000000E+01  0.177790177481E+01  0.477386199275E+00  0.742988685424E+00  0.308372018325E+00  0.125000000000E+01
 -0.487811078581E+00 -0.144524380962E+01 -0.125000000000E+01 -0.345533899378E+00  0.000000000000E+00  0.627766083140E+00 -0.739814786992E+00
 -0.158811787973E+01  0.000000000000E+00 -0.125000000000E+01 -0.600232012419E+00 -0.154800130438E+01 -0.250000000000E+01 -0.178862290564E+01
 -0.250000000000E+01 -0.250000000000E+01 -0.250000000000E+01 -0.250000000000E+01
  0.500000000000E+01  0.500000000000E+01  0.500000000000E+01  0.500000000000E+01  0.500000000000E+01  0.500000000000E+01  0.500000000000E+01
  0.500000000000E+01  0.500000000000E+01  0.500000000000E+01  0.500000000000E+01  0.500000000000E+01  0.500000000000E+01  0.500000000000E+01
  0.500000000000E+01  0.500000000000E+01  0.500000000000E+01  0.500000000000E+01  0.500000000000E+01  0.500000000000E+01  0.500000000000E+01
  0.500000000000E+01  0.500000000000E+01  0.500000000000E+01  0.500000000000E+01  0.500000000000E+01  0.500000000000E+01  0.500000000000E+01
  0.500000000000E+01  0.500000000000E+01  0.500000000000E+01  0.500000000000E+01
  0.488562428343E+00  0.488873127044E+00  0.490562939264E+00  0.492980744788E+00  0.486460936507E+00  0.484596927548E+00  0.485347896276E+00
  0.494163542317E+00  0.495346592024E+00  0.486528232758E+00  0.487819998460E+00  0.487068916091E+00  0.494045904395E+00  0.496127394917E+00
  0.487612357629E+00  0.483219722850E+00  0.492395510969E+00  0.487214141159E+00  0.494738985333E+00  0.487958525499E+00  0.489677249447E+00
  0.488029107105E+00  0.497246279768E+00  0.496059270892E+00  0.494951052257E+00  0.492800373677E+00  0.490002767114E+00  0.490005124553E+00
  0.491352304715E+00  0.486075475228E+00  0.490036479234E+00  0.495098264817E+00
  0.100215267510E+01  0.100152652958E+01  0.100178347660E+01  0.100047670023E+01  0.100126820231E+01  0.100066573360E+01  0.100025357725E+01
  0.100050391679E+01  0.100179336279E+01  0.100112367258E+01  0.100133045248E+01  0.100072432973E+01  0.100164366725E+01  0.100168844809E+01
  0.100096274503E+01  0.100000874853E+01  0.100082864314E+01  0.100022269190E+01  0.100062146074E+01  0.100023497311E+01  0.100174635719E+01
  0.100098855496E+01  0.100118726928E+01  0.100134171022E+01  0.100132635956E+01  0.100179873777E+01  0.100192656835E+01  0.100163748619E+01
  0.100045434508E+01  0.100058774183E+01  0.100109993754E+01  0.100176112495E+01
  0.642122777033E+00  0.622643641484E+00  0.639489226539E+00  0.748552820518E-01  0.600367125544E+00  0.325668338464E+00  0.226454456680E+00
  0.745360715397E-01  0.852278087538E+00  0.499075720118E+00  0.669234368696E+00  0.468967568826E+00  0.779563401632E+00  0.881587449452E+00
  0.528512795411E+00  0.217772276260E+00  0.842424588669E-01  0.277408640402E+00  0.691384297584E-01  0.277271830041E+00  0.823517533861E+00
  0.497210806998E+00  0.971257065244E+00  0.856740008806E+00  0.903092438638E+00  0.723799872916E+00  0.724439970372E+00  0.766065879146E+00
  0.864200709816E-01  0.331103350955E+00  0.636603622422E+00  0.804943202591E+00