title="tecplot geometry and solution file"
variables = x y z mach temperature lambda1 lambda2 lambda3 lambda4 lambda5
zone t="boundary 1 bc-1", solutiontime= 0.1000000E+03, strandid=1001, i=32, j=46, f=feblock
  0.000000000000E+00  0.000000000000E+00  0.000000000000E+00  0.000000000000E+00  0.000000000000E+00  0.000000000000E+00  0.000000000000E+00
  0.000000000000E+00  0.000000000000E+00  0.000000000000E+00  0.000000000000E+00  0.000000000000E+00  0.000000000000E+00  0.000000000000E+00
  0.000000000000E+00  0.000000000000E+00  0.000000000000E+00  0.000000000000E+00  0.000000000000E+00  0.000000000000E+00  0.000000000000E+00
  0.000000000000E+00  0.000000000000E+00  0.000000000000E+00  0.000000000000E+00  0.000000000000E+00  0.000000000000E+00  0.000000000000E+00
  0.000000000000E+00  0.000000000000E+00  0.000000000000E+00  0.000000000000E+00
  0.250000000000E+01  0.250000000000E+01  0.125000000000E+01  0.146289271009E+01  0.157686156160E+01  0.308372018325E+00  0.000000000000E+00
 -0.125000000000E+01 -0.600232012419E+00  0.250000000000E+01  0.477386199275E+00  0.742988685424E+00 -0.739814786992E+00  0.177790177481E+01
  0.155830813274E+01  0.250000000000E+01 -0.250000000000E+01 -0.154800130438E+01 -0.487811078581E+00  0.250000000000E+01  0.627766083140E+00
 -0.345533899378E+00 -0.178862290564E+01 -0.158811787973E+01  0.125000000000E+01 -0.250000000000E+01 -0.144524380962E+01  0.000000000000E+00
 -0.125000000000E+01 -0.250000000000E+01 -0.250000000000E+01 -0.250000000000E+01
  0.000000000000E+00  0.125000000000E+01  0.000000000000E+00  0.103724302461E+01  0.219251206392E+01  0.922061490191E+00  0.000000000000E+00
  0.000000000000E+00  0.715990576545E+00  0.250000000000E+01  0.202479342020E+01  0.324151231464E+01  0.175434191980E+01  0.310152362409E+01
  0.404200324774E+01  0.375000000000E+01  0.000000000000E+00  0.930412228790E+00  0.299062775774E+01  0.500000000000E+01  0.429310310915E+01
  0.409252726285E+01  0.187029682677E+01  0.284428995242E+01  0.500000000000E+01  0.125000000000E+01  0.394624082883E+01  0.500000000000E+01
  0.500000000000E+01  0.250000000000E+01  0.375000000000E+01  0.500000000000E+01
  0.000000000000E+00  0.441238348384E+00  0.000000000000E+00  0.475214987021E+00  0.460123708856E+00  0.468827815405E+00  0.000000000000E+00
  0.000000000000E+00  0.402302516798E+00  0.469814974359E+00  0.464411128942E+00  0.478714034184E+00  0.489298241651E+00  0.483068557888E+00
  0.487930073118E+00  0.488961654628E+00  0.000000000000E+00  0.464775721414E+00  0.473795651891E+00  0.495346592024E+00  0.490266103446E+00
  0.486286083902E+00  0.445717618051E+00  0.464382274634E+00  0.496127394917E+00  0.443624103833E+00  0.486964461957E+00  0.497246279768E+00
  0.496059270892E+00  0.467732355362E+00  0.488212087362E+00  0.495098264817E+00
  0.999990295028E+00  0.102982719499E+01  0.999990757903E+00  0.104247294232E+01  0.101190080524E+01  0.102520618293E+01  0.999991416700E+00
  0.999992168096E+00  0.103891223624E+01  0.100826277309E+01  0.101252833877E+01  0.100300548289E+01  0.102702865700E+01  0.100605563290E+01
  0.100244400478E+01  0.100355660048E+01  0.999992721792E+00  0.103239739214E+01  0.100459524090E+01  0.100179336279E+01  0.100260305842E+01
  0.100234966417E+01  0.101657153079E+01  0.100617544692E+01  0.100168844809E+01  0.104043292670E+01  0.100303376377E+01  0.100118726928E+01
  0.100134171022E+01  0.100976788415E+01  0.100405369352E+01  0.100176112495E+01
 -0.153350964691E+00 -0.778105941456E+00 -0.174293740422E+00 -0.124209596091E+01 -0.855319304954E-01 -0.147314533428E+01 -0.127674260856E+00
 -0.426269586200E-01 -0.146435665731E+01  0.430674193992E-01 -0.979518882447E-01  0.176557211518E+00 -0.812293438852E-01  0.984165403973E-01
  0.234494253261E+00  0.234232049767E+00 -0.759376606411E-01 -0.951574267448E+00  0.129160367031E+00  0.852266479424E+00  0.304080013474E+00
  0.203081684442E+00 -0.461374528537E-01  0.109053219457E+00  0.881599476551E+00 -0.608574245550E+00  0.157929494017E+00  0.971234801040E+00
  0.856659931240E+00  0.879056377902E-01  0.173561315123E+00  0.804939895355E+00
 -0.598658260738E-02 -0.113021066354E+00 -0.837824263756E-02 -0.159096388323E+00 -0.392285585939E-02 -0.222975705583E+00 -0.905710891042E-02
 -0.786142944167E-02 -0.217667002115E+00  0.199299992415E-01 -0.871995413282E-02  0.371887502724E-01  0.275039784826E-02  0.287951771164E-01
  0.459218836325E-01  0.514889559424E-01 -0.694005762916E-02 -0.147906625055E+00  0.258885703253E-01  0.174993545316E+00  0.602786594950E-01
  0.388818401393E-01  0.527333152342E-02  0.210321616048E-01  0.184580323776E+00 -0.745855387165E-01  0.311465788548E-01  0.204050643421E+00
  0.179239033424E+00  0.222565904288E-01  0.370029777003E-01  0.167437544635E+00
 -0.104045314437E-01 -0.317921766503E-02 -0.139259800227E-01 -0.315500306532E-01 -0.347154216462E-02 -0.156332379566E-01 -0.115120596138E-01
  0.435213469810E-02  0.876059131536E-03  0.344539421650E-03 -0.314168727629E-02 -0.310370660134E-02  0.371665122861E-02 -0.434660538311E-03
  0.138576964693E-02  0.667714594816E-04  0.590740215403E-02  0.198099434670E-01 -0.171966009968E-03 -0.886575441098E-04  0.989307777468E-03
  0.114496630745E-02  0.657044842346E-03  0.360871571845E-02 -0.215878429831E-02  0.254738509717E-02  0.208834399156E-02  0.554704485539E-03
  0.197453424511E-02  0.554953395567E-03  0.197393822776E-03 -0.169290032402E-03
  0.372209138992E-01  0.333124298141E-01  0.403871033878E-01  0.210493107858E-04 -0.361010667529E-01 -0.384054715873E-01  0.227124565588E-01
  0.194986003845E-01 -0.275138441224E-01 -0.396011088115E-01 -0.726467697676E-01 -0.399848453162E-01 -0.799577655444E-01 -0.374958242226E-01
 -0.275781635936E-01 -0.325131281744E-01  0.147729701633E-01 -0.231665297617E-01 -0.458375995323E-01 -0.115490759177E-01 -0.254969315145E-01
 -0.303033276930E-01 -0.538974297045E-01 -0.370731017644E-01 -0.110982564968E-01 -0.275382245013E-01 -0.277248922316E-01 -0.105062850538E-01
 -0.125378244453E-01 -0.417674747970E-01 -0.283651352748E-01 -0.123132388328E-01
  0.122867701678E+00  0.320535919075E+00  0.166776352106E+00  0.497173910623E+00  0.355788536079E-01  0.611484841632E+00 -0.869803676469E-02
 -0.257688746940E-01  0.608264094221E+00 -0.173482095261E-01  0.427792278960E-01 -0.690239417271E-01  0.350248390339E-01 -0.387878955591E-01
 -0.936547885255E-01 -0.944774609401E-01  0.251854642732E-01  0.397677494305E+00 -0.478700463846E-01 -0.353806275419E+00 -0.122805205249E+00
 -0.803071280966E-01  0.222381703119E-01 -0.389952480554E-01 -0.366640761513E+00  0.248111191364E+00 -0.615763165696E-01 -0.405104412537E+00
 -0.356492324790E+00 -0.318715042363E-01 -0.689384221569E-01 -0.334092642823E+00
        12        19        11        11
        11         5        12        12
        10        14         5         5
        19        13        11        11
        19        24        13        13
        30        23        24        24
        19        12        22        22
        28        22        21        21
        11        13         6         6
         7         6         9         9
        15        12        14        14
        18        13        23        23
        15        25        21        21
        27        19        22        22
        18         8         9         9
        27        31        24        24
         4        11         6         6
         5        14        12        12
         4         2         5         5
        21        12        15        15
        14        16        15        15
        24        19        27        27
        22        29        27        27
        23        26        18        18
        17         8        18        18
         5        11         4         4
         6         3         4         4
        26        23        30        30
         5         2        10        10
        16        14        10        10
         3         6         7         7
        21        25        28        28
        29        22        28        28
         6        13         9         9
         2         4         1         1
        31        27        32        32
        25        15        20        20
        24        23        13        13
         8         7         9         9
        13        18         9         9
        31        30        24        24
        12        21        22        22
        29        32        27        27
         3         1         4         4
        26        17        18        18
        16        20        15        15
zone t="boundary 2 bc-2", solutiontime= 0.1000000E+03, strandid=1002, i=33, j=48, f=feblock
  0.500000000000E+01  0.375000000000E+01  0.250000000000E+01  0.288078410721E+01  0.125000000000E+01  0.190974100652E+01  0.326683758169E+01
  0.201431602454E+01  0.000000000000E+00  0.963108083381E+00  0.500000000000E+01  0.403552511878E+01  0.423153924130E+01  0.500000000000E+01
  0.385533350601E+01  0.500000000000E+01  0.398173246726E+01  0.315249557942E+01  0.267000324704E+01  0.154774304040E+01  0.218329375016E+01
  0.893127759452E+00  0.000000000000E+00  0.698517061619E+00  0.964171764089E+00  0.310324758057E+01  0.000000000000E+00  0.000000000000E+00
  0.125000000000E+01  0.500000000000E+01  0.375000000000E+01  0.250000000000E+01  0.000000000000E+00
 -0.250000000000E+01 -0.250000000000E+01 -0.250000000000E+01 -0.250000000000E+01 -0.250000000000E+01 -0.250000000000E+01 -0.250000000000E+01
 -0.250000000000E+01 -0.250000000000E+01 -0.250000000000E+01 -0.250000000000E+01 -0.250000000000E+01 -0.250000000000E+01 -0.250000000000E+01
 -0.250000000000E+01 -0.250000000000E+01 -0.250000000000E+01 -0.250000000000E+01 -0.250000000000E+01 -0.250000000000E+01 -0.250000000000E+01
 -0.250000000000E+01 -0.250000000000E+01 -0.250000000000E+01 -0.250000000000E+01 -0.250000000000E+01 -0.250000000000E+01 -0.250000000000E+01
 -0.250000000000E+01 -0.250000000000E+01 -0.250000000000E+01 -0.250000000000E+01 -0.250000000000E+01
  0.000000000000E+00  0.000000000000E+00  0.000000000000E+00  0.904659890645E+00  0.000000000000E+00  0.717002441913E+00  0.188609243358E+01
  0.176246431481E+01  0.000000000000E+00  0.961328577125E+00  0.125000000000E+01  0.101201586758E+01  0.191586535653E+01  0.250000000000E+01
  0.293121848150E+01  0.375000000000E+01  0.406975391361E+01  0.363585050272E+01  0.285047954584E+01  0.292817774674E+01  0.395907379566E+01
  0.205246550326E+01  0.125000000000E+01  0.306828197606E+01  0.397245519226E+01  0.433168271247E+01  0.250000000000E+01  0.375000000000E+01
  0.500000000000E+01  0.500000000000E+01  0.500000000000E+01  0.500000000000E+01  0.500000000000E+01
  0.000000000000E+00  0.000000000000E+00  0.000000000000E+00  0.380991906500E+00  0.000000000000E+00  0.343629824950E+00  0.585286157424E+00
  0.579373264282E+00  0.000000000000E+00  0.501056069140E+00  0.508460362676E+00  0.435373026572E+00  0.572640041190E+00  0.537002098944E+00
  0.568922553871E+00  0.514994090651E+00  0.508247257160E+00  0.527252853130E+00  0.567446661127E+00  0.531657143909E+00  0.505981016593E+00
  0.520795579399E+00  0.443624103833E+00  0.490663730453E+00  0.492155873749E+00  0.501390784676E+00  0.467732355362E+00  0.488212087362E+00
  0.490002767114E+00  0.491352304715E+00  0.486075475228E+00  0.490036479234E+00  0.495098264817E+00
  0.999993487379E+00  0.999993690057E+00  0.999993543115E+00  0.989539055875E+00  0.999993137282E+00  0.985524707174E+00  0.989838908967E+00
  0.991798516580E+00  0.999992721792E+00  0.984411112416E+00  0.985091906406E+00  0.984689080896E+00  0.990058464829E+00  0.100289621837E+01
  0.999855369243E+00  0.100485306649E+01  0.100121554699E+01  0.100055642931E+01  0.997896793475E+00  0.100350029570E+01  0.100058068723E+01
  0.101093276247E+01  0.104043292670E+01  0.100326475367E+01  0.100254498742E+01  0.100045587387E+01  0.100976788415E+01  0.100405369352E+01
  0.100192656835E+01  0.100045434508E+01  0.100058774183E+01  0.100109993754E+01  0.100176112495E+01
  0.627199387630E-01  0.492986322124E-01  0.298703805743E-01 -0.582040958877E+00 -0.596718100431E-01 -0.192653189070E+01  0.128324068105E+00
 -0.203704420147E-01 -0.759376606411E-01 -0.891242360991E+00  0.164675191379E+00  0.189680705816E+00  0.129351722996E+00  0.110483506363E+00
  0.812424327468E-01  0.742455159703E-01  0.546796971172E-01  0.632200642795E-01  0.104022952586E+00  0.123988764544E+00  0.824415305008E-01
 -0.314300391688E-01 -0.608574245550E+00  0.839573161218E-01  0.152160538929E+00  0.993188706950E-01  0.879056377902E-01  0.173561315123E+00
  0.724398207401E+00  0.864187875426E-01  0.331101593509E+00  0.636591042504E+00  0.804939895355E+00
 -0.170017519228E-01  0.472854684757E-02 -0.443238631263E-03 -0.100179942272E+00  0.108968829637E-01 -0.239415181101E+00  0.338417969083E-03
  0.100045182555E-01 -0.694005762916E-02 -0.104711479262E+00 -0.371976107993E-01 -0.164678363978E-02 -0.190337536237E-01 -0.282578117515E-01
 -0.188622546222E-01 -0.174093820948E-01 -0.208741474307E-01 -0.174120711988E-01 -0.649697111007E-02  0.103427174689E-01 -0.744172933745E-02
  0.899202661175E-02 -0.745855387165E-01  0.568555311301E-02  0.175378750971E-01 -0.102867162140E-01  0.222565904288E-01  0.370029777003E-01
  0.130322144550E+00 -0.436326450312E-02  0.332771364216E-01  0.989785232718E-01  0.167437544635E+00
  0.378571374060E-02 -0.100527451448E-02 -0.589783112206E-02 -0.135960390748E-01 -0.315821540792E-02 -0.239146241715E-01  0.188758821230E-02
 -0.158394551548E-03  0.590740215403E-02 -0.918063884126E-02  0.219029434439E-02  0.705018103348E-02 -0.136253967688E-03 -0.210269081237E-03
 -0.167214226943E-03  0.330653590788E-03 -0.416199206770E-04  0.173361811227E-03 -0.269876658398E-03 -0.653270033644E-03  0.424261941979E-03
 -0.685208450968E-03  0.254738509717E-02 -0.121923050663E-03  0.700711830247E-04  0.147498457392E-03  0.554953395567E-03  0.197393822776E-03
  0.634738922070E-04  0.571728387478E-04 -0.144670601655E-04 -0.420693997697E-04 -0.169290032402E-03
  0.492813720663E-02  0.496936725562E-02  0.753536746127E-02 -0.255737089571E-01  0.174077178524E-01 -0.535830953207E-02 -0.385288450354E-01
 -0.513252676143E-01  0.147729701633E-01 -0.240479302125E-01 -0.734552002679E-02 -0.270050170400E-01 -0.155587275279E-01 -0.703922936574E-02
 -0.161303195518E-01 -0.591700393517E-02 -0.157145162165E-01 -0.221774553833E-01 -0.262368454160E-01 -0.272156746835E-01 -0.256044025271E-01
 -0.408385619872E-01 -0.275382245013E-01 -0.289736860054E-01 -0.256234320314E-01 -0.221570671564E-01 -0.417674747970E-01 -0.283651352748E-01
 -0.172847190739E-01 -0.921555574493E-02 -0.200538070878E-01 -0.217501999273E-01 -0.123132388328E-01
 -0.168968593128E-01 -0.478128504257E-01 -0.833124726995E-01  0.265606272314E+00 -0.997896082435E-01  0.825297951853E+00 -0.380466093460E-01
  0.108592129226E-01  0.251854642732E-01  0.369212364093E+00 -0.356573255044E-01 -0.574243947484E-01 -0.317565104356E-01 -0.211832713526E-01
 -0.158540590652E-01 -0.150145012209E-01 -0.751327682955E-02 -0.114868115958E-01 -0.284538536128E-01 -0.420580118171E-01 -0.220490245724E-01
  0.144677847365E-01  0.248111191364E+00 -0.270264138888E-01 -0.555117790052E-01 -0.271175553709E-01 -0.318715042363E-01 -0.689384221569E-01
 -0.294331108867E+00 -0.261163324165E-01 -0.124252738461E+00 -0.253122410599E+00 -0.334092642823E+00
        15         7        19        19
         8        20        19        19
        18        19        21        21
         7         4         8         8
         3         6         4         4
        19         7         8         8
        19        18        15        15
        14        13        15        15
         8        22        20        20
        27        24        22        22
        19        20        21        21
        32        26        21        21
        17        18        26        26
        17        16        15        15
        25        29        21        21
        12         7        13        13
        10         8         6         6
        25        20        24        24
         4         6         8         8
        12         2         4         4
        10        23        22        22
        26        31        17        17
        30        16        17        17
         4         7        12        12
        13        11        12        12
        21        20        25        25
        24        28        25        25
        22         8        10        10
         6         5        10        10
        31        26        32        32
         4         2         3         3
         5         6         3         3
        11        13        14        14
        22        23        27        27
        28        24        27        27
        15        13         7         7
         2        12         1         1
        29        25        33        33
        23        10         9         9
        21        26        18        18
        16        14        15        15
        18        17        15        15
        29        32        21        21
        22        24        20        20
        28        33        25        25
        11         1        12        12
        31        30        17        17
         5         9        10        10
zone t="boundary 3 bc-3", solutiontime= 0.1000000E+03, strandid=1003, i=33, j=48, f=feblock
  0.375000000000E+01  0.250000000000E+01  0.500000000000E+01  0.403552511878E+01  0.288078410721E+01  0.125000000000E+01  0.190974100652E+01
  0.500000000000E+01  0.326683758169E+01  0.423153924130E+01  0.201431602454E+01  0.000000000000E+00  0.963108083381E+00  0.500000000000E+01
  0.267000324704E+01  0.385533350601E+01  0.893127759452E+00  0.154774304040E+01  0.000000000000E+00  0.500000000000E+01  0.315249557942E+01
  0.218329375016E+01  0.398173246726E+01  0.000000000000E+00  0.698517061619E+00  0.964171764089E+00  0.125000000000E+01  0.000000000000E+00
  0.500000000000E+01  0.310324758057E+01  0.250000000000E+01  0.375000000000E+01  0.000000000000E+00
  0.250000000000E+01  0.250000000000E+01  0.250000000000E+01  0.250000000000E+01  0.250000000000E+01  0.250000000000E+01  0.250000000000E+01
  0.250000000000E+01  0.250000000000E+01  0.250000000000E+01  0.250000000000E+01  0.250000000000E+01  0.250000000000E+01  0.250000000000E+01
  0.250000000000E+01  0.250000000000E+01  0.250000000000E+01  0.250000000000E+01  0.250000000000E+01  0.250000000000E+01  0.250000000000E+01
  0.250000000000E+01  0.250000000000E+01  0.250000000000E+01  0.250000000000E+01  0.250000000000E+01  0.250000000000E+01  0.250000000000E+01
  0.250000000000E+01  0.250000000000E+01  0.250000000000E+01  0.250000000000E+01  0.250000000000E+01
  0.000000000000E+00  0.000000000000E+00  0.000000000000E+00  0.101201586758E+01  0.904659890645E+00  0.000000000000E+00  0.717002441913E+00
  0.125000000000E+01  0.188609243358E+01  0.191586535653E+01  0.176246431481E+01  0.000000000000E+00  0.961328577125E+00  0.250000000000E+01
  0.285047954584E+01  0.293121848150E+01  0.205246550326E+01  0.292817774674E+01  0.125000000000E+01  0.375000000000E+01  0.363585050272E+01
  0.395907379566E+01  0.406975391361E+01  0.250000000000E+01  0.306828197606E+01  0.397245519226E+01  0.500000000000E+01  0.375000000000E+01
  0.500000000000E+01  0.433168271247E+01  0.500000000000E+01  0.500000000000E+01  0.500000000000E+01
  0.000000000000E+00  0.000000000000E+00  0.000000000000E+00  0.443767745459E+00  0.402286944574E+00  0.000000000000E+00  0.377550369545E+00
  0.509232128688E+00  0.575832179754E+00  0.573707405285E+00  0.562554064412E+00  0.000000000000E+00  0.490563299840E+00  0.534527096543E+00
  0.556586982170E+00  0.564391577749E+00  0.522730517385E+00  0.522052000170E+00  0.441238348384E+00  0.517182331791E+00  0.524228630763E+00
  0.503687457534E+00  0.509488571178E+00  0.469814974359E+00  0.495614442414E+00  0.494483780212E+00  0.488562428343E+00  0.488961654628E+00
  0.492980744788E+00  0.499005552222E+00  0.486460936507E+00  0.484596927548E+00  0.495346592024E+00
  0.999989339439E+00  0.999989408764E+00  0.999989626853E+00  0.981541895460E+00  0.988773990194E+00  0.999989827144E+00  0.982469462434E+00
  0.984104309047E+00  0.990427545862E+00  0.990355285694E+00  0.994362997073E+00  0.999990295028E+00  0.988652071037E+00  0.100368369414E+01
  0.999769197113E+00  0.100118501219E+01  0.100834885320E+01  0.100252111043E+01  0.102982719499E+01  0.100443319461E+01  0.100199536635E+01
  0.100082056599E+01  0.100138192342E+01  0.100826277309E+01  0.100298787130E+01  0.100192389555E+01  0.100215267510E+01  0.100355660048E+01
  0.100047670023E+01  0.100056591053E+01  0.100126820231E+01  0.100066573360E+01  0.100179336279E+01
  0.433754281049E-01 -0.333449060272E-01  0.712425929227E-01 -0.408474735481E+00 -0.156233519806E+01 -0.968949029054E-01 -0.155256481603E+01
  0.244261085904E+00  0.122844881388E+00  0.153346140791E+00 -0.261941597039E+00 -0.153350964691E+00 -0.105412730868E+01  0.116071556789E+00
  0.135610347655E+00  0.955101037812E-01 -0.336030895543E-01  0.131109686309E+00 -0.778105941456E+00  0.790335415488E-01  0.577770979929E-01
  0.791104127380E-01  0.602598226375E-01  0.430674193992E-01  0.112171190502E+00  0.209574754014E+00  0.642083104458E+00  0.234232049767E+00
  0.748549689968E-01  0.919953822121E-01  0.600371912642E+00  0.325663919666E+00  0.852266479424E+00
  0.101397630704E-01  0.977612593630E-02 -0.179055517076E-01 -0.113575266804E+00 -0.215837291197E+00  0.204447964458E-01 -0.193032346603E+00
 -0.397129574534E-01  0.196579277381E-02 -0.209866956480E-01 -0.561124552411E-02 -0.598658260738E-02 -0.799473710604E-01 -0.303714565517E-01
  0.198197678449E-02 -0.159592861226E-01  0.283673853484E-01  0.137692247688E-01 -0.113021066354E+00 -0.193777337568E-01 -0.168025877141E-01
 -0.917184736479E-02 -0.195743124015E-01  0.199299992415E-01  0.262886337471E-01  0.262690222755E-01  0.113878708031E+00  0.514889559424E-01
 -0.681453681798E-02 -0.108181734783E-01  0.931201856015E-01  0.323295020353E-01  0.174993545316E+00
  0.191083584593E-02 -0.107814074328E-02 -0.237654925132E-02  0.783900103535E-02  0.221902890648E-01 -0.863098923746E-02  0.479433526912E-03
 -0.625068539436E-05  0.245538091648E-02 -0.371330120158E-03  0.205420061074E-02 -0.104045314437E-01 -0.117090222327E-01 -0.882003067377E-03
  0.119590290833E-03 -0.109967153412E-03  0.400761198034E-02  0.154260108463E-02 -0.317921766503E-02 -0.494576388627E-03 -0.245589138559E-03
 -0.106146713748E-02 -0.178500426294E-04  0.344539421650E-03  0.907484179165E-03 -0.301221952805E-03 -0.436286756852E-03  0.667714594816E-04
 -0.175989051378E-03  0.781674586003E-05 -0.985151940484E-04  0.249135909678E-04 -0.886575441098E-04
  0.120269223001E-01  0.225193156847E-01  0.620246455626E-02 -0.160258677976E-01 -0.262855563207E-01  0.216444298899E-01 -0.782026765674E-02
 -0.951894779035E-02 -0.486586484900E-01 -0.233858100019E-01 -0.708477981416E-01  0.372209138992E-01 -0.231754844442E-01 -0.932797010760E-02
 -0.248817296563E-01 -0.207526368135E-01 -0.595920023477E-01 -0.265833435381E-01  0.333124298141E-01 -0.826241430955E-02 -0.238930286075E-01
 -0.246992107314E-01 -0.178250252083E-01 -0.396011088115E-01 -0.382992579673E-01 -0.255065350505E-01 -0.182641441751E-01 -0.325131281744E-01
 -0.878188165834E-02 -0.231822990870E-01 -0.221357242000E-01 -0.201778537950E-01 -0.115490759177E-01
 -0.181483706307E+00 -0.786373834562E-01 -0.356125536358E-01  0.211161234410E+00  0.676260034659E+00 -0.735982874508E-02  0.652420112774E+00
 -0.624183139534E-01 -0.380761104513E-01 -0.396534120445E-01  0.102364311697E+00  0.122867701678E+00  0.415455245337E+00 -0.218389664726E-01
 -0.428976371912E-01 -0.216213751201E-01  0.104335129543E-01 -0.454430852825E-01  0.320535919075E+00 -0.155077228015E-01 -0.954741005331E-02
 -0.203778364929E-01 -0.981751161485E-02 -0.173482095261E-01 -0.409727064180E-01 -0.788460362134E-01 -0.259583367295E+00 -0.944774609401E-01
 -0.212084517214E-01 -0.242773329055E-01 -0.238229695524E+00 -0.121902138834E+00 -0.353806275419E+00
        15         9        16        16
        15        18        11        11
        22        15        21        21
        11         5         9         9
         5         7         2         2
        11         9        15        15
        16        21        15        15
        16        10        14        14
        18        17        11        11
        17        25        24        24
        22        18        15        15
        22        30        31        31
        30        21        23        23
        16        20        23        23
        22        27        26        26
        10         9         4         4
         7        11        13        13
        25        18        26        26
        11         7         5         5
         5         1         4         4
        17        19        13        13
        23        32        30        30
        23        20        29        29
         4         9         5         5
         4         8        10        10
        26        18        22        22
        26        28        25        25
        13        11        17        17
        13         6         7         7
        31        30        32        32
         2         1         5         5
         2         7         6         6
        14        10         8         8
        24        19        17        17
        24        25        28        28
         9        10        16        16
         3         4         1         1
        33        26        27        27
        12        13        19        19
        21        30        22        22
        16        14        20        20
        16        23        21        21
        22        31        27        27
        18        25        17        17
        26        33        28        28
         4         3         8         8
        23        29        32        32
        13        12         6         6
zone t="boundary 4 bc-4", solutiontime= 0.1000000E+03, strandid=1004, i=32, j=46, f=feblock
  0.125000000000E+01  0.219251206392E+01  0.103724302461E+01  0.500000000000E+01  0.250000000000E+01  0.375000000000E+01  0.404200324774E+01
  0.500000000000E+01  0.000000000000E+00  0.310152362409E+01  0.202479342020E+01  0.324151231464E+01  0.922061490191E+00  0.000000000000E+00
  0.299062775774E+01  0.394624082883E+01  0.500000000000E+01  0.409252726285E+01  0.500000000000E+01  0.429310310915E+01  0.175434191980E+01
  0.284428995242E+01  0.000000000000E+00  0.000000000000E+00  0.715990576545E+00  0.930412228790E+00  0.125000000000E+01  0.187029682677E+01
  0.500000000000E+01  0.375000000000E+01  0.250000000000E+01  0.000000000000E+00
  0.250000000000E+01  0.157686156160E+01  0.146289271009E+01  0.250000000000E+01  0.250000000000E+01  0.250000000000E+01  0.155830813274E+01
  0.125000000000E+01  0.250000000000E+01  0.177790177481E+01  0.477386199275E+00  0.742988685424E+00  0.308372018325E+00  0.125000000000E+01
 -0.487811078581E+00 -0.144524380962E+01 -0.125000000000E+01 -0.345533899378E+00  0.000000000000E+00  0.627766083140E+00 -0.739814786992E+00
 -0.158811787973E+01  0.000000000000E+00 -0.125000000000E+01 -0.600232012419E+00 -0.154800130438E+01 -0.250000000000E+01 -0.178862290564E+01
 -0.250000000000E+01 -0.250000000000E+01 -0.250000000000E+01 -0.250000000000E+01
  0.500000000000E+01  0.500000000000E+01  0.500000000000E+01  0.500000000000E+01  0.500000000000E+01  0.500000000000E+01  0.500000000000E+01
  0.500000000000E+01  0.500000000000E+01  0.500000000000E+01  0.500000000000E+01  0.500000000000E+01  0.500000000000E+01  0.500000000000E+01
  0.500000000000E+01  0.500000000000E+01  0.500000000000E+01  0.500000000000E+01  0.500000000000E+01  0.500000000000E+01  0.500000000000E+01
  0.500000000000E+01  0.500000000000E+01  0.500000000000E+01  0.500000000000E+01  0.500000000000E+01  0.500000000000E+01  0.500000000000E+01
  0.500000000000E+01  0.500000000000E+01  0.500000000000E+01  0.500000000000E+01
  0.488562428343E+00  0.488873127044E+00  0.490562939264E+00  0.492980744788E+00  0.486460936507E+00  0.484596927548E+00  0.485347896276E+00
  0.494163542317E+00  0.495346592024E+00  0.486528232758E+00  0.487819998460E+00  0.487068916091E+00  0.494045904395E+00  0.496127394917E+00
  0.487612357629E+00  0.483219722850E+00  0.492395510969E+00  0.487214141159E+00  0.494738985333E+00  0.487958525499E+00  0.489677249447E+00
  0.488029107105E+00  0.497246279768E+00  0.496059270892E+00  0.494951052257E+00  0.492800373677E+00  0.490002767114E+00  0.490005124553E+00
  0.491352304715E+00  0.486075475228E+00  0.490036479234E+00  0.495098264817E+00
  0.100215267510E+01  0.100152652958E+01  0.100178347660E+01  0.100047670023E+01  0.100126820231E+01  0.100066573360E+01  0.100025357725E+01
  0.100050391679E+01  0.100179336279E+01  0.100112367258E+01  0.100133045248E+01  0.100072432973E+01  0.100164366725E+01  0.100168844809E+01
  0.100096274503E+01  0.100000874853E+01  0.100082864314E+01  0.100022269190E+01  0.100062146074E+01  0.100023497311E+01  0.100174635719E+01
  0.100098855496E+01  0.100118726928E+01  0.100134171022E+01  0.100132635956E+01  0.100179873777E+01  0.100192656835E+01  0.100163748619E+01
  0.100045434508E+01  0.100058774183E+01  0.100109993754E+01  0.100176112495E+01
  0.642083104458E+00  0.622658968709E+00  0.639461676651E+00  0.748549689968E-01  0.600371912642E+00  0.325663919666E+00  0.226456845607E+00
  0.745354438892E-01  0.852266479424E+00  0.499056914656E+00  0.669191667117E+00  0.468967699801E+00  0.779479922538E+00  0.881599476551E+00
  0.528514069203E+00  0.217771045237E+00  0.842428426117E-01  0.277403839459E+00  0.691396003283E-01  0.277272023457E+00  0.823519265150E+00
  0.497204839181E+00  0.971234801040E+00  0.856659931240E+00  0.902931480339E+00  0.723793429815E+00  0.724398207401E+00  0.766050641851E+00
  0.864187875426E-01  0.331101593509E+00  0.636591042504E+00  0.804939895355E+00