# vtk DataFile Version 2.0
FUN3D:global_image_vtk
ASCII
DATASET UNSTRUCTURED_GRID
POINTS 213 double
   -0.5474685441685613E-02    0.2504941971167290E+01    0.8038138598215152E-04
    0.1245419105183474E+01    0.2504941971167290E+01    0.1039425057966480E-03
    0.2497696093128781E+01    0.2504941971167290E+01    0.1101298164617987E-03
    0.3750590968915823E+01    0.2504941971167290E+01    0.1356499004895835E-03
    0.5003221331742151E+01    0.2504941971167290E+01    0.9668873038426183E-04
    0.5004676687979095E+01    0.1281291202167033E+01    0.1638053019352147E-03
    0.5004772673778113E+01    0.2775079906482346E-01    0.1903478008421496E-03
    0.5003581183341211E+01   -0.1225853508883533E+01    0.1607765204479912E-03
    0.5001952533742191E+01   -0.2496589036641632E+01    0.1082258890306985E-03
    0.3750348111606544E+01   -0.2496589036641632E+01    0.1458753696819688E-03
    0.2498611462994928E+01   -0.2496589036641632E+01    0.1008933264249334E-03
    0.1247175269333278E+01   -0.2496589036641632E+01    0.1108587619172973E-03
   -0.3383959865718364E-02   -0.2496589036641632E+01    0.8107259626505415E-04
   -0.4257768979763826E-02   -0.1225734811642594E+01    0.3415458742206369E-04
   -0.5251592448508369E-02    0.2619486024420057E-01    0.1038724387166235E-03
   -0.5676060312424184E-02    0.1278221569065702E+01    0.8224601701805985E-04
    0.9003209617952610E+00    0.1608979112280153E+01    0.8704140727250093E-04
    0.3983172210692288E+01   -0.1561211904840281E+01    0.1757116720362275E-03
    0.4035602039224468E+01    0.1486760030415513E+01    0.1713312862068320E-03
    0.1036613723302902E+01   -0.1455626429916852E+01    0.1047189301526795E-03
    0.1094353480630805E+01   -0.2964622010671901E+00    0.1260590236897279E-03
    0.7298400267480016E+00    0.6874684746719064E+00    0.1044598640514976E-03
    0.1617018659308947E+01    0.8553208024939307E+00    0.1529810904946073E-03
    0.2143199662875790E+01   -0.1627128509216734E+01    0.1606170425219597E-03
    0.4088840445400889E+01   -0.4351047825936316E+00    0.2719933294092469E-03
    0.2977916511248925E+01   -0.8334991483094548E+00    0.2245596931848549E-03
    0.3044093241383418E+01   -0.1814361225108585E+01    0.1617000112413266E-03
    0.3427866614805212E+01    0.3813904839972428E+00    0.2936955483405760E-03
    0.4313225355351750E+01    0.5489133376342430E+00    0.2313009573562938E-03
    0.1823032737597360E+01    0.1771265193544247E+01    0.1836202887112150E-03
    0.2806311152168376E+01    0.1358629373600674E+01    0.1943492163949922E-03
    0.1891860875936713E+01   -0.8481310365607586E+00    0.1670645501796731E-03
    0.2268769200166910E+01    0.7723691819195995E-01    0.2072307783061443E-03
    0.5000000000000000E+01    0.2504941971167290E+01    0.1250000000000000E+01
    0.5000000000000000E+01    0.2504941971167290E+01    0.2500000000000000E+01
    0.5000000000000000E+01    0.2504941971167290E+01    0.3750000000000000E+01
    0.5000000000000000E+01    0.2504941971167290E+01    0.5000000000000000E+01
    0.3750000000000000E+01    0.2504941971167290E+01    0.5000000000000000E+01
    0.2500000000000000E+01    0.2504941971167290E+01    0.5000000000000000E+01
    0.1250000000000000E+01    0.2504941971167290E+01    0.5000000000000000E+01
    0.0000000000000000E+00    0.2504941971167290E+01    0.5000000000000000E+01
    0.0000000000000000E+00    0.2504941971167290E+01    0.3750000000000000E+01
    0.0000000000000000E+00    0.2504941971167290E+01    0.2500000000000000E+01
    0.0000000000000000E+00    0.2504941971167290E+01    0.1250000000000000E+01
    0.9588956434871108E+00    0.2504941971167290E+01    0.9696525519543818E+00
    0.3981953078951401E+01    0.2504941971167290E+01    0.4070563854751270E+01
    0.4036122187252336E+01    0.2504941971167290E+01    0.1017567520094666E+01
    0.9637572773153891E+00    0.2504941971167290E+01    0.3973598203142228E+01
    0.1546540136992396E+01    0.2504941971167290E+01    0.2931570169315598E+01
    0.6973799521244317E+00    0.2504941971167290E+01    0.3070319952453755E+01
    0.8903742148356895E+00    0.2504941971167290E+01    0.2056562238187735E+01
    0.2183041995146012E+01    0.2504941971167290E+01    0.3960694449828018E+01
    0.3855844872709870E+01    0.2504941971167290E+01    0.2933250588118629E+01
    0.3152611367438029E+01    0.2504941971167290E+01    0.3637668388416194E+01
    0.3103307385241870E+01    0.2504941971167290E+01    0.4332607813099730E+01
    0.3266711045517939E+01    0.2504941971167290E+01    0.1889656617463735E+01
    0.4232537554484795E+01    0.2504941971167290E+01    0.1918626969802349E+01
    0.1905522374036521E+01    0.2504941971167290E+01    0.7226290832134552E+00
    0.2879767723645806E+01    0.2504941971167290E+01    0.9080945892181931E+00
    0.2012711365064516E+01    0.2504941971167290E+01    0.1767082390977750E+01
    0.2669681472994637E+01    0.2504941971167290E+01    0.2853394335010789E+01
    0.5000000000000000E+01    0.1250000000000000E+01    0.5000000000000000E+01
    0.5000000000000000E+01    0.0000000000000000E+00    0.5000000000000000E+01
    0.5000000000000000E+01   -0.1250000000000000E+01    0.5000000000000000E+01
    0.5000000000000000E+01   -0.2496589036641632E+01    0.5000000000000000E+01
    0.5000000000000000E+01   -0.2496589036641632E+01    0.3750000000000000E+01
    0.5000000000000000E+01   -0.2496589036641632E+01    0.2500000000000000E+01
    0.5000000000000000E+01   -0.2496589036641632E+01    0.1250000000000000E+01
    0.5000000000000000E+01    0.1578994732800803E+01    0.9058375365086910E+00
    0.5000000000000000E+01   -0.1583989954232354E+01    0.3982050490726493E+01
    0.5000000000000000E+01    0.1453322699199022E+01    0.4033849428301197E+01
    0.5000000000000000E+01   -0.1479596339503735E+01    0.1040505887381675E+01
    0.5000000000000000E+01   -0.3227322616384110E+00    0.1099454400140349E+01
    0.5000000000000000E+01    0.6593508822075582E+00    0.7354504170366591E+00
    0.5000000000000000E+01    0.8256214013940779E+00    0.1622302608453282E+01
    0.5000000000000000E+01   -0.1650070333782557E+01    0.2145871574390382E+01
    0.5000000000000000E+01   -0.4612828702537229E+00    0.4086422318222992E+01
    0.5000000000000000E+01   -0.8579242121530853E+00    0.2979540174134984E+01
    0.5000000000000000E+01   -0.1836846154397680E+01    0.3045064261640043E+01
    0.5000000000000000E+01    0.3508002863614053E+00    0.3428197553792836E+01
    0.5000000000000000E+01    0.5185680230613409E+00    0.4309693860063405E+01
    0.5000000000000000E+01    0.1738996113203182E+01    0.1827272193562204E+01
    0.5000000000000000E+01    0.1325493893339706E+01    0.2808563282768077E+01
    0.5000000000000000E+01   -0.8731419609589618E+00    0.1895995683864404E+01
    0.5000000000000000E+01    0.4906150219227333E-01    0.2273179336307740E+01
    0.0000000000000000E+00    0.1250000000000000E+01    0.5000000000000000E+01
    0.0000000000000000E+00    0.0000000000000000E+00    0.5000000000000000E+01
    0.0000000000000000E+00   -0.1250000000000000E+01    0.5000000000000000E+01
    0.0000000000000000E+00   -0.2496589036641632E+01    0.5000000000000000E+01
    0.1250000000000000E+01   -0.2496589036641632E+01    0.5000000000000000E+01
    0.2500000000000000E+01   -0.2496589036641632E+01    0.5000000000000000E+01
    0.3750000000000000E+01   -0.2496589036641632E+01    0.5000000000000000E+01
    0.4042003247744892E+01    0.1558308132739014E+01    0.5000000000000000E+01
    0.9304122287900499E+00   -0.1548001304379777E+01    0.5000000000000000E+01
    0.1037243024609388E+01    0.1462892710085612E+01    0.5000000000000000E+01
    0.3946240828834967E+01   -0.1445243809615570E+01    0.5000000000000000E+01
    0.4092527262848217E+01   -0.3455338993778935E+00    0.5000000000000000E+01
    0.4293103109154542E+01    0.6277660831404320E+00    0.5000000000000000E+01
    0.3241512314643519E+01    0.7429886854239611E+00    0.5000000000000000E+01
    0.2844289952419609E+01   -0.1588117879734118E+01    0.5000000000000000E+01
    0.7159905765450471E+00   -0.6002320124191652E+00    0.5000000000000000E+01
    0.1754341919796891E+01   -0.7398147869923652E+00    0.5000000000000000E+01
    0.1870296826774691E+01   -0.1788622905643739E+01    0.5000000000000000E+01
    0.9220614901912976E+00    0.3083720183248586E+00    0.5000000000000000E+01
    0.3101523624086016E+01    0.1777901774806180E+01    0.5000000000000000E+01
    0.2192512063922564E+01    0.1576861561598471E+01    0.5000000000000000E+01
    0.2024793420196460E+01    0.4773861992750707E+00    0.5000000000000000E+01
    0.2990627757741975E+01   -0.4878110785814084E+00    0.5000000000000000E+01
    0.0000000000000000E+00   -0.2496589036641632E+01    0.1250000000000000E+01
    0.0000000000000000E+00   -0.2496589036641632E+01    0.2500000000000000E+01
    0.0000000000000000E+00   -0.2496589036641632E+01    0.3750000000000000E+01
    0.0000000000000000E+00    0.1558308132739014E+01    0.4042003247744892E+01
    0.0000000000000000E+00   -0.1548001304379777E+01    0.9304122287900499E+00
    0.0000000000000000E+00    0.1462892710085612E+01    0.1037243024609388E+01
    0.0000000000000000E+00   -0.1445243809615570E+01    0.3946240828834967E+01
    0.0000000000000000E+00   -0.3455338993778935E+00    0.4092527262848217E+01
    0.0000000000000000E+00    0.6277660831404320E+00    0.4293103109154542E+01
    0.0000000000000000E+00    0.7429886854239611E+00    0.3241512314643519E+01
    0.0000000000000000E+00   -0.1588117879734118E+01    0.2844289952419609E+01
    0.0000000000000000E+00   -0.6002320124191652E+00    0.7159905765450471E+00
    0.0000000000000000E+00   -0.7398147869923652E+00    0.1754341919796891E+01
    0.0000000000000000E+00   -0.1788622905643739E+01    0.1870296826774691E+01
    0.0000000000000000E+00    0.3083720183248586E+00    0.9220614901912976E+00
    0.0000000000000000E+00    0.1777901774806180E+01    0.3101523624086016E+01
    0.0000000000000000E+00    0.1576861561598471E+01    0.2192512063922564E+01
[...]
POINT_DATA 213
SCALARS rho double 1
LOOKUP_TABLE default
   0.1346125695035917E+01
   0.9572084529090219E+00
   0.9461020640321678E+00
   0.9421833083753649E+00
   0.8436100805381718E+00
   0.7742024924724578E+00
   0.7627632916087301E+00
   0.7661496234061015E+00
   0.8310481705635137E+00
   0.9353608199403061E+00
   0.9344036384411408E+00
   0.9615898878171553E+00
   0.1448480209172382E+01
   0.1495421840821243E+01
   0.1646754928544067E+01
   0.1426608059022155E+01
   0.1009808068866887E+01
   0.9511456930619878E+00
   0.9438291106279607E+00
   0.9574489510690829E+00
   0.9414832417716421E+00
   0.1037118221544028E+01
   0.9258147539140364E+00
   0.9322497229122197E+00
   0.9538141800659846E+00
   0.9520438485473163E+00
   0.9350971720704039E+00
   0.9565537239768005E+00
   0.9378700246276249E+00
   0.9303318786832883E+00
   0.9446515870015910E+00
   0.8862352514596925E+00
   0.9424046837879313E+00
   0.9637217347336323E+00
   0.1008362577443391E+01
   0.1006713364224086E+01
   0.1001959242786810E+01
   0.1003218316848867E+01
   0.1004120537739722E+01
   0.1005207992731935E+01
   0.1004249813772406E+01
   0.1008267843968391E+01
   0.1023867443182334E+01
   0.1063751875359038E+01
   0.1019386187350539E+01
   0.1001778933820238E+01
   0.9645975359563841E+00
   0.1005263110574790E+01
   0.1000745578468451E+01
   0.1008695104914266E+01
   0.1008032475291149E+01
   0.1002354651054621E+01
   0.9980224682922934E+00
   0.1000594441059126E+01
   0.1001621537584865E+01
   0.9828107804635416E+00
   0.9844011055433787E+00
   0.9834292501540124E+00
   0.9790423947956433E+00
   0.9904798795046957E+00
   0.9935224894701983E+00
   0.1002009106200422E+01
   0.1002132313696357E+01
   0.1002273033565273E+01
   0.1001793219421645E+01
   0.1009814973789588E+01
   0.1006499311890232E+01
   0.9560849998237929E+00
   0.9252996591989079E+00
   0.1007053713234624E+01
   0.1004491538538493E+01
   0.9144889716216383E+00
   0.9091476765070627E+00
   0.8752502579744118E+00
   0.9768039027739175E+00
   0.1000530366549356E+01
   0.1005826553801951E+01
   0.1012895293549056E+01
   0.1011677102509934E+01
   0.1010415988244191E+01
   0.1005456560687330E+01
   0.9909260245286238E+00
   0.1005152543412439E+01
   0.9860803849229431E+00
   0.1005592650745753E+01
   0.1004239968554371E+01
   0.1002886283566540E+01
   0.1003350788741607E+01
   0.1003998912077618E+01
   0.1005116700243594E+01
   0.1003224183289966E+01
   0.1002669182793081E+01
   0.1002590257689545E+01
   0.1004070004797688E+01
   0.1004304937696001E+01
   0.1001643035310544E+01
   0.1002279358044146E+01
   0.1002547250087228E+01
   0.1003472641535626E+01
   0.1003380930778110E+01
   0.1003233776673631E+01
   0.1004430853979553E+01
   0.1004325283089208E+01
   0.1003653379382751E+01
   0.1003719191746921E+01
   0.1004319534091127E+01
   0.1004463155540922E+01
   0.1003629980310338E+01
   0.1064490581908389E+01
   0.1028445780953416E+01
   0.1009607603187807E+01
   0.1006626774140777E+01
   0.1163979474123225E+01
   0.1086026004368352E+01
   0.1007908398905984E+01
   0.1007252664599188E+01
   0.1006796746928301E+01
   0.1013053608790988E+01
   0.1019342644437031E+01
   0.1235143811287954E+01
   0.1032536233119649E+01
   0.1046567728918717E+01
   0.1201703013078955E+01
   0.1014671125423322E+01
   0.1032295324330712E+01
   0.1028222151221091E+01
   0.1014641483660581E+01
   0.1029002257867478E+01
   0.1002002818941000E+01
   0.9607830587995331E+00
   0.1006859706960861E+01
   0.1001326954081782E+01
   0.1010800868387647E+01
   0.1012237273324822E+01
   0.1000940436385035E+01
   0.9979317236208097E+00
   0.9980683697336085E+00
   0.1001191956523719E+01
   0.9841985799412187E+00
   0.9815070583129165E+00
   0.9648654918888514E+00
   0.9680713430984031E+00
   0.9914149191876218E+00
   0.9910916480000243E+00
   0.9925598185004645E+00
   0.1001728510436767E+01
   0.9993250772930806E+00
   0.9941444030114309E+00
   0.1006981383602905E+01
   0.1022611654139119E+01
   0.1001121692014153E+01
   0.1008784265640018E+01
   0.1004775044094432E+01
   0.1009029447405496E+01
   0.9967197951327165E+00
   0.1005567613334424E+01
   0.1003325685898469E+01
   0.9949865130496741E+00
   0.9833521897361091E+00
   0.9944521642504968E+00
   0.9973482233472745E+00
   0.9932519263296709E+00
   0.1001312608428526E+01
   0.1003001448831451E+01
   0.1002189173548589E+01
   0.9947119516657943E+00
   0.9937839726277703E+00
   0.1004862069492991E+01
   0.1020102936792316E+01
   0.1005341234469873E+01
   0.9817063602251855E+00
   0.1004975501316124E+01
   0.1012376568800061E+01
   0.9873747463035865E+00
   0.9551282273420387E+00
   0.9865280377107891E+00
   0.9865952834682657E+00
   0.9920084247584849E+00
   0.9934470867358978E+00
   0.9960657347933108E+00
   0.1037405690945934E+01
   0.1033165796360046E+01
   0.1001443358522214E+01
   0.1001929574694358E+01
   0.9912286695089259E+00
   0.9911121699048898E+00
   0.9649300818470090E+00
   0.9933729919862178E+00
   0.1006089075222445E+01
   0.1001962081102829E+01
   0.9908628495391524E+00
   0.9742274498354327E+00
   0.9420781789449691E+00
   0.9821604772332920E+00
   0.9794777370735777E+00
   0.9704352201077326E+00
   0.9720842372843049E+00
   0.9557868492440491E+00
   0.9497981759252349E+00
   0.9529847958936580E+00
   0.1002637256727320E+01
   0.1002476301942045E+01
   0.1000513242356362E+01
   0.1001675738166213E+01
   0.9610108166358925E+00
   0.9492469481875719E+00
   0.9586432518148059E+00
   0.1001121462656908E+01
   0.1000500591059718E+01
   0.1001161102780664E+01
   0.9807429277626811E+00
   0.9805608284435313E+00
   0.9629214374677589E+00
SCALARS u double 1
LOOKUP_TABLE default
   0.0000000000000000E+00
   0.0000000000000000E+00
   0.0000000000000000E+00
   0.0000000000000000E+00
   0.0000000000000000E+00
   0.0000000000000000E+00
   0.0000000000000000E+00
   0.0000000000000000E+00
   0.0000000000000000E+00
   0.0000000000000000E+00
   0.0000000000000000E+00
   0.0000000000000000E+00
   0.0000000000000000E+00
   0.0000000000000000E+00
   0.0000000000000000E+00
   0.0000000000000000E+00
   0.0000000000000000E+00
   0.0000000000000000E+00
   0.0000000000000000E+00
   0.0000000000000000E+00
   0.0000000000000000E+00
   0.0000000000000000E+00
   0.0000000000000000E+00
   0.0000000000000000E+00
   0.0000000000000000E+00
   0.0000000000000000E+00
   0.0000000000000000E+00
   0.0000000000000000E+00
   0.0000000000000000E+00
   0.0000000000000000E+00
   0.0000000000000000E+00
   0.0000000000000000E+00
   0.0000000000000000E+00
   0.4946084288069874E+00
   0.5336296240044499E+00
   0.5182737276175193E+00
   0.4930696991467483E+00
   0.4847718153833411E+00
   0.4868108141520294E+00
   0.4891429103556855E+00
   0.4958014371831374E+00
   0.4899016129300116E+00
   0.4718097597074569E+00
   0.4448926899505946E+00
   0.4844425909444038E+00
   0.5097672062982920E+00
   0.4402157098136590E+00
   0.4949584585353152E+00
   0.5222981755743238E+00
   0.4962761334480363E+00
   0.5223877812469415E+00
   0.5038134101136277E+00
   0.5644352144689831E+00
   0.5245862230393485E+00
   0.4990946937085363E+00
   0.5729384845425493E+00
   0.5693720707821245E+00
   0.3752129679955173E+00
   0.4003935339783640E+00
   0.5599622499876517E+00
   0.5562276756283634E+00
   0.4942631205853523E+00
   0.4948654065912179E+00
   0.4925634788360335E+00
   0.4913991782649626E+00
   0.5162611628351496E+00
   0.5363588932803254E+00
   0.4951213600742666E+00
   0.4520531571147424E+00
   0.5129024770779272E+00
   0.5117690501121300E+00
   0.4786251288790575E+00
   0.4931155291547121E+00
   0.4600306964865117E+00
   0.5242629206355262E+00
   0.5299866667929457E+00
   0.5129711986499834E+00
   0.5328938855303214E+00
   0.5309772095342602E+00
   0.5309771249528649E+00
   0.5063651397078137E+00
   0.5279605778976753E+00
   0.5409254476436439E+00
   0.5363677254856120E+00
   0.5374194373094836E+00
   0.4965359092443446E+00
   0.4975361619354631E+00
   0.4963807508688323E+00
   0.4955144774004853E+00
   0.4904151885727099E+00
   0.4902491480062054E+00
   0.4861626495245610E+00
   0.4854037801488489E+00
   0.4931941381998563E+00
   0.4910329240355256E+00
   0.4831698325821907E+00
   0.4872469651376519E+00
   0.4880011036171241E+00
   0.4872294067065192E+00
   0.4882160209554749E+00
   0.4952567367684744E+00
   0.4900705810674698E+00
   0.4903581268149690E+00
   0.4944346865137099E+00
   0.4868163409730404E+00
   0.4892720570607146E+00
   0.4881455391271604E+00
   0.4878245201303956E+00
   0.4449022017416290E+00
   0.4700099664576421E+00
   0.4891756201210539E+00
   0.4885980864864313E+00
   0.4510286416885813E+00
   0.4681799612348739E+00
   0.4876648972578904E+00
   0.4868253756473598E+00
   0.4909267529966447E+00
   0.4793946318470390E+00
   0.4657884654882568E+00
   0.3794302311558087E+00
   0.4903697418704523E+00
   0.4487929174628203E+00
   0.4432385352858261E+00
   0.4845729178251503E+00
   0.4621884479282760E+00
   0.4663602298189461E+00
   0.4747774268302856E+00
   0.4893613110766711E+00
   0.5085681490918409E+00
   0.4304904288257286E+00
   0.4927280753218148E+00
   0.5320316186758256E+00
   0.4913826502372056E+00
   0.5209404403072286E+00
   0.5061319832954744E+00
   0.5690636322041114E+00
   0.5275039926258670E+00
   0.5015047803206382E+00
   0.5821373616811573E+00
   0.5691503699098187E+00
   0.3402452489884941E+00
   0.3785432683426486E+00
   0.5753091280441991E+00
   0.5668547248456824E+00
   0.5703055450637186E+00
   0.5291879659650958E+00
   0.5449833827745162E+00
   0.5719093998686251E+00
   0.5385694586284980E+00
   0.5475896935342456E+00
   0.5821565651455818E+00
   0.4925313044791537E+00
   0.5041557173880569E+00
   0.4961299802843410E+00
   0.5562803684030694E+00
   0.4757814623176935E+00
   0.4950174787824818E+00
   0.5496174669322306E+00
   0.5889519109029346E+00
   0.5839568632457213E+00
   0.5468163490178927E+00
   0.5803877177590108E+00
   0.5106055686405578E+00
   0.5029532232496212E+00
   0.5033085366575482E+00
   0.5676232051079345E+00
   0.5564629524610947E+00
   0.4947135439099613E+00
   0.5506799460669581E+00
   0.5513545695816934E+00
   0.5658254156488653E+00
   0.4919953535858918E+00
   0.4927852057164112E+00
   0.3865438333870306E+00
   0.3687907201091076E+00
   0.5574381186513221E+00
   0.5761778934058686E+00
   0.4194381850270520E+00
   0.5822999345352081E+00
   0.4268238594238195E+00
   0.5397390504922103E+00
   0.5016174621594550E+00
   0.5119228228361091E+00
   0.5048434162714980E+00
   0.5752768153777293E+00
   0.5878367583383687E+00
   0.5382358737526945E+00
   0.5679645539866355E+00
   0.5352016966117931E+00
   0.5338463691634769E+00
   0.5582293098615558E+00
   0.5511563289159669E+00
   0.4256775829099013E+00
   0.5272986081822491E+00
   0.5796794665945091E+00
   0.3318312940944589E+00
   0.4761441131221028E+00
   0.5446494935934885E+00
   0.4800669225459119E+00
   0.3006201116157457E+00
   0.5031625244224588E+00
   0.5017180910461979E+00
   0.5129133725275691E+00
   0.5414117103863813E+00
   0.3435217004223352E+00
   0.3398080158928145E+00
   0.3190194433549569E+00
   0.5066187048617292E+00
   0.5123864698962057E+00
   0.5329068379874210E+00
   0.5881307274754271E+00
   0.4644883168688375E+00
   0.3529622375375734E+00
SCALARS v double 1
LOOKUP_TABLE default
   0.0000000000000000E+00
   0.0000000000000000E+00
   0.0000000000000000E+00
   0.0000000000000000E+00
   0.0000000000000000E+00
   0.0000000000000000E+00
   0.0000000000000000E+00
   0.0000000000000000E+00
   0.0000000000000000E+00
   0.0000000000000000E+00
   0.0000000000000000E+00
   0.0000000000000000E+00
   0.0000000000000000E+00
   0.0000000000000000E+00
   0.0000000000000000E+00
   0.0000000000000000E+00
   0.0000000000000000E+00
   0.0000000000000000E+00
   0.0000000000000000E+00
   0.0000000000000000E+00
   0.0000000000000000E+00
   0.0000000000000000E+00
   0.0000000000000000E+00
   0.0000000000000000E+00
   0.0000000000000000E+00
   0.0000000000000000E+00
   0.0000000000000000E+00
   0.0000000000000000E+00
   0.0000000000000000E+00
   0.0000000000000000E+00
   0.0000000000000000E+00
   0.0000000000000000E+00
   0.0000000000000000E+00
   0.0000000000000000E+00
   0.0000000000000000E+00
   0.0000000000000000E+00
   0.0000000000000000E+00
   0.0000000000000000E+00
   0.0000000000000000E+00
   0.0000000000000000E+00
   0.0000000000000000E+00
   0.0000000000000000E+00
   0.0000000000000000E+00
   0.0000000000000000E+00
   0.0000000000000000E+00
   0.0000000000000000E+00
   0.0000000000000000E+00
   0.0000000000000000E+00
   0.0000000000000000E+00
   0.0000000000000000E+00
   0.0000000000000000E+00
   0.0000000000000000E+00
   0.0000000000000000E+00
   0.0000000000000000E+00
   0.0000000000000000E+00
   0.0000000000000000E+00
   0.0000000000000000E+00
   0.0000000000000000E+00
   0.0000000000000000E+00
   0.0000000000000000E+00
   0.0000000000000000E+00
   0.8513956484826746E-03
  -0.1262642999487669E-02
  -0.1293744907040739E-02
   0.0000000000000000E+00
   0.0000000000000000E+00
   0.0000000000000000E+00
   0.0000000000000000E+00
  -0.1933774835235722E-01
   0.5035654664952089E-03
   0.2213150341024137E-02
   0.1419313553699400E-01
  -0.6753674470403245E-02
  -0.8171005988399512E-02
  -0.1325788816769419E-01
   0.4993928974024345E-02
   0.7358920798604322E-03
   0.3478387728456091E-02
   0.1946723410452564E-02
   0.3168070971148924E-02
   0.1755557012486176E-02
  -0.7295456444460129E-02
  -0.6912340363486758E-04
   0.4552257848500333E-02
  -0.4165987292721330E-03
  -0.6650696940949620E-04
  -0.2024619555510282E-03
   0.8052041517167943E-03
   0.0000000000000000E+00
   0.0000000000000000E+00
   0.0000000000000000E+00
   0.0000000000000000E+00
   0.4747328598538272E-03
   0.1624023001371741E-02
  -0.1273124936484886E-02
  -0.9977698595389217E-03
  -0.2076424688198417E-02
  -0.9960590343813713E-03
  -0.7502623019236236E-03
  -0.7419323381353901E-03
   0.6055388210593835E-04
  -0.5966228797959618E-03
   0.8041025402014485E-03
  -0.1730002220136315E-02
   0.3146411115350934E-03
  -0.5710209923070416E-04
  -0.8890512776552793E-03
  -0.1052085466429223E-02
   0.0000000000000000E+00
   0.0000000000000000E+00
   0.0000000000000000E+00
  -0.1035601571586078E-02
  -0.7789944105691319E-02
   0.1821259134870562E-01
  -0.2902416386248006E-04
  -0.1377098266158026E-02
  -0.2028457029394584E-02
  -0.5613671727632235E-02
  -0.1620474497884427E-02
  -0.6357462371176967E-02
  -0.4327186083987260E-02
   0.1517793731184660E-02
   0.3300594268291719E-01
   0.4394531708143227E-04
  -0.2766565860073376E-02
   0.3629287544497068E-02
   0.3910358740693731E-03
   0.0000000000000000E+00
   0.0000000000000000E+00
   0.0000000000000000E+00
   0.0000000000000000E+00
   0.0000000000000000E+00
   0.0000000000000000E+00
   0.0000000000000000E+00
   0.0000000000000000E+00
   0.0000000000000000E+00
   0.0000000000000000E+00
   0.0000000000000000E+00
   0.0000000000000000E+00
   0.0000000000000000E+00
   0.0000000000000000E+00
   0.0000000000000000E+00
   0.0000000000000000E+00
   0.0000000000000000E+00
   0.5001778152232029E-02
   0.3214064984112749E-02
   0.8126045411840475E-02
   0.6096300959065909E-02
   0.1117411733288091E-01
   0.1403811527245586E-01
  -0.3216221683660871E-03
   0.5161911393853163E-02
   0.2930107512919757E-02
   0.3378096158445643E-02
   0.3728544905582397E-02
  -0.1469573982807633E-01
  -0.6136954920346661E-03
   0.6639776037616195E-02
   0.1457244874330244E-02
   0.1959300825013030E-02
   0.4263979916264544E-02
  -0.2812425944262492E-02
   0.1267608886068851E-02
   0.2851959203276544E-02
   0.1534867708778261E-02
   0.2563344284496348E-02
   0.2013568676926515E-02
   0.2154333958905901E-02
   0.8583998670360388E-02
  -0.3830083280051995E-02
   0.6155698677705038E-02
   0.4725659381976637E-04
  -0.4231582879346409E-03
  -0.1674129346728789E-01
  -0.4996659973231716E-02
  -0.4827349478108874E-02
   0.3399378215084273E-02
  -0.6077437442375632E-02
   0.3194964751958132E-04
  -0.3284948887270637E-01
  -0.3181989518881159E-02
   0.4581319061284657E-02
   0.9682231201922970E-03
   0.2133486427552051E-02
   0.4530687255338874E-02
   0.2692787416357442E-02
   0.3243073156836240E-02
   0.5223604842678237E-02
   0.1957627207860817E-02
   0.7485450724580615E-03
  -0.5693767353605339E-04
  -0.5322690362790165E-02
  -0.6972867813568990E-02
  -0.9635299331462293E-03
   0.1062718433116752E-02
  -0.2106021599417621E-02
  -0.3219291876148946E-02
  -0.2544864406618667E-02
  -0.4131306063103410E-02
  -0.7566170037864320E-02
  -0.2012358559169839E-02
   0.6515124817952656E-03
  -0.1916285090897617E-03
   0.1227815973095313E-02
  -0.3502806755896295E-02
   0.4846684093591839E-02
  -0.8642681704561126E-02
   0.3341866884229365E-04
  -0.3327782036098032E-03
   0.2558605783020774E-02
   0.1615750261907354E-02
   0.2039006053072138E-02
  -0.5641501654408541E-02
SCALARS w double 1
LOOKUP_TABLE default
   0.0000000000000000E+00
   0.0000000000000000E+00
   0.0000000000000000E+00
   0.0000000000000000E+00
   0.0000000000000000E+00
   0.0000000000000000E+00
   0.0000000000000000E+00
   0.0000000000000000E+00
   0.0000000000000000E+00
   0.0000000000000000E+00
   0.0000000000000000E+00
   0.0000000000000000E+00
   0.0000000000000000E+00
   0.0000000000000000E+00
   0.0000000000000000E+00
   0.0000000000000000E+00
   0.0000000000000000E+00
   0.0000000000000000E+00
   0.0000000000000000E+00
   0.0000000000000000E+00
   0.0000000000000000E+00
   0.0000000000000000E+00
   0.0000000000000000E+00
   0.0000000000000000E+00
   0.0000000000000000E+00
   0.0000000000000000E+00
   0.0000000000000000E+00
   0.0000000000000000E+00
   0.0000000000000000E+00
   0.0000000000000000E+00
   0.0000000000000000E+00
   0.0000000000000000E+00
   0.0000000000000000E+00
  -0.1007241832224176E+00
  -0.4245528425695608E-01
   0.7158747636993622E-03
   0.5704941484366509E-02
   0.5684952106955363E-03
   0.1606879312391966E-02
   0.3372604582767028E-02
   0.2364299322134657E-02
   0.4720646643302645E-03
   0.3528387201178043E-02
   0.4533336069859375E-01
   0.6563397482280529E-01
   0.8384130478950837E-03
  -0.2266132398142739E-01
   0.4271065125034666E-02
   0.1341970169277801E-01
   0.1029750709028935E-01
   0.4870834201811731E-01
   0.2381551680290536E-02
  -0.6534999320986531E-02
  -0.7372437454726266E-03
   0.3056382317931696E-03
   0.3846852434596401E-02
  -0.3893635121153818E-01
   0.1820273581438250E-01
   0.1120446033708964E-01
   0.3395774037825641E-01
   0.8380191310854195E-02
   0.4924616503650055E-02
   0.4973761446426098E-02
   0.4900524098534456E-02
   0.6056720029924503E-02
   0.2695310533805824E-02
  -0.4127769715405608E-01
  -0.9927104307560489E-01
  -0.1120360381596419E+00
   0.5144526086750225E-02
   0.4216386824091247E-02
  -0.1002595860915774E+00
  -0.9892594332239270E-01
  -0.9835483710506611E-01
  -0.9443969326317529E-01
  -0.6790972041506591E-01
   0.5196996128775004E-02
  -0.1927315286810499E-01
  -0.1563508313893874E-01
  -0.5964346840408885E-02
   0.6822778438237343E-02
  -0.7999951690353888E-01
  -0.2776431487792539E-01
  -0.8086526766325063E-01
  -0.5863339153744140E-01
   0.3073989580997394E-02
   0.2685175110013838E-02
   0.2644703294821405E-02
   0.3457404472995580E-02
   0.3998529112756127E-02
   0.1199875808372811E-02
  -0.1355428924709291E-03
   0.2028964888852325E-02
   0.4894373421487518E-02
   0.3864560993042199E-02
   0.1126431960752883E-02
   0.1188310183559361E-02
   0.1460245645335042E-02
  -0.2199385950813815E-04
   0.9122000655125254E-04
   0.4387187039450667E-02
   0.2712580227638712E-02
   0.2317255031319437E-02
   0.5007037367569519E-02
   0.1069972045846442E-02
   0.2707114676273688E-02
   0.2010664694084842E-02
   0.3391942497184034E-04
   0.8386260313580043E-01
   0.2832480873497353E-02
  -0.8469296496418779E-03
  -0.1274284573908550E-03
   0.1410903979919991E+00
   0.1236626536365289E+00
  -0.1228867642371503E-02
  -0.4383136256424966E-02
  -0.2804612391370182E-03
  -0.6477826826458100E-02
  -0.1895598765602537E-02
   0.1559394040552758E+00
   0.7528604326180571E-01
   0.2567550692919962E-01
   0.1661313051714390E+00