# vtk DataFile Version 2.0
FUN3D:global_image_vtk
ASCII
DATASET UNSTRUCTURED_GRID
POINTS 216 double
    0.0000000000000000E+00    0.0000000000000000E+00    0.5000000000000000E+01
    0.0000000000000000E+00    0.0000000000000000E+00    0.3750000000000000E+01
    0.0000000000000000E+00    0.0000000000000000E+00    0.2500000000000000E+01
    0.0000000000000000E+00    0.0000000000000000E+00    0.1250000000000000E+01
    0.0000000000000000E+00    0.0000000000000000E+00    0.0000000000000000E+00
    0.1250000000000000E+01    0.0000000000000000E+00    0.0000000000000000E+00
    0.2500000000000000E+01    0.0000000000000000E+00    0.0000000000000000E+00
    0.3750000000000000E+01    0.0000000000000000E+00    0.0000000000000000E+00
    0.5000000000000000E+01    0.0000000000000000E+00    0.0000000000000000E+00
    0.5000000000000000E+01    0.0000000000000000E+00    0.1250000000000000E+01
    0.5000000000000000E+01    0.0000000000000000E+00    0.2500000000000000E+01
    0.5000000000000000E+01    0.0000000000000000E+00    0.3750000000000000E+01
    0.5000000000000000E+01    0.0000000000000000E+00    0.5000000000000000E+01
    0.3750000000000000E+01    0.0000000000000000E+00    0.5000000000000000E+01
    0.2500000000000000E+01    0.0000000000000000E+00    0.5000000000000000E+01
    0.1250000000000000E+01    0.0000000000000000E+00    0.5000000000000000E+01
    0.8087673404641089E+00    0.0000000000000000E+00    0.3046700411233810E+01
    0.7886107149397936E+00    0.0000000000000000E+00    0.1981265415950838E+01
    0.9272772293302283E+00    0.0000000000000000E+00    0.4070287583796232E+01
    0.4070226081761783E+01    0.0000000000000000E+00    0.9540325619275125E+00
    0.9224700799661973E+00    0.0000000000000000E+00    0.9463046427831353E+00
    0.4085981138224748E+01    0.0000000000000000E+00    0.4069983725354533E+01
    0.1559757281943150E+01    0.0000000000000000E+00    0.1635607059547088E+01
    0.2482905500262050E+01    0.0000000000000000E+00    0.1885385149929012E+01
    0.1660890649526405E+01    0.0000000000000000E+00    0.2508737357811018E+01
    0.1598111783087740E+01    0.0000000000000000E+00    0.3356656815401915E+01
    0.2519516809901736E+01    0.0000000000000000E+00    0.3120482633132017E+01
    0.2000153144652849E+01    0.0000000000000000E+00    0.4127941526767214E+01
    0.3039222624309763E+01    0.0000000000000000E+00    0.8728843884554416E+00
    0.1943909465021303E+01    0.0000000000000000E+00    0.8563427312614358E+00
    0.4181134289965387E+01    0.0000000000000000E+00    0.3039806936459394E+01
    0.3427857139900839E+01    0.0000000000000000E+00    0.1608316206941619E+01
    0.4204276726360096E+01    0.0000000000000000E+00    0.1992994776168015E+01
    0.3029173563817358E+01    0.0000000000000000E+00    0.4119574277282996E+01
    0.3439265668129285E+01    0.0000000000000000E+00    0.3362878032445769E+01
    0.3359002465395521E+01    0.0000000000000000E+00    0.2495945761348561E+01
    0.0000000000000000E+00   -0.1000000000000000E+01    0.5000000000000000E+01
    0.0000000000000000E+00   -0.1000000000000000E+01    0.3750000000000000E+01
    0.0000000000000000E+00   -0.1000000000000000E+01    0.2500000000000000E+01
    0.0000000000000000E+00   -0.1000000000000000E+01    0.1250000000000000E+01
    0.0000000000000000E+00   -0.1000000000000000E+01    0.0000000000000000E+00
    0.1250000000000000E+01   -0.1000000000000000E+01    0.0000000000000000E+00
    0.2500000000000000E+01   -0.1000000000000000E+01    0.0000000000000000E+00
    0.3750000000000000E+01   -0.1000000000000000E+01    0.0000000000000000E+00
    0.5000000000000000E+01   -0.1000000000000000E+01    0.0000000000000000E+00
    0.5000000000000000E+01   -0.1000000000000000E+01    0.1250000000000000E+01
    0.5000000000000000E+01   -0.1000000000000000E+01    0.2500000000000000E+01
    0.5000000000000000E+01   -0.1000000000000000E+01    0.3750000000000000E+01
    0.5000000000000000E+01   -0.1000000000000000E+01    0.5000000000000000E+01
    0.3750000000000000E+01   -0.1000000000000000E+01    0.5000000000000000E+01
    0.2500000000000000E+01   -0.1000000000000000E+01    0.5000000000000000E+01
    0.1250000000000000E+01   -0.1000000000000000E+01    0.5000000000000000E+01
    0.8087673404641089E+00   -0.1000000000000000E+01    0.3046700411233810E+01
    0.7886107149397936E+00   -0.1000000000000000E+01    0.1981265415950838E+01
    0.9272772293302283E+00   -0.1000000000000000E+01    0.4070287583796232E+01
    0.4070226081761783E+01   -0.1000000000000000E+01    0.9540325619275125E+00
    0.9224700799661973E+00   -0.1000000000000000E+01    0.9463046427831353E+00
    0.4085981138224748E+01   -0.1000000000000000E+01    0.4069983725354533E+01
    0.1559757281943150E+01   -0.1000000000000000E+01    0.1635607059547088E+01
    0.2482905500262050E+01   -0.1000000000000000E+01    0.1885385149929012E+01
    0.1660890649526405E+01   -0.1000000000000000E+01    0.2508737357811018E+01
    0.1598111783087740E+01   -0.1000000000000000E+01    0.3356656815401915E+01
    0.2519516809901736E+01   -0.1000000000000000E+01    0.3120482633132017E+01
    0.2000153144652849E+01   -0.1000000000000000E+01    0.4127941526767214E+01
    0.3039222624309763E+01   -0.1000000000000000E+01    0.8728843884554416E+00
    0.1943909465021303E+01   -0.1000000000000000E+01    0.8563427312614358E+00
    0.4181134289965387E+01   -0.1000000000000000E+01    0.3039806936459394E+01
    0.3427857139900839E+01   -0.1000000000000000E+01    0.1608316206941619E+01
    0.4204276726360096E+01   -0.1000000000000000E+01    0.1992994776168015E+01
    0.3029173563817358E+01   -0.1000000000000000E+01    0.4119574277282996E+01
    0.3439265668129285E+01   -0.1000000000000000E+01    0.3362878032445769E+01
    0.3359002465395521E+01   -0.1000000000000000E+01    0.2495945761348561E+01
    0.0000000000000000E+00   -0.2000000000000000E+01    0.5000000000000000E+01
    0.0000000000000000E+00   -0.2000000000000000E+01    0.3750000000000000E+01
    0.0000000000000000E+00   -0.2000000000000000E+01    0.2500000000000000E+01
    0.0000000000000000E+00   -0.2000000000000000E+01    0.1250000000000000E+01
    0.0000000000000000E+00   -0.2000000000000000E+01    0.0000000000000000E+00
    0.1250000000000000E+01   -0.2000000000000000E+01    0.0000000000000000E+00
    0.2500000000000000E+01   -0.2000000000000000E+01    0.0000000000000000E+00
    0.3750000000000000E+01   -0.2000000000000000E+01    0.0000000000000000E+00
    0.5000000000000000E+01   -0.2000000000000000E+01    0.0000000000000000E+00
    0.5000000000000000E+01   -0.2000000000000000E+01    0.1250000000000000E+01
    0.5000000000000000E+01   -0.2000000000000000E+01    0.2500000000000000E+01
    0.5000000000000000E+01   -0.2000000000000000E+01    0.3750000000000000E+01
    0.5000000000000000E+01   -0.2000000000000000E+01    0.5000000000000000E+01
    0.3750000000000000E+01   -0.2000000000000000E+01    0.5000000000000000E+01
    0.2500000000000000E+01   -0.2000000000000000E+01    0.5000000000000000E+01
    0.1250000000000000E+01   -0.2000000000000000E+01    0.5000000000000000E+01
    0.8087673404641089E+00   -0.2000000000000000E+01    0.3046700411233810E+01
    0.7886107149397936E+00   -0.2000000000000000E+01    0.1981265415950838E+01
    0.9272772293302283E+00   -0.2000000000000000E+01    0.4070287583796232E+01
    0.4070226081761783E+01   -0.2000000000000000E+01    0.9540325619275125E+00
    0.9224700799661973E+00   -0.2000000000000000E+01    0.9463046427831353E+00
    0.4085981138224748E+01   -0.2000000000000000E+01    0.4069983725354533E+01
    0.1559757281943150E+01   -0.2000000000000000E+01    0.1635607059547088E+01
    0.2482905500262050E+01   -0.2000000000000000E+01    0.1885385149929012E+01
    0.1660890649526405E+01   -0.2000000000000000E+01    0.2508737357811018E+01
    0.1598111783087740E+01   -0.2000000000000000E+01    0.3356656815401915E+01
    0.2519516809901736E+01   -0.2000000000000000E+01    0.3120482633132017E+01
    0.2000153144652849E+01   -0.2000000000000000E+01    0.4127941526767214E+01
    0.3039222624309763E+01   -0.2000000000000000E+01    0.8728843884554416E+00
    0.1943909465021303E+01   -0.2000000000000000E+01    0.8563427312614358E+00
    0.4181134289965387E+01   -0.2000000000000000E+01    0.3039806936459394E+01
    0.3427857139900839E+01   -0.2000000000000000E+01    0.1608316206941619E+01
    0.4204276726360096E+01   -0.2000000000000000E+01    0.1992994776168015E+01
    0.3029173563817358E+01   -0.2000000000000000E+01    0.4119574277282996E+01
    0.3439265668129285E+01   -0.2000000000000000E+01    0.3362878032445769E+01
    0.3359002465395521E+01   -0.2000000000000000E+01    0.2495945761348561E+01
    0.0000000000000000E+00   -0.3000000000000000E+01    0.5000000000000000E+01
    0.0000000000000000E+00   -0.3000000000000000E+01    0.3750000000000000E+01
    0.0000000000000000E+00   -0.3000000000000000E+01    0.2500000000000000E+01
    0.0000000000000000E+00   -0.3000000000000000E+01    0.1250000000000000E+01
    0.0000000000000000E+00   -0.3000000000000000E+01    0.0000000000000000E+00
    0.1250000000000000E+01   -0.3000000000000000E+01    0.0000000000000000E+00
    0.2500000000000000E+01   -0.3000000000000000E+01    0.0000000000000000E+00
    0.3750000000000000E+01   -0.3000000000000000E+01    0.0000000000000000E+00
    0.5000000000000000E+01   -0.3000000000000000E+01    0.0000000000000000E+00
    0.5000000000000000E+01   -0.3000000000000000E+01    0.1250000000000000E+01
    0.5000000000000000E+01   -0.3000000000000000E+01    0.2500000000000000E+01
    0.5000000000000000E+01   -0.3000000000000000E+01    0.3750000000000000E+01
    0.5000000000000000E+01   -0.3000000000000000E+01    0.5000000000000000E+01
    0.3750000000000000E+01   -0.3000000000000000E+01    0.5000000000000000E+01
    0.2500000000000000E+01   -0.3000000000000000E+01    0.5000000000000000E+01
    0.1250000000000000E+01   -0.3000000000000000E+01    0.5000000000000000E+01
    0.8087673404641089E+00   -0.3000000000000000E+01    0.3046700411233810E+01
[...]
POINT_DATA 216
SCALARS rho double 1
LOOKUP_TABLE default
   0.1005655643068187E+01
   0.1004462788443660E+01
   0.1036098700559592E+01
   0.1006468385629100E+01
   0.1513468036973193E+01
   0.8891889625881286E+00
   0.9589379447958969E+00
   0.9812908662441863E+00
   0.8228364774425350E+00
   0.9921134213239400E+00
   0.1015834654589631E+01
   0.1003401037963795E+01
   0.1003956609173084E+01
   0.1003282069173216E+01
   0.1004138204543623E+01
   0.1000451980899867E+01
   0.1009167748874299E+01
   0.1005208142524405E+01
   0.1005663573304746E+01
   0.1026004811118490E+01
   0.1013006442394845E+01
   0.1003896814305036E+01
   0.1027611490467976E+01
   0.9984995747014516E+00
   0.9871917039695896E+00
   0.1015092264611927E+01
   0.9986672596290409E+00
   0.1006431196244454E+01
   0.9964886597254162E+00
   0.1021622822770131E+01
   0.1002311548820141E+01
   0.9844511347087975E+00
   0.9974422852439230E+00
   0.1005842625508596E+01
   0.9990446002364990E+00
   0.1000060195269563E+01
   0.1005633400812085E+01
   0.1004371240453633E+01
   0.1035865336437817E+01
   0.1005782130619132E+01
   0.1513124749148673E+01
   0.8889521657594497E+00
   0.9587205725261320E+00
   0.9810710170254976E+00
   0.8231656669143194E+00
   0.9937428976816600E+00
   0.1016356314960096E+01
   0.1003384413767868E+01
   0.1003929093598299E+01
   0.1003202684634946E+01
   0.1004061928008880E+01
   0.1000383170060938E+01
   0.1009069597932108E+01
   0.1004900868688153E+01
   0.1005582909876102E+01
   0.1027077715589264E+01
   0.1012795504642350E+01
   0.1003883069496746E+01
   0.1027527429245819E+01
   0.9984647110941249E+00
   0.9869685808654393E+00
   0.1015029649006022E+01
   0.9986151675551790E+00
   0.1006366759466532E+01
   0.9967618552813402E+00
   0.1022254137448291E+01
   0.1002347672118211E+01
   0.9844681459135081E+00
   0.9977890567107496E+00
   0.1005780223212371E+01
   0.9990398900072636E+00
   0.1000095661269435E+01
   0.1005641284366302E+01
   0.1004388229171684E+01
   0.1035895646857520E+01
   0.1005790373561094E+01
   0.1513117803844072E+01
   0.8889763737683825E+00
   0.9587966413137236E+00
   0.9811095471656219E+00
   0.8233095382580871E+00
   0.9937043137642789E+00
   0.1016342377910252E+01
   0.1003387834293839E+01
   0.1003946065071311E+01
   0.1003236442317414E+01
   0.1004096941969165E+01
   0.1000408352512512E+01
   0.1009110295585042E+01
   0.1004965079211155E+01
   0.1005612336101264E+01
   0.1027112126823529E+01
   0.1012920802662268E+01
   0.1003904821933356E+01
   0.1027616351632441E+01
   0.9985041909824618E+00
   0.9870254419165688E+00
   0.1015071193430246E+01
   0.9986563311991791E+00
   0.1006401710617417E+01
   0.9968188885194593E+00
   0.1022280761244724E+01
   0.1002362792290638E+01
   0.9845352120666468E+00
   0.9978330716814414E+00
   0.1005815400333376E+01
   0.9990679412433270E+00
   0.1000114304807132E+01
   0.1005641284188156E+01
   0.1004388229507256E+01
   0.1035895646231157E+01
   0.1005790373680585E+01
   0.1513117804240300E+01
   0.8889763782305484E+00
   0.9587966394114553E+00
   0.9811095458932054E+00
   0.8233095417769757E+00
   0.9937043145703933E+00
   0.1016342378134022E+01
   0.1003387834719024E+01
   0.1003946064493931E+01
   0.1003236444543525E+01
   0.1004096943095413E+01
   0.1000408352023301E+01
   0.1009110295179918E+01
   0.1004965079820554E+01
   0.1005612335489700E+01
   0.1027112123618544E+01
   0.1012920802978617E+01
   0.1003904822505293E+01
   0.1027616354407920E+01
   0.9985041913361901E+00
   0.9870254434332669E+00
   0.1015071192053133E+01
   0.9986563304271737E+00
   0.1006401710172447E+01
   0.9968188851889588E+00
   0.1022280761444656E+01
   0.1002362793609828E+01
   0.9845352107183046E+00
   0.9978330713800929E+00
   0.1005815401641400E+01
   0.9990679414889267E+00
   0.1000114303949272E+01
   0.1005633400431150E+01
   0.1004371240074261E+01
   0.1035865339042910E+01
   0.1005782129926460E+01
   0.1513124731106808E+01
   0.8889522151826312E+00
   0.9587205967113188E+00
   0.9810710193470336E+00
   0.8231656662167645E+00
   0.9937428928496506E+00
   0.1016356310473442E+01
   0.1003384414775240E+01
   0.1003929094917059E+01
   0.1003202682882451E+01
   0.1004061926741732E+01
   0.1000383169566867E+01
   0.1009069598870795E+01
   0.1004900870362278E+01
   0.1005582911109183E+01
   0.1027077719771285E+01
   0.1012795501970398E+01
   0.1003883072523918E+01
   0.1027527423275002E+01
   0.9984647056454146E+00
   0.9869685798999065E+00
   0.1015029650011265E+01
   0.9986151656203642E+00
   0.1006366761220504E+01
   0.9967618600908847E+00
   0.1022254145206294E+01
   0.1002347665030166E+01
   0.9844681466262507E+00
   0.9977890527313975E+00
   0.1005780225029599E+01
   0.9990398853804412E+00
   0.1000095650458858E+01
   0.1005655642260407E+01
   0.1004462790132647E+01
   0.1036098705719199E+01
   0.1006468385335016E+01
   0.1513467991734512E+01
   0.8891890349178879E+00
   0.9589379773330499E+00
   0.9812908735794150E+00
   0.8228365168853805E+00
   0.9921134182055575E+00
   0.1015834636819013E+01
   0.1003401035368783E+01
   0.1003956610990342E+01
   0.1003282074124642E+01
   0.1004138206048699E+01
   0.1000451977760861E+01
   0.1009167750096866E+01
   0.1005208146307173E+01
   0.1005663573916127E+01
   0.1026004823535896E+01
   0.1013006441858138E+01
   0.1003896821375583E+01
   0.1027611482414156E+01
   0.9984995701787178E+00
   0.9871916996429163E+00
   0.1015092261847373E+01
   0.9986672548983250E+00
   0.1006431198328854E+01
   0.9964886631672654E+00
   0.1021622840901661E+01
   0.1002311533472142E+01
   0.9844511359802632E+00
   0.9974422675409742E+00
   0.1005842633248631E+01
   0.9990445934096061E+00
   0.1000060175649109E+01
SCALARS u double 1
LOOKUP_TABLE default
   0.4951436585591332E+00
   0.4952090987361144E+00
   0.4663546529335826E+00
   0.4860536594510425E+00
   0.0000000000000000E+00
   0.0000000000000000E+00
   0.0000000000000000E+00
   0.0000000000000000E+00
   0.0000000000000000E+00
   0.4891210424985878E+00
   0.5266441481409806E+00
   0.5042399913848558E+00
   0.4934936795313079E+00
   0.4939655652338137E+00
   0.4919422642771756E+00
   0.4961939816381997E+00
   0.4952225167925849E+00
   0.5019475508150949E+00
   0.4942293273193548E+00
   0.4396615122941328E+00
   0.5521289154849052E+00
   0.4934815445255700E+00
   0.5635551205365571E+00
   0.5880683173246040E+00
   0.5241092237338520E+00
   0.4946873392126508E+00
   0.5099466995848378E+00
   0.4951241855114486E+00
   0.3886224639595096E+00
   0.4242187470951019E+00
   0.5254401117053552E+00
   0.5549543152979373E+00
   0.5761400917173335E+00
   0.4953585189092896E+00
   0.5068056771706555E+00
   0.5634072006605024E+00
   0.4951746031453079E+00
   0.4953040794623600E+00
   0.4665519861781232E+00
   0.4858736991303202E+00
   0.0000000000000000E+00
   0.0000000000000000E+00
   0.0000000000000000E+00
   0.0000000000000000E+00
   0.0000000000000000E+00
   0.4904214345649442E+00
   0.5273090571358251E+00
   0.5039569532478231E+00
   0.4934762807293431E+00
   0.4942259078429662E+00
   0.4921575133752432E+00
   0.4962767452799045E+00
   0.4953429809226424E+00
   0.5021337959876433E+00
   0.4943424528150142E+00
   0.4421058591451600E+00
   0.5539750761785992E+00
   0.4932389420557181E+00
   0.5652378440761237E+00
   0.5902848959365228E+00
   0.5239674024218607E+00
   0.4947617776631180E+00
   0.5096103329888021E+00
   0.4952436679670380E+00
   0.3898860415126164E+00
   0.4259794347978161E+00
   0.5251181538879799E+00
   0.5582916676537253E+00
   0.5785882760677464E+00
   0.4952992443582329E+00
   0.5063913109703465E+00
   0.5641912173408453E+00
   0.4951649749155072E+00
   0.4952870060751289E+00
   0.4665218646087919E+00
   0.4858255734460152E+00
   0.0000000000000000E+00
   0.0000000000000000E+00
   0.0000000000000000E+00
   0.0000000000000000E+00
   0.0000000000000000E+00
   0.4905128268587172E+00
   0.5273660421484430E+00
   0.5039697223523582E+00
   0.4934641223389138E+00
   0.4941630843629331E+00
   0.4920909793513881E+00
   0.4962340873220181E+00
   0.4952777979674388E+00
   0.5020158097071473E+00
   0.4942985078438997E+00
   0.4421721764838307E+00
   0.5538872877274025E+00
   0.4932083693325605E+00
   0.5651774332626682E+00
   0.5902681229313393E+00
   0.5238809332818122E+00
   0.4946922999877502E+00
   0.5095584741874865E+00
   0.4951818578861881E+00
   0.3899345276914428E+00
   0.4260296856039814E+00
   0.5251163339319009E+00
   0.5582868533837257E+00
   0.5786313299395024E+00
   0.4952423507093853E+00
   0.5063622076933556E+00
   0.5641664236288413E+00
   0.4951649748367713E+00
   0.4952870056885850E+00
   0.4665218651264583E+00
   0.4858255744991962E+00
   0.0000000000000000E+00
   0.0000000000000000E+00
   0.0000000000000000E+00
   0.0000000000000000E+00
   0.0000000000000000E+00
   0.4905128267178531E+00
   0.5273660389959380E+00
   0.5039697220601879E+00
   0.4934641253301291E+00
   0.4941630856659761E+00
   0.4920909808855897E+00
   0.4962340885265385E+00
   0.4952777983597421E+00
   0.5020158087100743E+00
   0.4942985062627619E+00
   0.4421721745975280E+00
   0.5538872831085094E+00
   0.4932083692134632E+00
   0.5651774292570939E+00
   0.5902681222165962E+00
   0.5238809332464891E+00
   0.4946923004630444E+00
   0.5095584766405009E+00
   0.4951818579029446E+00
   0.3899345232148155E+00
   0.4260296786096129E+00
   0.5251163329067364E+00
   0.5582868536018656E+00
   0.5786313285981389E+00
   0.4952423513619695E+00
   0.5063622084072278E+00
   0.5641664260689342E+00
   0.4951746033196257E+00
   0.4953040809378812E+00
   0.4665519880584806E+00
   0.4858736945093909E+00
   0.0000000000000000E+00
   0.0000000000000000E+00
   0.0000000000000000E+00
   0.0000000000000000E+00
   0.0000000000000000E+00
   0.4904214451435534E+00
   0.5273090582442436E+00
   0.5039569519700177E+00
   0.4934762780406249E+00
   0.4942259122349150E+00
   0.4921575103944141E+00
   0.4962767456620669E+00
   0.4953429798186099E+00
   0.5021337995144443E+00
   0.4943424528615216E+00
   0.4421058653314580E+00
   0.5539750775678823E+00
   0.4932389332456143E+00
   0.5652378339413704E+00
   0.5902848975099829E+00
   0.5239674072258896E+00
   0.4947617723738409E+00
   0.5096103370643820E+00
   0.4952436660610321E+00
   0.3898860317805243E+00
   0.4259794396659486E+00
   0.5251181588785192E+00
   0.5582916716309321E+00
   0.5785882696143931E+00
   0.4952992374041996E+00
   0.5063913085675661E+00
   0.5641912303004182E+00
   0.4951436558849506E+00
   0.4952091004959150E+00
   0.4663546552609678E+00
   0.4860536487243183E+00
   0.0000000000000000E+00
   0.0000000000000000E+00
   0.0000000000000000E+00
   0.0000000000000000E+00
   0.0000000000000000E+00
   0.4891210828090171E+00
   0.5266441434368945E+00
   0.5042399882390455E+00
   0.4934936932526984E+00
   0.4939655938193420E+00
   0.4919422717521372E+00
   0.4961939906068627E+00
   0.4952225161863438E+00
   0.5019475645229378E+00
   0.4942293257424856E+00
   0.4396615151163323E+00
   0.5521289102444490E+00
   0.4934815401131759E+00
   0.5635550975966225E+00
   0.5880683228956010E+00
   0.5241092507394048E+00
   0.4946873357598899E+00
   0.5099467211871649E+00
   0.4951241865865145E+00
   0.3886224146474345E+00
   0.4242187322154622E+00
   0.5254401286135250E+00
   0.5549543211717179E+00
   0.5761400967460892E+00
   0.4953585074652274E+00
   0.5068056817243481E+00
   0.5634072510576491E+00
SCALARS v double 1
LOOKUP_TABLE default
   0.0000000000000000E+00
   0.0000000000000000E+00
   0.0000000000000000E+00
   0.0000000000000000E+00
   0.0000000000000000E+00
   0.0000000000000000E+00
   0.0000000000000000E+00
   0.0000000000000000E+00
   0.0000000000000000E+00
   0.0000000000000000E+00
   0.0000000000000000E+00
   0.0000000000000000E+00
   0.0000000000000000E+00
   0.0000000000000000E+00
   0.0000000000000000E+00
   0.0000000000000000E+00
   0.0000000000000000E+00
   0.0000000000000000E+00
   0.0000000000000000E+00
   0.0000000000000000E+00
   0.0000000000000000E+00
   0.0000000000000000E+00
   0.0000000000000000E+00
   0.0000000000000000E+00
   0.0000000000000000E+00
   0.0000000000000000E+00
   0.0000000000000000E+00
   0.0000000000000000E+00
   0.0000000000000000E+00
   0.0000000000000000E+00
   0.0000000000000000E+00
   0.0000000000000000E+00
   0.0000000000000000E+00
   0.0000000000000000E+00
   0.0000000000000000E+00
   0.0000000000000000E+00
   0.9109241150217351E-05
  -0.9644254541972474E-05
  -0.4424204313766803E-04
  -0.2065357801489773E-03
   0.0000000000000000E+00
   0.0000000000000000E+00
   0.0000000000000000E+00
   0.0000000000000000E+00
   0.0000000000000000E+00
   0.7481141904287195E-03
   0.2949950701888446E-03
  -0.3977233155486121E-04
  -0.3783441253409132E-04
  -0.5559918033696683E-04
  -0.4141733677057770E-04
  -0.3384702016542358E-04
  -0.7550412462861770E-04
  -0.2250485415459026E-03
  -0.4076240410299742E-04
   0.9738438799119716E-04
  -0.4185488459110817E-03
  -0.4447331796603767E-04
  -0.2976760615686621E-03
  -0.1594465547134656E-03
  -0.2416814768776246E-03
  -0.7816297177515411E-04
  -0.1279314138909793E-03
  -0.4631256448353255E-04
  -0.1343607547070854E-03
   0.9187250209182641E-04
  -0.4710404967922441E-04
  -0.2247441997861873E-03
   0.2522495110393211E-04
  -0.6475204270139329E-04
  -0.7163876436773527E-04
  -0.5515504185852444E-04
   0.4396189785351762E-05
   0.3976993996014241E-05
   0.1240387226771770E-04
  -0.4570588979329714E-05
   0.0000000000000000E+00
   0.0000000000000000E+00
   0.0000000000000000E+00
   0.0000000000000000E+00
   0.0000000000000000E+00
   0.9434977533917558E-04
   0.2584915371846010E-04
  -0.5665303518778115E-05
   0.5835059586265690E-05
   0.1543118631616450E-04
   0.1953171357159431E-04
   0.1036161789131186E-04
   0.1661753112435375E-04
  -0.3606846354017432E-05
   0.1146283752799504E-04
   0.1329297633039265E-04
  -0.4372868724447667E-04
   0.7360725493494351E-05
  -0.5141933635449408E-04
  -0.3586796168517820E-04
  -0.2161891325447292E-04
   0.1618733551703071E-04
  -0.7513164506672577E-05
   0.1762133782250798E-04
  -0.4968820562713369E-05
   0.1058058999182607E-04
  -0.1297045843269814E-04
  -0.4130389837593519E-04
  -0.2016854682252118E-04
   0.1233428123652155E-04
  -0.1358017056787460E-05
  -0.1852977700390007E-04
  -0.4396688065801894E-05
  -0.3977673633481656E-05
  -0.1240240456613614E-04
   0.4571370574161455E-05
   0.0000000000000000E+00
   0.0000000000000000E+00
   0.0000000000000000E+00
   0.0000000000000000E+00
   0.0000000000000000E+00
  -0.9435255201524411E-04
  -0.2585736235661044E-04
   0.5667432852108022E-05
  -0.5834470904909647E-05
  -0.1543920359938950E-04
  -0.1953409491669110E-04
  -0.1036269389368122E-04
  -0.1661657983647775E-04
   0.3607854271362007E-05
  -0.1146194719465583E-04
  -0.1329226147894930E-04
   0.4372214249644587E-04
  -0.7354285232221074E-05
   0.5141901733749159E-04
   0.3586666577932505E-04
   0.2162436195822761E-04
  -0.1618876530495851E-04
   0.7515806661425681E-05
  -0.1762222089055701E-04
   0.4973176453748018E-05
  -0.1058173749440622E-04
   0.1296017120391444E-04
   0.4130674412107621E-04
   0.2016413841896910E-04
  -0.1233094476406711E-04
   0.1357953346793689E-05
   0.1851764697512333E-04
  -0.9109207104876309E-05
   0.9642704632029393E-05
   0.4424208492774566E-04
   0.2065327767915159E-03
   0.0000000000000000E+00
   0.0000000000000000E+00
   0.0000000000000000E+00
   0.0000000000000000E+00
   0.0000000000000000E+00
  -0.7481121745979664E-03
  -0.2949951952013209E-03
   0.3977887981394677E-04
   0.3783347964537975E-04
   0.5558789165614864E-04
   0.4141333187074487E-04
   0.3384589362149243E-04
   0.7550306995280917E-04
   0.2250488876815595E-03
   0.4076154075619424E-04
  -0.9738848413405051E-04
   0.4185374860973018E-03
   0.4447682914294260E-04
   0.2976794522057998E-03
   0.1594469569773322E-03
   0.2416914698107892E-03
   0.7815914881545854E-04
   0.1279337338107134E-03
   0.4630914841949363E-04
   0.1343644488222582E-03
  -0.9187514136772574E-04
   0.4709904167771197E-04
   0.2247445108537173E-03
  -0.2522670688955442E-04
   0.6475212011470187E-04
   0.7163766812144890E-04
   0.5514376017039297E-04
   0.0000000000000000E+00
   0.0000000000000000E+00
   0.0000000000000000E+00
   0.0000000000000000E+00
   0.0000000000000000E+00
   0.0000000000000000E+00
   0.0000000000000000E+00
   0.0000000000000000E+00
   0.0000000000000000E+00
   0.0000000000000000E+00
   0.0000000000000000E+00
   0.0000000000000000E+00
   0.0000000000000000E+00
   0.0000000000000000E+00
   0.0000000000000000E+00
   0.0000000000000000E+00
   0.0000000000000000E+00
   0.0000000000000000E+00
   0.0000000000000000E+00
   0.0000000000000000E+00
   0.0000000000000000E+00
   0.0000000000000000E+00
   0.0000000000000000E+00
   0.0000000000000000E+00
   0.0000000000000000E+00
   0.0000000000000000E+00
   0.0000000000000000E+00
   0.0000000000000000E+00
   0.0000000000000000E+00
   0.0000000000000000E+00
   0.0000000000000000E+00
   0.0000000000000000E+00
   0.0000000000000000E+00
   0.0000000000000000E+00
   0.0000000000000000E+00
   0.0000000000000000E+00
SCALARS w double 1
LOOKUP_TABLE default
   0.3561659891689782E-04
   0.9779436835577694E-03
   0.2623878618285972E-02
   0.7270390002833615E-01
   0.0000000000000000E+00
   0.0000000000000000E+00
   0.0000000000000000E+00
   0.0000000000000000E+00
   0.0000000000000000E+00
  -0.7190694670304251E-01
  -0.9351579513496348E-02
   0.1177087363489532E-01
   0.2330974120743200E-02
   0.5142503794343980E-02
   0.7422622559298174E-02
   0.8299092003243379E-02
   0.1145528223205489E-01
   0.1862416093772286E-01
   0.4461710062426777E-02
  -0.3055109387278494E-01
   0.1279940681765044E+00
   0.3785635042720464E-02
   0.4741254833351850E-01
   0.2941602771007711E-01
   0.2727041241934030E-01
   0.6483771003393278E-02
   0.1128748587601299E-01
   0.8772085198978779E-02
   0.7580515664470109E-02
   0.6097861485904541E-02
   0.7832649122544284E-02
   0.1233841054974832E-01
  -0.2043117192972416E-02
   0.5641564601436079E-02
   0.5646222694659474E-02
   0.6089741663419485E-02
   0.1332911343082924E-04
   0.1008610598988237E-02
   0.2580608954264709E-02
   0.7204557956481951E-01
   0.0000000000000000E+00
   0.0000000000000000E+00
   0.0000000000000000E+00
   0.0000000000000000E+00
   0.0000000000000000E+00
  -0.7147837736799813E-01
  -0.8854051286250421E-02
   0.1176273979749508E-01
   0.2249351687492544E-02
   0.5136434058699981E-02
   0.7393873283223378E-02
   0.8264495900575541E-02
   0.1122711011527661E-01
   0.1787998223576021E-01
   0.4379398777241835E-02
  -0.3131561988722233E-01
   0.1278885786687814E+00
   0.3560237276206245E-02
   0.4690134330058367E-01
   0.2908214896013163E-01
   0.2656278531786168E-01
   0.6131273565414545E-02
   0.1075863739895400E-01
   0.8654178839897811E-02
   0.7596287060812207E-02
   0.6151115439311725E-02
   0.7575265039568294E-02
   0.1214161782580446E-01
  -0.2251927780171844E-02
   0.5437027157402667E-02
   0.5259245290217019E-02
   0.5611583603743565E-02
   0.1918087892444035E-04
   0.1003302417942326E-02
   0.2569840184669782E-02
   0.7204940438383459E-01
   0.0000000000000000E+00
   0.0000000000000000E+00
   0.0000000000000000E+00
   0.0000000000000000E+00
   0.0000000000000000E+00
  -0.7143350722970519E-01
  -0.8810002316298486E-02
   0.1181715201916725E-01
   0.2272267904863641E-02
   0.5163451649333941E-02
   0.7425882918837931E-02
   0.8287651230033537E-02
   0.1125518098547738E-01
   0.1791227397343764E-01
   0.4399792185859315E-02
  -0.3132347535713316E-01
   0.1278375075662317E+00
   0.3620479891071340E-02
   0.4690254016752698E-01
   0.2908477135178088E-01
   0.2663805520946255E-01
   0.6196182446238606E-02
   0.1083513896515483E-01
   0.8706156927666641E-02
   0.7545508444888828E-02
   0.6088751621885119E-02
   0.7651259357135426E-02
   0.1213003154829030E-01
  -0.2226263669183296E-02
   0.5500692203014385E-02
   0.5329507099471362E-02
   0.5670916235885204E-02
   0.1918264195830096E-04
   0.1003301621495332E-02
   0.2569839014567024E-02
   0.7204940285490991E-01
   0.0000000000000000E+00
   0.0000000000000000E+00