# vtk DataFile Version 2.0
FUN3D:global_image_vtk
ASCII
DATASET UNSTRUCTURED_GRID
POINTS 216 double
    0.0000000000000000E+00    0.0000000000000000E+00    0.5000000000000000E+01
    0.0000000000000000E+00    0.0000000000000000E+00    0.3750000000000000E+01
    0.0000000000000000E+00    0.0000000000000000E+00    0.2500000000000000E+01
    0.0000000000000000E+00    0.0000000000000000E+00    0.1250000000000000E+01
    0.0000000000000000E+00    0.0000000000000000E+00    0.0000000000000000E+00
    0.1250000000000000E+01    0.0000000000000000E+00    0.0000000000000000E+00
    0.2500000000000000E+01    0.0000000000000000E+00    0.0000000000000000E+00
    0.3750000000000000E+01    0.0000000000000000E+00    0.0000000000000000E+00
    0.5000000000000000E+01    0.0000000000000000E+00    0.0000000000000000E+00
    0.5000000000000000E+01    0.0000000000000000E+00    0.1250000000000000E+01
    0.5000000000000000E+01    0.0000000000000000E+00    0.2500000000000000E+01
    0.5000000000000000E+01    0.0000000000000000E+00    0.3750000000000000E+01
    0.5000000000000000E+01    0.0000000000000000E+00    0.5000000000000000E+01
    0.3750000000000000E+01    0.0000000000000000E+00    0.5000000000000000E+01
    0.2500000000000000E+01    0.0000000000000000E+00    0.5000000000000000E+01
    0.1250000000000000E+01    0.0000000000000000E+00    0.5000000000000000E+01
    0.8087673404641089E+00    0.0000000000000000E+00    0.3046700411233810E+01
    0.7886107149397936E+00    0.0000000000000000E+00    0.1981265415950838E+01
    0.9272772293302283E+00    0.0000000000000000E+00    0.4070287583796232E+01
    0.4070226081761783E+01    0.0000000000000000E+00    0.9540325619275125E+00
    0.9224700799661973E+00    0.0000000000000000E+00    0.9463046427831353E+00
    0.4085981138224748E+01    0.0000000000000000E+00    0.4069983725354533E+01
    0.1559757281943150E+01    0.0000000000000000E+00    0.1635607059547088E+01
    0.2482905500262050E+01    0.0000000000000000E+00    0.1885385149929012E+01
    0.1660890649526405E+01    0.0000000000000000E+00    0.2508737357811018E+01
    0.1598111783087740E+01    0.0000000000000000E+00    0.3356656815401915E+01
    0.2519516809901736E+01    0.0000000000000000E+00    0.3120482633132017E+01
    0.2000153144652849E+01    0.0000000000000000E+00    0.4127941526767214E+01
    0.3039222624309763E+01    0.0000000000000000E+00    0.8728843884554416E+00
    0.1943909465021303E+01    0.0000000000000000E+00    0.8563427312614358E+00
    0.4181134289965387E+01    0.0000000000000000E+00    0.3039806936459394E+01
    0.3427857139900839E+01    0.0000000000000000E+00    0.1608316206941619E+01
    0.4204276726360096E+01    0.0000000000000000E+00    0.1992994776168015E+01
    0.3029173563817358E+01    0.0000000000000000E+00    0.4119574277282996E+01
    0.3439265668129285E+01    0.0000000000000000E+00    0.3362878032445769E+01
    0.3359002465395521E+01    0.0000000000000000E+00    0.2495945761348561E+01
    0.0000000000000000E+00   -0.1000000000000000E+01    0.5000000000000000E+01
    0.0000000000000000E+00   -0.1000000000000000E+01    0.3750000000000000E+01
    0.0000000000000000E+00   -0.1000000000000000E+01    0.2500000000000000E+01
    0.0000000000000000E+00   -0.1000000000000000E+01    0.1250000000000000E+01
    0.0000000000000000E+00   -0.1000000000000000E+01    0.0000000000000000E+00
    0.1250000000000000E+01   -0.1000000000000000E+01    0.0000000000000000E+00
    0.2500000000000000E+01   -0.1000000000000000E+01    0.0000000000000000E+00
    0.3750000000000000E+01   -0.1000000000000000E+01    0.0000000000000000E+00
    0.5000000000000000E+01   -0.1000000000000000E+01    0.0000000000000000E+00
    0.5000000000000000E+01   -0.1000000000000000E+01    0.1250000000000000E+01
    0.5000000000000000E+01   -0.1000000000000000E+01    0.2500000000000000E+01
    0.5000000000000000E+01   -0.1000000000000000E+01    0.3750000000000000E+01
    0.5000000000000000E+01   -0.1000000000000000E+01    0.5000000000000000E+01
    0.3750000000000000E+01   -0.1000000000000000E+01    0.5000000000000000E+01
    0.2500000000000000E+01   -0.1000000000000000E+01    0.5000000000000000E+01
    0.1250000000000000E+01   -0.1000000000000000E+01    0.5000000000000000E+01
    0.8087673404641089E+00   -0.1000000000000000E+01    0.3046700411233810E+01
    0.7886107149397936E+00   -0.1000000000000000E+01    0.1981265415950838E+01
    0.9272772293302283E+00   -0.1000000000000000E+01    0.4070287583796232E+01
    0.4070226081761783E+01   -0.1000000000000000E+01    0.9540325619275125E+00
    0.9224700799661973E+00   -0.1000000000000000E+01    0.9463046427831353E+00
    0.4085981138224748E+01   -0.1000000000000000E+01    0.4069983725354533E+01
    0.1559757281943150E+01   -0.1000000000000000E+01    0.1635607059547088E+01
    0.2482905500262050E+01   -0.1000000000000000E+01    0.1885385149929012E+01
    0.1660890649526405E+01   -0.1000000000000000E+01    0.2508737357811018E+01
    0.1598111783087740E+01   -0.1000000000000000E+01    0.3356656815401915E+01
    0.2519516809901736E+01   -0.1000000000000000E+01    0.3120482633132017E+01
    0.2000153144652849E+01   -0.1000000000000000E+01    0.4127941526767214E+01
    0.3039222624309763E+01   -0.1000000000000000E+01    0.8728843884554416E+00
    0.1943909465021303E+01   -0.1000000000000000E+01    0.8563427312614358E+00
    0.4181134289965387E+01   -0.1000000000000000E+01    0.3039806936459394E+01
    0.3427857139900839E+01   -0.1000000000000000E+01    0.1608316206941619E+01
    0.4204276726360096E+01   -0.1000000000000000E+01    0.1992994776168015E+01
    0.3029173563817358E+01   -0.1000000000000000E+01    0.4119574277282996E+01
    0.3439265668129285E+01   -0.1000000000000000E+01    0.3362878032445769E+01
    0.3359002465395521E+01   -0.1000000000000000E+01    0.2495945761348561E+01
    0.0000000000000000E+00   -0.2000000000000000E+01    0.5000000000000000E+01
    0.0000000000000000E+00   -0.2000000000000000E+01    0.3750000000000000E+01
    0.0000000000000000E+00   -0.2000000000000000E+01    0.2500000000000000E+01
    0.0000000000000000E+00   -0.2000000000000000E+01    0.1250000000000000E+01
    0.0000000000000000E+00   -0.2000000000000000E+01    0.0000000000000000E+00
    0.1250000000000000E+01   -0.2000000000000000E+01    0.0000000000000000E+00
    0.2500000000000000E+01   -0.2000000000000000E+01    0.0000000000000000E+00
    0.3750000000000000E+01   -0.2000000000000000E+01    0.0000000000000000E+00
    0.5000000000000000E+01   -0.2000000000000000E+01    0.0000000000000000E+00
    0.5000000000000000E+01   -0.2000000000000000E+01    0.1250000000000000E+01
    0.5000000000000000E+01   -0.2000000000000000E+01    0.2500000000000000E+01
    0.5000000000000000E+01   -0.2000000000000000E+01    0.3750000000000000E+01
    0.5000000000000000E+01   -0.2000000000000000E+01    0.5000000000000000E+01
    0.3750000000000000E+01   -0.2000000000000000E+01    0.5000000000000000E+01
    0.2500000000000000E+01   -0.2000000000000000E+01    0.5000000000000000E+01
    0.1250000000000000E+01   -0.2000000000000000E+01    0.5000000000000000E+01
    0.8087673404641089E+00   -0.2000000000000000E+01    0.3046700411233810E+01
    0.7886107149397936E+00   -0.2000000000000000E+01    0.1981265415950838E+01
    0.9272772293302283E+00   -0.2000000000000000E+01    0.4070287583796232E+01
    0.4070226081761783E+01   -0.2000000000000000E+01    0.9540325619275125E+00
    0.9224700799661973E+00   -0.2000000000000000E+01    0.9463046427831353E+00
    0.4085981138224748E+01   -0.2000000000000000E+01    0.4069983725354533E+01
    0.1559757281943150E+01   -0.2000000000000000E+01    0.1635607059547088E+01
    0.2482905500262050E+01   -0.2000000000000000E+01    0.1885385149929012E+01
    0.1660890649526405E+01   -0.2000000000000000E+01    0.2508737357811018E+01
    0.1598111783087740E+01   -0.2000000000000000E+01    0.3356656815401915E+01
    0.2519516809901736E+01   -0.2000000000000000E+01    0.3120482633132017E+01
    0.2000153144652849E+01   -0.2000000000000000E+01    0.4127941526767214E+01
    0.3039222624309763E+01   -0.2000000000000000E+01    0.8728843884554416E+00
    0.1943909465021303E+01   -0.2000000000000000E+01    0.8563427312614358E+00
    0.4181134289965387E+01   -0.2000000000000000E+01    0.3039806936459394E+01
    0.3427857139900839E+01   -0.2000000000000000E+01    0.1608316206941619E+01
    0.4204276726360096E+01   -0.2000000000000000E+01    0.1992994776168015E+01
    0.3029173563817358E+01   -0.2000000000000000E+01    0.4119574277282996E+01
    0.3439265668129285E+01   -0.2000000000000000E+01    0.3362878032445769E+01
    0.3359002465395521E+01   -0.2000000000000000E+01    0.2495945761348561E+01
    0.0000000000000000E+00   -0.3000000000000000E+01    0.5000000000000000E+01
    0.0000000000000000E+00   -0.3000000000000000E+01    0.3750000000000000E+01
    0.0000000000000000E+00   -0.3000000000000000E+01    0.2500000000000000E+01
    0.0000000000000000E+00   -0.3000000000000000E+01    0.1250000000000000E+01
    0.0000000000000000E+00   -0.3000000000000000E+01    0.0000000000000000E+00
    0.1250000000000000E+01   -0.3000000000000000E+01    0.0000000000000000E+00
    0.2500000000000000E+01   -0.3000000000000000E+01    0.0000000000000000E+00
    0.3750000000000000E+01   -0.3000000000000000E+01    0.0000000000000000E+00
    0.5000000000000000E+01   -0.3000000000000000E+01    0.0000000000000000E+00
    0.5000000000000000E+01   -0.3000000000000000E+01    0.1250000000000000E+01
    0.5000000000000000E+01   -0.3000000000000000E+01    0.2500000000000000E+01
    0.5000000000000000E+01   -0.3000000000000000E+01    0.3750000000000000E+01
    0.5000000000000000E+01   -0.3000000000000000E+01    0.5000000000000000E+01
    0.3750000000000000E+01   -0.3000000000000000E+01    0.5000000000000000E+01
    0.2500000000000000E+01   -0.3000000000000000E+01    0.5000000000000000E+01
    0.1250000000000000E+01   -0.3000000000000000E+01    0.5000000000000000E+01
    0.8087673404641089E+00   -0.3000000000000000E+01    0.3046700411233810E+01
[...]
POINT_DATA 216
SCALARS rho double 1
LOOKUP_TABLE default
   0.1005439235068707E+01
   0.1004259824232711E+01
   0.1036132436113236E+01
   0.1006294939839966E+01
   0.1513350195930233E+01
   0.8889909732205066E+00
   0.9588650951639317E+00
   0.9812893122739519E+00
   0.8232370344386496E+00
   0.9917218911201476E+00
   0.1016046650398081E+01
   0.1003110185914134E+01
   0.1003924602295946E+01
   0.1003558284929769E+01
   0.1003954799845863E+01
   0.1000122419737568E+01
   0.1009027458588097E+01
   0.1005044103721884E+01
   0.1005582388653467E+01
   0.1025516528232490E+01
   0.1012985268113012E+01
   0.1003764466559004E+01
   0.1027557374369674E+01
   0.9983994285705027E+00
   0.9870283318606403E+00
   0.1014972350304587E+01
   0.9986093854374685E+00
   0.1006427835237635E+01
   0.9963755519133640E+00
   0.1021486788317588E+01
   0.1002232657237136E+01
   0.9844762304884328E+00
   0.9976028963553244E+00
   0.1005920734167058E+01
   0.9990633654719311E+00
   0.1000033477578641E+01
   0.1005413477496572E+01
   0.1004166608602931E+01
   0.1035903043041833E+01
   0.1005612093400771E+01
   0.1513012975872910E+01
   0.8887584224960664E+00
   0.9586471847692727E+00
   0.9810692533644843E+00
   0.8235727017757162E+00
   0.9933314447826113E+00
   0.1016598279835957E+01
   0.1003082615960616E+01
   0.1003896524532722E+01
   0.1003496325875529E+01
   0.1003885495312558E+01
   0.1000046477181278E+01
   0.1008935254488252E+01
   0.1004734547043459E+01
   0.1005501248276441E+01
   0.1026558809469811E+01
   0.1012781340335358E+01
   0.1003749900075255E+01
   0.1027476233193511E+01
   0.9983621039176431E+00
   0.9868022828806148E+00
   0.1014920716963745E+01
   0.9985556983323071E+00
   0.1006369757393269E+01
   0.9966637888978473E+00
   0.1022123190943015E+01
   0.1002254264502420E+01
   0.9845206474839211E+00
   0.9979846814633737E+00
   0.1005867731697826E+01
   0.9990520086269743E+00
   0.1000063578441321E+01
   0.1005424561858005E+01
   0.1004184987724857E+01
   0.1035931102102569E+01
   0.1005619500713606E+01
   0.1513003065275011E+01
   0.8887811919364338E+00
   0.9587209169002654E+00
   0.9811036281762451E+00
   0.8237281646534875E+00
   0.9933062313018765E+00
   0.1016564668815278E+01
   0.1003087392966215E+01
   0.1003918657348159E+01
   0.1003515010746493E+01
   0.1003912024393586E+01
   0.1000071490253372E+01
   0.1008972154148695E+01
   0.1004799154208119E+01
   0.1005528654244428E+01
   0.1026611500389552E+01
   0.1012902373951283E+01
   0.1003774463222599E+01
   0.1027564142874161E+01
   0.9983977114520174E+00
   0.9868595416394988E+00
   0.1014957228724025E+01
   0.9985996718110204E+00
   0.1006401004908197E+01
   0.9967207444616470E+00
   0.1022145160461893E+01
   0.1002270249128141E+01
   0.9845748999650159E+00
   0.9980131614941121E+00
   0.1005898023407875E+01
   0.9990863999725939E+00
   0.1000080951787126E+01
   0.1005425506852986E+01
   0.1004185323083026E+01
   0.1035931814924325E+01
   0.1005619929863343E+01
   0.1513004187136205E+01
   0.8887827032493762E+00
   0.9587220622942347E+00
   0.9811016929574410E+00
   0.8237245247163903E+00
   0.9933032237132532E+00
   0.1016565522635914E+01
   0.1003091588262788E+01
   0.1003923072027422E+01
   0.1003516144758983E+01
   0.1003914073723714E+01
   0.1000071698574237E+01
   0.1008972919282689E+01
   0.1004799661512211E+01
   0.1005529679724511E+01
   0.1026609955480630E+01
   0.1012903699457994E+01
   0.1003775855701988E+01
   0.1027565221718548E+01
   0.9983980967290268E+00
   0.9868602334598204E+00
   0.1014958230367016E+01
   0.9986002110463721E+00
   0.1006402141988630E+01
   0.9967210067051278E+00
   0.1022146396244481E+01
   0.1002272237833520E+01
   0.9845763902604271E+00
   0.9980129639005486E+00
   0.1005898157454988E+01
   0.9990866994355877E+00
   0.1000081114095177E+01
   0.1005412534235940E+01
   0.1004166275805836E+01
   0.1035902337927708E+01
   0.1005611667920492E+01
   0.1513011846059886E+01
   0.8887569717101743E+00
   0.9586460731383982E+00
   0.9810711960244373E+00
   0.8235763697468537E+00
   0.9933344607812895E+00
   0.1016597423540525E+01
   0.1003078420931602E+01
   0.1003892114213687E+01
   0.1003495197930378E+01
   0.1003883446874323E+01
   0.1000046270375032E+01
   0.1008934491355532E+01
   0.1004734043307621E+01
   0.1005500223584574E+01
   0.1026560359860853E+01
   0.1012780016139613E+01
   0.1003748509063210E+01
   0.1027475154593860E+01
   0.9983617115814026E+00
   0.9868015915571484E+00
   0.1014919717591313E+01
   0.9985551553689691E+00
   0.1006368621301780E+01
   0.9966635336682511E+00
   0.1022121961264057E+01
   0.1002252264454941E+01
   0.9845191607682663E+00
   0.9979848757938248E+00
   0.1005867599755451E+01
   0.9990517054969589E+00
   0.1000063400548051E+01
   0.1005440180046393E+01
   0.1004260164685666E+01
   0.1036133160438189E+01
   0.1006295373241341E+01
   0.1513351285685980E+01
   0.8889925473925973E+00
   0.9588662748943539E+00
   0.9812873798603307E+00
   0.8232335266738076E+00
   0.9917189074785425E+00
   0.1016047487985696E+01
   0.1003114370244406E+01
   0.1003929015864006E+01
   0.1003559421455413E+01
   0.1003956853394334E+01
   0.1000122630095999E+01
   0.1009028225635991E+01
   0.1005044613789488E+01
   0.1005583417066433E+01
   0.1025514991832710E+01
   0.1012986593216805E+01
   0.1003765859690277E+01
   0.1027558443499730E+01
   0.9983998066214349E+00
   0.9870290173564115E+00
   0.1014973350399394E+01
   0.9986099216299594E+00
   0.1006428974875069E+01
   0.9963758211016489E+00
   0.1021488034894963E+01
   0.1002234625529456E+01
   0.9844777317775945E+00
   0.9976026839324994E+00
   0.1005920871862222E+01
   0.9990636568770372E+00
   0.1000033623368733E+01
SCALARS u double 1
LOOKUP_TABLE default
   0.4954634511106610E+00
   0.4953880387982998E+00
   0.4663898804561381E+00
   0.4862088772981991E+00
   0.0000000000000000E+00
   0.0000000000000000E+00
   0.0000000000000000E+00
   0.0000000000000000E+00
   0.0000000000000000E+00
   0.4894915915062725E+00
   0.5263507217254609E+00
   0.5046187633680965E+00
   0.4928419666294919E+00
   0.4926679244500846E+00
   0.4917202730487255E+00
   0.4967695198608233E+00
   0.4952777643542599E+00
   0.5020802158810431E+00
   0.4944797581770983E+00
   0.4400426848984305E+00
   0.5521944489398602E+00
   0.4932076296113768E+00
   0.5636306209285080E+00
   0.5882008476735130E+00
   0.5242903238341389E+00
   0.4946233030699682E+00
   0.5099533975940639E+00
   0.4952203568720909E+00
   0.3886754885821981E+00
   0.4242644437371528E+00
   0.5256126272930637E+00
   0.5549551122569276E+00
   0.5757874063318447E+00
   0.4950426487376444E+00
   0.5066600625199833E+00
   0.5635020209518017E+00
   0.4954935542262057E+00
   0.4954897302002532E+00
   0.4665850038573905E+00
   0.4860310201725771E+00
   0.0000000000000000E+00
   0.0000000000000000E+00
   0.0000000000000000E+00
   0.0000000000000000E+00
   0.0000000000000000E+00
   0.4907801338524268E+00
   0.5269986393178360E+00
   0.5043780378375177E+00
   0.4927297812879438E+00
   0.4928079720115808E+00
   0.4919479210779283E+00
   0.4969057679668625E+00
   0.4953851092003955E+00
   0.5022641806274957E+00
   0.4945956928996708E+00
   0.4424830966528215E+00
   0.5540268988431085E+00
   0.4929104214966729E+00
   0.5653186282118952E+00
   0.5904237429840749E+00
   0.5241637148098998E+00
   0.4946559846773083E+00
   0.5096102597638584E+00
   0.4953146582305094E+00
   0.3899033589789809E+00
   0.4259769250933840E+00
   0.5254026454016832E+00
   0.5582558087942863E+00
   0.5781621692877216E+00
   0.4949468069126025E+00
   0.5062521708866278E+00
   0.5643258537996927E+00
   0.4954798244237928E+00
   0.4954709000378157E+00
   0.4665570039517084E+00
   0.4859832461118984E+00
   0.0000000000000000E+00
   0.0000000000000000E+00
   0.0000000000000000E+00
   0.0000000000000000E+00
   0.0000000000000000E+00
   0.4908766717679238E+00
   0.5270666791045403E+00
   0.5043732593863440E+00
   0.4927484841023644E+00
   0.4928116749475517E+00
   0.4919006211259281E+00
   0.4968538519753684E+00
   0.4953260058046864E+00
   0.5021469339112600E+00
   0.4945535542336169E+00
   0.4425609401838745E+00
   0.5539461277823442E+00
   0.4928954016199079E+00
   0.5652625634319379E+00
   0.5904079475968050E+00
   0.5240756504412021E+00
   0.4946009143805932E+00
   0.5095563192510749E+00
   0.4952672196060229E+00
   0.3899643955371776E+00
   0.4260413325230194E+00
   0.5253533196221953E+00
   0.5582652370726772E+00
   0.5782321019577292E+00
   0.4949139538067472E+00
   0.5062086577388675E+00
   0.5642797690709008E+00
   0.4954798500953980E+00
   0.4954705951668760E+00
   0.4665561201160589E+00
   0.4859824273622964E+00
   0.0000000000000000E+00
   0.0000000000000000E+00
   0.0000000000000000E+00
   0.0000000000000000E+00
   0.0000000000000000E+00
   0.4908737979526507E+00
   0.5270628808015851E+00
   0.5043712633587744E+00
   0.4927488846874314E+00
   0.4928190265846591E+00
   0.4919037188782034E+00
   0.4968525523781300E+00
   0.4953258434236802E+00
   0.5021461623745032E+00
   0.4945528476643651E+00
   0.4425551631228149E+00
   0.5539446053209054E+00
   0.4928965400070813E+00
   0.5652596470001522E+00
   0.5904067277934859E+00
   0.5240753484898888E+00
   0.4946002733238996E+00
   0.5095544669796152E+00
   0.4952639570888274E+00
   0.3899600569202593E+00
   0.4260388676936214E+00
   0.5253519487064410E+00
   0.5582606783229124E+00
   0.5782252721348973E+00
   0.4949115197636135E+00
   0.5062062128116078E+00
   0.5642768552563964E+00
   0.4954935270177322E+00
   0.4954900349591179E+00
   0.4665858868639284E+00
   0.4860318354394241E+00
   0.0000000000000000E+00
   0.0000000000000000E+00
   0.0000000000000000E+00
   0.0000000000000000E+00
   0.0000000000000000E+00
   0.4907830118507986E+00
   0.5270024299593026E+00
   0.5043800339599301E+00
   0.4927293918590198E+00
   0.4928006380380655E+00
   0.4919448202854779E+00
   0.4969070638560097E+00
   0.4953852700676996E+00
   0.5022649532092985E+00
   0.4945963956577339E+00
   0.4424888653299523E+00
   0.5540284147806886E+00
   0.4929092787358699E+00
   0.5653215333379140E+00
   0.5904249650791452E+00
   0.5241640239358725E+00
   0.4946566220131123E+00
   0.5096121259624683E+00
   0.4953179173859454E+00
   0.3899076634035857E+00
   0.4259793739151533E+00
   0.5254040214453806E+00
   0.5582603620827615E+00
   0.5781689821120640E+00
   0.4949492318599466E+00
   0.5062546220630977E+00
   0.5643287902737596E+00
   0.4954634708155642E+00
   0.4953877334341821E+00
   0.4663889962329028E+00
   0.4862080398158186E+00
   0.0000000000000000E+00
   0.0000000000000000E+00
   0.0000000000000000E+00
   0.0000000000000000E+00
   0.0000000000000000E+00
   0.4894887996063992E+00
   0.5263469041393062E+00
   0.5046167533764602E+00
   0.4928423909011927E+00
   0.4926753128322455E+00
   0.4917233870217987E+00
   0.4967682286610774E+00
   0.4952776031771309E+00
   0.5020794573996732E+00
   0.4944790485362194E+00
   0.4400370690696362E+00
   0.5521929114582292E+00
   0.4932087709397737E+00
   0.5636276830502081E+00
   0.5881996081687834E+00
   0.5242900437705723E+00
   0.4946226632953030E+00
   0.5099515566809917E+00
   0.4952170968827702E+00
   0.3886712100709884E+00
   0.4242619984456428E+00
   0.5256112208474345E+00
   0.5549505547351873E+00
   0.5757805655003440E+00
   0.4950402115938015E+00
   0.5066576154685107E+00
   0.5634990880307823E+00
SCALARS v double 1
LOOKUP_TABLE default
   0.0000000000000000E+00
   0.0000000000000000E+00
   0.0000000000000000E+00
   0.0000000000000000E+00
   0.0000000000000000E+00
   0.0000000000000000E+00
   0.0000000000000000E+00
   0.0000000000000000E+00
   0.0000000000000000E+00
   0.0000000000000000E+00
   0.0000000000000000E+00
   0.0000000000000000E+00
   0.0000000000000000E+00
   0.0000000000000000E+00
   0.0000000000000000E+00
   0.0000000000000000E+00
   0.0000000000000000E+00
   0.0000000000000000E+00
   0.0000000000000000E+00
   0.0000000000000000E+00
   0.0000000000000000E+00
   0.0000000000000000E+00
   0.0000000000000000E+00
   0.0000000000000000E+00
   0.0000000000000000E+00
   0.0000000000000000E+00
   0.0000000000000000E+00
   0.0000000000000000E+00
   0.0000000000000000E+00
   0.0000000000000000E+00
   0.0000000000000000E+00
   0.0000000000000000E+00
   0.0000000000000000E+00
   0.0000000000000000E+00
   0.0000000000000000E+00
   0.0000000000000000E+00
   0.4400182636807869E-05
  -0.9611934765533638E-05
  -0.4155016333805930E-04
  -0.2059474143481656E-03
   0.0000000000000000E+00
   0.0000000000000000E+00
   0.0000000000000000E+00
   0.0000000000000000E+00
   0.0000000000000000E+00
   0.7399880753939737E-03
   0.3029317233625374E-03
  -0.3908752945636170E-04
  -0.4148882541487253E-04
  -0.4255716126131305E-04
  -0.3768271423538907E-04
  -0.3757376228564014E-04
  -0.7428413536889613E-04
  -0.2269077418240697E-03
  -0.4043347522686229E-04
   0.9327780615083243E-04
  -0.4136228895645606E-03
  -0.4436797022037897E-04
  -0.2937590220769410E-03
  -0.1553898323724500E-03
  -0.2415049185297295E-03
  -0.7822012930373481E-04
  -0.1288195238967440E-03
  -0.4839777720314708E-04
  -0.1431674780412243E-03
   0.9429091376693947E-04
  -0.4564677977775725E-04
  -0.2247687601311020E-03
   0.2800998617436031E-04
  -0.6007059419992771E-04
  -0.7289147792446109E-04
  -0.5513758747462432E-04
   0.4615548425543648E-05
   0.4326447448506931E-05
   0.1244676704334687E-04
  -0.4225917548685507E-05
   0.0000000000000000E+00
   0.0000000000000000E+00
   0.0000000000000000E+00
   0.0000000000000000E+00
   0.0000000000000000E+00
   0.1026073240342457E-03
   0.2290682596707994E-04
  -0.1014342764583062E-04
   0.9880112137000110E-05
   0.1615664858548969E-04
   0.1805145202119173E-04
   0.8479115573571377E-05
   0.1664537113929602E-04
  -0.3688038932704193E-05
   0.1136719378858247E-04
   0.1055962929991398E-04
  -0.4562281121072557E-04
   0.5169513940883091E-05
  -0.5316256612813796E-04
  -0.3637399291969966E-04
  -0.2353443733864966E-04
   0.1553966534616857E-04
  -0.9167060375516798E-05
   0.1569130058047820E-04
  -0.5924346090697403E-05
   0.1100411834815907E-04
  -0.1731131214099897E-04
  -0.4466313061168650E-04
  -0.2192661024525099E-04
   0.9275069688166747E-05
  -0.3731882429420753E-05
  -0.1864094908552860E-04
  -0.4617572943837462E-05
  -0.4328449913417977E-05
  -0.1244719462919573E-04
   0.4226500684389516E-05
   0.0000000000000000E+00
   0.0000000000000000E+00
   0.0000000000000000E+00
   0.0000000000000000E+00
   0.0000000000000000E+00
  -0.1026060955759044E-03
  -0.2292602034068723E-04
   0.1015270804650273E-04
  -0.9878025544469429E-05
  -0.1617026110810320E-04
  -0.1805631216946620E-04
  -0.8481097404483087E-05
  -0.1664244849961297E-04
   0.3691454162006561E-05
  -0.1136521705463071E-04
  -0.1055402673007945E-04
   0.4561841123242294E-04
  -0.5153181628274809E-05
   0.5316454366350980E-04
   0.3637822780727474E-04
   0.2354365120221381E-04
  -0.1554204995431396E-04
   0.9173679441519423E-05
  -0.1569139523577569E-04
   0.5913088025708004E-05
  -0.1100686604066566E-04
   0.1730879401101888E-04
   0.4465660515040531E-04
   0.2190818156294006E-04
  -0.9269713119924752E-05
   0.3741999471450057E-05
   0.1863267576047402E-04
  -0.4401206698915110E-05
   0.9610127041436837E-05
   0.4154913518742941E-04
   0.2059471489556503E-03
   0.0000000000000000E+00
   0.0000000000000000E+00
   0.0000000000000000E+00
   0.0000000000000000E+00
   0.0000000000000000E+00
  -0.7399548273472513E-03
  -0.3029496839354278E-03
   0.3909004988855308E-04
   0.4148921812122315E-04
   0.4254687438549413E-04
   0.3767954581534190E-04
   0.3757136102808535E-04
   0.7428498051231762E-04
   0.2269107496917023E-03
   0.4043270989800725E-04
  -0.9326992644650339E-04
   0.4136089075929408E-03
   0.4437874388722887E-04
   0.2937646086223969E-03
   0.1553925943733175E-03
   0.2415188598214463E-03
   0.7821648687022066E-04
   0.1288265747622124E-03
   0.4839502417469450E-04
   0.1431424512623615E-03
  -0.9430797229390059E-04
   0.4563576805902921E-04
   0.2247540843459553E-03
  -0.2803173860954631E-04
   0.6007449806673358E-04
   0.7289941524979143E-04
   0.5512552905412879E-04
   0.0000000000000000E+00
   0.0000000000000000E+00
   0.0000000000000000E+00
   0.0000000000000000E+00
   0.0000000000000000E+00
   0.0000000000000000E+00
   0.0000000000000000E+00
   0.0000000000000000E+00
   0.0000000000000000E+00
   0.0000000000000000E+00
   0.0000000000000000E+00
   0.0000000000000000E+00
   0.0000000000000000E+00
   0.0000000000000000E+00
   0.0000000000000000E+00
   0.0000000000000000E+00
   0.0000000000000000E+00
   0.0000000000000000E+00
   0.0000000000000000E+00
   0.0000000000000000E+00
   0.0000000000000000E+00
   0.0000000000000000E+00
   0.0000000000000000E+00
   0.0000000000000000E+00
   0.0000000000000000E+00
   0.0000000000000000E+00
   0.0000000000000000E+00
   0.0000000000000000E+00
   0.0000000000000000E+00
   0.0000000000000000E+00
   0.0000000000000000E+00
   0.0000000000000000E+00
   0.0000000000000000E+00
   0.0000000000000000E+00
   0.0000000000000000E+00
   0.0000000000000000E+00
SCALARS w double 1
LOOKUP_TABLE default
  -0.1553408259863114E-03
   0.1015278828520632E-02
   0.2651547046066412E-02
   0.7269132639692000E-01
   0.0000000000000000E+00
   0.0000000000000000E+00
   0.0000000000000000E+00
   0.0000000000000000E+00
   0.0000000000000000E+00
  -0.7182711015358950E-01
  -0.9364854596395092E-02
   0.1171089839079581E-01
   0.1640720454663648E-02
   0.5066632768372418E-02
   0.8163770457109545E-02
   0.8485411923647336E-02
   0.1149292760803815E-01
   0.1861759609101565E-01
   0.4580858287405469E-02
  -0.3056966434447874E-01
   0.1280300567315603E+00
   0.3512513798090734E-02
   0.4746169980521435E-01
   0.2939846432889126E-01
   0.2733359542194013E-01
   0.6535909571705390E-02
   0.1123190576186323E-01
   0.8808461007001530E-02
   0.7528232850200344E-02
   0.6126769270456127E-02
   0.8015124219003533E-02
   0.1220704556176773E-01
  -0.2221801828997081E-02
   0.5906549476429710E-02
   0.5647948717461481E-02
   0.6146275848906160E-02
  -0.1774616660056063E-03
   0.1056006343746559E-02
   0.2618865964071296E-02
   0.7203340639109104E-01
   0.0000000000000000E+00
   0.0000000000000000E+00
   0.0000000000000000E+00
   0.0000000000000000E+00
   0.0000000000000000E+00
  -0.7140609954813523E-01
  -0.8862883955262982E-02
   0.1172549876051692E-01
   0.1518650941480249E-02
   0.5026016574145736E-02
   0.8145188663648103E-02
   0.8470026438144908E-02
   0.1126487585237833E-01
   0.1787278110387228E-01
   0.4516411131079074E-02
  -0.3133614385964927E-01
   0.1279321092524998E+00
   0.3242433641604594E-02
   0.4696192414962880E-01
   0.2907828106386726E-01
   0.2662146644326430E-01
   0.6175118588310931E-02
   0.1068820496686828E-01
   0.8682477726619469E-02
   0.7534486219188523E-02
   0.6184293833149322E-02
   0.7778288256276589E-02
   0.1200519771901922E-01
  -0.2421072177591756E-02
   0.5664991068232842E-02
   0.5227748628343478E-02
   0.5685663029649689E-02
  -0.1773366345611259E-03
   0.1041141170986416E-02
   0.2602701974973083E-02
   0.7203558761357795E-01
   0.0000000000000000E+00
   0.0000000000000000E+00
   0.0000000000000000E+00
   0.0000000000000000E+00
   0.0000000000000000E+00
  -0.7134782906581558E-01
  -0.8818266590685880E-02
   0.1176099348404670E-01
   0.1553851291881842E-02
   0.5083632496264408E-02
   0.8183644548080285E-02
   0.8484748515744770E-02
   0.1129335734032289E-01
   0.1790517888062601E-01
   0.4528692488369570E-02
  -0.3134286020220853E-01
   0.1278796260467862E+00
   0.3323103484826955E-02
   0.4695890300114440E-01
   0.2907623197373287E-01
   0.2669706799721737E-01
   0.6247768432588022E-02
   0.1077534414129762E-01
   0.8745782236284642E-02
   0.7483167967780013E-02
   0.6121872698697710E-02
   0.7842897113010096E-02
   0.1199681649957446E-01
  -0.2396780194911989E-02
   0.5760270851861925E-02
   0.5318486380499875E-02
   0.5739269623090102E-02
  -0.1791544192496531E-03
   0.1040653408666113E-02
   0.2603531169558695E-02
   0.7203627118303861E-01
   0.0000000000000000E+00
   0.0000000000000000E+00