# vtk DataFile Version 2.0
FUN3D:global_image_vtk
ASCII
DATASET UNSTRUCTURED_GRID
POINTS 213 double
    0.0000000000000000E+00    0.2500000000000000E+01    0.0000000000000000E+00
    0.1250000000000000E+01    0.2500000000000000E+01    0.0000000000000000E+00
    0.2500000000000000E+01    0.2500000000000000E+01    0.0000000000000000E+00
    0.3750000000000000E+01    0.2500000000000000E+01    0.0000000000000000E+00
    0.5000000000000000E+01    0.2500000000000000E+01    0.0000000000000000E+00
    0.5000000000000000E+01    0.1250000000000000E+01    0.0000000000000000E+00
    0.5000000000000000E+01    0.0000000000000000E+00    0.0000000000000000E+00
    0.5000000000000000E+01   -0.1250000000000000E+01    0.0000000000000000E+00
    0.5000000000000000E+01   -0.2500000000000000E+01    0.0000000000000000E+00
    0.3750000000000000E+01   -0.2500000000000000E+01    0.0000000000000000E+00
    0.2500000000000000E+01   -0.2500000000000000E+01    0.0000000000000000E+00
    0.1250000000000000E+01   -0.2500000000000000E+01    0.0000000000000000E+00
    0.0000000000000000E+00   -0.2500000000000000E+01    0.0000000000000000E+00
    0.0000000000000000E+00   -0.1250000000000000E+01    0.0000000000000000E+00
    0.0000000000000000E+00    0.0000000000000000E+00    0.0000000000000000E+00
    0.0000000000000000E+00    0.1250000000000000E+01    0.0000000000000000E+00
    0.9058375365086910E+00    0.1578994732800803E+01    0.0000000000000000E+00
    0.3982050490726493E+01   -0.1583989954232354E+01    0.0000000000000000E+00
    0.4033849428301197E+01    0.1453322699199022E+01    0.0000000000000000E+00
    0.1040505887381675E+01   -0.1479596339503735E+01    0.0000000000000000E+00
    0.1099454400140349E+01   -0.3227322616384110E+00    0.0000000000000000E+00
    0.7354504170366591E+00    0.6593508822075582E+00    0.0000000000000000E+00
    0.1622302608453282E+01    0.8256214013940779E+00    0.0000000000000000E+00
    0.2145871574390382E+01   -0.1650070333782557E+01    0.0000000000000000E+00
    0.4086422318222992E+01   -0.4612828702537229E+00    0.0000000000000000E+00
    0.2979540174134984E+01   -0.8579242121530853E+00    0.0000000000000000E+00
    0.3045064261640043E+01   -0.1836846154397680E+01    0.0000000000000000E+00
    0.3428197553792836E+01    0.3508002863614053E+00    0.0000000000000000E+00
    0.4309693860063405E+01    0.5185680230613409E+00    0.0000000000000000E+00
    0.1827272193562204E+01    0.1738996113203182E+01    0.0000000000000000E+00
    0.2808563282768077E+01    0.1325493893339706E+01    0.0000000000000000E+00
    0.1895995683864404E+01   -0.8731419609589618E+00    0.0000000000000000E+00
    0.2273179336307740E+01    0.4906150219227333E-01    0.0000000000000000E+00
    0.5000000000000000E+01    0.2500000000000000E+01    0.1250000000000000E+01
    0.5000000000000000E+01    0.2500000000000000E+01    0.2500000000000000E+01
    0.5000000000000000E+01    0.2500000000000000E+01    0.3750000000000000E+01
    0.5000000000000000E+01    0.2500000000000000E+01    0.5000000000000000E+01
    0.3750000000000000E+01    0.2500000000000000E+01    0.5000000000000000E+01
    0.2500000000000000E+01    0.2500000000000000E+01    0.5000000000000000E+01
    0.1250000000000000E+01    0.2500000000000000E+01    0.5000000000000000E+01
    0.0000000000000000E+00    0.2500000000000000E+01    0.5000000000000000E+01
    0.0000000000000000E+00    0.2500000000000000E+01    0.3750000000000000E+01
    0.0000000000000000E+00    0.2500000000000000E+01    0.2500000000000000E+01
    0.0000000000000000E+00    0.2500000000000000E+01    0.1250000000000000E+01
    0.9631080833812172E+00    0.2500000000000000E+01    0.9613285771248219E+00
    0.3981732467264904E+01    0.2500000000000000E+01    0.4069753913607991E+01
    0.4035525118777670E+01    0.2500000000000000E+01    0.1012015867579395E+01
    0.9641717640894248E+00    0.2500000000000000E+01    0.3972455192261839E+01
    0.1547743040396780E+01    0.2500000000000000E+01    0.2928177746738678E+01
    0.6985170616192014E+00    0.2500000000000000E+01    0.3068281976055466E+01
    0.8931277594515110E+00    0.2500000000000000E+01    0.2052465503257726E+01
    0.2183293750162785E+01    0.2500000000000000E+01    0.3959073795658649E+01
    0.3855333506014705E+01    0.2500000000000000E+01    0.2931218481500625E+01
    0.3152495579421047E+01    0.2500000000000000E+01    0.3635850502723324E+01
    0.3103247580566054E+01    0.2500000000000000E+01    0.4331682712472464E+01
    0.3266837581688852E+01    0.2500000000000000E+01    0.1886092433583972E+01
    0.4231539241296245E+01    0.2500000000000000E+01    0.1915865356532799E+01
    0.1909741006522088E+01    0.2500000000000000E+01    0.7170024419130505E+00
    0.2880784107213163E+01    0.2500000000000000E+01    0.9046598906449592E+00
    0.2014316024535771E+01    0.2500000000000000E+01    0.1762464314805728E+01
    0.2670003247036656E+01    0.2500000000000000E+01    0.2850479545835163E+01
    0.5000000000000000E+01    0.1250000000000000E+01    0.5000000000000000E+01
    0.5000000000000000E+01    0.0000000000000000E+00    0.5000000000000000E+01
    0.5000000000000000E+01   -0.1250000000000000E+01    0.5000000000000000E+01
    0.5000000000000000E+01   -0.2500000000000000E+01    0.5000000000000000E+01
    0.5000000000000000E+01   -0.2500000000000000E+01    0.3750000000000000E+01
    0.5000000000000000E+01   -0.2500000000000000E+01    0.2500000000000000E+01
    0.5000000000000000E+01   -0.2500000000000000E+01    0.1250000000000000E+01
    0.5000000000000000E+01    0.1578994732800803E+01    0.9058375365086910E+00
    0.5000000000000000E+01   -0.1583989954232354E+01    0.3982050490726493E+01
    0.5000000000000000E+01    0.1453322699199022E+01    0.4033849428301197E+01
    0.5000000000000000E+01   -0.1479596339503735E+01    0.1040505887381675E+01
    0.5000000000000000E+01   -0.3227322616384110E+00    0.1099454400140349E+01
    0.5000000000000000E+01    0.6593508822075582E+00    0.7354504170366591E+00
    0.5000000000000000E+01    0.8256214013940779E+00    0.1622302608453282E+01
    0.5000000000000000E+01   -0.1650070333782557E+01    0.2145871574390382E+01
    0.5000000000000000E+01   -0.4612828702537229E+00    0.4086422318222992E+01
    0.5000000000000000E+01   -0.8579242121530853E+00    0.2979540174134984E+01
    0.5000000000000000E+01   -0.1836846154397680E+01    0.3045064261640043E+01
    0.5000000000000000E+01    0.3508002863614053E+00    0.3428197553792836E+01
    0.5000000000000000E+01    0.5185680230613409E+00    0.4309693860063405E+01
    0.5000000000000000E+01    0.1738996113203182E+01    0.1827272193562204E+01
    0.5000000000000000E+01    0.1325493893339706E+01    0.2808563282768077E+01
    0.5000000000000000E+01   -0.8731419609589618E+00    0.1895995683864404E+01
    0.5000000000000000E+01    0.4906150219227333E-01    0.2273179336307740E+01
    0.0000000000000000E+00    0.1250000000000000E+01    0.5000000000000000E+01
    0.0000000000000000E+00    0.0000000000000000E+00    0.5000000000000000E+01
    0.0000000000000000E+00   -0.1250000000000000E+01    0.5000000000000000E+01
    0.0000000000000000E+00   -0.2500000000000000E+01    0.5000000000000000E+01
    0.1250000000000000E+01   -0.2500000000000000E+01    0.5000000000000000E+01
    0.2500000000000000E+01   -0.2500000000000000E+01    0.5000000000000000E+01
    0.3750000000000000E+01   -0.2500000000000000E+01    0.5000000000000000E+01
    0.4042003247744892E+01    0.1558308132739014E+01    0.5000000000000000E+01
    0.9304122287900499E+00   -0.1548001304379777E+01    0.5000000000000000E+01
    0.1037243024609388E+01    0.1462892710085612E+01    0.5000000000000000E+01
    0.3946240828834967E+01   -0.1445243809615570E+01    0.5000000000000000E+01
    0.4092527262848217E+01   -0.3455338993778935E+00    0.5000000000000000E+01
    0.4293103109154542E+01    0.6277660831404320E+00    0.5000000000000000E+01
    0.3241512314643519E+01    0.7429886854239611E+00    0.5000000000000000E+01
    0.2844289952419609E+01   -0.1588117879734118E+01    0.5000000000000000E+01
    0.7159905765450471E+00   -0.6002320124191652E+00    0.5000000000000000E+01
    0.1754341919796891E+01   -0.7398147869923652E+00    0.5000000000000000E+01
    0.1870296826774691E+01   -0.1788622905643739E+01    0.5000000000000000E+01
    0.9220614901912976E+00    0.3083720183248586E+00    0.5000000000000000E+01
    0.3101523624086016E+01    0.1777901774806180E+01    0.5000000000000000E+01
    0.2192512063922564E+01    0.1576861561598471E+01    0.5000000000000000E+01
    0.2024793420196460E+01    0.4773861992750707E+00    0.5000000000000000E+01
    0.2990627757741975E+01   -0.4878110785814084E+00    0.5000000000000000E+01
    0.0000000000000000E+00   -0.2500000000000000E+01    0.1250000000000000E+01
    0.0000000000000000E+00   -0.2500000000000000E+01    0.2500000000000000E+01
    0.0000000000000000E+00   -0.2500000000000000E+01    0.3750000000000000E+01
    0.0000000000000000E+00    0.1558308132739014E+01    0.4042003247744892E+01
    0.0000000000000000E+00   -0.1548001304379777E+01    0.9304122287900499E+00
    0.0000000000000000E+00    0.1462892710085612E+01    0.1037243024609388E+01
    0.0000000000000000E+00   -0.1445243809615570E+01    0.3946240828834967E+01
    0.0000000000000000E+00   -0.3455338993778935E+00    0.4092527262848217E+01
    0.0000000000000000E+00    0.6277660831404320E+00    0.4293103109154542E+01
    0.0000000000000000E+00    0.7429886854239611E+00    0.3241512314643519E+01
    0.0000000000000000E+00   -0.1588117879734118E+01    0.2844289952419609E+01
    0.0000000000000000E+00   -0.6002320124191652E+00    0.7159905765450471E+00
    0.0000000000000000E+00   -0.7398147869923652E+00    0.1754341919796891E+01
    0.0000000000000000E+00   -0.1788622905643739E+01    0.1870296826774691E+01
    0.0000000000000000E+00    0.3083720183248586E+00    0.9220614901912976E+00
    0.0000000000000000E+00    0.1777901774806180E+01    0.3101523624086016E+01
    0.0000000000000000E+00    0.1576861561598471E+01    0.2192512063922564E+01
[...]
POINT_DATA 213
SCALARS rho double 1
LOOKUP_TABLE default
   0.1343965960529629E+01
   0.9576972736734554E+00
   0.9477448461924063E+00
   0.9438131433063129E+00
   0.8441009477945198E+00
   0.7733576817670689E+00
   0.7630128785606005E+00
   0.7656186397420111E+00
   0.8316614369702205E+00
   0.9369663683657373E+00
   0.9354398922229245E+00
   0.9614824100021957E+00
   0.1447869010957505E+01
   0.1492319200711536E+01
   0.1642809588786473E+01
   0.1425671985979998E+01
   0.1009386313875648E+01
   0.9522697476343231E+00
   0.9451727057481876E+00
   0.9577559807800217E+00
   0.9405678764763453E+00
   0.1035489931208887E+01
   0.9260511828189196E+00
   0.9335251637707841E+00
   0.9552381722108771E+00
   0.9537149702129798E+00
   0.9360594553214344E+00
   0.9578783268250729E+00
   0.9386202153529711E+00
   0.9312265799040134E+00
   0.9460891779078096E+00
   0.8867073893803161E+00
   0.9437960431173414E+00
   0.9641219453751098E+00
   0.1007296400361033E+01
   0.1006184778488856E+01
   0.1004574959341285E+01
   0.1005751423092117E+01
   0.1004610526924889E+01
   0.1005284910500293E+01
   0.1003004652634502E+01
   0.1008151398393292E+01
   0.1023748878444521E+01
   0.1062885649159157E+01
   0.1019113285708541E+01
   0.1001827819988240E+01
   0.9658918537605369E+00
   0.1005409935308530E+01
   0.1000775309989289E+01
   0.1008827306250044E+01
   0.1007918430058813E+01
   0.1002494199539164E+01
   0.9976014237266168E+00
   0.1000593571418095E+01
   0.1001865292073298E+01
   0.9828372189356017E+00
   0.9840878141245505E+00
   0.9841380505968188E+00
   0.9802128049992601E+00
   0.9905521806416010E+00
   0.9934998276668248E+00
   0.1004778244983417E+01
   0.1004767189297291E+01
   0.1005114321390522E+01
   0.1004850286013690E+01
   0.1009544109021527E+01
   0.1004699691178246E+01
   0.9559620070038429E+00
   0.9257182855444043E+00
   0.1007687731097953E+01
   0.1004499793541991E+01
   0.9151324660661281E+00
   0.9096292334314837E+00
   0.8762723009052504E+00
   0.9757629703050773E+00
   0.9987129105229245E+00
   0.1006335541481137E+01
   0.1010818859008976E+01
   0.1010129204805878E+01
   0.1009074518838819E+01
   0.1005937111841763E+01
   0.9900076153026220E+00
   0.1003829925553766E+01
   0.9846226061870611E+00
   0.1002837188012932E+01
   0.1003882860720786E+01
   0.1003215373659210E+01
   0.1003424139010341E+01
   0.1003738532182114E+01
   0.1005281661786037E+01
   0.1003265155691223E+01
   0.1004580560221142E+01
   0.1005196429512941E+01
   0.1004060719471673E+01
   0.1004546525349079E+01
   0.1003385890459013E+01
   0.1004519397717074E+01
   0.1005791657776169E+01
   0.1004686431863797E+01
   0.1003955411263293E+01
   0.1003135933515560E+01
   0.1004406797874608E+01
   0.1004217778840911E+01
   0.1003536250699459E+01
   0.1005309733339176E+01
   0.1004812133250788E+01
   0.1004741758015968E+01
   0.1004669787226774E+01
   0.1064928020747291E+01
   0.1028650830451117E+01
   0.1009537909848500E+01
   0.1006519332279385E+01
   0.1163380979199677E+01
   0.1086055351432460E+01
   0.1007820126325087E+01
   0.1007302541805229E+01
   0.1006711537684799E+01
   0.1012984941341889E+01
   0.1019259447762461E+01
   0.1234910553877846E+01
   0.1032980185148394E+01
   0.1046583638151106E+01
   0.1200461007888060E+01
   0.1014504356278407E+01
   0.1031892368483157E+01
   0.1028375142302422E+01
   0.1014845788310438E+01
   0.1029073306760577E+01
   0.1002080407401273E+01
   0.9621401807836555E+00
   0.1006807134180457E+01
   0.1001537961842606E+01
   0.1010605445989225E+01
   0.1012248904998793E+01
   0.1001047925230860E+01
   0.9972872453378453E+00
   0.9978249676123189E+00
   0.1001116545054112E+01
   0.9838204469466788E+00
   0.9808407240995836E+00
   0.9653613803641712E+00
   0.9688902722882219E+00
   0.9913867319618550E+00
   0.9913033737395578E+00
   0.9924499654453877E+00
   0.1001939550987690E+01
   0.9994944958053590E+00
   0.9940522237718112E+00
   0.1006988072730635E+01
   0.1022221194356788E+01
   0.1000742636587510E+01
   0.1008918713458120E+01
   0.1004949825876231E+01
   0.1009093554838177E+01
   0.9967232935076324E+00
   0.1004971620559681E+01
   0.1003543350771648E+01
   0.9949818723051854E+00
   0.9827942752541723E+00
   0.9939983479571671E+00
   0.9970549763068332E+00
   0.9919138356117255E+00
   0.1001240974628365E+01
   0.1003192427204220E+01
   0.1002174556045852E+01
   0.9936100682610450E+00
   0.9937194722086322E+00
   0.1005130361339381E+01
   0.1019813425030695E+01
   0.1005421270409729E+01
   0.9816989785858791E+00
   0.1005148094904105E+01
   0.1012366735072032E+01
   0.9872336001647618E+00
   0.9550246535761496E+00
   0.9860586846768981E+00
   0.9866043129832293E+00
   0.9925193430577887E+00
   0.9931308547636233E+00
   0.9948952523063295E+00
   0.1037296046590463E+01
   0.1033015714633238E+01
   0.1001454862098471E+01
   0.1002005181865024E+01
   0.9897996522409904E+00
   0.9907251148242540E+00
   0.9646455765122732E+00
   0.9920848215370782E+00
   0.1005418868900728E+01
   0.1001496628942357E+01
   0.9910386850103380E+00
   0.9741297636938457E+00
   0.9424060716291773E+00
   0.9820102501554537E+00
   0.9791544203852947E+00
   0.9713816142107402E+00
   0.9720530686380755E+00
   0.9554278769830639E+00
   0.9502413890647294E+00
   0.9545737775308848E+00
   0.1002932458170871E+01
   0.1002562230570531E+01
   0.1000541323052837E+01
   0.1001108797952884E+01
   0.9616592902045368E+00
   0.9512265334208302E+00
   0.9602851458132894E+00
   0.1000865689481475E+01
   0.1000324352329319E+01
   0.1000906465843182E+01
   0.9809417603587167E+00
   0.9805261763577988E+00
   0.9640837772414894E+00
SCALARS u double 1
LOOKUP_TABLE default
   0.0000000000000000E+00
   0.0000000000000000E+00
   0.0000000000000000E+00
   0.0000000000000000E+00
   0.0000000000000000E+00
   0.0000000000000000E+00
   0.0000000000000000E+00
   0.0000000000000000E+00
   0.0000000000000000E+00
   0.0000000000000000E+00
   0.0000000000000000E+00
   0.0000000000000000E+00
   0.0000000000000000E+00
   0.0000000000000000E+00
   0.0000000000000000E+00
   0.0000000000000000E+00
   0.0000000000000000E+00
   0.0000000000000000E+00
   0.0000000000000000E+00
   0.0000000000000000E+00
   0.0000000000000000E+00
   0.0000000000000000E+00
   0.0000000000000000E+00
   0.0000000000000000E+00
   0.0000000000000000E+00
   0.0000000000000000E+00
   0.0000000000000000E+00
   0.0000000000000000E+00
   0.0000000000000000E+00
   0.0000000000000000E+00
   0.0000000000000000E+00
   0.0000000000000000E+00
   0.0000000000000000E+00
   0.4956088285019566E+00
   0.5336028970171059E+00
   0.5184450483850818E+00
   0.4933133805989524E+00
   0.4841981491970325E+00
   0.4837170325093628E+00
   0.4863897387048436E+00
   0.4963079454130788E+00
   0.4896567686454366E+00
   0.4720672485831221E+00
   0.4463580842029821E+00
   0.4827649168614387E+00
   0.5089240083686505E+00
   0.4407506708435590E+00
   0.4944059177391778E+00
   0.5229414834555012E+00
   0.4962113330001326E+00
   0.5227252774404862E+00
   0.5032083733545317E+00
   0.5640222652840975E+00
   0.5252398845763879E+00
   0.4980203183931886E+00
   0.5719626553657534E+00
   0.5688065661918409E+00
   0.3730025261952164E+00
   0.4007150975591331E+00
   0.5587988178708366E+00
   0.5564435980655813E+00
   0.4946070205240684E+00
   0.4954020890718828E+00
   0.4937887069255476E+00
   0.4918952701051366E+00
   0.5164135096561095E+00
   0.5359192416625252E+00
   0.4957089565160329E+00
   0.4530920758703226E+00
   0.5123877365990852E+00
   0.5107432042056712E+00
   0.4790291055547731E+00
   0.4944626131867518E+00
   0.4614927603632293E+00
   0.5257659114887315E+00
   0.5298668676351014E+00
   0.5123506249114300E+00
   0.5330012240452729E+00
   0.5309373756674000E+00
   0.5300690751183024E+00
   0.5056169292122519E+00
   0.5285423542249814E+00
   0.5403389545963682E+00
   0.5368093473252711E+00
   0.5377911717319896E+00
   0.4974925003156839E+00
   0.4981163009275378E+00
   0.4967933545638745E+00
   0.4957441690880549E+00
   0.4878915029723687E+00
   0.4876185038807178E+00
   0.4855744436990720E+00
   0.4864380784979163E+00
   0.4916982561041687E+00
   0.4891553762401000E+00
   0.4852571564779385E+00
   0.4886306925478459E+00
   0.4891593044635443E+00
   0.4864820347647555E+00
   0.4864884604013667E+00
   0.4945747635862637E+00
   0.4872882736098209E+00
   0.4875772049557669E+00
   0.4930333113823531E+00
   0.4847489965558176E+00
   0.4867503335858722E+00
   0.4860741815405044E+00
   0.4863473321886380E+00
   0.4453025379815086E+00
   0.4698446887800262E+00
   0.4891585191051410E+00
   0.4880234325754692E+00
   0.4508541987558266E+00
   0.4675635716944607E+00
   0.4875638098505291E+00
   0.4867846704762051E+00
   0.4910070761183847E+00
   0.4794303210418964E+00
   0.4668009666988385E+00
   0.3794183371390735E+00
   0.4896737061875820E+00
   0.4493542212579383E+00
   0.4441330457622567E+00
   0.4845044464774133E+00
   0.4634869329082876E+00
   0.4670678934804022E+00
   0.4748190092081011E+00
   0.4893617551520234E+00
   0.5086596075767781E+00
   0.4339262712802683E+00
   0.4926474816651543E+00
   0.5329860893369255E+00
   0.4918407844769468E+00
   0.5207224502626584E+00
   0.5065004763263632E+00
   0.5670296824646190E+00
   0.5283167986158342E+00
   0.5014208325433156E+00
   0.5802774553787653E+00
   0.5677865474570698E+00
   0.3413713419723948E+00
   0.3799191814498495E+00
   0.5737491348033288E+00
   0.5664341421123728E+00
   0.5693347636274636E+00
   0.5290190587655419E+00
   0.5447941408446948E+00
   0.5714556247505017E+00
   0.5388201782025369E+00
   0.5474922102387738E+00
   0.5819849039711037E+00
   0.4927287445806297E+00
   0.5038081362341154E+00
   0.4963777806565534E+00
   0.5560551742310650E+00
   0.4759488683721324E+00
   0.4944703450743615E+00
   0.5492269732328663E+00
   0.5873511810886624E+00
   0.5827117377598846E+00
   0.5459119783969858E+00
   0.5779713468853103E+00
   0.5101703933203753E+00
   0.5024518106978457E+00
   0.5028207582769664E+00
   0.5662368374295247E+00
   0.5559265057630915E+00
   0.4944845325587484E+00
   0.5501273443251680E+00
   0.5508114156627025E+00
   0.5651747166438460E+00
   0.4913641464882800E+00
   0.4930968995626479E+00
   0.3887840307972387E+00
   0.3712671995733710E+00
   0.5569996398056616E+00
   0.5753868690967950E+00
   0.4190741675889092E+00
   0.5815029704257069E+00
   0.4282091015212549E+00
   0.5390672021912447E+00
   0.5018184740706212E+00
   0.5109974192105894E+00
   0.5042138095240180E+00
   0.5729366097861346E+00
   0.5854507376397391E+00
   0.5377005185646202E+00
   0.5657930586557745E+00
   0.5353592579425429E+00
   0.5338428452073689E+00
   0.5573228453673850E+00
   0.5505141601251331E+00
   0.4278589446862088E+00
   0.5263781252632309E+00
   0.5780468345717642E+00
   0.3349063546323660E+00
   0.4756038252439075E+00
   0.5450194239474363E+00
   0.4812880019436601E+00
   0.3028624665079462E+00
   0.5042224178937753E+00
   0.5010712476544288E+00
   0.5127451431078648E+00
   0.5402571479203800E+00
   0.3462531769671459E+00
   0.3437558826708364E+00
   0.3211894753891613E+00
   0.5065066593992339E+00
   0.5132480549585750E+00
   0.5328474636348621E+00
   0.5867050687886153E+00
   0.4641292925083537E+00
   0.3573061435930890E+00
SCALARS v double 1
LOOKUP_TABLE default
   0.0000000000000000E+00
   0.0000000000000000E+00
   0.0000000000000000E+00
   0.0000000000000000E+00
   0.0000000000000000E+00
   0.0000000000000000E+00
   0.0000000000000000E+00
   0.0000000000000000E+00
   0.0000000000000000E+00
   0.0000000000000000E+00
   0.0000000000000000E+00
   0.0000000000000000E+00
   0.0000000000000000E+00
   0.0000000000000000E+00
   0.0000000000000000E+00
   0.0000000000000000E+00
   0.0000000000000000E+00
   0.0000000000000000E+00
   0.0000000000000000E+00
   0.0000000000000000E+00
   0.0000000000000000E+00
   0.0000000000000000E+00
   0.0000000000000000E+00
   0.0000000000000000E+00
   0.0000000000000000E+00
   0.0000000000000000E+00
   0.0000000000000000E+00
   0.0000000000000000E+00
   0.0000000000000000E+00
   0.0000000000000000E+00
   0.0000000000000000E+00
   0.0000000000000000E+00
   0.0000000000000000E+00
   0.0000000000000000E+00
   0.0000000000000000E+00
   0.0000000000000000E+00
   0.0000000000000000E+00
   0.0000000000000000E+00
   0.0000000000000000E+00
   0.0000000000000000E+00
   0.0000000000000000E+00
   0.0000000000000000E+00
   0.0000000000000000E+00
   0.0000000000000000E+00
   0.0000000000000000E+00
   0.0000000000000000E+00
   0.0000000000000000E+00
   0.0000000000000000E+00
   0.0000000000000000E+00
   0.0000000000000000E+00
   0.0000000000000000E+00
   0.0000000000000000E+00
   0.0000000000000000E+00
   0.0000000000000000E+00
   0.0000000000000000E+00
   0.0000000000000000E+00
   0.0000000000000000E+00
   0.0000000000000000E+00
   0.0000000000000000E+00
   0.0000000000000000E+00
   0.0000000000000000E+00
   0.1110944825445375E-02
   0.8894064271956081E-04
  -0.2256230938181989E-03
   0.0000000000000000E+00
   0.0000000000000000E+00
   0.0000000000000000E+00
   0.0000000000000000E+00
  -0.1826596329565382E-01
   0.5203830598219403E-03
   0.1878491921929762E-02
   0.1416255090532733E-01
  -0.6501997755351098E-02
  -0.6389586258439189E-02
  -0.1279767713635219E-01
   0.4370092591767737E-02
   0.8687744539508731E-03
   0.2912660680104390E-02
   0.1721176779389562E-02
   0.2390060088907108E-02
   0.1806295119093831E-02
  -0.7239135668694067E-02
  -0.7923523859379157E-03
   0.3835177467968156E-02
  -0.1118304249914573E-02
  -0.4335735716425978E-03
  -0.4122207913921606E-03
   0.8238327821917170E-03
   0.0000000000000000E+00
   0.0000000000000000E+00
   0.0000000000000000E+00
   0.0000000000000000E+00
   0.7713153306661003E-03
   0.1446855563018836E-02
  -0.1432454300665141E-02
  -0.1830682002841235E-03
  -0.6368228936941518E-03
   0.1554438631659862E-06
   0.1570369061667327E-03
  -0.1281326063374164E-03
  -0.1980906488587498E-03
  -0.5812876223315995E-03
   0.8187273824513931E-03
  -0.2009822786164283E-02
   0.6577135548971062E-03
   0.2670102358876263E-03
  -0.4122143318165157E-03
  -0.4041753051830045E-03
   0.0000000000000000E+00
   0.0000000000000000E+00
   0.0000000000000000E+00
  -0.8245146521446747E-03
  -0.7840960604496686E-02
   0.1754776405881745E-01
  -0.2303298110550013E-03
  -0.1392075968828710E-02
  -0.2132240674044289E-02
  -0.5225451641179906E-02
  -0.1867543442485137E-02
  -0.6503281795046699E-02
  -0.4080685716379940E-02
   0.1637819114814427E-02
   0.3279795372032185E-01
   0.3403927373269236E-04
  -0.2137299672003336E-02
   0.4117273152878804E-02
   0.3975298884650731E-03
   0.0000000000000000E+00
   0.0000000000000000E+00
   0.0000000000000000E+00
   0.0000000000000000E+00
   0.0000000000000000E+00
   0.0000000000000000E+00
   0.0000000000000000E+00
   0.0000000000000000E+00
   0.0000000000000000E+00
   0.0000000000000000E+00
   0.0000000000000000E+00
   0.0000000000000000E+00
   0.0000000000000000E+00
   0.0000000000000000E+00
   0.0000000000000000E+00
   0.0000000000000000E+00
   0.0000000000000000E+00
   0.4616975270947683E-02
   0.3357845479775810E-02
   0.8115582488856346E-02
   0.5759262605871681E-02
   0.1133093155162014E-01
   0.1381895421840281E-01
  -0.1135117592212323E-02
   0.5476402118914677E-02
   0.3081290812559653E-02
   0.3702009446338612E-02
   0.3533065043821527E-02
  -0.1539744657901388E-01
  -0.6072391923299198E-03
   0.6600773117534522E-02
   0.1225967866886426E-02
   0.2048810970367436E-02
   0.4111602326222384E-02
  -0.2954721376663842E-02
   0.1551222834953481E-02
   0.3142034608335817E-02
   0.1844151300081465E-02
   0.1980344487783651E-02
   0.1905421369234060E-02
   0.2340303370272795E-02
   0.8854545451170171E-02
  -0.3596672698052012E-02
   0.6173453846266070E-02
  -0.2538596081734997E-04
  -0.5217189048767137E-03
  -0.1694694271228281E-01
  -0.5238548378180879E-02
  -0.5401912055946450E-02
   0.3390623007048489E-02
  -0.6456337995525470E-02
  -0.2496866772535727E-03
  -0.3423380053386552E-01
  -0.2794928432361580E-02
   0.4829281645055611E-02
   0.1165738665626837E-02
   0.2409666458190271E-02
   0.3800483140003315E-02
   0.2521483361917574E-02
   0.2787006739713761E-02
   0.4652276110438172E-02
   0.1860294843666375E-02
   0.5598145314630549E-03
   0.1109449677896706E-03
  -0.5015274375637444E-02
  -0.6123223573416616E-02
  -0.7179795053654930E-03
   0.7534682460317298E-03
  -0.1629172485071782E-02
  -0.3315608022921704E-02
  -0.2686692984601576E-02
  -0.4637902059068735E-02
  -0.7870486822253615E-02
  -0.1984609529627353E-02
   0.7342676708269586E-03
  -0.4820009710888204E-04
   0.8017466643863898E-03
  -0.3054426382974129E-02
   0.5726048173688963E-02
  -0.8604835617623508E-02
   0.1214044423909813E-03
  -0.2437893665199639E-03
   0.2381684865567273E-02
   0.1773419348752183E-02
   0.2220241724410196E-02
  -0.5479036245539800E-02
SCALARS w double 1
LOOKUP_TABLE default
   0.0000000000000000E+00
   0.0000000000000000E+00
   0.0000000000000000E+00
   0.0000000000000000E+00
   0.0000000000000000E+00
   0.0000000000000000E+00
   0.0000000000000000E+00
   0.0000000000000000E+00
   0.0000000000000000E+00
   0.0000000000000000E+00
   0.0000000000000000E+00
   0.0000000000000000E+00
   0.0000000000000000E+00
   0.0000000000000000E+00
   0.0000000000000000E+00
   0.0000000000000000E+00
   0.0000000000000000E+00
   0.0000000000000000E+00
   0.0000000000000000E+00
   0.0000000000000000E+00
   0.0000000000000000E+00
   0.0000000000000000E+00
   0.0000000000000000E+00
   0.0000000000000000E+00
   0.0000000000000000E+00
   0.0000000000000000E+00
   0.0000000000000000E+00
   0.0000000000000000E+00
   0.0000000000000000E+00
   0.0000000000000000E+00
   0.0000000000000000E+00
   0.0000000000000000E+00
   0.0000000000000000E+00
  -0.9793387878832598E-01
  -0.4158652099015538E-01
  -0.2643202147988736E-03
   0.4776968887941611E-02
   0.2336530917774928E-02
   0.2066946206125781E-02
   0.3698109333912404E-02
   0.4497601729776474E-02
   0.8752498335955393E-03
   0.3710510043713886E-02
   0.4555783619109663E-01
   0.6454513566454324E-01
   0.1417952745917371E-02
  -0.2246873512473359E-01
   0.4383443025604218E-02
   0.1306963520572727E-01
   0.1014724326744251E-01
   0.4836323694619645E-01
   0.2042153276230415E-02
  -0.5983567642411129E-02
  -0.3671688470454590E-03
   0.6866346355548532E-03
   0.3705292266684288E-02
  -0.3772537531247122E-01
   0.1772882134552843E-01
   0.1080267788824367E-01
   0.3306513059464371E-01
   0.8295032037066895E-02
   0.4265551514987023E-02
   0.4617427849582257E-02
   0.4884783255971159E-02
   0.5663977742766939E-02
   0.1691087791403188E-02
  -0.4052102399652395E-01
  -0.9691550237688795E-01
  -0.1096890445263092E+00
   0.4373725699517463E-02
   0.2875303040431113E-02
  -0.9736388269504966E-01
  -0.9617761290996717E-01
  -0.9618032386141978E-01
  -0.9224873765661952E-01
  -0.6624934302720784E-01
   0.3937943125722042E-02
  -0.1958109063670057E-01
  -0.1613555008812204E-01
  -0.7363644244808534E-02
   0.5393789482785134E-02
  -0.7799400382512885E-01
  -0.2811874313566782E-01
  -0.7850874698793249E-01
  -0.5795367602131331E-01
   0.4480258564912296E-02
   0.3182641525252830E-02
   0.3181670331629533E-02
   0.4452986820277856E-02
   0.3707631563977332E-02
   0.9145224106291152E-03
   0.1024229858494848E-02
   0.3497665166650891E-02
   0.5421220843353960E-02
   0.4199489076340361E-02
   0.3488250693306493E-02
   0.1479916653986772E-02
   0.3869357733432394E-02
   0.1323526911769072E-02
   0.4042515789483047E-03
   0.5468667934678899E-02
   0.2804196121419060E-02
   0.2554744773340921E-02
   0.5857587253549623E-02
   0.1779115885296336E-02
   0.2308782706538027E-02
   0.2015540114163038E-02
   0.8912500809584971E-03
   0.8439718181507549E-01
   0.2689248676908326E-02
  -0.8532159896489238E-03
   0.2965013398818090E-03
   0.1406940848845379E+00
   0.1228215755866713E+00
  -0.1103850464465710E-02
  -0.4226933982290036E-02
   0.1938024057282064E-03
  -0.6072658447264937E-02
  -0.1406601216177362E-02
   0.1562297195601558E+00
   0.7533013631101114E-01
   0.2578699984220987E-01
   0.1655557640388863E+00