# vtk DataFile Version 2.0
FUN3D:global_image_vtk
ASCII
DATASET UNSTRUCTURED_GRID
POINTS 213 double
    0.0000000000000000E+00    0.2500000000000000E+01    0.0000000000000000E+00
    0.1250000000000000E+01    0.2500000000000000E+01    0.0000000000000000E+00
    0.2500000000000000E+01    0.2500000000000000E+01    0.0000000000000000E+00
    0.3750000000000000E+01    0.2500000000000000E+01    0.0000000000000000E+00
    0.5000000000000000E+01    0.2500000000000000E+01    0.0000000000000000E+00
    0.5000000000000000E+01    0.1250000000000000E+01    0.0000000000000000E+00
    0.5000000000000000E+01    0.0000000000000000E+00    0.0000000000000000E+00
    0.5000000000000000E+01   -0.1250000000000000E+01    0.0000000000000000E+00
    0.5000000000000000E+01   -0.2500000000000000E+01    0.0000000000000000E+00
    0.3750000000000000E+01   -0.2500000000000000E+01    0.0000000000000000E+00
    0.2500000000000000E+01   -0.2500000000000000E+01    0.0000000000000000E+00
    0.1250000000000000E+01   -0.2500000000000000E+01    0.0000000000000000E+00
    0.0000000000000000E+00   -0.2500000000000000E+01    0.0000000000000000E+00
    0.0000000000000000E+00   -0.1250000000000000E+01    0.0000000000000000E+00
    0.0000000000000000E+00    0.0000000000000000E+00    0.0000000000000000E+00
    0.0000000000000000E+00    0.1250000000000000E+01    0.0000000000000000E+00
    0.9058375365086910E+00    0.1578994732800803E+01    0.0000000000000000E+00
    0.3982050490726493E+01   -0.1583989954232354E+01    0.0000000000000000E+00
    0.4033849428301197E+01    0.1453322699199022E+01    0.0000000000000000E+00
    0.1040505887381675E+01   -0.1479596339503735E+01    0.0000000000000000E+00
    0.1099454400140349E+01   -0.3227322616384110E+00    0.0000000000000000E+00
    0.7354504170366591E+00    0.6593508822075582E+00    0.0000000000000000E+00
    0.1622302608453282E+01    0.8256214013940779E+00    0.0000000000000000E+00
    0.2145871574390382E+01   -0.1650070333782557E+01    0.0000000000000000E+00
    0.4086422318222992E+01   -0.4612828702537229E+00    0.0000000000000000E+00
    0.2979540174134984E+01   -0.8579242121530853E+00    0.0000000000000000E+00
    0.3045064261640043E+01   -0.1836846154397680E+01    0.0000000000000000E+00
    0.3428197553792836E+01    0.3508002863614053E+00    0.0000000000000000E+00
    0.4309693860063405E+01    0.5185680230613409E+00    0.0000000000000000E+00
    0.1827272193562204E+01    0.1738996113203182E+01    0.0000000000000000E+00
    0.2808563282768077E+01    0.1325493893339706E+01    0.0000000000000000E+00
    0.1895995683864404E+01   -0.8731419609589618E+00    0.0000000000000000E+00
    0.2273179336307740E+01    0.4906150219227333E-01    0.0000000000000000E+00
    0.5000000000000000E+01    0.2500000000000000E+01    0.1250000000000000E+01
    0.5000000000000000E+01    0.2500000000000000E+01    0.2500000000000000E+01
    0.5000000000000000E+01    0.2500000000000000E+01    0.3750000000000000E+01
    0.5000000000000000E+01    0.2500000000000000E+01    0.5000000000000000E+01
    0.3750000000000000E+01    0.2500000000000000E+01    0.5000000000000000E+01
    0.2500000000000000E+01    0.2500000000000000E+01    0.5000000000000000E+01
    0.1250000000000000E+01    0.2500000000000000E+01    0.5000000000000000E+01
    0.0000000000000000E+00    0.2500000000000000E+01    0.5000000000000000E+01
    0.0000000000000000E+00    0.2500000000000000E+01    0.3750000000000000E+01
    0.0000000000000000E+00    0.2500000000000000E+01    0.2500000000000000E+01
    0.0000000000000000E+00    0.2500000000000000E+01    0.1250000000000000E+01
    0.9631080833812172E+00    0.2500000000000000E+01    0.9613285771248219E+00
    0.3981732467264904E+01    0.2500000000000000E+01    0.4069753913607991E+01
    0.4035525118777670E+01    0.2500000000000000E+01    0.1012015867579395E+01
    0.9641717640894248E+00    0.2500000000000000E+01    0.3972455192261839E+01
    0.1547743040396780E+01    0.2500000000000000E+01    0.2928177746738678E+01
    0.6985170616192014E+00    0.2500000000000000E+01    0.3068281976055466E+01
    0.8931277594515110E+00    0.2500000000000000E+01    0.2052465503257726E+01
    0.2183293750162785E+01    0.2500000000000000E+01    0.3959073795658649E+01
    0.3855333506014705E+01    0.2500000000000000E+01    0.2931218481500625E+01
    0.3152495579421047E+01    0.2500000000000000E+01    0.3635850502723324E+01
    0.3103247580566054E+01    0.2500000000000000E+01    0.4331682712472464E+01
    0.3266837581688852E+01    0.2500000000000000E+01    0.1886092433583972E+01
    0.4231539241296245E+01    0.2500000000000000E+01    0.1915865356532799E+01
    0.1909741006522088E+01    0.2500000000000000E+01    0.7170024419130505E+00
    0.2880784107213163E+01    0.2500000000000000E+01    0.9046598906449592E+00
    0.2014316024535771E+01    0.2500000000000000E+01    0.1762464314805728E+01
    0.2670003247036656E+01    0.2500000000000000E+01    0.2850479545835163E+01
    0.5000000000000000E+01    0.1250000000000000E+01    0.5000000000000000E+01
    0.5000000000000000E+01    0.0000000000000000E+00    0.5000000000000000E+01
    0.5000000000000000E+01   -0.1250000000000000E+01    0.5000000000000000E+01
    0.5000000000000000E+01   -0.2500000000000000E+01    0.5000000000000000E+01
    0.5000000000000000E+01   -0.2500000000000000E+01    0.3750000000000000E+01
    0.5000000000000000E+01   -0.2500000000000000E+01    0.2500000000000000E+01
    0.5000000000000000E+01   -0.2500000000000000E+01    0.1250000000000000E+01
    0.5000000000000000E+01    0.1578994732800803E+01    0.9058375365086910E+00
    0.5000000000000000E+01   -0.1583989954232354E+01    0.3982050490726493E+01
    0.5000000000000000E+01    0.1453322699199022E+01    0.4033849428301197E+01
    0.5000000000000000E+01   -0.1479596339503735E+01    0.1040505887381675E+01
    0.5000000000000000E+01   -0.3227322616384110E+00    0.1099454400140349E+01
    0.5000000000000000E+01    0.6593508822075582E+00    0.7354504170366591E+00
    0.5000000000000000E+01    0.8256214013940779E+00    0.1622302608453282E+01
    0.5000000000000000E+01   -0.1650070333782557E+01    0.2145871574390382E+01
    0.5000000000000000E+01   -0.4612828702537229E+00    0.4086422318222992E+01
    0.5000000000000000E+01   -0.8579242121530853E+00    0.2979540174134984E+01
    0.5000000000000000E+01   -0.1836846154397680E+01    0.3045064261640043E+01
    0.5000000000000000E+01    0.3508002863614053E+00    0.3428197553792836E+01
    0.5000000000000000E+01    0.5185680230613409E+00    0.4309693860063405E+01
    0.5000000000000000E+01    0.1738996113203182E+01    0.1827272193562204E+01
    0.5000000000000000E+01    0.1325493893339706E+01    0.2808563282768077E+01
    0.5000000000000000E+01   -0.8731419609589618E+00    0.1895995683864404E+01
    0.5000000000000000E+01    0.4906150219227333E-01    0.2273179336307740E+01
    0.0000000000000000E+00    0.1250000000000000E+01    0.5000000000000000E+01
    0.0000000000000000E+00    0.0000000000000000E+00    0.5000000000000000E+01
    0.0000000000000000E+00   -0.1250000000000000E+01    0.5000000000000000E+01
    0.0000000000000000E+00   -0.2500000000000000E+01    0.5000000000000000E+01
    0.1250000000000000E+01   -0.2500000000000000E+01    0.5000000000000000E+01
    0.2500000000000000E+01   -0.2500000000000000E+01    0.5000000000000000E+01
    0.3750000000000000E+01   -0.2500000000000000E+01    0.5000000000000000E+01
    0.4042003247744892E+01    0.1558308132739014E+01    0.5000000000000000E+01
    0.9304122287900499E+00   -0.1548001304379777E+01    0.5000000000000000E+01
    0.1037243024609388E+01    0.1462892710085612E+01    0.5000000000000000E+01
    0.3946240828834967E+01   -0.1445243809615570E+01    0.5000000000000000E+01
    0.4092527262848217E+01   -0.3455338993778935E+00    0.5000000000000000E+01
    0.4293103109154542E+01    0.6277660831404320E+00    0.5000000000000000E+01
    0.3241512314643519E+01    0.7429886854239611E+00    0.5000000000000000E+01
    0.2844289952419609E+01   -0.1588117879734118E+01    0.5000000000000000E+01
    0.7159905765450471E+00   -0.6002320124191652E+00    0.5000000000000000E+01
    0.1754341919796891E+01   -0.7398147869923652E+00    0.5000000000000000E+01
    0.1870296826774691E+01   -0.1788622905643739E+01    0.5000000000000000E+01
    0.9220614901912976E+00    0.3083720183248586E+00    0.5000000000000000E+01
    0.3101523624086016E+01    0.1777901774806180E+01    0.5000000000000000E+01
    0.2192512063922564E+01    0.1576861561598471E+01    0.5000000000000000E+01
    0.2024793420196460E+01    0.4773861992750707E+00    0.5000000000000000E+01
    0.2990627757741975E+01   -0.4878110785814084E+00    0.5000000000000000E+01
    0.0000000000000000E+00   -0.2500000000000000E+01    0.1250000000000000E+01
    0.0000000000000000E+00   -0.2500000000000000E+01    0.2500000000000000E+01
    0.0000000000000000E+00   -0.2500000000000000E+01    0.3750000000000000E+01
    0.0000000000000000E+00    0.1558308132739014E+01    0.4042003247744892E+01
    0.0000000000000000E+00   -0.1548001304379777E+01    0.9304122287900499E+00
    0.0000000000000000E+00    0.1462892710085612E+01    0.1037243024609388E+01
    0.0000000000000000E+00   -0.1445243809615570E+01    0.3946240828834967E+01
    0.0000000000000000E+00   -0.3455338993778935E+00    0.4092527262848217E+01
    0.0000000000000000E+00    0.6277660831404320E+00    0.4293103109154542E+01
    0.0000000000000000E+00    0.7429886854239611E+00    0.3241512314643519E+01
    0.0000000000000000E+00   -0.1588117879734118E+01    0.2844289952419609E+01
    0.0000000000000000E+00   -0.6002320124191652E+00    0.7159905765450471E+00
    0.0000000000000000E+00   -0.7398147869923652E+00    0.1754341919796891E+01
    0.0000000000000000E+00   -0.1788622905643739E+01    0.1870296826774691E+01
    0.0000000000000000E+00    0.3083720183248586E+00    0.9220614901912976E+00
    0.0000000000000000E+00    0.1777901774806180E+01    0.3101523624086016E+01
    0.0000000000000000E+00    0.1576861561598471E+01    0.2192512063922564E+01
[...]
POINT_DATA 213
SCALARS rho double 1
LOOKUP_TABLE default
   0.1344271442659201E+01
   0.9569758897969916E+00
   0.9462964201457431E+00
   0.9418612692869622E+00
   0.8437304876233185E+00
   0.7738004300641257E+00
   0.7629818870664501E+00
   0.7664577895689172E+00
   0.8307874037133413E+00
   0.9352972533200190E+00
   0.9342219803848056E+00
   0.9617195265867989E+00
   0.1449457450057727E+01
   0.1494090640288186E+01
   0.1644667272559716E+01
   0.1425832041557203E+01
   0.1009014432637861E+01
   0.9508810832343135E+00
   0.9436508471646177E+00
   0.9581561012785170E+00
   0.9415852439491037E+00
   0.1036377237053618E+01
   0.9256161095090649E+00
   0.9322349845377634E+00
   0.9537479549525548E+00
   0.9518769551982500E+00
   0.9348583116558411E+00
   0.9564028401741751E+00
   0.9376098379113570E+00
   0.9300661506285026E+00
   0.9445157492728152E+00
   0.8863506515877243E+00
   0.9423579956813046E+00
   0.9635003073413417E+00
   0.1008299039446033E+01
   0.1006735291863276E+01
   0.1001964617547998E+01
   0.1003219581422512E+01
   0.1004132053847354E+01
   0.1005228602843923E+01
   0.1004260408175434E+01
   0.1008308189860199E+01
   0.1023893137665650E+01
   0.1063553955917050E+01
   0.1019182512447440E+01
   0.1001780766370909E+01
   0.9643309929764992E+00
   0.1005283708865984E+01
   0.1000721163206180E+01
   0.1008742083645595E+01
   0.1008078083563999E+01
   0.1002349806999481E+01
   0.9979986847785416E+00
   0.1000583560889443E+01
   0.1001620123550254E+01
   0.9826893070891600E+00
   0.9842439639565590E+00
   0.9833314025166887E+00
   0.9788207407819883E+00
   0.9902638158580407E+00
   0.9934561552595882E+00
   0.1002011751607175E+01
   0.1002134465619016E+01
   0.1002276326480254E+01
   0.1001794758298499E+01
   0.1009778638898224E+01
   0.1006429109084475E+01
   0.9558786955994469E+00
   0.9249398401599757E+00
   0.1007036755530956E+01
   0.1004504925176714E+01
   0.9143642068403504E+00
   0.9089667852647061E+00
   0.8751688889778784E+00
   0.9767271882306374E+00
   0.1000452621166589E+01
   0.1005831087485054E+01
   0.1012882803368061E+01
   0.1011618951362520E+01
   0.1010438648702018E+01
   0.1005468280913540E+01
   0.9907612676844914E+00
   0.1005140325702924E+01
   0.9860567246068650E+00
   0.1005609737690015E+01
   0.1004248005636805E+01
   0.1002888437632327E+01
   0.1003345420398617E+01
   0.1003992731817302E+01
   0.1005101716101025E+01
   0.1003211645074762E+01
   0.1002663159904010E+01
   0.1002586231337413E+01
   0.1004060870881191E+01
   0.1004320345964917E+01
   0.1001641920297694E+01
   0.1002273115908409E+01
   0.1002543475517220E+01
   0.1003469520716251E+01
   0.1003372640194966E+01
   0.1003232229985087E+01
   0.1004423863378455E+01
   0.1004313070769296E+01
   0.1003659849345638E+01
   0.1003723103847584E+01
   0.1004329726340714E+01
   0.1004465021774464E+01
   0.1003623375247005E+01
   0.1064422800845440E+01
   0.1028473621272970E+01
   0.1009586657236050E+01
   0.1006638837378416E+01
   0.1163935522343425E+01
   0.1086087969875985E+01
   0.1007893419184029E+01
   0.1007245533222404E+01
   0.1006798074062716E+01
   0.1013018286717856E+01
   0.1019384609348237E+01
   0.1235203669318837E+01
   0.1032529466812181E+01
   0.1046681191373031E+01
   0.1200953642135629E+01
   0.1014718915871346E+01
   0.1032291152912574E+01
   0.1028095236342375E+01
   0.1014628639626190E+01
   0.1029216892950463E+01
   0.1001994816311889E+01
   0.9606929187507548E+00
   0.1006852582712862E+01
   0.1001327193221290E+01
   0.1010821905254523E+01
   0.1012246098746886E+01
   0.1000946006828891E+01
   0.9979121233999735E+00
   0.9980632372004060E+00
   0.1001184143293605E+01
   0.9841362010753936E+00
   0.9814879613946319E+00
   0.9648483313677061E+00
   0.9680877121098553E+00
   0.9914124471113762E+00
   0.9910858387990910E+00
   0.9925545095952760E+00
   0.1001727533808956E+01
   0.9993409402230500E+00
   0.9941410835545166E+00
   0.1007038753675769E+01
   0.1022539494092436E+01
   0.1001088098309536E+01
   0.1008798496129909E+01
   0.1004773845973631E+01
   0.1009050237302875E+01
   0.9966470331531344E+00
   0.1004988556683935E+01
   0.1003325535082896E+01
   0.9949431085089888E+00
   0.9832680780710692E+00
   0.9943957454318385E+00
   0.9973420656123934E+00
   0.9932190085224459E+00
   0.1001306487047086E+01
   0.1003001636852096E+01
   0.1002183579552055E+01
   0.9947078545423618E+00
   0.9937965521271268E+00
   0.1004867865401313E+01
   0.1020077607421674E+01
   0.1005364552336813E+01
   0.9816998151528175E+00
   0.1004973031143961E+01
   0.1012382323290263E+01
   0.9871424286354316E+00
   0.9551513525964611E+00
   0.9865075698670878E+00
   0.9864532948286178E+00
   0.9918946934065285E+00
   0.9933508195959555E+00
   0.9954406176794329E+00
   0.1037336789643868E+01
   0.1033536797434005E+01
   0.1001443320753667E+01
   0.1001930499678267E+01
   0.9912478516151645E+00
   0.9910920509119749E+00
   0.9648489987289014E+00
   0.9933282604764341E+00
   0.1006058638649806E+01
   0.1001954027112405E+01
   0.9908735803982608E+00
   0.9740945209230254E+00
   0.9418802131739684E+00
   0.9819379685980026E+00
   0.9794803559824646E+00
   0.9704172054610308E+00
   0.9720478941598175E+00
   0.9557351699397719E+00
   0.9496731207155332E+00
   0.9528673562962214E+00
   0.1002659533917348E+01
   0.1002471631832194E+01
   0.1000509329219182E+01
   0.1001677321744387E+01
   0.9607931427188970E+00
   0.9491625495927875E+00
   0.9584503057820734E+00
   0.1001121207658172E+01
   0.1000496140486838E+01
   0.1001156644150403E+01
   0.9807376182905823E+00
   0.9806000804025470E+00
   0.9628476100881039E+00
SCALARS u double 1
LOOKUP_TABLE default
   0.0000000000000000E+00
   0.0000000000000000E+00
   0.0000000000000000E+00
   0.0000000000000000E+00
   0.0000000000000000E+00
   0.0000000000000000E+00
   0.0000000000000000E+00
   0.0000000000000000E+00
   0.0000000000000000E+00
   0.0000000000000000E+00
   0.0000000000000000E+00
   0.0000000000000000E+00
   0.0000000000000000E+00
   0.0000000000000000E+00
   0.0000000000000000E+00
   0.0000000000000000E+00
   0.0000000000000000E+00
   0.0000000000000000E+00
   0.0000000000000000E+00
   0.0000000000000000E+00
   0.0000000000000000E+00
   0.0000000000000000E+00
   0.0000000000000000E+00
   0.0000000000000000E+00
   0.0000000000000000E+00
   0.0000000000000000E+00
   0.0000000000000000E+00
   0.0000000000000000E+00
   0.0000000000000000E+00
   0.0000000000000000E+00
   0.0000000000000000E+00
   0.0000000000000000E+00
   0.0000000000000000E+00
   0.4950176840831592E+00
   0.5338221299276956E+00
   0.5183269246035149E+00
   0.4930649880165496E+00
   0.4847578720822118E+00
   0.4867666425597750E+00
   0.4890763585031040E+00
   0.4957848881399300E+00
   0.4898301885328195E+00
   0.4717388496650086E+00
   0.4454814156320879E+00
   0.4833907045007865E+00
   0.5098397462768447E+00
   0.4390712704727954E+00
   0.4949403966097559E+00
   0.5225330363198089E+00
   0.4962454547189515E+00
   0.5226154964657425E+00
   0.5038881744225678E+00
   0.5646883608306081E+00
   0.5247509157143185E+00
   0.4991466120653536E+00
   0.5730561901084553E+00
   0.5696051097432396E+00
   0.3737941447393071E+00
   0.3998658125046557E+00
   0.5599326586012536E+00
   0.5564587630433412E+00
   0.4942627332880060E+00
   0.4948659466061449E+00
   0.4925735874171469E+00
   0.4914269544260601E+00
   0.5162356850314245E+00
   0.5361798304311278E+00
   0.4947413360220128E+00
   0.4524112211449557E+00
   0.5128777325124519E+00
   0.5117942039796693E+00
   0.4783517511530287E+00
   0.4931696663336574E+00
   0.4603173604225784E+00
   0.5244892722722890E+00
   0.5297434247122983E+00
   0.5129579300090195E+00
   0.5328358317867846E+00
   0.5308941035916901E+00
   0.5309856168662848E+00
   0.5063656734776159E+00
   0.5282461956257170E+00
   0.5410312728995748E+00
   0.5361261481338468E+00
   0.5374105275283466E+00
   0.4965364819566555E+00
   0.4975340904757877E+00
   0.4963842645224654E+00
   0.4955220268303263E+00
   0.4904581832294381E+00
   0.4903044386567633E+00
   0.4862182765382886E+00
   0.4854049562307596E+00
   0.4932164389069149E+00
   0.4909833313617945E+00
   0.4832194697591873E+00
   0.4872622778107990E+00
   0.4880124910403269E+00
   0.4872445932976571E+00
   0.4882696670794631E+00
   0.4952597557516881E+00
   0.4900967169237717E+00
   0.4904000092016286E+00
   0.4944232926650852E+00
   0.4868002482359239E+00
   0.4892385985443529E+00
   0.4881393371251318E+00
   0.4878457830280777E+00
   0.4446866581497729E+00
   0.4700028781549845E+00
   0.4891999057522312E+00
   0.4885247844883949E+00
   0.4506533043708258E+00
   0.4687378567140646E+00
   0.4877010457836073E+00
   0.4868353684427174E+00
   0.4908994717003435E+00
   0.4793551578902952E+00
   0.4658071748678932E+00
   0.3792725229622356E+00
   0.4901596529958768E+00
   0.4486686692245841E+00
   0.4436137391498025E+00
   0.4845147242982226E+00
   0.4621822648324983E+00
   0.4665749537398280E+00
   0.4748140301308825E+00
   0.4894494216279632E+00
   0.5085556973753071E+00
   0.4315073872982393E+00
   0.4927349362152501E+00
   0.5318289234887668E+00
   0.4913399197233719E+00
   0.5207019994311093E+00
   0.5060964600438531E+00
   0.5688797395533957E+00
   0.5273992818461244E+00
   0.5015044842310666E+00
   0.5821790087392632E+00
   0.5689618252823786E+00
   0.3406394443352132E+00
   0.3789869412256840E+00
   0.5751958207585121E+00
   0.5666485493921708E+00
   0.5704108783294265E+00
   0.5291056376926752E+00
   0.5451902711621476E+00
   0.5718804315470327E+00
   0.5389079127164685E+00
   0.5475507505550264E+00
   0.5821713868114163E+00
   0.4925601785565452E+00
   0.5042157547226317E+00
   0.4961735437388589E+00
   0.5565207962163539E+00
   0.4758845206134646E+00
   0.4950268384655036E+00
   0.5498525443522152E+00
   0.5891202296626791E+00
   0.5841957608791002E+00
   0.5469097664685558E+00
   0.5805417617558508E+00
   0.5106251439332191E+00
   0.5030200514142366E+00
   0.5033624680714595E+00
   0.5676446096045240E+00
   0.5563943083245027E+00
   0.4947255974470287E+00
   0.5505243829110539E+00
   0.5510857281980023E+00
   0.5657350950188212E+00
   0.4920070018793402E+00
   0.4927299097672457E+00
   0.3865140568987078E+00
   0.3687754533097325E+00
   0.5574921717520414E+00
   0.5763755544837958E+00
   0.4194304389416001E+00
   0.5824843240144102E+00
   0.4265209608279749E+00
   0.5392799844202093E+00
   0.5012032759967779E+00
   0.5119513208613450E+00
   0.5049119464556154E+00
   0.5751974973710186E+00
   0.5876371360898180E+00
   0.5379907806711969E+00
   0.5677472540113818E+00
   0.5351248666321692E+00
   0.5338056379420428E+00
   0.5580313798906140E+00
   0.5512707862182040E+00
   0.4261852757314381E+00
   0.5273356177384539E+00
   0.5795712529987302E+00
   0.3318687133080109E+00
   0.4760283324345855E+00
   0.5446196255218594E+00
   0.4798331901145892E+00
   0.3005293508063893E+00
   0.5031051139118505E+00
   0.5017115978771663E+00
   0.5129033211488202E+00
   0.5414840107933472E+00
   0.3437603854962947E+00
   0.3397710720096129E+00
   0.3189928569611477E+00
   0.5065936052893243E+00
   0.5123483780437526E+00
   0.5330313519121203E+00
   0.5879310001034701E+00
   0.4644180533751056E+00
   0.3531270509413696E+00
SCALARS v double 1
LOOKUP_TABLE default
   0.0000000000000000E+00
   0.0000000000000000E+00
   0.0000000000000000E+00
   0.0000000000000000E+00
   0.0000000000000000E+00
   0.0000000000000000E+00
   0.0000000000000000E+00
   0.0000000000000000E+00
   0.0000000000000000E+00
   0.0000000000000000E+00
   0.0000000000000000E+00
   0.0000000000000000E+00
   0.0000000000000000E+00
   0.0000000000000000E+00
   0.0000000000000000E+00
   0.0000000000000000E+00
   0.0000000000000000E+00
   0.0000000000000000E+00
   0.0000000000000000E+00
   0.0000000000000000E+00
   0.0000000000000000E+00
   0.0000000000000000E+00
   0.0000000000000000E+00
   0.0000000000000000E+00
   0.0000000000000000E+00
   0.0000000000000000E+00
   0.0000000000000000E+00
   0.0000000000000000E+00
   0.0000000000000000E+00
   0.0000000000000000E+00
   0.0000000000000000E+00
   0.0000000000000000E+00
   0.0000000000000000E+00
   0.0000000000000000E+00
   0.0000000000000000E+00
   0.0000000000000000E+00
   0.0000000000000000E+00
   0.0000000000000000E+00
   0.0000000000000000E+00
   0.0000000000000000E+00
   0.0000000000000000E+00
   0.0000000000000000E+00
   0.0000000000000000E+00
   0.0000000000000000E+00
   0.0000000000000000E+00
   0.0000000000000000E+00
   0.0000000000000000E+00
   0.0000000000000000E+00
   0.0000000000000000E+00
   0.0000000000000000E+00
   0.0000000000000000E+00
   0.0000000000000000E+00
   0.0000000000000000E+00
   0.0000000000000000E+00
   0.0000000000000000E+00
   0.0000000000000000E+00
   0.0000000000000000E+00
   0.0000000000000000E+00
   0.0000000000000000E+00
   0.0000000000000000E+00
   0.0000000000000000E+00
   0.7970254652695504E-03
  -0.1329294671199496E-02
  -0.1332592740447295E-02
   0.0000000000000000E+00
   0.0000000000000000E+00
   0.0000000000000000E+00
   0.0000000000000000E+00
  -0.1922562565559152E-01
   0.4770618401406413E-03
   0.2183360201424097E-02
   0.1427333032150333E-01
  -0.6488281969195880E-02
  -0.7821623129405673E-02
  -0.1327725054317821E-01
   0.4914481839334473E-02
   0.6907122399362619E-03
   0.3434418500520096E-02
   0.1920847413202925E-02
   0.3147960303407471E-02
   0.1704778411595582E-02
  -0.7316187314631130E-02
  -0.7701896632795475E-04
   0.4468738138404160E-02
  -0.4387155512542231E-03
  -0.6383742101230398E-04
  -0.1963394574960475E-03
   0.8071267959049854E-03
   0.0000000000000000E+00
   0.0000000000000000E+00
   0.0000000000000000E+00
   0.0000000000000000E+00
   0.4257020204523236E-03
   0.1616304634414184E-02
  -0.1297550935954061E-02
  -0.1022774963590182E-02
  -0.2134342392989440E-02
  -0.1064012650668855E-02
  -0.8200064180520882E-03
  -0.7617033093426381E-03
   0.5202259102894951E-04
  -0.6244091835658985E-03
   0.7916469255383084E-03
  -0.1745238501425406E-02
   0.2747128647850269E-03
  -0.8939746705591616E-04
  -0.9424309994353552E-03
  -0.1100227520634790E-02
   0.0000000000000000E+00
   0.0000000000000000E+00
   0.0000000000000000E+00
  -0.1061759105397393E-02
  -0.7641128790679005E-02
   0.1860854767602561E-01
  -0.2834553790252913E-04
  -0.1383129139906203E-02
  -0.2035122958713891E-02
  -0.5666383179420922E-02
  -0.1585210209261553E-02
  -0.5947016470814626E-02
  -0.4160601833022567E-02
   0.1565614808653710E-02
   0.3329524846883201E-01
   0.3055140110367237E-04
  -0.2766884908017333E-02
   0.3566484751832232E-02
   0.3596189637867755E-03
   0.0000000000000000E+00
   0.0000000000000000E+00
   0.0000000000000000E+00
   0.0000000000000000E+00
   0.0000000000000000E+00
   0.0000000000000000E+00
   0.0000000000000000E+00
   0.0000000000000000E+00
   0.0000000000000000E+00
   0.0000000000000000E+00
   0.0000000000000000E+00
   0.0000000000000000E+00
   0.0000000000000000E+00
   0.0000000000000000E+00
   0.0000000000000000E+00
   0.0000000000000000E+00
   0.0000000000000000E+00
   0.5047032620665687E-02
   0.3230791984799611E-02
   0.8149134310450916E-02
   0.6168367060179754E-02
   0.1122928641178078E-01
   0.1429277511257171E-01
  -0.2038825965506961E-03
   0.5118221841414414E-02
   0.2914950548303068E-02
   0.3373611823846940E-02
   0.3728336465219566E-02
  -0.1465719853585042E-01
  -0.6159699764467692E-03
   0.6651630366932875E-02
   0.1542014302148939E-02
   0.1969646549512872E-02
   0.4266273572400912E-02
  -0.2790960905236583E-02
   0.1226887098694640E-02
   0.2819172500482045E-02
   0.1497449170449135E-02
   0.2575339109053838E-02
   0.2030646497078964E-02
   0.2118046081534882E-02
   0.8700410546517974E-02
  -0.3733396946594936E-02
   0.6241189156725230E-02
   0.2516489674140764E-04
  -0.3854044710285776E-03
  -0.1674679007378812E-01
  -0.4881976884419241E-02
  -0.4720000754937096E-02
   0.3445223079524881E-02
  -0.6135724067141580E-02
   0.9934525378730036E-04
  -0.3291372899118831E-01
  -0.3046196681550280E-02
   0.4722743240148353E-02
   0.9228368297260551E-03
   0.2112175237991384E-02
   0.4518755758454590E-02
   0.2720465312932129E-02
   0.3212576546797650E-02
   0.5200804258609423E-02
   0.1941838994903769E-02
   0.7315897930674970E-03
  -0.2555235184333485E-04
  -0.5374632794152473E-02
  -0.6959591047476064E-02
  -0.9443816158519797E-03
   0.1105268468019968E-02
  -0.2080554122571997E-02
  -0.3200035927966887E-02
  -0.2527833319312424E-02
  -0.4115193522524297E-02
  -0.7593954900526516E-02
  -0.1985686388595288E-02
   0.6240403081051335E-03
  -0.2239081386905249E-03
   0.1216949819773798E-02
  -0.3483958321204657E-02
   0.5229139952996511E-02
  -0.8487626021948471E-02
   0.2315172538971685E-04
  -0.3395192710489046E-03
   0.2542663566031781E-02
   0.1663457722249704E-02
   0.2021438737792801E-02
  -0.5620783973690778E-02
SCALARS w double 1
LOOKUP_TABLE default
   0.0000000000000000E+00
   0.0000000000000000E+00
   0.0000000000000000E+00
   0.0000000000000000E+00
   0.0000000000000000E+00
   0.0000000000000000E+00
   0.0000000000000000E+00
   0.0000000000000000E+00
   0.0000000000000000E+00
   0.0000000000000000E+00
   0.0000000000000000E+00
   0.0000000000000000E+00
   0.0000000000000000E+00
   0.0000000000000000E+00
   0.0000000000000000E+00
   0.0000000000000000E+00
   0.0000000000000000E+00
   0.0000000000000000E+00
   0.0000000000000000E+00
   0.0000000000000000E+00
   0.0000000000000000E+00
   0.0000000000000000E+00
   0.0000000000000000E+00
   0.0000000000000000E+00
   0.0000000000000000E+00
   0.0000000000000000E+00
   0.0000000000000000E+00
   0.0000000000000000E+00
   0.0000000000000000E+00
   0.0000000000000000E+00
   0.0000000000000000E+00
   0.0000000000000000E+00
   0.0000000000000000E+00
  -0.1007612293316971E+00
  -0.4249297161476630E-01
   0.7371985228644186E-03
   0.5725799915258655E-02
   0.5699057283984294E-03
   0.1609783073577160E-02
   0.3375072974095907E-02
   0.2371773625071381E-02
   0.4590624710459144E-03
   0.3518225907721276E-02
   0.4521817552638560E-01
   0.6522937758161107E-01
   0.8689296542031752E-03
  -0.2261151838679892E-01
   0.4316553482947293E-02
   0.1358734827777208E-01
   0.1039452545763923E-01
   0.4900548393399519E-01
   0.2437443458056505E-02
  -0.6509941220963216E-02
  -0.7012228128554828E-03
   0.3411016014912549E-03
   0.3904107226657221E-02
  -0.3893254330561148E-01
   0.1798168086533541E-01
   0.1119638182199936E-01
   0.3403773236201070E-01
   0.8438810109166812E-02
   0.4937312260637166E-02
   0.4970345577342376E-02
   0.4871517407832671E-02
   0.6027191712878271E-02
   0.2599191748235260E-02
  -0.4144429608819299E-01
  -0.9954261889038650E-01
  -0.1121678223607247E+00
   0.5070875020190099E-02
   0.4230770647293556E-02
  -0.1004732307390691E+00
  -0.9895252565702743E-01
  -0.9875451012000840E-01
  -0.9462509657305698E-01
  -0.6807133849724475E-01
   0.5154922163262517E-02
  -0.1935330760212322E-01
  -0.1575800299659753E-01
  -0.6002862498689480E-02
   0.6819057368441951E-02
  -0.8010050847108367E-01
  -0.2781092480340651E-01
  -0.8096457388820320E-01
  -0.5873277590976322E-01
   0.3083625671246511E-02
   0.2685146457333487E-02
   0.2640431162560576E-02
   0.3450191907620401E-02
   0.4007083745199908E-02
   0.1201214275414870E-02
  -0.1438846769641462E-03
   0.2039877277621599E-02
   0.4895693580638061E-02
   0.3857385552300922E-02
   0.1114201930676022E-02
   0.1182682032073463E-02
   0.1465296245148826E-02
  -0.1653640031497630E-04
   0.8996620381697134E-04
   0.4386667836710394E-02
   0.2715724197757059E-02
   0.2322755257944538E-02
   0.5010600996438694E-02
   0.1071689308568411E-02
   0.2712217679964940E-02
   0.2013964059665527E-02
   0.2879083024626240E-04
   0.8374614346626487E-01
   0.2793870731013569E-02
  -0.8346628091805921E-03
  -0.1492945610546963E-03
   0.1409540844238747E+00
   0.1239332949750215E+00
  -0.1219093302718281E-02
  -0.4381936079681236E-02
  -0.3043057900340360E-03
  -0.6512246815763669E-02
  -0.1949570300488877E-02
   0.1557630970354524E+00
   0.7489979196228480E-01
   0.2550174917265129E-01
   0.1656445116154714E+00