title="tecplot geometry and solution file"
variables = x y z rho u v w p mach temperature
zone t="boundary 1 bc-1", solutiontime= 0.6000000E+02, strandid=1001, i=32, j=46, f=feblock
  0.000000000000E+00  0.000000000000E+00  0.000000000000E+00  0.000000000000E+00  0.000000000000E+00  0.000000000000E+00  0.000000000000E+00
  0.000000000000E+00  0.000000000000E+00  0.000000000000E+00  0.000000000000E+00  0.000000000000E+00  0.000000000000E+00  0.000000000000E+00
  0.000000000000E+00  0.000000000000E+00  0.000000000000E+00  0.000000000000E+00  0.000000000000E+00  0.000000000000E+00  0.000000000000E+00
  0.000000000000E+00  0.000000000000E+00  0.000000000000E+00  0.000000000000E+00  0.000000000000E+00  0.000000000000E+00  0.000000000000E+00
  0.000000000000E+00  0.000000000000E+00  0.000000000000E+00  0.000000000000E+00
  0.250000000000E+01  0.250000000000E+01  0.125000000000E+01  0.146289271009E+01  0.157686156160E+01  0.308372018325E+00  0.000000000000E+00
 -0.125000000000E+01 -0.600232012419E+00  0.250000000000E+01  0.477386199275E+00  0.742988685424E+00 -0.739814786992E+00  0.177790177481E+01
  0.155830813274E+01  0.250000000000E+01 -0.250000000000E+01 -0.154800130438E+01 -0.487811078581E+00  0.250000000000E+01  0.627766083140E+00
 -0.345533899378E+00 -0.178862290564E+01 -0.158811787973E+01  0.125000000000E+01 -0.250000000000E+01 -0.144524380962E+01  0.000000000000E+00
 -0.125000000000E+01 -0.250000000000E+01 -0.250000000000E+01 -0.250000000000E+01
  0.000000000000E+00  0.125000000000E+01  0.000000000000E+00  0.103724302461E+01  0.219251206392E+01  0.922061490191E+00  0.000000000000E+00
  0.000000000000E+00  0.715990576545E+00  0.250000000000E+01  0.202479342020E+01  0.324151231464E+01  0.175434191980E+01  0.310152362409E+01
  0.404200324774E+01  0.375000000000E+01  0.000000000000E+00  0.930412228790E+00  0.299062775774E+01  0.500000000000E+01  0.429310310915E+01
  0.409252726285E+01  0.187029682677E+01  0.284428995242E+01  0.500000000000E+01  0.125000000000E+01  0.394624082883E+01  0.500000000000E+01
  0.500000000000E+01  0.250000000000E+01  0.375000000000E+01  0.500000000000E+01
  0.134427144266E+01  0.106355395592E+01  0.142583204156E+01  0.108608796987E+01  0.103229115292E+01  0.120095364214E+01  0.164466727257E+01
  0.149409064029E+01  0.123520366932E+01  0.102389313767E+01  0.102809523635E+01  0.101301828672E+01  0.103252946682E+01  0.101471891587E+01
  0.100663883738E+01  0.100830818987E+01  0.144945745007E+01  0.116393552234E+01  0.101462863963E+01  0.100426040817E+01  0.100679807406E+01
  0.100724553322E+01  0.104668119137E+01  0.101938460935E+01  0.100424800564E+01  0.106442280086E+01  0.100789341919E+01  0.100288843763E+01
  0.100334542040E+01  0.102847362127E+01  0.100958665724E+01  0.100399273182E+01
  0.000000000000E+00  0.445481415628E+00  0.000000000000E+00  0.468737856724E+00  0.462182264824E+00  0.443613739139E+00  0.000000000000E+00
  0.000000000000E+00  0.379272522958E+00  0.471738849661E+00  0.466574953734E+00  0.479355157885E+00  0.490159652987E+00  0.484514724295E+00
  0.488524784490E+00  0.489830188533E+00  0.000000000000E+00  0.450653304386E+00  0.474814030129E+00  0.495784888124E+00  0.490899471692E+00
  0.486835368438E+00  0.448668669222E+00  0.465807174870E+00  0.496536481951E+00  0.444686658117E+00  0.487701045777E+00  0.497534090470E+00
  0.496384264519E+00  0.470002878156E+00  0.489199905749E+00  0.495522026825E+00
  0.000000000000E+00  0.000000000000E+00  0.000000000000E+00  0.186085476791E-01 -0.276688490765E-02  0.332952484702E-01  0.000000000000E+00
  0.000000000000E+00 -0.594701647216E-02  0.000000000000E+00  0.356648475387E-02 -0.566638317804E-02 -0.416060183539E-02  0.305514017248E-04
 -0.106175910828E-02  0.000000000000E+00  0.000000000000E+00 -0.764112878661E-02  0.359618964113E-03  0.000000000000E+00 -0.203512296170E-02
 -0.138312914101E-02  0.156561480800E-02 -0.158521021275E-02 -0.638374225720E-04  0.000000000000E+00 -0.283455365610E-04 -0.196339458254E-03
  0.807126797621E-03  0.000000000000E+00  0.000000000000E+00  0.000000000000E+00
  0.000000000000E+00  0.452181755251E-01  0.000000000000E+00  0.123933294978E+00  0.247647171763E-01  0.165644511616E+00  0.000000000000E+00
  0.000000000000E+00  0.155763097036E+00  0.351822590792E-02  0.259783174446E-01 -0.651224681416E-02  0.748997919626E-01  0.371839288751E-02
 -0.149294557970E-03  0.459062471770E-03  0.000000000000E+00  0.140954084425E+00 -0.808565306791E-02  0.237177363033E-02 -0.304305786913E-03
 -0.438193607517E-02  0.255017491733E-01 -0.194957030001E-02  0.308362567217E-02  0.837461434519E-01 -0.121909330178E-02  0.268514646331E-02
  0.264043116758E-02  0.279387073067E-02 -0.834662809112E-03  0.345019191064E-02
  0.960184571234E+00  0.782340562071E+00  0.101844204819E+01  0.808726657953E+00  0.746125891986E+00  0.879446499374E+00  0.117475225544E+01
  0.106719924340E+01  0.916620147319E+00  0.737395238742E+00  0.743553972624E+00  0.725759211294E+00  0.757455250936E+00  0.729188343595E+00
  0.720785048185E+00  0.722781670847E+00  0.103531921522E+01  0.858317141172E+00  0.728065073298E+00  0.718615293842E+00  0.721013448724E+00
  0.721151587080E+00  0.760018786355E+00  0.732628403466E+00  0.718531161592E+00  0.791043235583E+00  0.722107949766E+00  0.717199383023E+00
  0.717636870834E+00  0.741799737417E+00  0.724056580054E+00  0.718400634599E+00
  0.000000000000E+00  0.441238348664E+00  0.000000000000E+00  0.475214987050E+00  0.460123709209E+00  0.468827815376E+00  0.000000000000E+00
  0.000000000000E+00  0.402302516922E+00  0.469814974695E+00  0.464411129289E+00  0.478714034449E+00  0.489298241678E+00  0.483068558115E+00
  0.487930073276E+00  0.488961654798E+00  0.000000000000E+00  0.464775721436E+00  0.473795652141E+00  0.495346592125E+00  0.490266103567E+00
  0.486286084043E+00  0.445717618326E+00  0.464382274873E+00  0.496127395018E+00  0.443624104009E+00  0.486964462095E+00  0.497246279858E+00
  0.496059270982E+00  0.467732355573E+00  0.488212087502E+00  0.495098264910E+00
  0.999990297395E+00  0.102982719476E+01  0.999990760417E+00  0.104247294192E+01  0.101190080514E+01  0.102520618275E+01  0.999991417744E+00
  0.999992169465E+00  0.103891223619E+01  0.100826277300E+01  0.101252833869E+01  0.100300548285E+01  0.102702865670E+01  0.100605563281E+01
  0.100244400473E+01  0.100355660041E+01  0.999992722271E+00  0.103239739193E+01  0.100459524087E+01  0.100179336275E+01  0.100260305837E+01
  0.100234966412E+01  0.101657153073E+01  0.100617544688E+01  0.100168844806E+01  0.104043292658E+01  0.100303376372E+01  0.100118726925E+01
  0.100134171018E+01  0.100976788408E+01  0.100405369347E+01  0.100176112492E+01
        12        19        11        11
        11         5        12        12
        10        14         5         5
        19        13        11        11
        19        24        13        13
        30        23        24        24
        19        12        22        22
        28        22        21        21
        11        13         6         6
         7         6         9         9
        15        12        14        14
        18        13        23        23
        15        25        21        21
        27        19        22        22
        18         8         9         9
        27        31        24        24
         4        11         6         6
         5        14        12        12
         4         2         5         5
        21        12        15        15
        14        16        15        15
        24        19        27        27
        22        29        27        27
        23        26        18        18
        17         8        18        18
         5        11         4         4
         6         3         4         4
        26        23        30        30
         5         2        10        10
        16        14        10        10
         3         6         7         7
        21        25        28        28
        29        22        28        28
         6        13         9         9
         2         4         1         1
        31        27        32        32
        25        15        20        20
        24        23        13        13
         8         7         9         9
        13        18         9         9
        31        30        24        24
        12        21        22        22
        29        32        27        27
         3         1         4         4
        26        17        18        18
        16        20        15        15
zone t="boundary 2 bc-2", solutiontime= 0.6000000E+02, strandid=1002, i=33, j=48, f=feblock
  0.500000000000E+01  0.375000000000E+01  0.250000000000E+01  0.288078410721E+01  0.125000000000E+01  0.190974100652E+01  0.326683758169E+01
  0.201431602454E+01  0.000000000000E+00  0.963108083381E+00  0.500000000000E+01  0.403552511878E+01  0.423153924130E+01  0.500000000000E+01
  0.385533350601E+01  0.500000000000E+01  0.398173246726E+01  0.315249557942E+01  0.267000324704E+01  0.154774304040E+01  0.218329375016E+01
  0.893127759452E+00  0.000000000000E+00  0.698517061619E+00  0.964171764089E+00  0.310324758057E+01  0.000000000000E+00  0.000000000000E+00
  0.125000000000E+01  0.500000000000E+01  0.375000000000E+01  0.250000000000E+01  0.000000000000E+00
 -0.250000000000E+01 -0.250000000000E+01 -0.250000000000E+01 -0.250000000000E+01 -0.250000000000E+01 -0.250000000000E+01 -0.250000000000E+01
 -0.250000000000E+01 -0.250000000000E+01 -0.250000000000E+01 -0.250000000000E+01 -0.250000000000E+01 -0.250000000000E+01 -0.250000000000E+01
 -0.250000000000E+01 -0.250000000000E+01 -0.250000000000E+01 -0.250000000000E+01 -0.250000000000E+01 -0.250000000000E+01 -0.250000000000E+01
 -0.250000000000E+01 -0.250000000000E+01 -0.250000000000E+01 -0.250000000000E+01 -0.250000000000E+01 -0.250000000000E+01 -0.250000000000E+01
 -0.250000000000E+01 -0.250000000000E+01 -0.250000000000E+01 -0.250000000000E+01 -0.250000000000E+01
  0.000000000000E+00  0.000000000000E+00  0.000000000000E+00  0.904659890645E+00  0.000000000000E+00  0.717002441913E+00  0.188609243358E+01
  0.176246431481E+01  0.000000000000E+00  0.961328577125E+00  0.125000000000E+01  0.101201586758E+01  0.191586535653E+01  0.250000000000E+01
  0.293121848150E+01  0.375000000000E+01  0.406975391361E+01  0.363585050272E+01  0.285047954584E+01  0.292817774674E+01  0.395907379566E+01
  0.205246550326E+01  0.125000000000E+01  0.306828197606E+01  0.397245519226E+01  0.433168271247E+01  0.250000000000E+01  0.375000000000E+01
  0.500000000000E+01  0.500000000000E+01  0.500000000000E+01  0.500000000000E+01  0.500000000000E+01
  0.830787403715E+00  0.935297253326E+00  0.934221980390E+00  0.968087712125E+00  0.961719526595E+00  0.964848331380E+00  0.984136201083E+00
  0.991412447115E+00  0.144945745007E+01  0.102921689295E+01  0.955878695628E+00  0.960692918780E+00  0.981487961408E+00  0.100642910909E+01
  0.997912123404E+00  0.100977863892E+01  0.100199481632E+01  0.998063237196E+00  0.991085838803E+00  0.100132719323E+01  0.100094600683E+01
  0.101224609875E+01  0.106442280086E+01  0.101082190526E+01  0.100685258272E+01  0.100118414329E+01  0.102847362127E+01  0.100958665724E+01
  0.100510171610E+01  0.100179475831E+01  0.100266315990E+01  0.100321164508E+01  0.100399273182E+01
  0.000000000000E+00  0.000000000000E+00  0.000000000000E+00  0.378986941221E+00  0.000000000000E+00  0.340639444333E+00  0.582179008733E+00
  0.575195820751E+00  0.000000000000E+00  0.489449421622E+00  0.494741335992E+00  0.431507387294E+00  0.568961825275E+00  0.536179830431E+00
  0.568879739555E+00  0.516235685028E+00  0.508555697404E+00  0.527399281854E+00  0.566648549393E+00  0.531828923491E+00  0.506096460043E+00
  0.520701999424E+00  0.444686658117E+00  0.491339919724E+00  0.492734936211E+00  0.501504484243E+00  0.470002878156E+00  0.489199905749E+00
  0.490458183220E+00  0.491426954425E+00  0.486218276541E+00  0.490304438667E+00  0.495522026825E+00
  0.000000000000E+00  0.000000000000E+00  0.000000000000E+00  0.000000000000E+00  0.000000000000E+00  0.000000000000E+00  0.000000000000E+00
  0.000000000000E+00  0.000000000000E+00  0.000000000000E+00  0.000000000000E+00  0.000000000000E+00  0.000000000000E+00  0.000000000000E+00
  0.000000000000E+00  0.000000000000E+00  0.000000000000E+00  0.000000000000E+00  0.000000000000E+00  0.000000000000E+00  0.000000000000E+00
  0.000000000000E+00  0.000000000000E+00  0.000000000000E+00  0.000000000000E+00  0.000000000000E+00  0.000000000000E+00  0.000000000000E+00
  0.000000000000E+00  0.000000000000E+00  0.000000000000E+00  0.000000000000E+00  0.000000000000E+00
  0.000000000000E+00  0.000000000000E+00  0.000000000000E+00 -0.229669077248E-02  0.000000000000E+00  0.183565246620E-01  0.121122186101E-01
  0.454986543179E-01  0.000000000000E+00  0.870789632365E-01 -0.995426188865E-01 -0.211864966913E-01 -0.306441472607E-01 -0.414442960845E-01
 -0.137883068501E-02  0.259919176897E-02  0.609478546537E-03  0.503572857662E-03  0.150967301467E-01  0.284025718653E-01  0.564163860146E-02
  0.553419832362E-01  0.837461434519E-01  0.110441020865E-01  0.679169182165E-02 -0.758115940562E-03  0.279387073067E-02 -0.834662809112E-03
  0.400708374803E-02  0.602719174256E-02 -0.143884681124E-03  0.120121425987E-02  0.345019191064E-02
  0.593415709575E+00  0.668065253248E+00  0.667297107059E+00  0.684257572311E+00  0.686937806151E+00  0.679201335685E+00  0.695811645324E+00
  0.702343853057E+00  0.103531921522E+01  0.723694676173E+00  0.672591690489E+00  0.675702734147E+00  0.694093188770E+00  0.720959962480E+00
  0.712691281780E+00  0.724770829811E+00  0.716580562906E+00  0.713298991981E+00  0.706429557494E+00  0.717737238871E+00  0.715376602397E+00
  0.730937674876E+00  0.791043235583E+00  0.724372849820E+00  0.721010721303E+00  0.715457540671E+00  0.741799737417E+00  0.724056580054E+00
  0.719312938008E+00  0.715892799159E+00  0.716608904953E+00  0.717367939406E+00  0.718400634599E+00
  0.000000000000E+00  0.000000000000E+00  0.000000000000E+00  0.380991906627E+00  0.000000000000E+00  0.343629824969E+00  0.585286157596E+00
  0.579373264347E+00  0.000000000000E+00  0.501056069075E+00  0.508460363110E+00  0.435373026860E+00  0.572640041367E+00  0.537002098824E+00
  0.568922553906E+00  0.514994090538E+00  0.508247257230E+00  0.527252853211E+00  0.567446661203E+00  0.531657144008E+00  0.505981016723E+00
  0.520795579519E+00  0.443624104009E+00  0.490663730614E+00  0.492155873891E+00  0.501390784812E+00  0.467732355573E+00  0.488212087502E+00
  0.490002767271E+00  0.491352304734E+00  0.486075475378E+00  0.490036479437E+00  0.495098264910E+00
  0.999993487732E+00  0.999993693151E+00  0.999993544887E+00  0.989539056468E+00  0.999993139390E+00  0.985524707908E+00  0.989838908864E+00
  0.991798516491E+00  0.999992722271E+00  0.984411112543E+00  0.985091906527E+00  0.984689081508E+00  0.990058464786E+00  0.100289621828E+01
  0.999855369116E+00  0.100485306643E+01  0.100121554695E+01  0.100055642925E+01  0.997896793366E+00  0.100350029562E+01  0.100058068719E+01
  0.101093276239E+01  0.104043292658E+01  0.100326475364E+01  0.100254498737E+01  0.100045587383E+01  0.100976788408E+01  0.100405369347E+01
  0.100192656830E+01  0.100045434508E+01  0.100058774179E+01  0.100109993748E+01  0.100176112492E+01
        15         7        19        19
         8        20        19        19
        18        19        21        21
         7         4         8         8
         3         6         4         4
        19         7         8         8
        19        18        15        15
        14        13        15        15
         8        22        20        20
        27        24        22        22
        19        20        21        21
        32        26        21        21
        17        18        26        26
        17        16        15        15
        25        29        21        21
        12         7        13        13
        10         8         6         6
        25        20        24        24
         4         6         8         8
        12         2         4         4
        10        23        22        22
        26        31        17        17
        30        16        17        17
         4         7        12        12
        13        11        12        12
        21        20        25        25
        24        28        25        25
        22         8        10        10
         6         5        10        10
        31        26        32        32
         4         2         3         3
         5         6         3         3
        11        13        14        14
        22        23        27        27
        28        24        27        27
        15        13         7         7
         2        12         1         1
        29        25        33        33
        23        10         9         9
        21        26        18        18
        16        14        15        15
        18        17        15        15
        29        32        21        21
        22        24        20        20
        28        33        25        25
        11         1        12        12
        31        30        17        17
         5         9        10        10
zone t="boundary 3 bc-3", solutiontime= 0.6000000E+02, strandid=1003, i=33, j=48, f=feblock
  0.375000000000E+01  0.250000000000E+01  0.500000000000E+01  0.403552511878E+01  0.288078410721E+01  0.125000000000E+01  0.190974100652E+01
  0.500000000000E+01  0.326683758169E+01  0.423153924130E+01  0.201431602454E+01  0.000000000000E+00  0.963108083381E+00  0.500000000000E+01
  0.267000324704E+01  0.385533350601E+01  0.893127759452E+00  0.154774304040E+01  0.000000000000E+00  0.500000000000E+01  0.315249557942E+01
  0.218329375016E+01  0.398173246726E+01  0.000000000000E+00  0.698517061619E+00  0.964171764089E+00  0.125000000000E+01  0.000000000000E+00
  0.500000000000E+01  0.310324758057E+01  0.250000000000E+01  0.375000000000E+01  0.000000000000E+00
  0.250000000000E+01  0.250000000000E+01  0.250000000000E+01  0.250000000000E+01  0.250000000000E+01  0.250000000000E+01  0.250000000000E+01
  0.250000000000E+01  0.250000000000E+01  0.250000000000E+01  0.250000000000E+01  0.250000000000E+01  0.250000000000E+01  0.250000000000E+01
  0.250000000000E+01  0.250000000000E+01  0.250000000000E+01  0.250000000000E+01  0.250000000000E+01  0.250000000000E+01  0.250000000000E+01
  0.250000000000E+01  0.250000000000E+01  0.250000000000E+01  0.250000000000E+01  0.250000000000E+01  0.250000000000E+01  0.250000000000E+01
  0.250000000000E+01  0.250000000000E+01  0.250000000000E+01  0.250000000000E+01  0.250000000000E+01
  0.000000000000E+00  0.000000000000E+00  0.000000000000E+00  0.101201586758E+01  0.904659890645E+00  0.000000000000E+00  0.717002441913E+00
  0.125000000000E+01  0.188609243358E+01  0.191586535653E+01  0.176246431481E+01  0.000000000000E+00  0.961328577125E+00  0.250000000000E+01
  0.285047954584E+01  0.293121848150E+01  0.205246550326E+01  0.292817774674E+01  0.125000000000E+01  0.375000000000E+01  0.363585050272E+01
  0.395907379566E+01  0.406975391361E+01  0.250000000000E+01  0.306828197606E+01  0.397245519226E+01  0.500000000000E+01  0.375000000000E+01
  0.500000000000E+01  0.433168271247E+01  0.500000000000E+01  0.500000000000E+01  0.500000000000E+01
  0.941861269336E+00  0.946296420159E+00  0.843730487710E+00  0.964330993425E+00  0.978820740832E+00  0.956975889802E+00  0.983331402511E+00
  0.963500307656E+00  0.982689307071E+00  0.984243963994E+00  0.990263815855E+00  0.134427144266E+01  0.101918251245E+01  0.100829903942E+01
  0.993456155269E+00  0.997998684775E+00  0.100807808357E+01  0.100072116321E+01  0.106355395592E+01  0.100673529185E+01  0.100058356090E+01
  0.100234980701E+01  0.100178076636E+01  0.102389313767E+01  0.100874208365E+01  0.100528370887E+01  0.100522860284E+01  0.100830818987E+01
  0.100196461760E+01  0.100162012356E+01  0.100413205386E+01  0.100321958145E+01  0.100426040817E+01
  0.000000000000E+00  0.000000000000E+00  0.000000000000E+00  0.439071270505E+00  0.399865812565E+00  0.000000000000E+00  0.373794144748E+00
  0.495017683750E+00  0.573056190101E+00  0.569605109714E+00  0.559932658602E+00  0.000000000000E+00  0.483390704499E+00  0.533822129963E+00
  0.556458763022E+00  0.564688360815E+00  0.522615496460E+00  0.522533036313E+00  0.445481415628E+00  0.518326924579E+00  0.524750915677E+00
  0.503888174399E+00  0.509839746182E+00  0.471738849661E+00  0.496245454715E+00  0.494940396601E+00  0.489076358491E+00  0.489830188533E+00
  0.493064988034E+00  0.499146612030E+00  0.486766642585E+00  0.484757872134E+00  0.495784888124E+00
  0.000000000000E+00  0.000000000000E+00  0.000000000000E+00  0.000000000000E+00  0.000000000000E+00  0.000000000000E+00  0.000000000000E+00
  0.000000000000E+00  0.000000000000E+00  0.000000000000E+00  0.000000000000E+00  0.000000000000E+00  0.000000000000E+00  0.000000000000E+00
  0.000000000000E+00  0.000000000000E+00  0.000000000000E+00  0.000000000000E+00  0.000000000000E+00  0.000000000000E+00  0.000000000000E+00
  0.000000000000E+00  0.000000000000E+00  0.000000000000E+00  0.000000000000E+00  0.000000000000E+00  0.000000000000E+00  0.000000000000E+00
  0.000000000000E+00  0.000000000000E+00  0.000000000000E+00  0.000000000000E+00  0.000000000000E+00
  0.000000000000E+00  0.000000000000E+00  0.000000000000E+00 -0.226115184203E-01  0.111963817978E-01  0.000000000000E+00  0.179816808639E-01
 -0.100761229221E+00  0.390410721534E-02 -0.389325432674E-01  0.340377323476E-01  0.000000000000E+00  0.652293775813E-01 -0.424929715547E-01
  0.843881010392E-02 -0.650994121567E-02  0.490054839328E-01  0.135873482738E-01  0.452181755251E-01  0.737198496509E-03 -0.701222820875E-03
  0.243744346258E-02  0.868929656308E-03  0.351822590792E-02  0.103945254571E-01  0.431655348862E-02  0.337507298503E-02  0.459062471770E-03
  0.572579986821E-02  0.341101598746E-03  0.160978306687E-02  0.569905735858E-03  0.237177363033E-02
  0.672750879254E+00  0.675918855535E+00  0.602658383436E+00  0.676093765176E+00  0.691308921328E+00  0.683547254694E+00  0.690066482590E+00
  0.677274860418E+00  0.695201827751E+00  0.696250865852E+00  0.703344068522E+00  0.960184571234E+00  0.719726358838E+00  0.722866646164E+00
  0.709447758995E+00  0.713700946619E+00  0.726067413783E+00  0.716602922608E+00  0.782340562071E+00  0.722284532313E+00  0.716128636835E+00
  0.716551643653E+00  0.716546536163E+00  0.737395238742E+00  0.722682910795E+00  0.719441264055E+00  0.719566095265E+00  0.722781670847E+00
  0.716030181681E+00  0.715847822062E+00  0.718146783139E+00  0.717062470285E+00  0.718615293842E+00
  0.000000000000E+00  0.000000000000E+00  0.000000000000E+00  0.443767746000E+00  0.402286944696E+00  0.000000000000E+00  0.377550369085E+00
  0.509232128952E+00  0.575832179729E+00  0.573707405386E+00  0.562554064236E+00  0.000000000000E+00  0.490563299193E+00  0.534527096488E+00
  0.556586982161E+00  0.564391577695E+00  0.522730517516E+00  0.522052000262E+00  0.441238348664E+00  0.517182331611E+00  0.524228630779E+00
  0.503687457642E+00  0.509488571102E+00  0.469814974695E+00  0.495614442575E+00  0.494483780356E+00  0.488562428516E+00  0.488961654798E+00
  0.492980744803E+00  0.499005552312E+00  0.486460936739E+00  0.484596927756E+00  0.495346592125E+00
  0.999989341977E+00  0.999989408805E+00  0.999989628323E+00  0.981541895574E+00  0.988773990463E+00  0.999989829179E+00  0.982469463660E+00
  0.984104309102E+00  0.990427545968E+00  0.990355285732E+00  0.994362997178E+00  0.999990297395E+00  0.988652071697E+00  0.100368369409E+01
  0.999769196985E+00  0.100118501207E+01  0.100834885299E+01  0.100252111030E+01  0.102982719476E+01  0.100443319453E+01  0.100199536625E+01
  0.100082056594E+01  0.100138192338E+01  0.100826277300E+01  0.100298787124E+01  0.100192389550E+01  0.100215267505E+01  0.100355660041E+01
  0.100047670022E+01  0.100056591049E+01  0.100126820225E+01  0.100066573357E+01  0.100179336275E+01
        15         9        16        16
        15        18        11        11
        22        15        21        21
        11         5         9         9
         5         7         2         2
        11         9        15        15
        16        21        15        15
        16        10        14        14
        18        17        11        11
        17        25        24        24
        22        18        15        15
        22        30        31        31
        30        21        23        23
        16        20        23        23
        22        27        26        26
        10         9         4         4
         7        11        13        13
        25        18        26        26
        11         7         5         5
         5         1         4         4
        17        19        13        13
        23        32        30        30
        23        20        29        29
         4         9         5         5
         4         8        10        10
        26        18        22        22
        26        28        25        25
        13        11        17        17
        13         6         7         7
        31        30        32        32
         2         1         5         5
         2         7         6         6
        14        10         8         8
        24        19        17        17
        24        25        28        28
         9        10        16        16
         3         4         1         1
        33        26        27        27
        12        13        19        19
        21        30        22        22
        16        14        20        20
        16        23        21        21
        22        31        27        27
        18        25        17        17
        26        33        28        28
         4         3         8         8
        23        29        32        32
        13        12         6         6
zone t="boundary 4 bc-4", solutiontime= 0.6000000E+02, strandid=1004, i=32, j=46, f=feblock
  0.125000000000E+01  0.219251206392E+01  0.103724302461E+01  0.500000000000E+01  0.250000000000E+01  0.375000000000E+01  0.404200324774E+01
  0.500000000000E+01  0.000000000000E+00  0.310152362409E+01  0.202479342020E+01  0.324151231464E+01  0.922061490191E+00  0.000000000000E+00
  0.299062775774E+01  0.394624082883E+01  0.500000000000E+01  0.409252726285E+01  0.500000000000E+01  0.429310310915E+01  0.175434191980E+01
  0.284428995242E+01  0.000000000000E+00  0.000000000000E+00  0.715990576545E+00  0.930412228790E+00  0.125000000000E+01  0.187029682677E+01
  0.500000000000E+01  0.375000000000E+01  0.250000000000E+01  0.000000000000E+00
  0.250000000000E+01  0.157686156160E+01  0.146289271009E+01  0.250000000000E+01  0.250000000000E+01  0.250000000000E+01  0.155830813274E+01
  0.125000000000E+01  0.250000000000E+01  0.177790177481E+01  0.477386199275E+00  0.742988685424E+00  0.308372018325E+00  0.125000000000E+01
 -0.487811078581E+00 -0.144524380962E+01 -0.125000000000E+01 -0.345533899378E+00  0.000000000000E+00  0.627766083140E+00 -0.739814786992E+00
 -0.158811787973E+01  0.000000000000E+00 -0.125000000000E+01 -0.600232012419E+00 -0.154800130438E+01 -0.250000000000E+01 -0.178862290564E+01
 -0.250000000000E+01 -0.250000000000E+01 -0.250000000000E+01 -0.250000000000E+01
  0.500000000000E+01  0.500000000000E+01  0.500000000000E+01  0.500000000000E+01  0.500000000000E+01  0.500000000000E+01  0.500000000000E+01
  0.500000000000E+01  0.500000000000E+01  0.500000000000E+01  0.500000000000E+01  0.500000000000E+01  0.500000000000E+01  0.500000000000E+01
  0.500000000000E+01  0.500000000000E+01  0.500000000000E+01  0.500000000000E+01  0.500000000000E+01  0.500000000000E+01  0.500000000000E+01
  0.500000000000E+01  0.500000000000E+01  0.500000000000E+01  0.500000000000E+01  0.500000000000E+01  0.500000000000E+01  0.500000000000E+01
  0.500000000000E+01  0.500000000000E+01  0.500000000000E+01  0.500000000000E+01
  0.100522860284E+01  0.100432972635E+01  0.100432034597E+01  0.100196461760E+01  0.100413205386E+01  0.100321958145E+01  0.100258623139E+01
  0.100201175168E+01  0.100426040817E+01  0.100372310385E+01  0.100446502178E+01  0.100346952073E+01  0.100365984935E+01  0.100424800564E+01
  0.100362337524E+01  0.100164192029E+01  0.100227632649E+01  0.100227311593E+01  0.100213446567E+01  0.100254347558E+01  0.100442386338E+01
  0.100337264019E+01  0.100288843763E+01  0.100334542040E+01  0.100323222999E+01  0.100406087089E+01  0.100510171610E+01  0.100431307077E+01
  0.100179475831E+01  0.100266315990E+01  0.100321164508E+01  0.100399273182E+01
  0.489076358491E+00  0.489238598570E+00  0.490983331367E+00  0.493064988034E+00  0.486766642585E+00  0.484757872134E+00  0.485404956332E+00
  0.494262733332E+00  0.495784888124E+00  0.486800248274E+00  0.488139337167E+00  0.487244593380E+00  0.494423292670E+00  0.496536481951E+00
  0.487845783079E+00  0.483219469788E+00  0.492573587435E+00  0.487262277916E+00  0.494865946664E+00  0.488012491187E+00  0.490096716928E+00
  0.488269667083E+00  0.497534090470E+00  0.496384264519E+00  0.495259755749E+00  0.493216438905E+00  0.490458183220E+00  0.490400009200E+00
  0.491426954425E+00  0.486218276541E+00  0.490304438667E+00  0.495522026825E+00
  0.000000000000E+00 -0.893974645993E-04 -0.129755093357E-02  0.000000000000E+00  0.000000000000E+00  0.000000000000E+00  0.425702056358E-03
  0.797025509376E-03  0.000000000000E+00  0.274712870577E-03 -0.942430996254E-03 -0.820006395048E-03 -0.174523849883E-02 -0.638374225720E-04
 -0.110022748200E-02 -0.102277492329E-02 -0.133259271000E-02 -0.213434233876E-02 -0.132929462118E-02 -0.106401259527E-02 -0.624409167368E-03
 -0.761703270087E-03 -0.196339458254E-03  0.807126797621E-03  0.520225933511E-04  0.161630463461E-02  0.000000000000E+00  0.791646925764E-03
  0.000000000000E+00  0.000000000000E+00  0.000000000000E+00  0.000000000000E+00