title="tecplot geometry and solution file"
variables = x y z rho u v w p mach temperature
zone t="boundary 1 bc-1", solutiontime= 0.8000000E+02, strandid=1001, i=32, j=46, f=feblock
  0.000000000000E+00  0.000000000000E+00  0.000000000000E+00  0.000000000000E+00  0.000000000000E+00  0.000000000000E+00  0.000000000000E+00
  0.000000000000E+00  0.000000000000E+00  0.000000000000E+00  0.000000000000E+00  0.000000000000E+00  0.000000000000E+00  0.000000000000E+00
  0.000000000000E+00  0.000000000000E+00  0.000000000000E+00  0.000000000000E+00  0.000000000000E+00  0.000000000000E+00  0.000000000000E+00
  0.000000000000E+00  0.000000000000E+00  0.000000000000E+00  0.000000000000E+00  0.000000000000E+00  0.000000000000E+00  0.000000000000E+00
  0.000000000000E+00  0.000000000000E+00  0.000000000000E+00  0.000000000000E+00
  0.250000000000E+01  0.250000000000E+01  0.125000000000E+01  0.146289271009E+01  0.157686156160E+01  0.308372018325E+00  0.000000000000E+00
 -0.125000000000E+01 -0.600232012419E+00  0.250000000000E+01  0.477386199275E+00  0.742988685424E+00 -0.739814786992E+00  0.177790177481E+01
  0.155830813274E+01  0.250000000000E+01 -0.250000000000E+01 -0.154800130438E+01 -0.487811078581E+00  0.250000000000E+01  0.627766083140E+00
 -0.345533899378E+00 -0.178862290564E+01 -0.158811787973E+01  0.125000000000E+01 -0.250000000000E+01 -0.144524380962E+01  0.000000000000E+00
 -0.125000000000E+01 -0.250000000000E+01 -0.250000000000E+01 -0.250000000000E+01
  0.000000000000E+00  0.125000000000E+01  0.000000000000E+00  0.103724302461E+01  0.219251206392E+01  0.922061490191E+00  0.000000000000E+00
  0.000000000000E+00  0.715990576545E+00  0.250000000000E+01  0.202479342020E+01  0.324151231464E+01  0.175434191980E+01  0.310152362409E+01
  0.404200324774E+01  0.375000000000E+01  0.000000000000E+00  0.930412228790E+00  0.299062775774E+01  0.500000000000E+01  0.429310310915E+01
  0.409252726285E+01  0.187029682677E+01  0.284428995242E+01  0.500000000000E+01  0.125000000000E+01  0.394624082883E+01  0.500000000000E+01
  0.500000000000E+01  0.250000000000E+01  0.375000000000E+01  0.500000000000E+01
  0.134427144266E+01  0.106355395592E+01  0.142583204156E+01  0.108608796988E+01  0.103229115291E+01  0.120095364214E+01  0.164466727256E+01
  0.149409064029E+01  0.123520366932E+01  0.102389313767E+01  0.102809523634E+01  0.101301828672E+01  0.103252946681E+01  0.101471891587E+01
  0.100663883738E+01  0.100830818986E+01  0.144945745006E+01  0.116393552234E+01  0.101462863963E+01  0.100426040818E+01  0.100679807406E+01
  0.100724553322E+01  0.104668119137E+01  0.101938460935E+01  0.100424800564E+01  0.106442280084E+01  0.100789341918E+01  0.100288843763E+01
  0.100334542040E+01  0.102847362127E+01  0.100958665724E+01  0.100399273182E+01
  0.000000000000E+00  0.445481415632E+00  0.000000000000E+00  0.468737856714E+00  0.462182264833E+00  0.443613739150E+00  0.000000000000E+00
  0.000000000000E+00  0.379272522962E+00  0.471738849665E+00  0.466574953740E+00  0.479355157891E+00  0.490159652996E+00  0.484514724298E+00
  0.488524784488E+00  0.489830188533E+00  0.000000000000E+00  0.450653304370E+00  0.474814030131E+00  0.495784888140E+00  0.490899471700E+00
  0.486835368443E+00  0.448668669225E+00  0.465807174868E+00  0.496536481957E+00  0.444686658151E+00  0.487701045784E+00  0.497534090476E+00
  0.496384264523E+00  0.470002878155E+00  0.489199905752E+00  0.495522026830E+00
  0.000000000000E+00  0.000000000000E+00  0.000000000000E+00  0.186085476760E-01 -0.276688490799E-02  0.332952484688E-01  0.000000000000E+00
  0.000000000000E+00 -0.594701647076E-02  0.000000000000E+00  0.356648475181E-02 -0.566638317942E-02 -0.416060183292E-02  0.305514010864E-04
 -0.106175910533E-02  0.000000000000E+00  0.000000000000E+00 -0.764112879085E-02  0.359618963765E-03  0.000000000000E+00 -0.203512295866E-02
 -0.138312913991E-02  0.156561480866E-02 -0.158521020916E-02 -0.638374209678E-04  0.000000000000E+00 -0.283455379253E-04 -0.196339457505E-03
  0.807126795916E-03  0.000000000000E+00  0.000000000000E+00  0.000000000000E+00
  0.000000000000E+00  0.452181755265E-01  0.000000000000E+00  0.123933294975E+00  0.247647171787E-01  0.165644511615E+00  0.000000000000E+00
  0.000000000000E+00  0.155763097035E+00  0.351822590771E-02  0.259783174473E-01 -0.651224681580E-02  0.748997919622E-01  0.371839288679E-02
 -0.149294561101E-03  0.459062470971E-03  0.000000000000E+00  0.140954084424E+00 -0.808565306844E-02  0.237177362498E-02 -0.304305790106E-03
 -0.438193607970E-02  0.255017491726E-01 -0.194957030055E-02  0.308362567101E-02  0.837461434668E-01 -0.121909330266E-02  0.268514645724E-02
  0.264043116252E-02  0.279387073102E-02 -0.834662809243E-03  0.345019190732E-02
  0.960184571232E+00  0.782340562068E+00  0.101844204819E+01  0.808726657951E+00  0.746125891982E+00  0.879446499371E+00  0.117475225543E+01
  0.106719924340E+01  0.916620147315E+00  0.737395238738E+00  0.743553972618E+00  0.725759211289E+00  0.757455250931E+00  0.729188343591E+00
  0.720785048181E+00  0.722781670843E+00  0.103531921521E+01  0.858317141170E+00  0.728065073295E+00  0.718615293844E+00  0.721013448723E+00
  0.721151587078E+00  0.760018786353E+00  0.732628403463E+00  0.718531161593E+00  0.791043235577E+00  0.722107949763E+00  0.717199383023E+00
  0.717636870832E+00  0.741799737415E+00  0.724056580050E+00  0.718400634597E+00
  0.000000000000E+00  0.441238348668E+00  0.000000000000E+00  0.475214987042E+00  0.460123709218E+00  0.468827815385E+00  0.000000000000E+00
  0.000000000000E+00  0.402302516925E+00  0.469814974700E+00  0.464411129295E+00  0.478714034455E+00  0.489298241686E+00  0.483068558119E+00
  0.487930073276E+00  0.488961654799E+00  0.000000000000E+00  0.464775721423E+00  0.473795652144E+00  0.495346592141E+00  0.490266103576E+00
  0.486286084048E+00  0.445717618329E+00  0.464382274872E+00  0.496127395024E+00  0.443624104043E+00  0.486964462102E+00  0.497246279864E+00
  0.496059270986E+00  0.467732355572E+00  0.488212087506E+00  0.495098264915E+00
  0.999990297395E+00  0.102982719476E+01  0.999990760417E+00  0.104247294191E+01  0.101190080514E+01  0.102520618276E+01  0.999991417744E+00
  0.999992169465E+00  0.103891223619E+01  0.100826277299E+01  0.101252833869E+01  0.100300548285E+01  0.102702865670E+01  0.100605563281E+01
  0.100244400473E+01  0.100355660041E+01  0.999992722271E+00  0.103239739193E+01  0.100459524086E+01  0.100179336275E+01  0.100260305837E+01
  0.100234966412E+01  0.101657153072E+01  0.100617544687E+01  0.100168844806E+01  0.104043292659E+01  0.100303376372E+01  0.100118726925E+01
  0.100134171018E+01  0.100976788408E+01  0.100405369347E+01  0.100176112492E+01
        12        19        11        11
        11         5        12        12
        10        14         5         5
        19        13        11        11
        19        24        13        13
        30        23        24        24
        19        12        22        22
        28        22        21        21
        11        13         6         6
         7         6         9         9
        15        12        14        14
        18        13        23        23
        15        25        21        21
        27        19        22        22
        18         8         9         9
        27        31        24        24
         4        11         6         6
         5        14        12        12
         4         2         5         5
        21        12        15        15
        14        16        15        15
        24        19        27        27
        22        29        27        27
        23        26        18        18
        17         8        18        18
         5        11         4         4
         6         3         4         4
        26        23        30        30
         5         2        10        10
        16        14        10        10
         3         6         7         7
        21        25        28        28
        29        22        28        28
         6        13         9         9
         2         4         1         1
        31        27        32        32
        25        15        20        20
        24        23        13        13
         8         7         9         9
        13        18         9         9
        31        30        24        24
        12        21        22        22
        29        32        27        27
         3         1         4         4
        26        17        18        18
        16        20        15        15
zone t="boundary 2 bc-2", solutiontime= 0.8000000E+02, strandid=1002, i=33, j=48, f=feblock
  0.500000000000E+01  0.375000000000E+01  0.250000000000E+01  0.288078410721E+01  0.125000000000E+01  0.190974100652E+01  0.326683758169E+01
  0.201431602454E+01  0.000000000000E+00  0.963108083381E+00  0.500000000000E+01  0.403552511878E+01  0.423153924130E+01  0.500000000000E+01
  0.385533350601E+01  0.500000000000E+01  0.398173246726E+01  0.315249557942E+01  0.267000324704E+01  0.154774304040E+01  0.218329375016E+01
  0.893127759452E+00  0.000000000000E+00  0.698517061619E+00  0.964171764089E+00  0.310324758057E+01  0.000000000000E+00  0.000000000000E+00
  0.125000000000E+01  0.500000000000E+01  0.375000000000E+01  0.250000000000E+01  0.000000000000E+00
 -0.250000000000E+01 -0.250000000000E+01 -0.250000000000E+01 -0.250000000000E+01 -0.250000000000E+01 -0.250000000000E+01 -0.250000000000E+01
 -0.250000000000E+01 -0.250000000000E+01 -0.250000000000E+01 -0.250000000000E+01 -0.250000000000E+01 -0.250000000000E+01 -0.250000000000E+01
 -0.250000000000E+01 -0.250000000000E+01 -0.250000000000E+01 -0.250000000000E+01 -0.250000000000E+01 -0.250000000000E+01 -0.250000000000E+01
 -0.250000000000E+01 -0.250000000000E+01 -0.250000000000E+01 -0.250000000000E+01 -0.250000000000E+01 -0.250000000000E+01 -0.250000000000E+01
 -0.250000000000E+01 -0.250000000000E+01 -0.250000000000E+01 -0.250000000000E+01 -0.250000000000E+01
  0.000000000000E+00  0.000000000000E+00  0.000000000000E+00  0.904659890645E+00  0.000000000000E+00  0.717002441913E+00  0.188609243358E+01
  0.176246431481E+01  0.000000000000E+00  0.961328577125E+00  0.125000000000E+01  0.101201586758E+01  0.191586535653E+01  0.250000000000E+01
  0.293121848150E+01  0.375000000000E+01  0.406975391361E+01  0.363585050272E+01  0.285047954584E+01  0.292817774674E+01  0.395907379566E+01
  0.205246550326E+01  0.125000000000E+01  0.306828197606E+01  0.397245519226E+01  0.433168271247E+01  0.250000000000E+01  0.375000000000E+01
  0.500000000000E+01  0.500000000000E+01  0.500000000000E+01  0.500000000000E+01  0.500000000000E+01
  0.830787403713E+00  0.935297253320E+00  0.934221980385E+00  0.968087712109E+00  0.961719526586E+00  0.964848331367E+00  0.984136201075E+00
  0.991412447111E+00  0.144945745006E+01  0.102921689295E+01  0.955878695598E+00  0.960692918750E+00  0.981487961394E+00  0.100642910908E+01
  0.997912123400E+00  0.100977863890E+01  0.100199481631E+01  0.998063237200E+00  0.991085838799E+00  0.100132719322E+01  0.100094600683E+01
  0.101224609875E+01  0.106442280084E+01  0.101082190525E+01  0.100685258271E+01  0.100118414329E+01  0.102847362127E+01  0.100958665724E+01
  0.100510171610E+01  0.100179475830E+01  0.100266315990E+01  0.100321164507E+01  0.100399273182E+01
  0.000000000000E+00  0.000000000000E+00  0.000000000000E+00  0.378986941226E+00  0.000000000000E+00  0.340639444335E+00  0.582179008739E+00
  0.575195820759E+00  0.000000000000E+00  0.489449421628E+00  0.494741336023E+00  0.431507387298E+00  0.568961825282E+00  0.536179830431E+00
  0.568879739553E+00  0.516235685031E+00  0.508555697375E+00  0.527399281846E+00  0.566648549392E+00  0.531828923489E+00  0.506096460044E+00
  0.520701999431E+00  0.444686658151E+00  0.491339919724E+00  0.492734936216E+00  0.501504484231E+00  0.470002878155E+00  0.489199905752E+00
  0.490458183230E+00  0.491426954426E+00  0.486218276539E+00  0.490304438657E+00  0.495522026830E+00
  0.000000000000E+00  0.000000000000E+00  0.000000000000E+00  0.000000000000E+00  0.000000000000E+00  0.000000000000E+00  0.000000000000E+00
  0.000000000000E+00  0.000000000000E+00  0.000000000000E+00  0.000000000000E+00  0.000000000000E+00  0.000000000000E+00  0.000000000000E+00
  0.000000000000E+00  0.000000000000E+00  0.000000000000E+00  0.000000000000E+00  0.000000000000E+00  0.000000000000E+00  0.000000000000E+00
  0.000000000000E+00  0.000000000000E+00  0.000000000000E+00  0.000000000000E+00  0.000000000000E+00  0.000000000000E+00  0.000000000000E+00
  0.000000000000E+00  0.000000000000E+00  0.000000000000E+00  0.000000000000E+00  0.000000000000E+00
  0.000000000000E+00  0.000000000000E+00  0.000000000000E+00 -0.229669077219E-02  0.000000000000E+00  0.183565246618E-01  0.121122186100E-01
  0.454986543187E-01  0.000000000000E+00  0.870789632381E-01 -0.995426188904E-01 -0.211864966898E-01 -0.306441472637E-01 -0.414442960882E-01
 -0.137883069699E-02  0.259919174808E-02  0.609478513412E-03  0.503572846635E-03  0.150967301434E-01  0.284025718625E-01  0.564163859606E-02
  0.553419832375E-01  0.837461434668E-01  0.110441020872E-01  0.679169182116E-02 -0.758115949009E-03  0.279387073102E-02 -0.834662809243E-03
  0.400708374492E-02  0.602719171272E-02 -0.143884676745E-03  0.120121427531E-02  0.345019190732E-02
  0.593415709574E+00  0.668065253244E+00  0.667297107054E+00  0.684257572307E+00  0.686937806146E+00  0.679201335681E+00  0.695811645321E+00
  0.702343853053E+00  0.103531921521E+01  0.723694676169E+00  0.672591690474E+00  0.675702734146E+00  0.694093188767E+00  0.720959962477E+00
  0.712691281775E+00  0.724770829796E+00  0.716580562906E+00  0.713298991984E+00  0.706429557492E+00  0.717737238868E+00  0.715376602395E+00
  0.730937674873E+00  0.791043235577E+00  0.724372849816E+00  0.721010721300E+00  0.715457540672E+00  0.741799737415E+00  0.724056580050E+00
  0.719312938006E+00  0.715892799153E+00  0.716608904961E+00  0.717367939409E+00  0.718400634597E+00
  0.000000000000E+00  0.000000000000E+00  0.000000000000E+00  0.380991906629E+00  0.000000000000E+00  0.343629824970E+00  0.585286157601E+00
  0.579373264355E+00  0.000000000000E+00  0.501056069082E+00  0.508460363139E+00  0.435373026858E+00  0.572640041371E+00  0.537002098824E+00
  0.568922553906E+00  0.514994090541E+00  0.508247257198E+00  0.527252853203E+00  0.567446661202E+00  0.531657144004E+00  0.505981016724E+00
  0.520795579526E+00  0.443624104043E+00  0.490663730614E+00  0.492155873896E+00  0.501390784801E+00  0.467732355572E+00  0.488212087506E+00
  0.490002767281E+00  0.491352304735E+00  0.486075475376E+00  0.490036479425E+00  0.495098264915E+00
  0.999993487732E+00  0.999993693151E+00  0.999993544887E+00  0.989539056479E+00  0.999993139390E+00  0.985524707916E+00  0.989838908867E+00
  0.991798516490E+00  0.999992722271E+00  0.984411112542E+00  0.985091906536E+00  0.984689081539E+00  0.990058464796E+00  0.100289621828E+01
  0.999855369114E+00  0.100485306643E+01  0.100121554696E+01  0.100055642925E+01  0.997896793367E+00  0.100350029563E+01  0.100058068719E+01
  0.101093276239E+01  0.104043292659E+01  0.100326475363E+01  0.100254498737E+01  0.100045587383E+01  0.100976788408E+01  0.100405369347E+01
  0.100192656830E+01  0.100045434508E+01  0.100058774179E+01  0.100109993749E+01  0.100176112492E+01
        15         7        19        19
         8        20        19        19
        18        19        21        21
         7         4         8         8
         3         6         4         4
        19         7         8         8
        19        18        15        15
        14        13        15        15
         8        22        20        20
        27        24        22        22
        19        20        21        21
        32        26        21        21
        17        18        26        26
        17        16        15        15
        25        29        21        21
        12         7        13        13
        10         8         6         6
        25        20        24        24
         4         6         8         8
        12         2         4         4
        10        23        22        22
        26        31        17        17
        30        16        17        17
         4         7        12        12
        13        11        12        12
        21        20        25        25
        24        28        25        25
        22         8        10        10
         6         5        10        10
        31        26        32        32
         4         2         3         3
         5         6         3         3
        11        13        14        14
        22        23        27        27
        28        24        27        27
        15        13         7         7
         2        12         1         1
        29        25        33        33
        23        10         9         9
        21        26        18        18
        16        14        15        15
        18        17        15        15
        29        32        21        21
        22        24        20        20
        28        33        25        25
        11         1        12        12
        31        30        17        17
         5         9        10        10
zone t="boundary 3 bc-3", solutiontime= 0.8000000E+02, strandid=1003, i=33, j=48, f=feblock
  0.375000000000E+01  0.250000000000E+01  0.500000000000E+01  0.403552511878E+01  0.288078410721E+01  0.125000000000E+01  0.190974100652E+01
  0.500000000000E+01  0.326683758169E+01  0.423153924130E+01  0.201431602454E+01  0.000000000000E+00  0.963108083381E+00  0.500000000000E+01
  0.267000324704E+01  0.385533350601E+01  0.893127759452E+00  0.154774304040E+01  0.000000000000E+00  0.500000000000E+01  0.315249557942E+01
  0.218329375016E+01  0.398173246726E+01  0.000000000000E+00  0.698517061619E+00  0.964171764089E+00  0.125000000000E+01  0.000000000000E+00
  0.500000000000E+01  0.310324758057E+01  0.250000000000E+01  0.375000000000E+01  0.000000000000E+00
  0.250000000000E+01  0.250000000000E+01  0.250000000000E+01  0.250000000000E+01  0.250000000000E+01  0.250000000000E+01  0.250000000000E+01
  0.250000000000E+01  0.250000000000E+01  0.250000000000E+01  0.250000000000E+01  0.250000000000E+01  0.250000000000E+01  0.250000000000E+01
  0.250000000000E+01  0.250000000000E+01  0.250000000000E+01  0.250000000000E+01  0.250000000000E+01  0.250000000000E+01  0.250000000000E+01
  0.250000000000E+01  0.250000000000E+01  0.250000000000E+01  0.250000000000E+01  0.250000000000E+01  0.250000000000E+01  0.250000000000E+01
  0.250000000000E+01  0.250000000000E+01  0.250000000000E+01  0.250000000000E+01  0.250000000000E+01
  0.000000000000E+00  0.000000000000E+00  0.000000000000E+00  0.101201586758E+01  0.904659890645E+00  0.000000000000E+00  0.717002441913E+00
  0.125000000000E+01  0.188609243358E+01  0.191586535653E+01  0.176246431481E+01  0.000000000000E+00  0.961328577125E+00  0.250000000000E+01
  0.285047954584E+01  0.293121848150E+01  0.205246550326E+01  0.292817774674E+01  0.125000000000E+01  0.375000000000E+01  0.363585050272E+01
  0.395907379566E+01  0.406975391361E+01  0.250000000000E+01  0.306828197606E+01  0.397245519226E+01  0.500000000000E+01  0.375000000000E+01
  0.500000000000E+01  0.433168271247E+01  0.500000000000E+01  0.500000000000E+01  0.500000000000E+01
  0.941861269285E+00  0.946296420145E+00  0.843730487620E+00  0.964330992963E+00  0.978820740782E+00  0.956975889797E+00  0.983331402517E+00
  0.963500307332E+00  0.982689307090E+00  0.984243963955E+00  0.990263815858E+00  0.134427144266E+01  0.101918251245E+01  0.100829903945E+01
  0.993456155259E+00  0.997998684778E+00  0.100807808356E+01  0.100072116321E+01  0.106355395592E+01  0.100673529186E+01  0.100058356089E+01
  0.100234980700E+01  0.100178076637E+01  0.102389313767E+01  0.100874208365E+01  0.100528370887E+01  0.100522860284E+01  0.100830818986E+01
  0.100196461755E+01  0.100162012355E+01  0.100413205385E+01  0.100321958142E+01  0.100426040818E+01
  0.000000000000E+00  0.000000000000E+00  0.000000000000E+00  0.439071270469E+00  0.399865812501E+00  0.000000000000E+00  0.373794144739E+00
  0.495017684092E+00  0.573056190109E+00  0.569605109743E+00  0.559932658601E+00  0.000000000000E+00  0.483390704501E+00  0.533822129927E+00
  0.556458763044E+00  0.564688360831E+00  0.522615496466E+00  0.522533036320E+00  0.445481415632E+00  0.518326924604E+00  0.524750915715E+00
  0.503888174423E+00  0.509839746280E+00  0.471738849665E+00  0.496245454719E+00  0.494940396610E+00  0.489076358504E+00  0.489830188533E+00
  0.493064988017E+00  0.499146612067E+00  0.486766642561E+00  0.484757872083E+00  0.495784888140E+00
  0.000000000000E+00  0.000000000000E+00  0.000000000000E+00  0.000000000000E+00  0.000000000000E+00  0.000000000000E+00  0.000000000000E+00
  0.000000000000E+00  0.000000000000E+00  0.000000000000E+00  0.000000000000E+00  0.000000000000E+00  0.000000000000E+00  0.000000000000E+00
  0.000000000000E+00  0.000000000000E+00  0.000000000000E+00  0.000000000000E+00  0.000000000000E+00  0.000000000000E+00  0.000000000000E+00
  0.000000000000E+00  0.000000000000E+00  0.000000000000E+00  0.000000000000E+00  0.000000000000E+00  0.000000000000E+00  0.000000000000E+00
  0.000000000000E+00  0.000000000000E+00  0.000000000000E+00  0.000000000000E+00  0.000000000000E+00
  0.000000000000E+00  0.000000000000E+00  0.000000000000E+00 -0.226115183855E-01  0.111963818231E-01  0.000000000000E+00  0.179816808654E-01
 -0.100761229335E+00  0.390410722743E-02 -0.389325433064E-01  0.340377323628E-01  0.000000000000E+00  0.652293775816E-01 -0.424929716165E-01
  0.843881010955E-02 -0.650994122093E-02  0.490054839340E-01  0.135873482779E-01  0.452181755265E-01  0.737198523506E-03 -0.701222812571E-03
  0.243744345796E-02  0.868929654219E-03  0.351822590771E-02  0.103945254576E-01  0.431655348285E-02  0.337507297325E-02  0.459062470971E-03
  0.572579991704E-02  0.341101601413E-03  0.160978307304E-02  0.569905728525E-03  0.237177362498E-02
  0.672750879218E+00  0.675918855525E+00  0.602658383371E+00  0.676093765170E+00  0.691308921318E+00  0.683547254691E+00  0.690066482589E+00
  0.677274860281E+00  0.695201827735E+00  0.696250865827E+00  0.703344068515E+00  0.960184571232E+00  0.719726358832E+00  0.722866646174E+00
  0.709447758988E+00  0.713700946613E+00  0.726067413778E+00  0.716602922604E+00  0.782340562068E+00  0.722284532322E+00  0.716128636823E+00
  0.716551643646E+00  0.716546536151E+00  0.737395238738E+00  0.722682910790E+00  0.719441264049E+00  0.719566095267E+00  0.722781670843E+00
  0.716030181641E+00  0.715847822054E+00  0.718146783133E+00  0.717062470268E+00  0.718615293844E+00
  0.000000000000E+00  0.000000000000E+00  0.000000000000E+00  0.443767745858E+00  0.402286944626E+00  0.000000000000E+00  0.377550369077E+00
  0.509232129278E+00  0.575832179749E+00  0.573707405417E+00  0.562554064240E+00  0.000000000000E+00  0.490563299196E+00  0.534527096460E+00
  0.556586982183E+00  0.564391577714E+00  0.522730517522E+00  0.522052000269E+00  0.441238348668E+00  0.517182331637E+00  0.524228630820E+00
  0.503687457667E+00  0.509488571206E+00  0.469814974700E+00  0.495614442580E+00  0.494483780365E+00  0.488562428528E+00  0.488961654799E+00
  0.492980744788E+00  0.499005552351E+00  0.486460936713E+00  0.484596927704E+00  0.495346592141E+00
  0.999989341977E+00  0.999989408805E+00  0.999989628323E+00  0.981541896035E+00  0.988773990498E+00  0.999989829179E+00  0.982469463653E+00
  0.984104309234E+00  0.990427545927E+00  0.990355285736E+00  0.994362997166E+00  0.999990297395E+00  0.988652071694E+00  0.100368369407E+01
  0.999769196985E+00  0.100118501206E+01  0.100834885299E+01  0.100252111031E+01  0.102982719476E+01  0.100443319453E+01  0.100199536625E+01
  0.100082056593E+01  0.100138192336E+01  0.100826277299E+01  0.100298787124E+01  0.100192389550E+01  0.100215267505E+01  0.100355660041E+01
  0.100047670022E+01  0.100056591048E+01  0.100126820226E+01  0.100066573357E+01  0.100179336275E+01
        15         9        16        16
        15        18        11        11
        22        15        21        21
        11         5         9         9
         5         7         2         2
        11         9        15        15
        16        21        15        15
        16        10        14        14
        18        17        11        11
        17        25        24        24
        22        18        15        15
        22        30        31        31
        30        21        23        23
        16        20        23        23
        22        27        26        26
        10         9         4         4
         7        11        13        13
        25        18        26        26
        11         7         5         5
         5         1         4         4
        17        19        13        13
        23        32        30        30
        23        20        29        29
         4         9         5         5
         4         8        10        10
        26        18        22        22
        26        28        25        25
        13        11        17        17
        13         6         7         7
        31        30        32        32
         2         1         5         5
         2         7         6         6
        14        10         8         8
        24        19        17        17
        24        25        28        28
         9        10        16        16
         3         4         1         1
        33        26        27        27
        12        13        19        19
        21        30        22        22
        16        14        20        20
        16        23        21        21
        22        31        27        27
        18        25        17        17
        26        33        28        28
         4         3         8         8
        23        29        32        32
        13        12         6         6
zone t="boundary 4 bc-4", solutiontime= 0.8000000E+02, strandid=1004, i=32, j=46, f=feblock
  0.125000000000E+01  0.219251206392E+01  0.103724302461E+01  0.500000000000E+01  0.250000000000E+01  0.375000000000E+01  0.404200324774E+01
  0.500000000000E+01  0.000000000000E+00  0.310152362409E+01  0.202479342020E+01  0.324151231464E+01  0.922061490191E+00  0.000000000000E+00
  0.299062775774E+01  0.394624082883E+01  0.500000000000E+01  0.409252726285E+01  0.500000000000E+01  0.429310310915E+01  0.175434191980E+01
  0.284428995242E+01  0.000000000000E+00  0.000000000000E+00  0.715990576545E+00  0.930412228790E+00  0.125000000000E+01  0.187029682677E+01
  0.500000000000E+01  0.375000000000E+01  0.250000000000E+01  0.000000000000E+00
  0.250000000000E+01  0.157686156160E+01  0.146289271009E+01  0.250000000000E+01  0.250000000000E+01  0.250000000000E+01  0.155830813274E+01
  0.125000000000E+01  0.250000000000E+01  0.177790177481E+01  0.477386199275E+00  0.742988685424E+00  0.308372018325E+00  0.125000000000E+01
 -0.487811078581E+00 -0.144524380962E+01 -0.125000000000E+01 -0.345533899378E+00  0.000000000000E+00  0.627766083140E+00 -0.739814786992E+00
 -0.158811787973E+01  0.000000000000E+00 -0.125000000000E+01 -0.600232012419E+00 -0.154800130438E+01 -0.250000000000E+01 -0.178862290564E+01
 -0.250000000000E+01 -0.250000000000E+01 -0.250000000000E+01 -0.250000000000E+01
  0.500000000000E+01  0.500000000000E+01  0.500000000000E+01  0.500000000000E+01  0.500000000000E+01  0.500000000000E+01  0.500000000000E+01
  0.500000000000E+01  0.500000000000E+01  0.500000000000E+01  0.500000000000E+01  0.500000000000E+01  0.500000000000E+01  0.500000000000E+01
  0.500000000000E+01  0.500000000000E+01  0.500000000000E+01  0.500000000000E+01  0.500000000000E+01  0.500000000000E+01  0.500000000000E+01
  0.500000000000E+01  0.500000000000E+01  0.500000000000E+01  0.500000000000E+01  0.500000000000E+01  0.500000000000E+01  0.500000000000E+01
  0.500000000000E+01  0.500000000000E+01  0.500000000000E+01  0.500000000000E+01
  0.100522860284E+01  0.100432972634E+01  0.100432034596E+01  0.100196461755E+01  0.100413205385E+01  0.100321958142E+01  0.100258623134E+01
  0.100201175161E+01  0.100426040818E+01  0.100372310385E+01  0.100446502177E+01  0.100346952072E+01  0.100365984935E+01  0.100424800564E+01
  0.100362337525E+01  0.100164192030E+01  0.100227632648E+01  0.100227311591E+01  0.100213446562E+01  0.100254347551E+01  0.100442386338E+01
  0.100337264019E+01  0.100288843763E+01  0.100334542040E+01  0.100323222998E+01  0.100406087088E+01  0.100510171610E+01  0.100431307077E+01
  0.100179475830E+01  0.100266315990E+01  0.100321164507E+01  0.100399273182E+01
  0.489076358504E+00  0.489238598545E+00  0.490983331362E+00  0.493064988017E+00  0.486766642561E+00  0.484757872083E+00  0.485404956230E+00
  0.494262733288E+00  0.495784888140E+00  0.486800248237E+00  0.488139337125E+00  0.487244593297E+00  0.494423292665E+00  0.496536481957E+00
  0.487845783028E+00  0.483219469759E+00  0.492573587417E+00  0.487262277809E+00  0.494865946605E+00  0.488012491037E+00  0.490096716924E+00
  0.488269667080E+00  0.497534090476E+00  0.496384264523E+00  0.495259755752E+00  0.493216438907E+00  0.490458183230E+00  0.490400009202E+00
  0.491426954426E+00  0.486218276539E+00  0.490304438657E+00  0.495522026830E+00
  0.000000000000E+00 -0.893974672414E-04 -0.129755093603E-02  0.000000000000E+00  0.000000000000E+00  0.000000000000E+00  0.425702019434E-03
  0.797025463989E-03  0.000000000000E+00  0.274712864773E-03 -0.942430999673E-03 -0.820006418484E-03 -0.174523850152E-02 -0.638374209678E-04
 -0.110022752149E-02 -0.102277496427E-02 -0.133259274043E-02 -0.213434239342E-02 -0.132929467124E-02 -0.106401265143E-02 -0.624409183786E-03
 -0.761703309961E-03 -0.196339457505E-03  0.807126795916E-03  0.520225910294E-04  0.161630463453E-02  0.000000000000E+00  0.791646925721E-03
  0.000000000000E+00  0.000000000000E+00  0.000000000000E+00  0.000000000000E+00