# vtk DataFile Version 2.0
FUN3D:global_image_vtk
ASCII
DATASET UNSTRUCTURED_GRID
POINTS 213 double
   -0.5474724527974484E-02    0.5000000000000001E-30    0.2504942005183128E+01
    0.1212121212121212E-30    0.8032163479709808E-04    0.5000000000000000E-30
    0.1245419076927911E+01    0.1000000000000000E-29    0.2504942005183128E+01
    0.1212121212121212E-30    0.1038423406333200E-03    0.1000000000000000E-29
    0.2497696090160995E+01    0.5000000000000000E-30    0.2504942005183128E+01
    0.1212121212121212E-30    0.1099835811035899E-03    0.5000000000000000E-30
    0.3750591000219026E+01    0.1000000000000000E-29    0.2504942005183128E+01
    0.1212121212121212E-30    0.1354569463548061E-03    0.1000000000000000E-29
    0.5003221393556912E+01    0.5000000000000000E-30    0.2504942005183128E+01
    0.1212121212121212E-30    0.9645062306590235E-04    0.5000000000000000E-30
    0.5004676757729920E+01    0.1000000000000000E-29    0.1281291415009508E+01
    0.4999999999999996E-30    0.1636229089325703E-03    0.1000000000000000E-29
    0.5004772733264879E+01    0.5000000000000000E-30    0.2775097973707502E-01
    0.9999999999999997E-30    0.1902233958897548E-03    0.5000000000000000E-30
    0.5003581221826302E+01    0.1000000000000000E-29   -0.1225853358115238E+01
    0.4999999999999997E-30    0.1607086140448799E-03    0.1000000000000000E-29
    0.5001952553134341E+01    0.5000000000000000E-30   -0.2496589016201703E+01
    0.1212121212121212E-30    0.1082092391279099E-03    0.5000000000000000E-30
    0.3750348122005743E+01    0.1000000000000000E-29   -0.2496589016201703E+01
    0.1212121212121212E-30    0.1458754894506087E-03    0.1000000000000000E-29
    0.2498611463539369E+01    0.5000000000000000E-30   -0.2496589016201703E+01
    0.1212121212121212E-30    0.1009099588109019E-03    0.5000000000000000E-30
    0.1247175261509184E+01    0.1000000000000000E-29   -0.2496589016201703E+01
    0.1212121212121212E-30    0.1108958292210249E-03    0.1000000000000000E-29
   -0.3383969652657637E-02    0.5000000000000001E-30   -0.2496589016201703E+01
    0.1212121212121212E-30    0.8113625948968917E-04    0.5000000000000000E-30
   -0.4257789880244722E-02    0.1000000000000000E-29   -0.1225734673000734E+01
    0.4999999999999997E-30    0.3418763781409817E-04    0.1000000000000000E-29
   -0.5251625685942951E-02    0.5000000000000001E-30    0.2619501496228406E-01
    0.9999999999999997E-30    0.1038778534219187E-03    0.5000000000000000E-30
   -0.5676101163759828E-02    0.1000000000000000E-29    0.1278221743537384E+01
    0.4999999999999997E-30    0.8222048501205226E-04    0.1000000000000000E-29
    0.9003209217916410E+00    0.5000000000000001E-30    0.1608979307793919E+01
    0.9999999999999997E-30    0.8697981908400987E-04    0.5000000000000000E-30
    0.3983172228635222E+01    0.1000000000000000E-29   -0.1561211762265163E+01
    0.4999999999999997E-30    0.1756748191494295E-03    0.1000000000000000E-29
    0.4035602079387201E+01    0.5000000000000000E-30    0.1486760266132127E+01
    0.9999999999999996E-30    0.1711706614120900E-03    0.5000000000000000E-30
    0.1036613706197514E+01    0.1000000000000000E-29   -0.1455626287804053E+01
    0.4999999999999997E-30    0.1047334496957486E-03    0.1000000000000000E-29
    0.1094353449885533E+01    0.5000000000000001E-30   -0.2964620398686504E+00
    0.9999999999999994E-30    0.1260432266615430E-03    0.5000000000000000E-30
    0.7298399877475077E+00    0.1000000000000000E-29    0.6874686505187871E+00
    0.4999999999999990E-30    0.1044287163688429E-03    0.1000000000000000E-29
    0.1617018623562922E+01    0.5000000000000001E-30    0.8553209978724499E+00
    0.9999999999999990E-30    0.1529204508723958E-03    0.5000000000000000E-30
    0.2143199653243058E+01    0.1000000000000000E-29   -0.1627128369719471E+01
    0.4999999999999997E-30    0.1606130186569965E-03    0.1000000000000000E-29
    0.4088840479724988E+01    0.5000000000000000E-30   -0.4351046111772547E+00
    0.9999999999999997E-30    0.2719112872097695E-03    0.5000000000000000E-30
    0.2977916509313417E+01    0.1000000000000000E-29   -0.8334989944044713E+00
    0.4999999999999992E-30    0.2245152481764046E-03    0.1000000000000000E-29
    0.3044093243998018E+01    0.5000000000000000E-30   -0.1814361085627647E+01
    0.9999999999999997E-30    0.1616866746874113E-03    0.5000000000000000E-30
    0.3427866629114648E+01    0.1000000000000000E-29    0.3813906924771510E+00
    0.4999999999999995E-30    0.2935982215775401E-03    0.1000000000000000E-29
    0.4313225407775388E+01    0.5000000000000000E-30    0.5489135452878156E+00
    0.9999999999999990E-30    0.2311713278243532E-03    0.5000000000000000E-30
    0.1823032713305206E+01    0.1000000000000000E-29    0.1771265414472351E+01
    0.4999999999999996E-30    0.1835256048548506E-03    0.1000000000000000E-29
    0.2806311149527161E+01    0.5000000000000000E-30    0.1358629605773757E+01
    0.9999999999999996E-30    0.1942351430203604E-03    0.5000000000000000E-30
    0.1891860854168060E+01    0.1000000000000000E-29   -0.8481308814089863E+00
    0.4999999999999992E-30    0.1670436315511781E-03    0.1000000000000000E-29
    0.2268769174863575E+01    0.5000000000000001E-30    0.7723710290791078E-01
    0.9999999999999997E-30    0.2071744350432003E-03    0.5000000000000000E-30
    0.5000000000000000E+01   -0.5732514510782119E-48    0.2504942005183128E+01
    0.1212121212121212E-30    0.1250000000000000E+01   -0.5732514510782119E-48
    0.5000000000000000E+01   -0.5732514510782119E-48    0.2504942005183128E+01
    0.1212121212121212E-30    0.2500000000000000E+01   -0.5732514510782119E-48
    0.5000000000000000E+01   -0.5732514510782119E-48    0.2504942005183128E+01
    0.1212121212121212E-30    0.3750000000000000E+01   -0.5732514510782119E-48
    0.5000000000000000E+01   -0.5732514510782119E-48    0.2504942005183128E+01
    0.1212121212121212E-30    0.5000000000000000E+01   -0.5732514510782119E-48
    0.3750000000000000E+01   -0.5732514510782119E-48    0.2504942005183128E+01
    0.1212121212121212E-30    0.5000000000000000E+01   -0.5732514510782119E-48
    0.2500000000000000E+01   -0.5732514510782119E-48    0.2504942005183128E+01
    0.1212121212121212E-30    0.5000000000000000E+01   -0.5732514510782119E-48
    0.1250000000000000E+01   -0.5732514510782119E-48    0.2504942005183128E+01
    0.1212121212121212E-30    0.5000000000000000E+01   -0.5732514510782119E-48
   -0.2953000734049065E-20   -0.5732514510782119E-48    0.2504942005183128E+01
    0.1212121212121212E-30    0.5000000000000000E+01   -0.5732514510782119E-48
   -0.2953000734049065E-20   -0.5732514510782119E-48    0.2504942005183128E+01
    0.1212121212121212E-30    0.3750000000000000E+01   -0.5732514510782119E-48
   -0.2953000734049065E-20   -0.5732514510782119E-48    0.2504942005183128E+01
    0.1212121212121212E-30    0.2500000000000000E+01   -0.5732514510782119E-48
   -0.2953000734049065E-20   -0.5732514510782119E-48    0.2504942005183128E+01
    0.1212121212121212E-30    0.1250000000000000E+01   -0.5732514510782119E-48
    0.9588956281564854E+00    0.4088323204879485E-30    0.2504942005183128E+01
    0.1212121212121212E-30    0.9696525381352059E+00    0.8253355966551715E-30
    0.3981953078738458E+01    0.7369699780760079E-31    0.2504942005183128E+01
    0.1212121212121212E-30    0.4070563842685061E+01    0.1516277355828637E-30
    0.4036122227630946E+01    0.5331184872987383E-30    0.2504942005183128E+01
    0.1212121212121212E-30    0.1017567397295510E+01    0.8139234257758009E-30
    0.9637572814423744E+00   -0.9331067766442815E-32    0.2504942005183128E+01
    0.1212121212121212E-30    0.3973598195302102E+01    0.1306014370159859E-30
    0.1546540145187409E+01    0.8002905657924125E-31    0.2504942005183128E+01
    0.1212121212121212E-30    0.2931570146914614E+01    0.3996885550961209E-30
    0.6973799555340370E+00    0.3481309068425587E-32    0.2504942005183128E+01
    0.1212121212121212E-30    0.3070319941807038E+01    0.2100037182687849E-30
    0.8903742131192846E+00    0.7712488796354889E-31    0.2504942005183128E+01
    0.1212121212121212E-30    0.2056562221911888E+01    0.4294668085393751E-30
    0.2183042000953213E+01    0.3782461580951066E-31    0.2504942005183128E+01
    0.1212121212121212E-30    0.3960694433663585E+01    0.2259705361712551E-30
    0.3855844876673410E+01    0.1784932175604527E-30    0.2504942005183128E+01
    0.1212121212121212E-30    0.2933250553336676E+01    0.3558534735535044E-30
    0.3152611372409048E+01    0.1115283363379683E-30    0.2504942005183128E+01
    0.1212121212121212E-30    0.3637668364444231E+01    0.2959845527154782E-30
    0.3103307387203378E+01    0.5185271477211362E-31    0.2504942005183128E+01
    0.1212121212121212E-30    0.4332607801661249E+01    0.1521436499776919E-30
    0.3266711063326201E+01    0.3601961362738234E-30    0.2504942005183128E+01
    0.1212121212121212E-30    0.1889656537914599E+01    0.6353768785672576E-30
    0.4232537560707505E+01    0.2580489315428139E-30    0.2504942005183128E+01
    0.1212121212121212E-30    0.1918626923072698E+01    0.4090791405808598E-30
    0.1905522367558317E+01    0.6572817491138504E-30    0.2504942005183128E+01
    0.1212121212121212E-30    0.7226290082749999E+00    0.8977306600900022E-30
    0.2879767751810808E+01    0.6107141644545625E-30    0.2504942005183128E+01
    0.1212121212121212E-30    0.9080944620494492E+00    0.8180347387425747E-30
    0.2012711380865913E+01    0.3615868018462214E-30    0.2504942005183128E+01
    0.1212121212121212E-30    0.1767082331614309E+01    0.7060364642884745E-30
    0.2669681485317003E+01    0.1849800474542280E-30    0.2504942005183128E+01
    0.1212121212121212E-30    0.2853394290310446E+01    0.4820509466868500E-30
    0.5000000000000000E+01   -0.5732514510782119E-48    0.1250000000000000E+01
   -0.5732514510782119E-48    0.5000000000000000E+01   -0.5732514510782119E-48
    0.5000000000000000E+01   -0.5732514510782119E-48   -0.2953000734049065E-20
[...]
POINT_DATA 213
SCALARS u double 1
LOOKUP_TABLE default
   0.9999813700432049E+00
  -0.4156211952980353E-31
   0.1000027587052780E+01
   0.5333432015832950E-31
   0.1000058966049707E+01
  -0.2223353471265493E-31
   0.1000048982060650E+01
  -0.5550320229285957E-31
   0.1000014679892351E+01
  -0.3664137830049953E-31
   0.1000011111248804E+01
  -0.1104701557725738E-30
   0.1000014335379009E+01
  -0.8635797375392738E-31
   0.1000016492829503E+01
  -0.5480418760099336E-31
   0.1000019745523050E+01
   0.8788688478140844E-31
   0.1000055522163575E+01
   0.3536233491782112E-31
   0.1000053116811324E+01
  -0.3719004868515474E-31
   0.1000036341506744E+01
   0.1957218176314261E-30
   0.9999937670113619E+00
   0.1876762697639333E-31
   0.9999922598812154E+00
  -0.1376348284960887E-31
   0.9999885831598972E+00
   0.3396924549194228E-31
   0.9999837538644520E+00
  -0.1053662657385827E-31
   0.1000009995868883E+01
  -0.3113946107904951E-31
   0.1000062862686132E+01
   0.4695794391261897E-31
   0.1000053284860536E+01
  -0.7625375514457175E-31
   0.1000034650148671E+01
   0.9218743398839592E-31
   0.1000020923110864E+01
  -0.3988203330263286E-31
   0.1000002601659214E+01
   0.5234470017692557E-32
   0.1000037948496380E+01
  -0.1144717098556693E-30
   0.1000057298280916E+01
   0.4271937884464692E-31
   0.1000066728751209E+01
  -0.9640949954973066E-31
   0.1000076951532209E+01
   0.1709493168568153E-31
   0.1000065346675905E+01
  -0.4966748957606937E-31
   0.1000081053216088E+01
   0.2673682528616795E-31
   0.1000056377016554E+01
  -0.1658504073661735E-30
   0.1000050756136645E+01
   0.7522742277190041E-32
   0.1000061585688652E+01
  -0.6742246250391991E-31
   0.1000052551501059E+01
   0.4128224558717756E-31
   0.1000063330877887E+01
  -0.8252552040109310E-32
   0.1000008455634801E+01
  -0.3028650910404504E-32
   0.1000005121593803E+01
  -0.1450428957365964E-32
   0.1000002810510643E+01
  -0.2167758038491445E-33
   0.1000001898639729E+01
   0.3571021872912914E-33
   0.9999972101221497E+00
   0.7293681815759410E-33
   0.9999954327187122E+00
   0.4848005624578113E-33
   0.9999951252998728E+00
  -0.1640668894556509E-33
   0.9999969053504599E+00
   0.4059193041407854E-34
   0.9999965868223090E+00
   0.1055827162113358E-33
   0.9999953168073502E+00
   0.9426321430015658E-33
   0.9999924366065450E+00
   0.1103656345489920E-33
   0.1000001123784586E+01
  -0.1303343478740856E-31
   0.9999994251246660E+00
  -0.6871937617658091E-33
   0.1000024151303325E+01
  -0.2278150362013362E-31
   0.9999961480968270E+00
  -0.2646367675533570E-33
   0.9999977225445698E+00
  -0.2184995057970448E-33
   0.9999964676533775E+00
  -0.6251340762827804E-33
   0.9999978971811108E+00
  -0.8976664395053006E-33
   0.9999966118827200E+00
  -0.1490174552181221E-34
   0.1000002931166440E+01
  -0.4942727632482873E-32
   0.9999986856753228E+00
  -0.6746480856585132E-33
   0.9999970692356360E+00
   0.7639658580141953E-34
   0.1000012808162165E+01
  -0.1288051236003215E-31
   0.1000010408609101E+01
  -0.1324167632977491E-31
   0.1000026865269038E+01
   0.1223837640507576E-31
   0.1000034049576957E+01
  -0.2400885374013687E-31
   0.1000007194792901E+01
  -0.1493613092968314E-32
   0.1000000991032266E+01
  -0.1888299692057698E-32
   0.1000002092075169E+01
   0.1196636292038550E-33
   0.1000002117849535E+01
  -0.5722388495234937E-34
   0.1000001809687572E+01
  -0.4286597667715490E-33
   0.1000002017380572E+01
  -0.6593121030896133E-33
   0.1000002838598255E+01
   0.1390923404943056E-34
   0.1000005388246088E+01
   0.2243139874434341E-32
   0.1000009987894511E+01
   0.1078220245004096E-31
   0.1000011386232385E+01
  -0.1018858342573338E-31
   0.1000002732889901E+01
   0.7941840178957866E-34
   0.1000002611140616E+01
  -0.2401067453208148E-33
   0.1000011960937530E+01
   0.9692821661619977E-32
   0.1000009526931047E+01
  -0.1881569935096830E-31
   0.1000009524984208E+01
  -0.3835862356595257E-31
   0.1000009822160650E+01
  -0.5788402047403221E-32
   0.1000006591327911E+01
   0.2634355533234827E-32
   0.1000002616642223E+01
   0.1737044027373636E-34
   0.1000004384556536E+01
   0.3651628942413559E-33
   0.1000003994091650E+01
   0.6983415541674965E-33
   0.1000003218541165E+01
  -0.1833037076337718E-33
   0.1000002618954718E+01
   0.3797687175425634E-34
   0.1000006797134568E+01
  -0.3037301233864671E-32
   0.1000004416670173E+01
  -0.1289041842714099E-32
   0.1000008913429876E+01
   0.3555528154881884E-32
   0.1000006898928468E+01
   0.6500526756346305E-33
   0.9999972415588689E+00
   0.3470217969560820E-34
   0.9999972770955581E+00
   0.4561143512619959E-34
   0.9999971071858477E+00
   0.1720183501203998E-34
   0.9999968167338701E+00
  -0.5105414008210498E-34
   0.9999950213144948E+00
  -0.6079204218162354E-33
   0.9999953955166840E+00
  -0.1493984976753234E-32
   0.9999976011973490E+00
  -0.1571018623106594E-32
   0.9999978670308260E+00
   0.3321048431626225E-33
   0.9999954607537160E+00
  -0.3549391801138253E-33
   0.9999953922580190E+00
  -0.3814378521497139E-34
   0.9999979551682655E+00
  -0.1184191908817309E-32
   0.9999981137693563E+00
  -0.4829807390451307E-33
   0.9999987757065064E+00
  -0.1626276071030045E-33
   0.9999957677683168E+00
  -0.2513926182809097E-34
   0.9999957330098104E+00
  -0.1600428287335485E-32
   0.9999959193777348E+00
  -0.9791858682177235E-34
   0.9999948735245445E+00
  -0.6910168130646955E-33
   0.9999949512069938E+00
  -0.9832418931881835E-33
   0.9999956592629941E+00
  -0.6369649500094534E-34
   0.9999958693898969E+00
   0.7123512890353054E-33
   0.9999951155726218E+00
   0.2637424882487791E-33
   0.9999948157922809E+00
  -0.8966926481591757E-34
   0.9999956359675650E+00
  -0.7258382207405174E-33
   0.9999919372461064E+00
  -0.7196433970741955E-32
   0.9999949209955692E+00
  -0.1182655935048904E-32
   0.9999962709473347E+00
  -0.3661231199817367E-33
   0.9999965660640007E+00
   0.8203522109073052E-34
   0.9999869392284316E+00
  -0.1767842479454291E-31
   0.9999897037214590E+00
   0.4064310141841229E-32
   0.9999963256216394E+00
  -0.6464733770164697E-33
   0.9999966537828311E+00
  -0.1554753850632442E-33
   0.9999968688433246E+00
   0.1171722198291702E-33
   0.9999959081363966E+00
   0.1845268557537753E-33
   0.9999946282148716E+00
  -0.1433262805165714E-32
   0.9999877009226347E+00
   0.2178320915165012E-31
   0.9999917334850661E+00
   0.3754521903681803E-32
   0.9999941696192340E+00
  -0.9483757906166281E-34
   0.9999879724299362E+00
   0.2619154375049911E-31
   0.9999960278345833E+00
   0.1718064669007588E-33
   0.9999943553623033E+00
   0.5594028012465215E-33
   0.9999935683775940E+00
   0.1676799016487382E-32
   0.9999952213088245E+00
   0.3827414350957265E-33
   0.1000008585763672E+01
   0.4917508800083093E-31
   0.9999997846661111E+00
  -0.4292571165440949E-33
   0.1000029270898967E+01
   0.5401253872415640E-31
   0.9999961484910685E+00
  -0.2933607922488724E-33
   0.9999980425943239E+00
   0.2681557617496083E-32
   0.9999962863319787E+00
   0.7572420535237473E-33
   0.9999986551127548E+00
   0.7218588243224631E-32
   0.9999968303726011E+00
  -0.4140003108123326E-33
   0.1000003037118542E+01
   0.1920964396002157E-32
   0.9999993168867694E+00
   0.5093315038384121E-33
   0.9999974926863853E+00
  -0.8990235396858170E-33
   0.1000013898538774E+01
   0.8104477684515723E-32
   0.1000011706742091E+01
   0.9051019676117676E-32
   0.1000033020314261E+01
   0.1202937717345275E-30
   0.1000035153296042E+01
  -0.3237344651242881E-32
   0.1000009728387466E+01
   0.2590117443148053E-31
   0.1000001941704077E+01
   0.4336752332523787E-32
   0.1000001500752914E+01
  -0.2177204358435196E-32
   0.9999970102794384E+00
   0.1023576098448409E-32
   0.9999978430780256E+00
  -0.1066847225573408E-32
   0.1000001889037907E+01
  -0.4074936344924187E-32
   0.9999954679059603E+00
  -0.6665352558503976E-33
   0.9999973609540944E+00
  -0.2489235914746824E-32
   0.1000005074325369E+01
  -0.1446887931424201E-31
   0.9999958286248480E+00
   0.4943547558575293E-33
   0.9999964867370825E+00
  -0.3148655447122741E-33
   0.9999959582205056E+00
  -0.4673675792845474E-33
   0.1000001035131424E+01
  -0.4776542581740219E-32
   0.1000006742231914E+01
  -0.1697057102083676E-31
   0.9999957361306052E+00
  -0.6485608157261865E-33
   0.9999997097817301E+00
  -0.2333714463123052E-32
   0.1000011265021157E+01
  -0.5709312044647604E-32
   0.1000003983372516E+01
  -0.5761418289447489E-32
   0.9999999347148933E+00
  -0.1196713960002105E-32
   0.1000006970112395E+01
  -0.4907055552663716E-32
   0.9999965162729400E+00
  -0.2222763737360155E-33
   0.9999960219635420E+00
   0.2573071912736885E-33
   0.9999976521435208E+00
  -0.2008544249210802E-33
   0.1000004319727880E+01
   0.6998658792987398E-33
   0.1000000065572952E+01
   0.1098683604742034E-32
   0.9999957830619652E+00
   0.8887914373874632E-34
   0.9999961345685051E+00
   0.2846594247413759E-32
   0.1000000744667399E+01
   0.9577102362771872E-32
   0.1000011205808452E+01
   0.4803989079099208E-32
   0.9999956759051621E+00
  -0.2234379454908233E-33
   0.9999961241974141E+00
   0.8116202321392160E-33
   0.1000032129356933E+01
  -0.4283865522165777E-31
   0.1000025085803163E+01
  -0.3957476157092031E-31
   0.1000014628353307E+01
  -0.9049339967133680E-32
   0.1000006205406574E+01
  -0.7589612759986866E-32
   0.1000026428653853E+01
  -0.3549670049248215E-31
   0.1000010689418463E+01
  -0.1469190700536110E-31
   0.1000006534438376E+01
  -0.3003337032869091E-31
   0.9999969956816389E+00
   0.4806587014891451E-32
   0.1000004375944526E+01
  -0.2086061007929489E-32
   0.9999994171362208E+00
  -0.6349536389911841E-33
   0.9999968301656593E+00
  -0.9588856476997135E-34
   0.1000008609440449E+01
   0.2556622448670351E-32
   0.1000005430945360E+01
   0.4216263475462828E-32
   0.1000018024324148E+01
   0.1110090664125089E-31
   0.1000006719020373E+01
   0.3386862242743713E-32
   0.1000001544142039E+01
   0.5397682082841172E-33
   0.1000000954004332E+01
   0.5729430804177129E-33
   0.1000002077656166E+01
   0.4127717446017892E-32
   0.1000017316863285E+01
  -0.2066761924261375E-31
   0.1000025236563760E+01
  -0.5047990683017459E-31
   0.1000021705569277E+01
  -0.2316728710196577E-31
   0.1000012145613529E+01
   0.7358653208457312E-32
   0.1000040672753614E+01
   0.2092454023006775E-31
   0.1000027632199854E+01
   0.6018226455994209E-32
   0.1000020225355215E+01
   0.4125410741818139E-32
   0.1000026401471112E+01
  -0.1583980793801634E-32
   0.1000052777776679E+01
   0.1561791806817832E-31
   0.9999967161152251E+00
  -0.1892034805076575E-33
   0.9999958050538926E+00
  -0.1363556799898803E-33
   0.9999984779144251E+00
  -0.1798137478764687E-33
   0.1000001549915200E+01
  -0.1791676052556404E-32
   0.1000045648918729E+01
  -0.2216106505977195E-31
   0.1000045951621895E+01
  -0.4309159365037399E-31
   0.1000043045609968E+01
   0.4963860892705486E-31
   0.9999970249941944E+00
  -0.1072570779033521E-33
   0.9999988943293152E+00
   0.2520102200879482E-36
   0.1000000451538985E+01
  -0.1729628435550667E-32
   0.1000007920955442E+01
   0.9945766462291547E-32
   0.1000022459451385E+01
   0.4557151777774384E-31
   0.1000050502455477E+01
   0.2464658842239628E-31
SCALARS v double 1
LOOKUP_TABLE default
   0.0000000000000000E+00
   0.0000000000000000E+00
   0.0000000000000000E+00
   0.0000000000000000E+00
   0.0000000000000000E+00
   0.0000000000000000E+00
   0.0000000000000000E+00
   0.0000000000000000E+00
   0.0000000000000000E+00
   0.0000000000000000E+00
  -0.1530107818482061E-04
  -0.2134027842146347E-31
  -0.3576459714063859E-05
  -0.8602262582151631E-31
   0.1330393873226222E-04
  -0.4371236175461362E-31
   0.0000000000000000E+00
   0.0000000000000000E+00
   0.0000000000000000E+00
   0.0000000000000000E+00
   0.0000000000000000E+00
   0.0000000000000000E+00
   0.0000000000000000E+00
   0.0000000000000000E+00
   0.0000000000000000E+00
   0.0000000000000000E+00
   0.1944728457891805E-06
   0.2951527130534182E-32
   0.7726025871337489E-05
   0.2441707435743441E-31
   0.1787536749735283E-05
   0.1055734746074348E-31
   0.6133585347610003E-06
  -0.5255757364598810E-31
   0.1256828559393139E-04
   0.1654351866479756E-31
  -0.7262437699688516E-05
   0.3488383179528349E-32
  -0.1173792160342854E-04
  -0.6272161728009380E-32
   0.2742097865683052E-05
   0.3908339194511690E-31
   0.2656297450077776E-05
   0.5444524331487620E-31
   0.6513196573193277E-05
   0.3325041558641533E-31
  -0.9979851400416469E-05
  -0.3634901138153960E-31
   0.8141635003718392E-05
  -0.2126406544300268E-31
  -0.3349487765617702E-05
  -0.2750355095108755E-31
  -0.8796107837961310E-06
   0.2211255557190523E-31
   0.3569614408277450E-05
  -0.2817082289229922E-31
  -0.1185055273572604E-04
  -0.9126025629913447E-31
   0.1031617168732684E-04
  -0.2708072260617766E-31
   0.8899092142836835E-05
   0.3002198006318351E-31
  -0.8891046159629443E-05
  -0.6075561293714090E-31
   0.2107119045736414E-05
   0.1161192339462536E-32
   0.0000000000000000E+00
   0.0000000000000000E+00
   0.0000000000000000E+00
   0.0000000000000000E+00
   0.0000000000000000E+00
   0.0000000000000000E+00
   0.0000000000000000E+00
   0.0000000000000000E+00
   0.0000000000000000E+00
   0.0000000000000000E+00
   0.0000000000000000E+00
   0.0000000000000000E+00
   0.0000000000000000E+00
   0.0000000000000000E+00
   0.0000000000000000E+00
   0.0000000000000000E+00
   0.0000000000000000E+00
   0.0000000000000000E+00
   0.0000000000000000E+00
   0.0000000000000000E+00
   0.0000000000000000E+00
   0.0000000000000000E+00
   0.0000000000000000E+00
   0.0000000000000000E+00
   0.0000000000000000E+00
   0.0000000000000000E+00
   0.0000000000000000E+00
   0.0000000000000000E+00
   0.0000000000000000E+00
   0.0000000000000000E+00
   0.0000000000000000E+00
   0.0000000000000000E+00
   0.0000000000000000E+00
   0.0000000000000000E+00
   0.0000000000000000E+00
   0.0000000000000000E+00
   0.0000000000000000E+00
   0.0000000000000000E+00
   0.0000000000000000E+00
   0.0000000000000000E+00
   0.0000000000000000E+00
   0.0000000000000000E+00
   0.0000000000000000E+00
   0.0000000000000000E+00
   0.0000000000000000E+00
   0.0000000000000000E+00
   0.0000000000000000E+00
   0.0000000000000000E+00
   0.0000000000000000E+00
   0.0000000000000000E+00
   0.0000000000000000E+00
   0.0000000000000000E+00
   0.0000000000000000E+00
   0.0000000000000000E+00
   0.0000000000000000E+00
   0.0000000000000000E+00
   0.4842374548711370E-06
  -0.6977689094512462E-33
   0.1617970894028010E-06
   0.1201513828850804E-33
   0.6840640539312458E-08
   0.7039962570038907E-33
   0.0000000000000000E+00
   0.0000000000000000E+00
   0.0000000000000000E+00
   0.0000000000000000E+00
   0.0000000000000000E+00
   0.0000000000000000E+00
   0.0000000000000000E+00
   0.0000000000000000E+00
  -0.2716105627988469E-05
   0.1826199704766776E-31
   0.1288614893688232E-06
   0.9230081124201626E-33
   0.7783067810007265E-06
  -0.3948668046118620E-33
   0.3904204411439770E-05
  -0.5047315996104395E-31
   0.2901538382923117E-05
  -0.2721520938212434E-31
  -0.4874744938010448E-05
  -0.4686760655185442E-31
   0.1725084839044206E-05
  -0.3375259770147024E-32
   0.4013858342415884E-07
  -0.3427833007361482E-32
   0.5323636383481350E-06
   0.9203099029576029E-33
   0.5298640811530870E-06
   0.1116696375523846E-34
  -0.2301321616222838E-06
  -0.1457297657812367E-33
   0.1521366214058804E-05
  -0.1058106989953738E-33
   0.7908276059265016E-06
  -0.1481784306953879E-33
   0.1025867909995804E-06
   0.4876069710703656E-32
   0.1331178106974035E-05
   0.2044695062238873E-33
   0.8934987794889529E-06
  -0.9666310549852335E-32
   0.2420649711405144E-05
  -0.6033449854501899E-32
  -0.1268720875662573E-06
   0.1108171655173370E-33
   0.2779855533935674E-07
   0.3447318643231542E-34
   0.1706832633318245E-06
   0.1445326142447797E-33
   0.0000000000000000E+00
   0.0000000000000000E+00
   0.0000000000000000E+00
   0.0000000000000000E+00
   0.0000000000000000E+00
   0.0000000000000000E+00
   0.0000000000000000E+00
   0.0000000000000000E+00
   0.5138950934265986E-06
  -0.6830726477592287E-33
   0.2834531368811080E-06
   0.1277848118144512E-34
  -0.2543261871488389E-06
  -0.2185210711210118E-33
  -0.1986124809185358E-06
   0.4679086993084468E-33
  -0.5167311051240394E-07
   0.5383235282881986E-34
   0.3683353862452338E-06
  -0.5029342131331573E-33
   0.2220592311424816E-06
  -0.7256518637924501E-33
  -0.3157321183021841E-08
  -0.1707204372404388E-33
   0.2615759454448066E-06
   0.5353333163957356E-34
   0.1547371874583373E-06
  -0.3561027591455103E-33
   0.1758383370058613E-06
  -0.9857709910836694E-34
   0.1509007132175253E-06
  -0.7679870931681870E-34
   0.1719503850311577E-06
  -0.6449976570133326E-33
  -0.8904601417375887E-07
  -0.4382607125675905E-33
  -0.3166092890205075E-07
  -0.5638793418754862E-33
  -0.8500365087792786E-07
  -0.2938148536778584E-33
   0.0000000000000000E+00
   0.0000000000000000E+00
   0.0000000000000000E+00
   0.0000000000000000E+00
   0.0000000000000000E+00
   0.0000000000000000E+00
   0.7706483154653921E-07
   0.2619779870904494E-34
  -0.1088094795012571E-06
   0.3961653703236381E-31
   0.1358816983859693E-05
  -0.7984451645914949E-32
  -0.9961806272774257E-07
  -0.4875592750030638E-33
  -0.7145856521432197E-07
   0.1580176644517310E-33
  -0.4169137374013426E-08
   0.1635387877491197E-33
  -0.1350212917357665E-06
   0.7466744479969151E-33
  -0.3752460639332298E-07
  -0.3573568331833077E-32
   0.5913128044089325E-05
  -0.2888383394383920E-31
   0.1024501775883696E-05
  -0.3003865998804741E-32
   0.1665893605303657E-06
   0.2795320604486085E-33
   0.3687316833621604E-05
   0.1963860388962733E-31
   0.1801166003853786E-06
   0.3211268574691064E-33
   0.2456223111246644E-06
   0.1673879102259116E-33
  -0.3766285847683780E-06
   0.3002203172946599E-32
  -0.7483891348996435E-06
   0.8864091430852410E-34
   0.0000000000000000E+00
   0.0000000000000000E+00
   0.0000000000000000E+00
   0.0000000000000000E+00
   0.0000000000000000E+00
   0.0000000000000000E+00
   0.0000000000000000E+00
   0.0000000000000000E+00
   0.0000000000000000E+00
   0.0000000000000000E+00
   0.0000000000000000E+00
   0.0000000000000000E+00
   0.0000000000000000E+00
   0.0000000000000000E+00
   0.0000000000000000E+00
   0.0000000000000000E+00
   0.0000000000000000E+00
   0.0000000000000000E+00
   0.0000000000000000E+00
   0.0000000000000000E+00
   0.0000000000000000E+00
   0.0000000000000000E+00
   0.0000000000000000E+00
   0.0000000000000000E+00
   0.0000000000000000E+00
   0.0000000000000000E+00
   0.0000000000000000E+00
   0.0000000000000000E+00
   0.0000000000000000E+00
   0.0000000000000000E+00
   0.0000000000000000E+00
   0.0000000000000000E+00
   0.0000000000000000E+00
   0.0000000000000000E+00
   0.1352947055904697E-05
   0.3003919356872288E-32
  -0.1224495405063535E-06
   0.9366433120341529E-33
   0.7841757529010550E-06
   0.1131827827720657E-32
   0.1322941149418676E-05
   0.6529492225736278E-32
   0.4153791973356462E-06
   0.1150101069193887E-32
   0.1632975293493314E-05
   0.9722600698857380E-32
   0.3200761559093428E-05
   0.4397572306271498E-32
  -0.2266099813578608E-06
   0.4828006520222154E-33
   0.8272324184320692E-07
  -0.2759915328759562E-33
   0.8107447755604460E-08
   0.7740458192609826E-33
   0.1724353977955276E-05
  -0.2070118020042299E-32
   0.3541262363469907E-05
  -0.2892361835073496E-31
   0.2525414680576509E-07
  -0.2536528799927528E-33
   0.9241956477736075E-06
  -0.1888909713998813E-33
   0.1973237637173548E-05
  -0.1743424835558624E-32
   0.1483108511288418E-05
   0.2209436154281571E-33
   0.1136612037054875E-05
   0.4756038382060803E-33
   0.1937392804542334E-05
  -0.1753707686199860E-32
   0.2483082667485667E-06
   0.5389251967380991E-33
   0.1547257532562906E-06
  -0.4081824611520710E-33
   0.5255342071223222E-06
  -0.4389195985809854E-33
   0.1304965522993939E-05
  -0.4072544333607966E-33
   0.4301343152122748E-06
   0.2550903863712474E-32
  -0.1310318399123462E-06
  -0.4786408317441896E-34
   0.1944249683343654E-06
   0.4752159583271140E-32
  -0.2260669772996254E-06