# vtk DataFile Version 2.0
FUN3D:global_image_vtk
ASCII
DATASET UNSTRUCTURED_GRID
POINTS 213 double
   -0.5474724527974484E-02    0.5000000000000080E-30    0.2504942005183128E+01
    0.1212121212121142E-30    0.8032163479709808E-04    0.5000000000000000E-30
    0.1245419076927911E+01    0.1000000000000005E-29    0.2504942005183128E+01
    0.1212121212121142E-30    0.1038423406333200E-03    0.1000000000000000E-29
    0.2497696090160995E+01    0.5000000000000027E-30    0.2504942005183128E+01
    0.1212121212121142E-30    0.1099835811035899E-03    0.5000000000000000E-30
    0.3750591000219026E+01    0.1000000000000000E-29    0.2504942005183128E+01
    0.1212121212121142E-30    0.1354569463548061E-03    0.1000000000000000E-29
    0.5003221393556912E+01    0.4999999999999974E-30    0.2504942005183128E+01
    0.1212121212121142E-30    0.9645062306590235E-04    0.5000000000000000E-30
    0.5004676757729920E+01    0.9999999999999948E-30    0.1281291415009508E+01
    0.4999999999999549E-30    0.1636229089325703E-03    0.1000000000000000E-29
    0.5004772733264879E+01    0.4999999999999921E-30    0.2775097973707502E-01
    0.9999999999999629E-30    0.1902233958897548E-03    0.5000000000000000E-30
    0.5003581221826302E+01    0.1000000000000000E-29   -0.1225853358115238E+01
    0.4999999999999655E-30    0.1607086140448799E-03    0.1000000000000000E-29
    0.5001952553134341E+01    0.4999999999999974E-30   -0.2496589016201703E+01
    0.1212121212121164E-30    0.1082092391279099E-03    0.5000000000000000E-30
    0.3750348122005743E+01    0.1000000000000000E-29   -0.2496589016201703E+01
    0.1212121212121164E-30    0.1458754894506087E-03    0.1000000000000000E-29
    0.2498611463539369E+01    0.5000000000000027E-30   -0.2496589016201703E+01
    0.1212121212121164E-30    0.1009099588109019E-03    0.5000000000000000E-30
    0.1247175261509184E+01    0.1000000000000005E-29   -0.2496589016201703E+01
    0.1212121212121164E-30    0.1108958292210249E-03    0.1000000000000000E-29
   -0.3383969652657637E-02    0.5000000000000054E-30   -0.2496589016201703E+01
    0.1212121212121164E-30    0.8113625948968917E-04    0.5000000000000000E-30
   -0.4257789880244722E-02    0.1000000000000005E-29   -0.1225734673000734E+01
    0.4999999999999655E-30    0.3418763781409797E-04    0.1000000000000000E-29
   -0.5251625685942951E-02    0.5000000000000080E-30    0.2619501496228406E-01
    0.9999999999999629E-30    0.1038778534219187E-03    0.5000000000000000E-30
   -0.5676101163759828E-02    0.1000000000000011E-29    0.1278221743537384E+01
    0.4999999999999603E-30    0.8222048501205226E-04    0.1000000000000000E-29
    0.9003209217916410E+00    0.5000000000000080E-30    0.1608979307793919E+01
    0.9999999999999577E-30    0.8697981908400987E-04    0.5000000000000000E-30
    0.3983172228635222E+01    0.1000000000000000E-29   -0.1561211762265163E+01
    0.4999999999999655E-30    0.1756748191494295E-03    0.1000000000000000E-29
    0.4035602079387201E+01    0.5000000000000000E-30    0.1486760266132127E+01
    0.9999999999999523E-30    0.1711706614120900E-03    0.5000000000000000E-30
    0.1036613706197514E+01    0.1000000000000005E-29   -0.1455626287804053E+01
    0.4999999999999655E-30    0.1047334496957486E-03    0.1000000000000000E-29
    0.1094353449885533E+01    0.5000000000000080E-30   -0.2964620398686487E+00
    0.9999999999999416E-30    0.1260432266615430E-03    0.5000000000000000E-30
    0.7298399877475077E+00    0.1000000000000011E-29    0.6874686505187906E+00
    0.4999999999999175E-30    0.1044287163688429E-03    0.1000000000000000E-29
    0.1617018623562922E+01    0.5000000000000080E-30    0.8553209978724533E+00
    0.9999999999999150E-30    0.1529204508723958E-03    0.5000000000000000E-30
    0.2143199653243058E+01    0.1000000000000005E-29   -0.1627128369719471E+01
    0.4999999999999655E-30    0.1606130186569965E-03    0.1000000000000000E-29
    0.4088840479724988E+01    0.4999999999999974E-30   -0.4351046111772547E+00
    0.9999999999999629E-30    0.2719112872097695E-03    0.5000000000000000E-30
    0.2977916509313417E+01    0.1000000000000005E-29   -0.8334989944044712E+00
    0.4999999999999282E-30    0.2245152481764046E-03    0.1000000000000000E-29
    0.3044093243998018E+01    0.5000000000000027E-30   -0.1814361085627647E+01
    0.9999999999999682E-30    0.1616866746874113E-03    0.5000000000000000E-30
    0.3427866629114648E+01    0.1000000000000000E-29    0.3813906924771510E+00
    0.4999999999999548E-30    0.2935982215775401E-03    0.1000000000000000E-29
    0.4313225407775388E+01    0.4999999999999974E-30    0.5489135452878190E+00
    0.9999999999999150E-30    0.2311713278243532E-03    0.5000000000000000E-30
    0.1823032713305206E+01    0.1000000000000005E-29    0.1771265414472351E+01
    0.4999999999999549E-30    0.1835256048548506E-03    0.1000000000000000E-29
    0.2806311149527161E+01    0.5000000000000027E-30    0.1358629605773757E+01
    0.9999999999999523E-30    0.1942351430203604E-03    0.5000000000000000E-30
    0.1891860854168060E+01    0.1000000000000005E-29   -0.8481308814089862E+00
    0.4999999999999282E-30    0.1670436315511781E-03    0.1000000000000000E-29
    0.2268769174863575E+01    0.5000000000000080E-30    0.7723710290791078E-01
    0.9999999999999629E-30    0.2071744350432003E-03    0.5000000000000000E-30
    0.5000000000000000E+01   -0.7704211054341983E-46    0.2504942005183128E+01
    0.1212121212121142E-30    0.1250000000000000E+01   -0.7704211054341983E-46
    0.5000000000000000E+01   -0.7704211054341983E-46    0.2504942005183128E+01
    0.1212121212121142E-30    0.2500000000000000E+01   -0.7704211054341983E-46
    0.5000000000000000E+01   -0.7704211054341983E-46    0.2504942005183128E+01
    0.1212121212121142E-30    0.3750000000000000E+01   -0.7704211054341983E-46
    0.5000000000000000E+01   -0.7704211054341983E-46    0.2504942005183128E+01
    0.1212121212121142E-30    0.5000000000000000E+01   -0.7704211054341983E-46
    0.3750000000000000E+01   -0.7704211054341983E-46    0.2504942005183128E+01
    0.1212121212121142E-30    0.5000000000000000E+01   -0.7704211054341983E-46
    0.2500000000000000E+01   -0.7704211054341983E-46    0.2504942005183128E+01
    0.1212121212121142E-30    0.5000000000000000E+01   -0.7704211054341983E-46
    0.1250000000000000E+01   -0.7704211054341983E-46    0.2504942005183128E+01
    0.1212121212121142E-30    0.5000000000000000E+01   -0.7704211054341983E-46
   -0.3054337791863729E-18   -0.7704211054341983E-46    0.2504942005183128E+01
    0.1212121212121142E-30    0.5000000000000000E+01   -0.7704211054341983E-46
   -0.3054337791863729E-18   -0.7704211054341983E-46    0.2504942005183128E+01
    0.1212121212121142E-30    0.3750000000000000E+01   -0.7704211054341983E-46
   -0.3054337791863729E-18   -0.7704211054341983E-46    0.2504942005183128E+01
    0.1212121212121142E-30    0.2500000000000000E+01   -0.7704211054341983E-46
   -0.3054337791863729E-18   -0.7704211054341983E-46    0.2504942005183128E+01
    0.1212121212121142E-30    0.1250000000000000E+01   -0.7704211054341983E-46
    0.9588956281564857E+00    0.4088323204876358E-30    0.2504942005183128E+01
    0.1212121212121142E-30    0.9696525381352060E+00    0.8253355966550559E-30
    0.3981953078738457E+01    0.7369699780826454E-31    0.2504942005183128E+01
    0.1212121212121142E-30    0.4070563842685061E+01    0.1516277355821694E-30
    0.4036122227630947E+01    0.5331184872985098E-30    0.2504942005183128E+01
    0.1212121212121142E-30    0.1017567397295510E+01    0.8139234257757274E-30
    0.9637572814423739E+00   -0.9331067766528536E-32    0.2504942005183128E+01
    0.1212121212121142E-30    0.3973598195302102E+01    0.1306014370153684E-30
    0.1546540145187408E+01    0.8002905657875912E-31    0.2504942005183128E+01
    0.1212121212121142E-30    0.2931570146914614E+01    0.3996885550954719E-30
    0.6973799555340369E+00    0.3481309067927442E-32    0.2504942005183128E+01
    0.1212121212121142E-30    0.3070319941807038E+01    0.2100037182682528E-30
    0.8903742131192849E+00    0.7712488796261582E-31    0.2504942005183128E+01
    0.1212121212121142E-30    0.2056562221911888E+01    0.4294668085387971E-30
    0.2183042000953212E+01    0.3782461580976765E-31    0.2504942005183128E+01
    0.1212121212121142E-30    0.3960694433663585E+01    0.2259705361705772E-30
    0.3855844876673410E+01    0.1784932175605978E-30    0.2504942005183128E+01
    0.1212121212121142E-30    0.2933250553336677E+01    0.3558534735526583E-30
    0.3152611372409047E+01    0.1115283363385502E-30    0.2504942005183128E+01
    0.1212121212121142E-30    0.3637668364444230E+01    0.2959845527139570E-30
    0.3103307387203377E+01    0.5185271477268607E-31    0.2504942005183128E+01
    0.1212121212121142E-30    0.4332607801661248E+01    0.1521436499771093E-30
    0.3266711063326202E+01    0.3601961362730549E-30    0.2504942005183128E+01
    0.1212121212121142E-30    0.1889656537914600E+01    0.6353768785667137E-30
    0.4232537560707506E+01    0.2580489315425577E-30    0.2504942005183128E+01
    0.1212121212121142E-30    0.1918626923072698E+01    0.4090791405802660E-30
    0.1905522367558318E+01    0.6572817491134616E-30    0.2504942005183128E+01
    0.1212121212121142E-30    0.7226290082750000E+00    0.8977306600899444E-30
    0.2879767751810809E+01    0.6107141644542972E-30    0.2504942005183128E+01
    0.1212121212121142E-30    0.9080944620494492E+00    0.8180347387425747E-30
    0.2012711380865913E+01    0.3615868018452991E-30    0.2504942005183128E+01
    0.1212121212121142E-30    0.1767082331614309E+01    0.7060364642881224E-30
    0.2669681485317002E+01    0.1849800474537977E-30    0.2504942005183128E+01
    0.1212121212121142E-30    0.2853394290310446E+01    0.4820509466859357E-30
    0.5000000000000000E+01   -0.7704211054341983E-46    0.1250000000000000E+01
   -0.7704211054341983E-46    0.5000000000000000E+01   -0.7704211054341983E-46
    0.5000000000000000E+01   -0.7704211054341983E-46   -0.3054337791863729E-18
[...]
POINT_DATA 213
SCALARS u double 1
LOOKUP_TABLE default
   0.9999813700427743E+00
  -0.4156212042730933E-31
   0.1000027587052378E+01
   0.5333432039461554E-31
   0.1000058966049425E+01
  -0.2223353575789898E-31
   0.1000048982061426E+01
  -0.5550320404756392E-31
   0.1000014679893219E+01
  -0.3664137928650574E-31
   0.1000011111249618E+01
  -0.1104701582253870E-30
   0.1000014335378960E+01
  -0.8635797510777640E-31
   0.1000016492828070E+01
  -0.5480418714938649E-31
   0.1000019745520765E+01
   0.8788688737770706E-31
   0.1000055522160220E+01
   0.3536233996733348E-31
   0.1000053116810860E+01
  -0.3719004597866307E-31
   0.1000036341507507E+01
   0.1957218178060094E-30
   0.9999937670119368E+00
   0.1876762597418975E-31
   0.9999922598811419E+00
  -0.1376348298794087E-31
   0.9999885831599821E+00
   0.3396924575653623E-31
   0.9999837538644345E+00
  -0.1053662620424225E-31
   0.1000009995868704E+01
  -0.3113946046896803E-31
   0.1000062862682711E+01
   0.4695794708070933E-31
   0.1000053284861780E+01
  -0.7625375835902999E-31
   0.1000034650148647E+01
   0.9218743452397099E-31
   0.1000020923110685E+01
  -0.3988203293190707E-31
   0.1000002601659181E+01
   0.5234470759991700E-32
   0.1000037948496246E+01
  -0.1144717095982911E-30
   0.1000057298280147E+01
   0.4271938085302186E-31
   0.1000066728749817E+01
  -0.9640950062641274E-31
   0.1000076951530974E+01
   0.1709493265086729E-31
   0.1000065346674000E+01
  -0.4966748614211738E-31
   0.1000081053216402E+01
   0.2673682267699614E-31
   0.1000056377017416E+01
  -0.1658504117163821E-30
   0.1000050756136221E+01
   0.7522742383615199E-32
   0.1000061585688780E+01
  -0.6742246425015105E-31
   0.1000052551500348E+01
   0.4128224666524012E-31
   0.1000063330877610E+01
  -0.8252552524915345E-32
   0.1000008455634369E+01
  -0.3028649577993223E-32
   0.1000005121593624E+01
  -0.1450428792320022E-32
   0.1000002810510639E+01
  -0.2167765820661947E-33
   0.1000001898639856E+01
   0.3571047854459719E-33
   0.9999972101226119E+00
   0.7293759388514374E-33
   0.9999954327190799E+00
   0.4848045697738376E-33
   0.9999951253002616E+00
  -0.1640667802381405E-33
   0.9999969053505230E+00
   0.4059085000637299E-34
   0.9999965868222486E+00
   0.1055828122355633E-33
   0.9999953168073504E+00
   0.9426321925934116E-33
   0.9999924366065319E+00
   0.1103656136593336E-33
   0.1000001123784434E+01
  -0.1303343477445541E-31
   0.9999994251248118E+00
  -0.6871939754375972E-33
   0.1000024151302567E+01
  -0.2278150115931179E-31
   0.9999961480969928E+00
  -0.2646375246103967E-33
   0.9999977225448557E+00
  -0.2185007600016014E-33
   0.9999964676534314E+00
  -0.6251343713724477E-33
   0.9999978971810715E+00
  -0.8976666754185758E-33
   0.9999966118831386E+00
  -0.1490281706367021E-34
   0.1000002931166462E+01
  -0.4942729295192633E-32
   0.9999986856756848E+00
  -0.6746493699145604E-33
   0.9999970692360327E+00
   0.7639723312081373E-34
   0.1000012808161858E+01
  -0.1288051192794366E-31
   0.1000010408608515E+01
  -0.1324167498973442E-31
   0.1000026865268692E+01
   0.1223837681714130E-31
   0.1000034049575919E+01
  -0.2400885104338398E-31
   0.1000007194792850E+01
  -0.1493613489153013E-32
   0.1000000991032580E+01
  -0.1888301534898778E-32
   0.1000002092075196E+01
   0.1196654093747056E-33
   0.1000002117849307E+01
  -0.5722482430047997E-34
   0.1000001809686923E+01
  -0.4286610115837117E-33
   0.1000002017379972E+01
  -0.6593128518378667E-33
   0.1000002838598296E+01
   0.1390924981399946E-34
   0.1000005388246720E+01
   0.2243139835493655E-32
   0.1000009987895247E+01
   0.1078220245845927E-31
   0.1000011386232323E+01
  -0.1018858283243373E-31
   0.1000002732889914E+01
   0.7941861562650320E-34
   0.1000002611140663E+01
  -0.2401071627584345E-33
   0.1000011960938251E+01
   0.9692821815829537E-32
   0.1000009526931459E+01
  -0.1881569922224710E-31
   0.1000009524984215E+01
  -0.3835862336607792E-31
   0.1000009822160607E+01
  -0.5788401748171297E-32
   0.1000006591328405E+01
   0.2634355477119557E-32
   0.1000002616642064E+01
   0.1737037132638308E-34
   0.1000004384556636E+01
   0.3651630121395185E-33
   0.1000003994091908E+01
   0.6983415945819963E-33
   0.1000003218541216E+01
  -0.1833036749629248E-33
   0.1000002618954654E+01
   0.3797698973997791E-34
   0.1000006797134311E+01
  -0.3037300573638228E-32
   0.1000004416670143E+01
  -0.1289041959038333E-32
   0.1000008913430293E+01
   0.3555528322141949E-32
   0.1000006898928582E+01
   0.6500527956140792E-33
   0.9999972415588545E+00
   0.3470217902919704E-34
   0.9999972770955388E+00
   0.4561165261915851E-34
   0.9999971071858409E+00
   0.1720181642925826E-34
   0.9999968167339196E+00
  -0.5105372715350575E-34
   0.9999950213145911E+00
  -0.6079199743068892E-33
   0.9999953955165558E+00
  -0.1493986020678307E-32
   0.9999976011966089E+00
  -0.1571021616896935E-32
   0.9999978670309740E+00
   0.3321101679783714E-33
   0.9999954607537705E+00
  -0.3549387230007950E-33
   0.9999953922581190E+00
  -0.3814382974726476E-34
   0.9999979551670028E+00
  -0.1184194430342299E-32
   0.9999981137684935E+00
  -0.4829832456714562E-33
   0.9999987757062270E+00
  -0.1626272662099999E-33
   0.9999957677679915E+00
  -0.2513874492454099E-34
   0.9999957330093089E+00
  -0.1600429937006153E-32
   0.9999959193777840E+00
  -0.9791828264757295E-34
   0.9999948735245514E+00
  -0.6910165675508163E-33
   0.9999949512069685E+00
  -0.9832418266518559E-33
   0.9999956592630049E+00
  -0.6369650748897869E-34
   0.9999958693901484E+00
   0.7123561773214147E-33
   0.9999951155727542E+00
   0.2637442719314662E-33
   0.9999948157921319E+00
  -0.8966921341518000E-34
   0.9999956359669405E+00
  -0.7258391450858050E-33
   0.9999919372457166E+00
  -0.7196433684312134E-32
   0.9999949209955542E+00
  -0.1182655884275255E-32
   0.9999962709473780E+00
  -0.3661231002432896E-33
   0.9999965660640197E+00
   0.8203502340413413E-34
   0.9999869392284304E+00
  -0.1767842549681437E-31
   0.9999897037213298E+00
   0.4064310098075936E-32
   0.9999963256217007E+00
  -0.6464730094716182E-33
   0.9999966537829146E+00
  -0.1554751604987294E-33
   0.9999968688433776E+00
   0.1171720077985163E-33
   0.9999959081363836E+00
   0.1845268506324902E-33
   0.9999946282147436E+00
  -0.1433262579636947E-32
   0.9999877009225975E+00
   0.2178320903475386E-31
   0.9999917334850053E+00
   0.3754521587176911E-32
   0.9999941696191305E+00
  -0.9483731990320995E-34
   0.9999879724299701E+00
   0.2619154403791732E-31
   0.9999960278345480E+00
   0.1718065914640660E-33
   0.9999943553623087E+00
   0.5594028070802151E-33
   0.9999935683775959E+00
   0.1676798948717985E-32
   0.9999952213088756E+00
   0.3827415150987636E-33
   0.1000008585763918E+01
   0.4917508728369497E-31
   0.9999997846658870E+00
  -0.4292578092995518E-33
   0.1000029270900003E+01
   0.5401253923887726E-31
   0.9999961484908954E+00
  -0.2933601270701276E-33
   0.9999980425938920E+00
   0.2681557750813284E-32
   0.9999962863318054E+00
   0.7572423253916180E-33
   0.9999986551127572E+00
   0.7218588010861841E-32
   0.9999968303721657E+00
  -0.4139992765247897E-33
   0.1000003037119283E+01
   0.1920963907988121E-32
   0.9999993168863452E+00
   0.5093317205785810E-33
   0.9999974926859285E+00
  -0.8990238806913848E-33
   0.1000013898540447E+01
   0.8104476309326141E-32
   0.1000011706743800E+01
   0.9051019086997908E-32
   0.1000033020315084E+01
   0.1202937710354178E-30
   0.1000035153297446E+01
  -0.3237345038031194E-32
   0.1000009728387899E+01
   0.2590117331723254E-31
   0.1000001941704021E+01
   0.4336751938172593E-32
   0.1000001500752859E+01
  -0.2177204366814725E-32
   0.9999970102793150E+00
   0.1023576327129788E-32
   0.9999978430780390E+00
  -0.1066847425937967E-32
   0.1000001889037849E+01
  -0.4074936409878109E-32
   0.9999954679058820E+00
  -0.6665352736077350E-33
   0.9999973609539838E+00
  -0.2489235903436206E-32
   0.1000005074325243E+01
  -0.1446887908838096E-31
   0.9999958286248697E+00
   0.4943547461111762E-33
   0.9999964867373047E+00
  -0.3148665112439069E-33
   0.9999959582205523E+00
  -0.4673679354305171E-33
   0.1000001035131394E+01
  -0.4776542803321741E-32
   0.1000006742231770E+01
  -0.1697057066542966E-31
   0.9999957361304393E+00
  -0.6485602255641059E-33
   0.9999997097819039E+00
  -0.2333715530648085E-32
   0.1000011265021144E+01
  -0.5709311970372038E-32
   0.1000003983372634E+01
  -0.5761419932242291E-32
   0.9999999347147990E+00
  -0.1196714236094358E-32
   0.1000006970112445E+01
  -0.4907055867317295E-32
   0.9999965162728006E+00
  -0.2222763138765212E-33
   0.9999960219636047E+00
   0.2573068842970953E-33
   0.9999976521435994E+00
  -0.2008538502010270E-33
   0.1000004319727831E+01
   0.6998660541351759E-33
   0.1000000065572735E+01
   0.1098684008269663E-32
   0.9999957830620250E+00
   0.8887907431067630E-34
   0.9999961345684006E+00
   0.2846593932949052E-32
   0.1000000744667416E+01
   0.9577102018799373E-32
   0.1000011205808593E+01
   0.4803988779879556E-32
   0.9999956759052041E+00
  -0.2234376041852435E-33
   0.9999961241973143E+00
   0.8116205556106332E-33
   0.1000032129356680E+01
  -0.4283865465103158E-31
   0.1000025085803001E+01
  -0.3957476151463308E-31
   0.1000014628353345E+01
  -0.9049339795762756E-32
   0.1000006205406607E+01
  -0.7589613333210758E-32
   0.1000026428653569E+01
  -0.3549669998343144E-31
   0.1000010689418361E+01
  -0.1469190660054772E-31
   0.1000006534438253E+01
  -0.3003337000857603E-31
   0.9999969956816214E+00
   0.4806586436073755E-32
   0.1000004375944547E+01
  -0.2086061416249238E-32
   0.9999994171360833E+00
  -0.6349535498006939E-33
   0.9999968301659730E+00
  -0.9588884517008805E-34
   0.1000008609440709E+01
   0.2556622831167978E-32
   0.1000005430945957E+01
   0.4216263075052759E-32
   0.1000018024325555E+01
   0.1110090638993085E-31
   0.1000006719021433E+01
   0.3386862085812294E-32
   0.1000001544142044E+01
   0.5397681866185281E-33
   0.1000000954003939E+01
   0.5729435199523132E-33
   0.1000002077656173E+01
   0.4127717593872716E-32
   0.1000017316862719E+01
  -0.2066761744617837E-31
   0.1000025236563483E+01
  -0.5047990559640596E-31
   0.1000021705568907E+01
  -0.2316728603147631E-31
   0.1000012145613895E+01
   0.7358653394501796E-32
   0.1000040672753685E+01
   0.2092454032106121E-31
   0.1000027632200903E+01
   0.6018225928378872E-32
   0.1000020225355509E+01
   0.4125410931632139E-32
   0.1000026401471896E+01
  -0.1583980709394565E-32
   0.1000052777776738E+01
   0.1561791816706936E-31
   0.9999967161148463E+00
  -0.1892028346390259E-33
   0.9999958050537827E+00
  -0.1363552797396653E-33
   0.9999984779139435E+00
  -0.1798137406641357E-33
   0.1000001549915227E+01
  -0.1791676700531902E-32
   0.1000045648918599E+01
  -0.2216106470313883E-31
   0.1000045951621995E+01
  -0.4309159443634160E-31
   0.1000043045610112E+01
   0.4963861005358798E-31
   0.9999970249938378E+00
  -0.1072568312163745E-33
   0.9999988943287822E+00
   0.2519173465131049E-36
   0.1000000451539163E+01
  -0.1729629623407893E-32
   0.1000007920955813E+01
   0.9945765830248250E-32
   0.1000022459451749E+01
   0.4557151719375310E-31
   0.1000050502455538E+01
   0.2464658826345645E-31
SCALARS v double 1
LOOKUP_TABLE default
   0.0000000000000000E+00
   0.0000000000000000E+00
   0.0000000000000000E+00
   0.0000000000000000E+00
   0.0000000000000000E+00
   0.0000000000000000E+00
   0.0000000000000000E+00
   0.0000000000000000E+00
   0.0000000000000000E+00
   0.0000000000000000E+00
  -0.1530107778059663E-04
  -0.2134028150103934E-31
  -0.3576459238007440E-05
  -0.8602262829964877E-31
   0.1330393985774072E-04
  -0.4371236243221218E-31
   0.0000000000000000E+00
   0.0000000000000000E+00
   0.0000000000000000E+00
   0.0000000000000000E+00
   0.0000000000000000E+00
   0.0000000000000000E+00
   0.0000000000000000E+00
   0.0000000000000000E+00
   0.0000000000000000E+00
   0.0000000000000000E+00
   0.1944721515916845E-06
   0.2951528205279024E-32
   0.7726025449296137E-05
   0.2441707586551702E-31
   0.1787536090736726E-05
   0.1055734810849253E-31
   0.6133578420734908E-06
  -0.5255757424635949E-31
   0.1256828753751375E-04
   0.1654351550929492E-31
  -0.7262436843288139E-05
   0.3488381153659525E-32
  -0.1173792203236246E-04
  -0.6272162601060974E-32
   0.2742097310013834E-05
   0.3908339081457165E-31
   0.2656296623526438E-05
   0.5444524296277894E-31
   0.6513195720250731E-05
   0.3325041310521885E-31
  -0.9979850880626920E-05
  -0.3634901369815414E-31
   0.8141637278596785E-05
  -0.2126407002769918E-31
  -0.3349485774456162E-05
  -0.2750355611674865E-31
  -0.8796092837231141E-06
   0.2211255248364369E-31
   0.3569616079116513E-05
  -0.2817082810626508E-31
  -0.1185055105527808E-04
  -0.9126026004785006E-31
   0.1031617108192687E-04
  -0.2708072401508610E-31
   0.8899092269034829E-05
   0.3002197706735249E-31
  -0.8891045944886295E-05
  -0.6075561599469558E-31
   0.2107119185977363E-05
   0.1161187929993400E-32
   0.0000000000000000E+00
   0.0000000000000000E+00
   0.0000000000000000E+00
   0.0000000000000000E+00
   0.0000000000000000E+00
   0.0000000000000000E+00
   0.0000000000000000E+00
   0.0000000000000000E+00
   0.0000000000000000E+00
   0.0000000000000000E+00
   0.0000000000000000E+00
   0.0000000000000000E+00
   0.0000000000000000E+00
   0.0000000000000000E+00
   0.0000000000000000E+00
   0.0000000000000000E+00
   0.0000000000000000E+00
   0.0000000000000000E+00
   0.0000000000000000E+00
   0.0000000000000000E+00
   0.0000000000000000E+00
   0.0000000000000000E+00
   0.0000000000000000E+00
   0.0000000000000000E+00
   0.0000000000000000E+00
   0.0000000000000000E+00
   0.0000000000000000E+00
   0.0000000000000000E+00
   0.0000000000000000E+00
   0.0000000000000000E+00
   0.0000000000000000E+00
   0.0000000000000000E+00
   0.0000000000000000E+00
   0.0000000000000000E+00
   0.0000000000000000E+00
   0.0000000000000000E+00
   0.0000000000000000E+00
   0.0000000000000000E+00
   0.0000000000000000E+00
   0.0000000000000000E+00
   0.0000000000000000E+00
   0.0000000000000000E+00
   0.0000000000000000E+00
   0.0000000000000000E+00
   0.0000000000000000E+00
   0.0000000000000000E+00
   0.0000000000000000E+00
   0.0000000000000000E+00
   0.0000000000000000E+00
   0.0000000000000000E+00
   0.0000000000000000E+00
   0.0000000000000000E+00
   0.0000000000000000E+00
   0.0000000000000000E+00
   0.0000000000000000E+00
   0.0000000000000000E+00
   0.4842370289927861E-06
  -0.6977740236127060E-33
   0.1617965045327823E-06
   0.1201464038138592E-33
   0.6840439124381195E-08
   0.7039934707555114E-33
   0.0000000000000000E+00
   0.0000000000000000E+00
   0.0000000000000000E+00
   0.0000000000000000E+00
   0.0000000000000000E+00
   0.0000000000000000E+00
   0.0000000000000000E+00
   0.0000000000000000E+00
  -0.2716105397282644E-05
   0.1826199628324892E-31
   0.1288614277882076E-06
   0.9230075189219724E-33
   0.7783066533377808E-06
  -0.3948679250563272E-33
   0.3904205133861781E-05
  -0.5047315932876943E-31
   0.2901538922769867E-05
  -0.2721520891174575E-31
  -0.4874744504052648E-05
  -0.4686760795566919E-31
   0.1725084985402965E-05
  -0.3375259451422131E-32
   0.4013858381752253E-07
  -0.3427832205931900E-32
   0.5323633556404729E-06
   0.9203089735999148E-33
   0.5298638039818109E-06
   0.1116757656256030E-34
  -0.2301322062163200E-06
  -0.1457296874805781E-33
   0.1521365987487897E-05
  -0.1058104888213048E-33
   0.7908272115604388E-06
  -0.1481806967755338E-33
   0.1025869170549789E-06
   0.4876069960809854E-32
   0.1331178157069031E-05
   0.2044703795588112E-33
   0.8934988492105035E-06
  -0.9666309011885795E-32
   0.2420649653969031E-05
  -0.6033448329934798E-32
  -0.1268718475892048E-06
   0.1108160579587725E-33
   0.2779884916131648E-07
   0.3447199555945496E-34
   0.1706834697440260E-06
   0.1445316657294627E-33
   0.0000000000000000E+00
   0.0000000000000000E+00
   0.0000000000000000E+00
   0.0000000000000000E+00
   0.0000000000000000E+00
   0.0000000000000000E+00
   0.0000000000000000E+00
   0.0000000000000000E+00
   0.5138945546888750E-06
  -0.6830737137200868E-33
   0.2834531662770691E-06
   0.1277878899102349E-34
  -0.2543260023117457E-06
  -0.2185200433774308E-33
  -0.1986127635673578E-06
   0.4679083915523973E-33
  -0.5167366956967451E-07
   0.5383195886010603E-34
   0.3683346625667051E-06
  -0.5029358279871644E-33
   0.2220588699624235E-06
  -0.7256485954338728E-33
  -0.3157701023155510E-08
  -0.1707189249720771E-33
   0.2615760227886611E-06
   0.5353320020479872E-34
   0.1547370457984086E-06
  -0.3561005782805031E-33
   0.1758381872837615E-06
  -0.9857598757438324E-34
   0.1509008187918140E-06
  -0.7679819951991898E-34
   0.1719501695606854E-06
  -0.6449956275792346E-33
  -0.8904616063715568E-07
  -0.4382583372008072E-33
  -0.3166112167772622E-07
  -0.5638763176160085E-33
  -0.8500393885923060E-07
  -0.2938118623746805E-33
   0.0000000000000000E+00
   0.0000000000000000E+00
   0.0000000000000000E+00
   0.0000000000000000E+00
   0.0000000000000000E+00
   0.0000000000000000E+00
   0.7706505821589620E-07
   0.2619662731010219E-34
  -0.1088098646099239E-06
   0.3961653794943691E-31
   0.1358817190446086E-05
  -0.7984450738648440E-32
  -0.9961771614248385E-07
  -0.4875602375015409E-33
  -0.7145817844742296E-07
   0.1580162377355846E-33
  -0.4168808802748751E-08
   0.1635373174655192E-33
  -0.1350213645157167E-06
   0.7466740975916955E-33
  -0.3752440075765230E-07
  -0.3573568420535978E-32
   0.5913127685632956E-05
  -0.2888383245696695E-31
   0.1024501801847840E-05
  -0.3003865888113175E-32
   0.1665893761721694E-06
   0.2795321942050527E-33
   0.3687316455571075E-05
   0.1963860582877525E-31
   0.1801165478583598E-06
   0.3211268409933458E-33
   0.2456222736981232E-06
   0.1673875251674348E-33
  -0.3766285181608695E-06
   0.3002202749916213E-32
  -0.7483890818972749E-06
   0.8864040938142014E-34
   0.0000000000000000E+00
   0.0000000000000000E+00
   0.0000000000000000E+00
   0.0000000000000000E+00
   0.0000000000000000E+00
   0.0000000000000000E+00
   0.0000000000000000E+00
   0.0000000000000000E+00
   0.0000000000000000E+00
   0.0000000000000000E+00
   0.0000000000000000E+00
   0.0000000000000000E+00
   0.0000000000000000E+00
   0.0000000000000000E+00
   0.0000000000000000E+00
   0.0000000000000000E+00
   0.0000000000000000E+00
   0.0000000000000000E+00
   0.0000000000000000E+00
   0.0000000000000000E+00
   0.0000000000000000E+00
   0.0000000000000000E+00
   0.0000000000000000E+00
   0.0000000000000000E+00
   0.0000000000000000E+00
   0.0000000000000000E+00
   0.0000000000000000E+00
   0.0000000000000000E+00
   0.0000000000000000E+00
   0.0000000000000000E+00
   0.0000000000000000E+00
   0.0000000000000000E+00
   0.0000000000000000E+00
   0.0000000000000000E+00
   0.1352946910808002E-05
   0.3003920126270570E-32
  -0.1224494536946162E-06
   0.9366433912557740E-33
   0.7841759406390219E-06
   0.1131827467214404E-32
   0.1322941201936214E-05
   0.6529492426579822E-32
   0.4153793445486434E-06
   0.1150100739099108E-32
   0.1632975226736036E-05
   0.9722601530016133E-32
   0.3200761624031775E-05
   0.4397572733212531E-32
  -0.2266097092653809E-06
   0.4827996962933493E-33
   0.8272339344226804E-07
  -0.2759919033585835E-33
   0.8107570542268523E-08
   0.7740450736194859E-33
   0.1724354090208116E-05
  -0.2070118111334072E-32
   0.3541262321415384E-05
  -0.2892361796448246E-31
   0.2525412267724678E-07
  -0.2536522209671247E-33
   0.9241956046718100E-06
  -0.1888906535335758E-33
   0.1973237477210203E-05
  -0.1743423671224639E-32
   0.1483108334931748E-05
   0.2209446222092963E-33
   0.1136611631296964E-05
   0.4756049288264579E-33
   0.1937392515834473E-05
  -0.1753706275739798E-32
   0.2483080060645675E-06
   0.5389268363985742E-33
   0.1547256948160512E-06
  -0.4081813214656014E-33
   0.5255337787827190E-06
  -0.4389185856049136E-33
   0.1304965017408946E-05
  -0.4072532527858363E-33
   0.4301339137582974E-06
   0.2550905117618983E-32
  -0.1310316189202072E-06
  -0.4786432967344809E-34
   0.1944250114268789E-06
   0.4752159603834882E-32
  -0.2260669692413513E-06