# vtk DataFile Version 2.0
FUN3D:global_image_vtk
ASCII
DATASET UNSTRUCTURED_GRID
POINTS 213 double
   -0.5474724527974484E-02    0.4999999999999993E-30    0.2504942005183128E+01
    0.1212121212121218E-30    0.8032163479709808E-04    0.5000000000000000E-30
    0.1245419076927911E+01    0.1000000000000000E-29    0.2504942005183128E+01
    0.1212121212121218E-30    0.1038423406333200E-03    0.1000000000000000E-29
    0.2497696090160995E+01    0.5000000000000000E-30    0.2504942005183128E+01
    0.1212121212121218E-30    0.1099835811035899E-03    0.5000000000000000E-30
    0.3750591000219026E+01    0.1000000000000000E-29    0.2504942005183128E+01
    0.1212121212121218E-30    0.1354569463548061E-03    0.1000000000000000E-29
    0.5003221393556912E+01    0.5000000000000000E-30    0.2504942005183128E+01
    0.1212121212121218E-30    0.9645062306590235E-04    0.5000000000000000E-30
    0.5004676757729920E+01    0.1000000000000000E-29    0.1281291415009508E+01
    0.5000000000000036E-30    0.1636229089325703E-03    0.1000000000000000E-29
    0.5004772733264879E+01    0.5000000000000007E-30    0.2775097973707502E-01
    0.1000000000000001E-29    0.1902233958897548E-03    0.5000000000000000E-30
    0.5003581221826302E+01    0.1000000000000000E-29   -0.1225853358115238E+01
    0.5000000000000029E-30    0.1607086140448799E-03    0.1000000000000000E-29
    0.5001952553134341E+01    0.5000000000000000E-30   -0.2496589016201703E+01
    0.1212121212121215E-30    0.1082092391279099E-03    0.5000000000000000E-30
    0.3750348122005743E+01    0.1000000000000000E-29   -0.2496589016201703E+01
    0.1212121212121215E-30    0.1458754894506087E-03    0.1000000000000000E-29
    0.2498611463539369E+01    0.5000000000000000E-30   -0.2496589016201703E+01
    0.1212121212121215E-30    0.1009099588109019E-03    0.5000000000000000E-30
    0.1247175261509184E+01    0.1000000000000000E-29   -0.2496589016201703E+01
    0.1212121212121215E-30    0.1108958292210249E-03    0.1000000000000000E-29
   -0.3383969652657637E-02    0.5000000000000000E-30   -0.2496589016201703E+01
    0.1212121212121215E-30    0.8113625948968917E-04    0.5000000000000000E-30
   -0.4257789880244722E-02    0.1000000000000000E-29   -0.1225734673000734E+01
    0.5000000000000029E-30    0.3418763781409817E-04    0.1000000000000000E-29
   -0.5251625685942951E-02    0.4999999999999993E-30    0.2619501496228406E-01
    0.1000000000000001E-29    0.1038778534219187E-03    0.5000000000000000E-30
   -0.5676101163759828E-02    0.1000000000000000E-29    0.1278221743537384E+01
    0.5000000000000029E-30    0.8222048501205226E-04    0.1000000000000000E-29
    0.9003209217916410E+00    0.4999999999999993E-30    0.1608979307793919E+01
    0.1000000000000004E-29    0.8697981908400987E-04    0.5000000000000000E-30
    0.3983172228635222E+01    0.1000000000000000E-29   -0.1561211762265163E+01
    0.5000000000000029E-30    0.1756748191494295E-03    0.1000000000000000E-29
    0.4035602079387201E+01    0.5000000000000000E-30    0.1486760266132127E+01
    0.1000000000000004E-29    0.1711706614120900E-03    0.5000000000000000E-30
    0.1036613706197514E+01    0.1000000000000000E-29   -0.1455626287804053E+01
    0.5000000000000029E-30    0.1047334496957486E-03    0.1000000000000000E-29
    0.1094353449885533E+01    0.4999999999999993E-30   -0.2964620398686504E+00
    0.1000000000000168E-29    0.1260432266615430E-03    0.5000000000000000E-30
    0.7298399877475077E+00    0.1000000000000000E-29    0.6874686505187861E+00
    0.5000000000003600E-30    0.1044287163688429E-03    0.1000000000000000E-29
    0.1617018623562922E+01    0.4999999999999993E-30    0.8553209978724489E+00
    0.1000000000000360E-29    0.1529204508723958E-03    0.5000000000000000E-30
    0.2143199653243058E+01    0.1000000000000000E-29   -0.1627128369719471E+01
    0.5000000000000029E-30    0.1606130186569965E-03    0.1000000000000000E-29
    0.4088840479724988E+01    0.5000000000000000E-30   -0.4351046111772547E+00
    0.1000000000000001E-29    0.2719112872097695E-03    0.5000000000000000E-30
    0.2977916509313417E+01    0.1000000000000000E-29   -0.8334989944044713E+00
    0.5000000000000211E-30    0.2245152481764046E-03    0.1000000000000000E-29
    0.3044093243998018E+01    0.5000000000000000E-30   -0.1814361085627647E+01
    0.1000000000000001E-29    0.1616866746874113E-03    0.5000000000000000E-30
    0.3427866629114648E+01    0.1000000000000000E-29    0.3813906924771510E+00
    0.5000000000000036E-30    0.2935982215775401E-03    0.1000000000000000E-29
    0.4313225407775388E+01    0.5000000000000000E-30    0.5489135452878146E+00
    0.1000000000000360E-29    0.2311713278243532E-03    0.5000000000000000E-30
    0.1823032713305206E+01    0.1000000000000000E-29    0.1771265414472351E+01
    0.5000000000000036E-30    0.1835256048548506E-03    0.1000000000000000E-29
    0.2806311149527161E+01    0.5000000000000000E-30    0.1358629605773757E+01
    0.1000000000000004E-29    0.1942351430203604E-03    0.5000000000000000E-30
    0.1891860854168060E+01    0.1000000000000000E-29   -0.8481308814089863E+00
    0.5000000000000211E-30    0.1670436315511781E-03    0.1000000000000000E-29
    0.2268769174863575E+01    0.4999999999999993E-30    0.7723710290791078E-01
    0.1000000000000001E-29    0.2071744350432003E-03    0.5000000000000000E-30
    0.5000000000000000E+01   -0.2515274195251200E-46    0.2504942005183128E+01
    0.1212121212121218E-30    0.1250000000000000E+01   -0.2515274195251200E-46
    0.5000000000000000E+01   -0.2515274195251200E-46    0.2504942005183128E+01
    0.1212121212121218E-30    0.2500000000000000E+01   -0.2515274195251200E-46
    0.5000000000000000E+01   -0.2515274195251200E-46    0.2504942005183128E+01
    0.1212121212121218E-30    0.3750000000000000E+01   -0.2515274195251200E-46
    0.5000000000000000E+01   -0.2515274195251200E-46    0.2504942005183128E+01
    0.1212121212121218E-30    0.5000000000000000E+01   -0.2515274195251200E-46
    0.3750000000000000E+01   -0.2515274195251200E-46    0.2504942005183128E+01
    0.1212121212121218E-30    0.5000000000000000E+01   -0.2515274195251200E-46
    0.2500000000000000E+01   -0.2515274195251200E-46    0.2504942005183128E+01
    0.1212121212121218E-30    0.5000000000000000E+01   -0.2515274195251200E-46
    0.1250000000000000E+01   -0.2515274195251200E-46    0.2504942005183128E+01
    0.1212121212121218E-30    0.5000000000000000E+01   -0.2515274195251200E-46
    0.2333829444613113E-19   -0.2515274195251200E-46    0.2504942005183128E+01
    0.1212121212121218E-30    0.5000000000000000E+01   -0.2515274195251200E-46
    0.2333829444613113E-19   -0.2515274195251200E-46    0.2504942005183128E+01
    0.1212121212121218E-30    0.3750000000000000E+01   -0.2515274195251200E-46
    0.2333829444613113E-19   -0.2515274195251200E-46    0.2504942005183128E+01
    0.1212121212121218E-30    0.2500000000000000E+01   -0.2515274195251200E-46
    0.2333829444613113E-19   -0.2515274195251200E-46    0.2504942005183128E+01
    0.1212121212121218E-30    0.1250000000000000E+01   -0.2515274195251200E-46
    0.9588956281564855E+00    0.4088323204878731E-30    0.2504942005183128E+01
    0.1212121212121218E-30    0.9696525381352059E+00    0.8253355966551608E-30
    0.3981953078738458E+01    0.7369699780781868E-31    0.2504942005183128E+01
    0.1212121212121218E-30    0.4070563842685061E+01    0.1516277355824667E-30
    0.4036122227630947E+01    0.5331184872986221E-30    0.2504942005183128E+01
    0.1212121212121218E-30    0.1017567397295510E+01    0.8139234257757988E-30
    0.9637572814423742E+00   -0.9331067766379500E-32    0.2504942005183128E+01
    0.1212121212121218E-30    0.3973598195302102E+01    0.1306014370159403E-30
    0.1546540145187409E+01    0.8002905657911779E-31    0.2504942005183128E+01
    0.1212121212121218E-30    0.2931570146914614E+01    0.3996885550960013E-30
    0.6973799555340369E+00    0.3481309068291606E-32    0.2504942005183128E+01
    0.1212121212121218E-30    0.3070319941807037E+01    0.2100037182687563E-30
    0.8903742131192847E+00    0.7712488796321212E-31    0.2504942005183128E+01
    0.1212121212121218E-30    0.2056562221911888E+01    0.4294668085393027E-30
    0.2183042000953213E+01    0.3782461580971807E-31    0.2504942005183128E+01
    0.1212121212121218E-30    0.3960694433663585E+01    0.2259705361709678E-30
    0.3855844876673410E+01    0.1784932175604989E-30    0.2504942005183128E+01
    0.1212121212121218E-30    0.2933250553336677E+01    0.3558534735531614E-30
    0.3152611372409048E+01    0.1115283363381764E-30    0.2504942005183128E+01
    0.1212121212121218E-30    0.3637668364444231E+01    0.2959845527146876E-30
    0.3103307387203377E+01    0.5185271477231541E-31    0.2504942005183128E+01
    0.1212121212121218E-30    0.4332607801661249E+01    0.1521436499773678E-30
    0.3266711063326202E+01    0.3601961362734775E-30    0.2504942005183128E+01
    0.1212121212121218E-30    0.1889656537914600E+01    0.6353768785670558E-30
    0.4232537560707506E+01    0.2580489315426997E-30    0.2504942005183128E+01
    0.1212121212121218E-30    0.1918626923072698E+01    0.4090791405806373E-30
    0.1905522367558317E+01    0.6572817491137518E-30    0.2504942005183128E+01
    0.1212121212121218E-30    0.7226290082749999E+00    0.8977306600900057E-30
    0.2879767751810809E+01    0.6107141644544495E-30    0.2504942005183128E+01
    0.1212121212121218E-30    0.9080944620494492E+00    0.8180347387425733E-30
    0.2012711380865913E+01    0.3615868018458534E-30    0.2504942005183128E+01
    0.1212121212121218E-30    0.1767082331614309E+01    0.7060364642884152E-30
    0.2669681485317002E+01    0.1849800474540565E-30    0.2504942005183128E+01
    0.1212121212121218E-30    0.2853394290310446E+01    0.4820509466865142E-30
    0.5000000000000000E+01   -0.2515274195251200E-46    0.1250000000000000E+01
   -0.2515274195251200E-46    0.5000000000000000E+01   -0.2515274195251200E-46
    0.5000000000000000E+01   -0.2515274195251200E-46    0.2333829444613113E-19
[...]
POINT_DATA 213
SCALARS u double 1
LOOKUP_TABLE default
   0.9999813700427744E+00
  -0.4156212042730940E-31
   0.1000027587052378E+01
   0.5333432039461510E-31
   0.1000058966049425E+01
  -0.2223353575789887E-31
   0.1000048982061426E+01
  -0.5550320404756344E-31
   0.1000014679893219E+01
  -0.3664137928650550E-31
   0.1000011111249618E+01
  -0.1104701582253870E-30
   0.1000014335378959E+01
  -0.8635797510777625E-31
   0.1000016492828070E+01
  -0.5480418714938656E-31
   0.1000019745520765E+01
   0.8788688737770677E-31
   0.1000055522160220E+01
   0.3536233996733258E-31
   0.1000053116810860E+01
  -0.3719004597866373E-31
   0.1000036341507507E+01
   0.1957218178060093E-30
   0.9999937670119364E+00
   0.1876762597418980E-31
   0.9999922598811417E+00
  -0.1376348298794141E-31
   0.9999885831599822E+00
   0.3396924575653649E-31
   0.9999837538644348E+00
  -0.1053662620424184E-31
   0.1000009995868704E+01
  -0.3113946046896800E-31
   0.1000062862682711E+01
   0.4695794708070846E-31
   0.1000053284861780E+01
  -0.7625375835902945E-31
   0.1000034650148646E+01
   0.9218743452397074E-31
   0.1000020923110685E+01
  -0.3988203293190716E-31
   0.1000002601659181E+01
   0.5234470759991893E-32
   0.1000037948496246E+01
  -0.1144717095982910E-30
   0.1000057298280147E+01
   0.4271938085302136E-31
   0.1000066728749817E+01
  -0.9640950062641308E-31
   0.1000076951530974E+01
   0.1709493265086678E-31
   0.1000065346674000E+01
  -0.4966748614211841E-31
   0.1000081053216401E+01
   0.2673682267699647E-31
   0.1000056377017416E+01
  -0.1658504117163816E-30
   0.1000050756136221E+01
   0.7522742383615101E-32
   0.1000061585688780E+01
  -0.6742246425015082E-31
   0.1000052551500349E+01
   0.4128224666523985E-31
   0.1000063330877610E+01
  -0.8252552524915426E-32
   0.1000008455634369E+01
  -0.3028649577993249E-32
   0.1000005121593624E+01
  -0.1450428792319996E-32
   0.1000002810510639E+01
  -0.2167765820662891E-33
   0.1000001898639856E+01
   0.3571047854458978E-33
   0.9999972101226118E+00
   0.7293759388509736E-33
   0.9999954327190798E+00
   0.4848045697735027E-33
   0.9999951253002616E+00
  -0.1640667802380496E-33
   0.9999969053505228E+00
   0.4059085000652790E-34
   0.9999965868222487E+00
   0.1055828122355697E-33
   0.9999953168073503E+00
   0.9426321925933852E-33
   0.9999924366065319E+00
   0.1103656136592444E-33
   0.1000001123784434E+01
  -0.1303343477445553E-31
   0.9999994251248119E+00
  -0.6871939754379682E-33
   0.1000024151302567E+01
  -0.2278150115931160E-31
   0.9999961480969930E+00
  -0.2646375246103142E-33
   0.9999977225448557E+00
  -0.2185007600015607E-33
   0.9999964676534312E+00
  -0.6251343713724605E-33
   0.9999978971810717E+00
  -0.8976666754186270E-33
   0.9999966118831386E+00
  -0.1490281706365256E-34
   0.1000002931166462E+01
  -0.4942729295192723E-32
   0.9999986856756851E+00
  -0.6746493699147434E-33
   0.9999970692360326E+00
   0.7639723312053113E-34
   0.1000012808161858E+01
  -0.1288051192794364E-31
   0.1000010408608516E+01
  -0.1324167498973442E-31
   0.1000026865268692E+01
   0.1223837681714131E-31
   0.1000034049575920E+01
  -0.2400885104338376E-31
   0.1000007194792851E+01
  -0.1493613489153039E-32
   0.1000000991032580E+01
  -0.1888301534898855E-32
   0.1000002092075196E+01
   0.1196654093746594E-33
   0.1000002117849307E+01
  -0.5722482430041394E-34
   0.1000001809686924E+01
  -0.4286610115836003E-33
   0.1000002017379972E+01
  -0.6593128518377634E-33
   0.1000002838598296E+01
   0.1390924981400428E-34
   0.1000005388246719E+01
   0.2243139835493662E-32
   0.1000009987895248E+01
   0.1078220245845924E-31
   0.1000011386232322E+01
  -0.1018858283243376E-31
   0.1000002732889914E+01
   0.7941861562651880E-34
   0.1000002611140663E+01
  -0.2401071627584499E-33
   0.1000011960938251E+01
   0.9692821815829528E-32
   0.1000009526931459E+01
  -0.1881569922224707E-31
   0.1000009524984215E+01
  -0.3835862336607790E-31
   0.1000009822160607E+01
  -0.5788401748171446E-32
   0.1000006591328405E+01
   0.2634355477119580E-32
   0.1000002616642064E+01
   0.1737037132642439E-34
   0.1000004384556636E+01
   0.3651630121395279E-33
   0.1000003994091908E+01
   0.6983415945819937E-33
   0.1000003218541216E+01
  -0.1833036749629361E-33
   0.1000002618954654E+01
   0.3797698973997720E-34
   0.1000006797134311E+01
  -0.3037300573638266E-32
   0.1000004416670143E+01
  -0.1289041959038320E-32
   0.1000008913430293E+01
   0.3555528322141964E-32
   0.1000006898928582E+01
   0.6500527956140659E-33
   0.9999972415588544E+00
   0.3470217902921239E-34
   0.9999972770955390E+00
   0.4561165261913046E-34
   0.9999971071858408E+00
   0.1720181642923561E-34
   0.9999968167339196E+00
  -0.5105372715360044E-34
   0.9999950213145913E+00
  -0.6079199743069373E-33
   0.9999953955165559E+00
  -0.1493986020678110E-32
   0.9999976011966090E+00
  -0.1571021616896484E-32
   0.9999978670309740E+00
   0.3321101679780548E-33
   0.9999954607537707E+00
  -0.3549387230008956E-33
   0.9999953922581190E+00
  -0.3814382974719670E-34
   0.9999979551670030E+00
  -0.1184194430341945E-32
   0.9999981137684938E+00
  -0.4829832456712520E-33
   0.9999987757062272E+00
  -0.1626272662100658E-33
   0.9999957677679916E+00
  -0.2513874492470058E-34
   0.9999957330093091E+00
  -0.1600429937005893E-32
   0.9999959193777843E+00
  -0.9791828264761107E-34
   0.9999948735245516E+00
  -0.6910165675508579E-33
   0.9999949512069685E+00
  -0.9832418266518759E-33
   0.9999956592630049E+00
  -0.6369650748899920E-34
   0.9999958693901483E+00
   0.7123561773210085E-33
   0.9999951155727543E+00
   0.2637442719313508E-33
   0.9999948157921319E+00
  -0.8966921341522686E-34
   0.9999956359669407E+00
  -0.7258391450856793E-33
   0.9999919372457164E+00
  -0.7196433684312078E-32
   0.9999949209955543E+00
  -0.1182655884275265E-32
   0.9999962709473780E+00
  -0.3661231002433002E-33
   0.9999965660640197E+00
   0.8203502340420174E-34
   0.9999869392284302E+00
  -0.1767842549681429E-31
   0.9999897037213294E+00
   0.4064310098075837E-32
   0.9999963256217008E+00
  -0.6464730094716826E-33
   0.9999966537829147E+00
  -0.1554751604987664E-33
   0.9999968688433776E+00
   0.1171720077985076E-33
   0.9999959081363838E+00
   0.1845268506324819E-33
   0.9999946282147437E+00
  -0.1433262579636983E-32
   0.9999877009225974E+00
   0.2178320903475382E-31
   0.9999917334850050E+00
   0.3754521587176962E-32
   0.9999941696191302E+00
  -0.9483731990321665E-34
   0.9999879724299701E+00
   0.2619154403791747E-31
   0.9999960278345479E+00
   0.1718065914640305E-33
   0.9999943553623086E+00
   0.5594028070801566E-33
   0.9999935683775958E+00
   0.1676798948717979E-32
   0.9999952213088752E+00
   0.3827415150987429E-33
   0.1000008585763917E+01
   0.4917508728369496E-31
   0.9999997846658871E+00
  -0.4292578092993537E-33
   0.1000029270900003E+01
   0.5401253923887691E-31
   0.9999961484908954E+00
  -0.2933601270701976E-33
   0.9999980425938920E+00
   0.2681557750813265E-32
   0.9999962863318054E+00
   0.7572423253915871E-33
   0.9999986551127571E+00
   0.7218588010861748E-32
   0.9999968303721657E+00
  -0.4139992765248737E-33
   0.1000003037119284E+01
   0.1920963907988210E-32
   0.9999993168863451E+00
   0.5093317205786961E-33
   0.9999974926859286E+00
  -0.8990238806911789E-33
   0.1000013898540447E+01
   0.8104476309326161E-32
   0.1000011706743800E+01
   0.9051019086997950E-32
   0.1000033020315084E+01
   0.1202937710354178E-30
   0.1000035153297446E+01
  -0.3237345038031366E-32
   0.1000009728387899E+01
   0.2590117331723258E-31
   0.1000001941704021E+01
   0.4336751938172647E-32
   0.1000001500752859E+01
  -0.2177204366814682E-32
   0.9999970102793149E+00
   0.1023576327129802E-32
   0.9999978430780391E+00
  -0.1066847425937894E-32
   0.1000001889037849E+01
  -0.4074936409878093E-32
   0.9999954679058820E+00
  -0.6665352736077025E-33
   0.9999973609539838E+00
  -0.2489235903436270E-32
   0.1000005074325243E+01
  -0.1446887908838099E-31
   0.9999958286248696E+00
   0.4943547461111791E-33
   0.9999964867373047E+00
  -0.3148665112438282E-33
   0.9999959582205523E+00
  -0.4673679354304934E-33
   0.1000001035131394E+01
  -0.4776542803321752E-32
   0.1000006742231770E+01
  -0.1697057066542977E-31
   0.9999957361304395E+00
  -0.6485602255641381E-33
   0.9999997097819040E+00
  -0.2333715530648088E-32
   0.1000011265021144E+01
  -0.5709311970372037E-32
   0.1000003983372634E+01
  -0.5761419932242337E-32
   0.9999999347147989E+00
  -0.1196714236094389E-32
   0.1000006970112445E+01
  -0.4907055867317335E-32
   0.9999965162728006E+00
  -0.2222763138765437E-33
   0.9999960219636048E+00
   0.2573068842970869E-33
   0.9999976521435995E+00
  -0.2008538502012414E-33
   0.1000004319727831E+01
   0.6998660541352657E-33
   0.1000000065572735E+01
   0.1098684008269702E-32
   0.9999957830620251E+00
   0.8887907431070452E-34
   0.9999961345684003E+00
   0.2846593932949067E-32
   0.1000000744667416E+01
   0.9577102018799298E-32
   0.1000011205808593E+01
   0.4803988779879573E-32
   0.9999956759052040E+00
  -0.2234376041852603E-33
   0.9999961241973141E+00
   0.8116205556105688E-33
   0.1000032129356680E+01
  -0.4283865465103160E-31
   0.1000025085803001E+01
  -0.3957476151463316E-31
   0.1000014628353345E+01
  -0.9049339795762736E-32
   0.1000006205406607E+01
  -0.7589613333210763E-32
   0.1000026428653569E+01
  -0.3549669998343129E-31
   0.1000010689418361E+01
  -0.1469190660054764E-31
   0.1000006534438253E+01
  -0.3003337000857611E-31
   0.9999969956816213E+00
   0.4806586436073819E-32
   0.1000004375944547E+01
  -0.2086061416249216E-32
   0.9999994171360834E+00
  -0.6349535498007451E-33
   0.9999968301659731E+00
  -0.9588884517017034E-34
   0.1000008609440709E+01
   0.2556622831167969E-32
   0.1000005430945957E+01
   0.4216263075052821E-32
   0.1000018024325555E+01
   0.1110090638993077E-31
   0.1000006719021433E+01
   0.3386862085812304E-32
   0.1000001544142044E+01
   0.5397681866185801E-33
   0.1000000954003939E+01
   0.5729435199523611E-33
   0.1000002077656172E+01
   0.4127717593872708E-32
   0.1000017316862719E+01
  -0.2066761744617847E-31
   0.1000025236563483E+01
  -0.5047990559640601E-31
   0.1000021705568907E+01
  -0.2316728603147620E-31
   0.1000012145613895E+01
   0.7358653394501840E-32
   0.1000040672753685E+01
   0.2092454032106109E-31
   0.1000027632200903E+01
   0.6018225928378765E-32
   0.1000020225355509E+01
   0.4125410931632076E-32
   0.1000026401471896E+01
  -0.1583980709394582E-32
   0.1000052777776738E+01
   0.1561791816706908E-31
   0.9999967161148463E+00
  -0.1892028346390392E-33
   0.9999958050537825E+00
  -0.1363552797396619E-33
   0.9999984779139435E+00
  -0.1798137406640640E-33
   0.1000001549915228E+01
  -0.1791676700531927E-32
   0.1000045648918599E+01
  -0.2216106470313871E-31
   0.1000045951621995E+01
  -0.4309159443634135E-31
   0.1000043045610112E+01
   0.4963861005358760E-31
   0.9999970249938379E+00
  -0.1072568312163033E-33
   0.9999988943287823E+00
   0.2519173466886122E-36
   0.1000000451539163E+01
  -0.1729629623407940E-32
   0.1000007920955813E+01
   0.9945765830248269E-32
   0.1000022459451749E+01
   0.4557151719375303E-31
   0.1000050502455538E+01
   0.2464658826345645E-31
SCALARS v double 1
LOOKUP_TABLE default
   0.0000000000000000E+00
   0.0000000000000000E+00
   0.0000000000000000E+00
   0.0000000000000000E+00
   0.0000000000000000E+00
   0.0000000000000000E+00
   0.0000000000000000E+00
   0.0000000000000000E+00
   0.0000000000000000E+00
   0.0000000000000000E+00
  -0.1530107778064299E-04
  -0.2134028150103991E-31
  -0.3576459238075151E-05
  -0.8602262829964949E-31
   0.1330393985756348E-04
  -0.4371236243221252E-31
   0.0000000000000000E+00
   0.0000000000000000E+00
   0.0000000000000000E+00
   0.0000000000000000E+00
   0.0000000000000000E+00
   0.0000000000000000E+00
   0.0000000000000000E+00
   0.0000000000000000E+00
   0.0000000000000000E+00
   0.0000000000000000E+00
   0.1944721515875920E-06
   0.2951528205278644E-32
   0.7726025449317360E-05
   0.2441707586551694E-31
   0.1787536090637712E-05
   0.1055734810849251E-31
   0.6133578419972065E-06
  -0.5255757424635947E-31
   0.1256828753744042E-04
   0.1654351550929496E-31
  -0.7262436843281151E-05
   0.3488381153659390E-32
  -0.1173792203242596E-04
  -0.6272162601060946E-32
   0.2742097309982056E-05
   0.3908339081457163E-31
   0.2656296623554358E-05
   0.5444524296277838E-31
   0.6513195720175447E-05
   0.3325041310521856E-31
  -0.9979850880760999E-05
  -0.3634901369815383E-31
   0.8141637278227561E-05
  -0.2126407002769914E-31
  -0.3349485774579159E-05
  -0.2750355611674812E-31
  -0.8796092838219381E-06
   0.2211255248364400E-31
   0.3569616078874773E-05
  -0.2817082810626462E-31
  -0.1185055105522078E-04
  -0.9126026004785057E-31
   0.1031617108195239E-04
  -0.2708072401508617E-31
   0.8899092269178682E-05
   0.3002197706735261E-31
  -0.8891045944923151E-05
  -0.6075561599469532E-31
   0.2107119185984090E-05
   0.1161187929993784E-32
   0.0000000000000000E+00
   0.0000000000000000E+00
   0.0000000000000000E+00
   0.0000000000000000E+00
   0.0000000000000000E+00
   0.0000000000000000E+00
   0.0000000000000000E+00
   0.0000000000000000E+00
   0.0000000000000000E+00
   0.0000000000000000E+00
   0.0000000000000000E+00
   0.0000000000000000E+00
   0.0000000000000000E+00
   0.0000000000000000E+00
   0.0000000000000000E+00
   0.0000000000000000E+00
   0.0000000000000000E+00
   0.0000000000000000E+00
   0.0000000000000000E+00
   0.0000000000000000E+00
   0.0000000000000000E+00
   0.0000000000000000E+00
   0.0000000000000000E+00
   0.0000000000000000E+00
   0.0000000000000000E+00
   0.0000000000000000E+00
   0.0000000000000000E+00
   0.0000000000000000E+00
   0.0000000000000000E+00
   0.0000000000000000E+00
   0.0000000000000000E+00
   0.0000000000000000E+00
   0.0000000000000000E+00
   0.0000000000000000E+00
   0.0000000000000000E+00
   0.0000000000000000E+00
   0.0000000000000000E+00
   0.0000000000000000E+00
   0.0000000000000000E+00
   0.0000000000000000E+00
   0.0000000000000000E+00
   0.0000000000000000E+00
   0.0000000000000000E+00
   0.0000000000000000E+00
   0.0000000000000000E+00
   0.0000000000000000E+00
   0.0000000000000000E+00
   0.0000000000000000E+00
   0.0000000000000000E+00
   0.0000000000000000E+00
   0.0000000000000000E+00
   0.0000000000000000E+00
   0.0000000000000000E+00
   0.0000000000000000E+00
   0.0000000000000000E+00
   0.0000000000000000E+00
   0.4842370289998894E-06
  -0.6977740236124240E-33
   0.1617965044315166E-06
   0.1201464038143043E-33
   0.6840439003492748E-08
   0.7039934707558012E-33
   0.0000000000000000E+00
   0.0000000000000000E+00
   0.0000000000000000E+00
   0.0000000000000000E+00
   0.0000000000000000E+00
   0.0000000000000000E+00
   0.0000000000000000E+00
   0.0000000000000000E+00
  -0.2716105397272970E-05
   0.1826199628324882E-31
   0.1288614277337568E-06
   0.9230075189220264E-33
   0.7783066533051309E-06
  -0.3948679250561948E-33
   0.3904205134057748E-05
  -0.5047315932876944E-31
   0.2901538922784796E-05
  -0.2721520891174576E-31
  -0.4874744503995159E-05
  -0.4686760795566945E-31
   0.1725084985395809E-05
  -0.3375259451422109E-32
   0.4013858383518036E-07
  -0.3427832205931871E-32
   0.5323633556035587E-06
   0.9203089735999995E-33
   0.5298638039851802E-06
   0.1116757656255312E-34
  -0.2301322060939659E-06
  -0.1457296874805317E-33
   0.1521365987422015E-05
  -0.1058104888212545E-33
   0.7908272115278355E-06
  -0.1481806967753426E-33
   0.1025869170227382E-06
   0.4876069960809853E-32
   0.1331178157004666E-05
   0.2044703795588945E-33
   0.8934988494122369E-06
  -0.9666309011885746E-32
   0.2420649654097723E-05
  -0.6033448329934720E-32
  -0.1268718474615200E-06
   0.1108160579589745E-33
   0.2779884916023963E-07
   0.3447199555966636E-34
   0.1706834697569650E-06
   0.1445316657296541E-33
   0.0000000000000000E+00
   0.0000000000000000E+00
   0.0000000000000000E+00
   0.0000000000000000E+00
   0.0000000000000000E+00
   0.0000000000000000E+00
   0.0000000000000000E+00
   0.0000000000000000E+00
   0.5138945545279517E-06
  -0.6830737137201223E-33
   0.2834531662507723E-06
   0.1277878899098624E-34
  -0.2543260022611557E-06
  -0.2185200433775357E-33
  -0.1986127637016258E-06
   0.4679083915523750E-33
  -0.5167366969472450E-07
   0.5383195886015742E-34
   0.3683346625222229E-06
  -0.5029358279870581E-33
   0.2220588698206540E-06
  -0.7256485954342457E-33
  -0.3157700846656018E-08
  -0.1707189249723100E-33
   0.2615760226304357E-06
   0.5353320020482117E-34
   0.1547370458294335E-06
  -0.3561005782808669E-33
   0.1758381873346669E-06
  -0.9857598757453804E-34
   0.1509008188831013E-06
  -0.7679819951996926E-34
   0.1719501695230463E-06
  -0.6449956275794302E-33
  -0.8904616066751274E-07
  -0.4382583372010885E-33
  -0.3166112167592570E-07
  -0.5638763176164812E-33
  -0.8500393888335188E-07
  -0.2938118623751051E-33
   0.0000000000000000E+00
   0.0000000000000000E+00
   0.0000000000000000E+00
   0.0000000000000000E+00
   0.0000000000000000E+00
   0.0000000000000000E+00
   0.7706505833759619E-07
   0.2619662731021750E-34
  -0.1088098646174801E-06
   0.3961653794943672E-31
   0.1358817190360023E-05
  -0.7984450738648473E-32
  -0.9961771609245083E-07
  -0.4875602375014244E-33
  -0.7145817838427975E-07
   0.1580162377357549E-33
  -0.4168808658442716E-08
   0.1635373174656836E-33
  -0.1350213644198206E-06
   0.7466740975917511E-33
  -0.3752440072106544E-07
  -0.3573568420535956E-32
   0.5913127685660576E-05
  -0.2888383245696715E-31
   0.1024501801915568E-05
  -0.3003865888113174E-32
   0.1665893763564919E-06
   0.2795321942050543E-33
   0.3687316455477752E-05
   0.1963860582877518E-31
   0.1801165478025660E-06
   0.3211268409933624E-33
   0.2456222737417896E-06
   0.1673875251674767E-33
  -0.3766285182428844E-06
   0.3002202749916252E-32
  -0.7483890819228286E-06
   0.8864040938150481E-34
   0.0000000000000000E+00
   0.0000000000000000E+00
   0.0000000000000000E+00
   0.0000000000000000E+00
   0.0000000000000000E+00
   0.0000000000000000E+00
   0.0000000000000000E+00
   0.0000000000000000E+00
   0.0000000000000000E+00
   0.0000000000000000E+00
   0.0000000000000000E+00
   0.0000000000000000E+00
   0.0000000000000000E+00
   0.0000000000000000E+00
   0.0000000000000000E+00
   0.0000000000000000E+00
   0.0000000000000000E+00
   0.0000000000000000E+00
   0.0000000000000000E+00
   0.0000000000000000E+00
   0.0000000000000000E+00
   0.0000000000000000E+00
   0.0000000000000000E+00
   0.0000000000000000E+00
   0.0000000000000000E+00
   0.0000000000000000E+00
   0.0000000000000000E+00
   0.0000000000000000E+00
   0.0000000000000000E+00
   0.0000000000000000E+00
   0.0000000000000000E+00
   0.0000000000000000E+00
   0.0000000000000000E+00
   0.0000000000000000E+00
   0.1352946910913011E-05
   0.3003920126270496E-32
  -0.1224494534998905E-06
   0.9366433912556765E-33
   0.7841759406956444E-06
   0.1131827467214414E-32
   0.1322941201911159E-05
   0.6529492426579904E-32
   0.4153793446292352E-06
   0.1150100739099197E-32
   0.1632975226797062E-05
   0.9722601530016092E-32
   0.3200761623991079E-05
   0.4397572733212666E-32
  -0.2266097091796754E-06
   0.4827996962934062E-33
   0.8272339334878484E-07
  -0.2759919033586118E-33
   0.8107570697169928E-08
   0.7740450736195691E-33
   0.1724354090381578E-05
  -0.2070118111333975E-32
   0.3541262321359263E-05
  -0.2892361796448238E-31
   0.2525412263841670E-07
  -0.2536522209673063E-33
   0.9241956046797108E-06
  -0.1888906535336736E-33
   0.1973237477211630E-05
  -0.1743423671224485E-32
   0.1483108334852064E-05
   0.2209446222092936E-33
   0.1136611631386580E-05
   0.4756049288262037E-33
   0.1937392515864832E-05
  -0.1753706275739750E-32
   0.2483080060634239E-06
   0.5389268363981406E-33
   0.1547256948011563E-06
  -0.4081813214659097E-33
   0.5255337787676255E-06
  -0.4389185856052032E-33
   0.1304965017456304E-05
  -0.4072532527859119E-33
   0.4301339137875432E-06
   0.2550905117618720E-32
  -0.1310316188563168E-06
  -0.4786432967355707E-34
   0.1944250114660734E-06
   0.4752159603834904E-32
  -0.2260669692069533E-06