TITLE="fun3d_case_title"
VARIABLES="Iteration" "R_1" "R_2" "R_3" "R_4" "C_L" "C_D" "C_M_x" "C_M_y" "C_M_z" "Wall Time" "C_x" "C_y" "C_z" "C_Lp" "C_Dp" "C_Lv" "C_Dv" "C_M_xp" "C_M_yp" "C_M_zp" "C_M_xv" "C_M_yv" "C_M_zv" "C_xp" "C_yp" "C_zp" "C_xv" "C_yv" "C_zv"
ZONE  I=100 F=POINT
1  0.6930665766E-31  0.4620443844E-32  0.4836924032E-48  0.1394693979E-47 -0.2654201370E-30  0.6746144550E-34 -0.8618244019E-30  0.1840963299E-29 -0.2145158853E-33  0.0000000000E+00  0.6746144550E-34 -0.1416351929E-33 -0.2654201370E-30 -0.2654201370E-30  0.6746144550E-34  0.0000000000E+00  0.0000000000E+00 -0.8618244019E-30  0.1840963299E-29 -0.2145158853E-33  0.0000000000E+00  0.0000000000E+00  0.0000000000E+00  0.6746144550E-34 -0.1416351929E-33 -0.2654201370E-30  0.0000000000E+00  0.0000000000E+00  0.0000000000E+00
2  0.3944506062E-31  0.3739960545E-32  0.4852906294E-32  0.3132729555E-33 -0.6221163654E-30  0.7535891564E-34 -0.1431507830E-29  0.3308763631E-29 -0.2235120358E-33  0.0000000000E+00  0.7535891564E-34 -0.1265446984E-33 -0.6221163654E-30 -0.6221163654E-30  0.7535891564E-34  0.0000000000E+00  0.0000000000E+00 -0.1431507830E-29  0.3308763631E-29 -0.2235120358E-33  0.0000000000E+00  0.0000000000E+00  0.0000000000E+00  0.7535891564E-34 -0.1265446984E-33 -0.6221163654E-30  0.0000000000E+00  0.0000000000E+00  0.0000000000E+00
3  0.1553156132E-31  0.1204940456E-32  0.1604459695E-32 -0.3072047129E-33 -0.7974125968E-30  0.6544408676E-34 -0.1556335356E-29  0.4044478628E-29 -0.1981897035E-33  0.0000000000E+00  0.6544408676E-34 -0.1013368944E-33 -0.7974125968E-30 -0.7974125968E-30  0.6544408676E-34  0.0000000000E+00  0.0000000000E+00 -0.1556335356E-29  0.4044478628E-29 -0.1981897035E-33  0.0000000000E+00  0.0000000000E+00  0.0000000000E+00  0.6544408676E-34 -0.1013368944E-33 -0.7974125968E-30  0.0000000000E+00  0.0000000000E+00  0.0000000000E+00
4  0.8030378314E-32 -0.3083544130E-33  0.6794252299E-33  0.3149441985E-33 -0.8562175309E-30  0.6300480028E-34 -0.1520107011E-29  0.4241980189E-29 -0.1939197883E-33  0.0000000000E+00  0.6300480028E-34 -0.9455200775E-34 -0.8562175309E-30 -0.8562175309E-30  0.6300480028E-34  0.0000000000E+00  0.0000000000E+00 -0.1520107011E-29  0.4241980189E-29 -0.1939197883E-33  0.0000000000E+00  0.0000000000E+00  0.0000000000E+00  0.6300480028E-34 -0.9455200775E-34 -0.8562175309E-30  0.0000000000E+00  0.0000000000E+00  0.0000000000E+00
5  0.3239529635E-32 -0.3040684352E-33  0.7261965578E-33  0.4684915971E-33 -0.8607955878E-30  0.6607886447E-34 -0.1468505124E-29  0.4201715306E-29 -0.1965529375E-33  0.0000000000E+00  0.6607886447E-34 -0.9514018238E-34 -0.8607955878E-30 -0.8607955878E-30  0.6607886447E-34  0.0000000000E+00  0.0000000000E+00 -0.1468505124E-29  0.4201715306E-29 -0.1965529375E-33  0.0000000000E+00  0.0000000000E+00  0.0000000000E+00  0.6607886447E-34 -0.9514018238E-34 -0.8607955878E-30  0.0000000000E+00  0.0000000000E+00  0.0000000000E+00
6  0.1631924039E-32 -0.2781996280E-33  0.5006847232E-34  0.1404559872E-33 -0.8474772746E-30  0.6881367804E-34 -0.1430022572E-29  0.4117021462E-29 -0.1957765526E-33  0.0000000000E+00  0.6881367804E-34 -0.9534818258E-34 -0.8474772746E-30 -0.8474772746E-30  0.6881367804E-34  0.0000000000E+00  0.0000000000E+00 -0.1430022572E-29  0.4117021462E-29 -0.1957765526E-33  0.0000000000E+00  0.0000000000E+00  0.0000000000E+00  0.6881367804E-34 -0.9534818258E-34 -0.8474772746E-30  0.0000000000E+00  0.0000000000E+00  0.0000000000E+00
7  0.5730864450E-34 -0.1640975208E-33 -0.3367850526E-34 -0.3515304530E-34 -0.8349557272E-30  0.6989515366E-34 -0.1406870339E-29  0.4059351933E-29 -0.1935486625E-33  0.0000000000E+00  0.6989515366E-34 -0.9475621120E-34 -0.8349557272E-30 -0.8349557272E-30  0.6989515366E-34  0.0000000000E+00  0.0000000000E+00 -0.1406870339E-29  0.4059351933E-29 -0.1935486625E-33  0.0000000000E+00  0.0000000000E+00  0.0000000000E+00  0.6989515366E-34 -0.9475621120E-34 -0.8349557272E-30  0.0000000000E+00  0.0000000000E+00  0.0000000000E+00
8 -0.8837740884E-34 -0.1116168995E-33 -0.2050717667E-34 -0.5945468131E-34 -0.8281793115E-30  0.7017114476E-34 -0.1396148016E-29  0.4032332084E-29 -0.1924843244E-33  0.0000000000E+00  0.7017114476E-34 -0.9437987847E-34 -0.8281793115E-30 -0.8281793115E-30  0.7017114476E-34  0.0000000000E+00  0.0000000000E+00 -0.1396148016E-29  0.4032332084E-29 -0.1924843244E-33  0.0000000000E+00  0.0000000000E+00  0.0000000000E+00  0.7017114476E-34 -0.9437987847E-34 -0.8281793115E-30  0.0000000000E+00  0.0000000000E+00  0.0000000000E+00
9 -0.2747245388E-34 -0.8585730320E-34 -0.1595968447E-34 -0.3161473057E-34 -0.8255034036E-30  0.7029145693E-34 -0.1392659647E-29  0.4021663730E-29 -0.1925537272E-33  0.0000000000E+00  0.7029145693E-34 -0.9438524399E-34 -0.8255034036E-30 -0.8255034036E-30  0.7029145693E-34  0.0000000000E+00  0.0000000000E+00 -0.1392659647E-29  0.4021663730E-29 -0.1925537272E-33  0.0000000000E+00  0.0000000000E+00  0.0000000000E+00  0.7029145693E-34 -0.9438524399E-34 -0.8255034036E-30  0.0000000000E+00  0.0000000000E+00  0.0000000000E+00
10 -0.7810428412E-34 -0.6201207907E-34 -0.1382408380E-34 -0.1434685770E-34 -0.8245594973E-30  0.7040205672E-34 -0.1392084722E-29  0.4017044865E-29 -0.1929308784E-33  0.0000000000E+00  0.7040205672E-34 -0.9451632453E-34 -0.8245594973E-30 -0.8245594973E-30  0.7040205672E-34  0.0000000000E+00  0.0000000000E+00 -0.1392084722E-29  0.4017044865E-29 -0.1929308784E-33  0.0000000000E+00  0.0000000000E+00  0.0000000000E+00  0.7040205672E-34 -0.9451632453E-34 -0.8245594973E-30  0.0000000000E+00  0.0000000000E+00  0.0000000000E+00
11 -0.7290652074E-34 -0.4148665119E-34 -0.1106069130E-34 -0.1094919115E-34 -0.8241452192E-30  0.7048387096E-34 -0.1392229371E-29  0.4014442042E-29 -0.1932040515E-33  0.0000000000E+00  0.7048387096E-34 -0.9461116410E-34 -0.8241452192E-30 -0.8241452192E-30  0.7048387096E-34  0.0000000000E+00  0.0000000000E+00 -0.1392229371E-29  0.4014442042E-29 -0.1932040515E-33  0.0000000000E+00  0.0000000000E+00  0.0000000000E+00  0.7048387096E-34 -0.9461116410E-34 -0.8241452192E-30  0.0000000000E+00  0.0000000000E+00  0.0000000000E+00
12 -0.5348065895E-34 -0.2505336238E-34 -0.6672776980E-35 -0.9021759273E-35 -0.8239007592E-30  0.7052994583E-34 -0.1392375494E-29  0.4012767752E-29 -0.1933380815E-33  0.0000000000E+00  0.7052994583E-34 -0.9465077011E-34 -0.8239007592E-30 -0.8239007592E-30  0.7052994583E-34  0.0000000000E+00  0.0000000000E+00 -0.1392375494E-29  0.4012767752E-29 -0.1933380815E-33  0.0000000000E+00  0.0000000000E+00  0.0000000000E+00  0.7052994583E-34 -0.9465077011E-34 -0.8239007592E-30  0.0000000000E+00  0.0000000000E+00  0.0000000000E+00
13 -0.3202560448E-34 -0.1378535162E-34 -0.3609790420E-35 -0.5664725108E-35 -0.8237434749E-30  0.7055382184E-34 -0.1392412478E-29  0.4011663795E-29 -0.1933929349E-33  0.0000000000E+00  0.7055382184E-34 -0.9466101469E-34 -0.8237434749E-30 -0.8237434749E-30  0.7055382184E-34  0.0000000000E+00  0.0000000000E+00 -0.1392412478E-29  0.4011663795E-29 -0.1933929349E-33  0.0000000000E+00  0.0000000000E+00  0.0000000000E+00  0.7055382184E-34 -0.9466101469E-34 -0.8237434749E-30  0.0000000000E+00  0.0000000000E+00  0.0000000000E+00
14 -0.1587018503E-34 -0.7163576856E-35 -0.1894700305E-35 -0.2329929083E-35 -0.8236381766E-30  0.7056757185E-34 -0.1392386759E-29  0.4010908075E-29 -0.1934111742E-33  0.0000000000E+00  0.7056757185E-34 -0.9466125918E-34 -0.8236381766E-30 -0.8236381766E-30  0.7056757185E-34  0.0000000000E+00  0.0000000000E+00 -0.1392386759E-29  0.4010908075E-29 -0.1934111742E-33  0.0000000000E+00  0.0000000000E+00  0.0000000000E+00  0.7056757185E-34 -0.9466125918E-34 -0.8236381766E-30  0.0000000000E+00  0.0000000000E+00  0.0000000000E+00
15 -0.8158218391E-35 -0.3492272810E-35 -0.9463169911E-36 -0.5172712696E-36 -0.8235633680E-30  0.7057632902E-34 -0.1392349787E-29  0.4010376634E-29 -0.1934138945E-33  0.0000000000E+00  0.7057632902E-34 -0.9465948839E-34 -0.8235633680E-30 -0.8235633680E-30  0.7057632902E-34  0.0000000000E+00  0.0000000000E+00 -0.1392349787E-29  0.4010376634E-29 -0.1934138945E-33  0.0000000000E+00  0.0000000000E+00  0.0000000000E+00  0.7057632902E-34 -0.9465948839E-34 -0.8235633680E-30  0.0000000000E+00  0.0000000000E+00  0.0000000000E+00
16 -0.4341163059E-35 -0.1519090701E-35 -0.4471962180E-36 -0.2338748227E-37 -0.8235104866E-30  0.7058176829E-34 -0.1392325330E-29  0.4010016968E-29 -0.1934118824E-33  0.0000000000E+00  0.7058176829E-34 -0.9465816458E-34 -0.8235104866E-30 -0.8235104866E-30  0.7058176829E-34  0.0000000000E+00  0.0000000000E+00 -0.1392325330E-29  0.4010016968E-29 -0.1934118824E-33  0.0000000000E+00  0.0000000000E+00  0.0000000000E+00  0.7058176829E-34 -0.9465816458E-34 -0.8235104866E-30  0.0000000000E+00  0.0000000000E+00  0.0000000000E+00
17 -0.1972928309E-35 -0.5789822883E-36 -0.1899028961E-36  0.3380544354E-37 -0.8234763424E-30  0.7058486205E-34 -0.1392315421E-29  0.4009795634E-29 -0.1934100056E-33  0.0000000000E+00  0.7058486205E-34 -0.9465770001E-34 -0.8234763424E-30 -0.8234763424E-30  0.7058486205E-34  0.0000000000E+00  0.0000000000E+00 -0.1392315421E-29  0.4009795634E-29 -0.1934100056E-33  0.0000000000E+00  0.0000000000E+00  0.0000000000E+00  0.7058486205E-34 -0.9465770001E-34 -0.8234763424E-30  0.0000000000E+00  0.0000000000E+00  0.0000000000E+00
18 -0.6489981021E-36 -0.2082204181E-36 -0.6830759369E-37  0.3402468663E-37 -0.8234570154E-30  0.7058649008E-34 -0.1392313881E-29  0.4009674261E-29 -0.1934093645E-33  0.0000000000E+00  0.7058649008E-34 -0.9465779080E-34 -0.8234570154E-30 -0.8234570154E-30  0.7058649008E-34  0.0000000000E+00  0.0000000000E+00 -0.1392313881E-29  0.4009674261E-29 -0.1934093645E-33  0.0000000000E+00  0.0000000000E+00  0.0000000000E+00  0.7058649008E-34 -0.9465779080E-34 -0.8234570154E-30  0.0000000000E+00  0.0000000000E+00  0.0000000000E+00
19 -0.1503053951E-36 -0.7693984741E-37 -0.2008498153E-37  0.2945598095E-37 -0.8234473998E-30  0.7058731646E-34 -0.1392315019E-29  0.4009614169E-29 -0.1934094781E-33  0.0000000000E+00  0.7058731646E-34 -0.9465804199E-34 -0.8234473998E-30 -0.8234473998E-30  0.7058731646E-34  0.0000000000E+00  0.0000000000E+00 -0.1392315019E-29  0.4009614169E-29 -0.1934094781E-33  0.0000000000E+00  0.0000000000E+00  0.0000000000E+00  0.7058731646E-34 -0.9465804199E-34 -0.8234473998E-30  0.0000000000E+00  0.0000000000E+00  0.0000000000E+00
20 -0.3071353177E-37 -0.2804125076E-37 -0.4629352347E-38  0.2248762987E-37 -0.8234430052E-30  0.7058773753E-34 -0.1392316049E-29  0.4009586014E-29 -0.1934097461E-33  0.0000000000E+00  0.7058773753E-34 -0.9465823118E-34 -0.8234430052E-30 -0.8234430052E-30  0.7058773753E-34  0.0000000000E+00  0.0000000000E+00 -0.1392316049E-29  0.4009586014E-29 -0.1934097461E-33  0.0000000000E+00  0.0000000000E+00  0.0000000000E+00  0.7058773753E-34 -0.9465823118E-34 -0.8234430052E-30  0.0000000000E+00  0.0000000000E+00  0.0000000000E+00
21 -0.1404015595E-37 -0.9700032040E-38 -0.1865875754E-38  0.1875286168E-37 -0.8234409708E-30  0.7058795709E-34 -0.1392316327E-29  0.4009572468E-29 -0.1934099005E-33  0.0000000000E+00  0.7058795709E-34 -0.9465831176E-34 -0.8234409708E-30 -0.8234409708E-30  0.7058795709E-34  0.0000000000E+00  0.0000000000E+00 -0.1392316327E-29  0.4009572468E-29 -0.1934099005E-33  0.0000000000E+00  0.0000000000E+00  0.0000000000E+00  0.7058795709E-34 -0.9465831176E-34 -0.8234409708E-30  0.0000000000E+00  0.0000000000E+00  0.0000000000E+00
22 -0.1655015760E-37 -0.3612424660E-38 -0.2944805154E-38  0.1732931957E-37 -0.8234398953E-30  0.7058807465E-34 -0.1392316095E-29  0.4009565228E-29 -0.1934099229E-33  0.0000000000E+00  0.7058807465E-34 -0.9465831961E-34 -0.8234398953E-30 -0.8234398953E-30  0.7058807465E-34  0.0000000000E+00  0.0000000000E+00 -0.1392316095E-29  0.4009565228E-29 -0.1934099229E-33  0.0000000000E+00  0.0000000000E+00  0.0000000000E+00  0.7058807465E-34 -0.9465831961E-34 -0.8234398953E-30  0.0000000000E+00  0.0000000000E+00  0.0000000000E+00
23 -0.1740196974E-37 -0.8998213313E-39 -0.3569501419E-38  0.1417682474E-37 -0.8234392313E-30  0.7058813947E-34 -0.1392315729E-29  0.4009560915E-29 -0.1934098785E-33  0.0000000000E+00  0.7058813947E-34 -0.9465829985E-34 -0.8234392313E-30 -0.8234392313E-30  0.7058813947E-34  0.0000000000E+00  0.0000000000E+00 -0.1392315729E-29  0.4009560915E-29 -0.1934098785E-33  0.0000000000E+00  0.0000000000E+00  0.0000000000E+00  0.7058813947E-34 -0.9465829985E-34 -0.8234392313E-30  0.0000000000E+00  0.0000000000E+00  0.0000000000E+00
24 -0.1282861126E-37  0.9210042499E-39 -0.2580392329E-38  0.9051212591E-38 -0.8234387952E-30  0.7058817638E-34 -0.1392315453E-29  0.4009558232E-29 -0.1934098243E-33  0.0000000000E+00  0.7058817638E-34 -0.9465827946E-34 -0.8234387952E-30 -0.8234387952E-30  0.7058817638E-34  0.0000000000E+00  0.0000000000E+00 -0.1392315453E-29  0.4009558232E-29 -0.1934098243E-33  0.0000000000E+00  0.0000000000E+00  0.0000000000E+00  0.7058817638E-34 -0.9465827946E-34 -0.8234387952E-30  0.0000000000E+00  0.0000000000E+00  0.0000000000E+00
25 -0.6131699609E-38  0.1598253433E-38 -0.1005514041E-38  0.4210787362E-38 -0.8234385170E-30  0.7058819791E-34 -0.1392315329E-29  0.4009556602E-29 -0.1934097868E-33  0.0000000000E+00  0.7058819791E-34 -0.9465826750E-34 -0.8234385170E-30 -0.8234385170E-30  0.7058819791E-34  0.0000000000E+00  0.0000000000E+00 -0.1392315329E-29  0.4009556602E-29 -0.1934097868E-33  0.0000000000E+00  0.0000000000E+00  0.0000000000E+00  0.7058819791E-34 -0.9465826750E-34 -0.8234385170E-30  0.0000000000E+00  0.0000000000E+00  0.0000000000E+00
26 -0.1000861500E-38  0.1227034088E-38 -0.1081767886E-39  0.1197793215E-38 -0.8234383519E-30  0.7058821054E-34 -0.1392315319E-29  0.4009555668E-29 -0.1934097691E-33  0.0000000000E+00  0.7058821054E-34 -0.9465826326E-34 -0.8234383519E-30 -0.8234383519E-30  0.7058821054E-34  0.0000000000E+00  0.0000000000E+00 -0.1392315319E-29  0.4009555668E-29 -0.1934097691E-33  0.0000000000E+00  0.0000000000E+00  0.0000000000E+00  0.7058821054E-34 -0.9465826326E-34 -0.8234383519E-30  0.0000000000E+00  0.0000000000E+00  0.0000000000E+00
27  0.9666659749E-39  0.5521683916E-39 -0.5802613982E-40  0.7252813269E-40 -0.8234382620E-30  0.7058821781E-34 -0.1392315361E-29  0.4009555171E-29 -0.1934097645E-33  0.0000000000E+00  0.7058821781E-34 -0.9465826322E-34 -0.8234382620E-30 -0.8234382620E-30  0.7058821781E-34  0.0000000000E+00  0.0000000000E+00 -0.1392315361E-29  0.4009555171E-29 -0.1934097645E-33  0.0000000000E+00  0.0000000000E+00  0.0000000000E+00  0.7058821781E-34 -0.9465826322E-34 -0.8234382620E-30  0.0000000000E+00  0.0000000000E+00  0.0000000000E+00
28  0.7421156801E-39  0.6305237344E-40 -0.3218944524E-39 -0.5367293284E-40 -0.8234382168E-30  0.7058822185E-34 -0.1392315408E-29  0.4009554924E-29 -0.1934097651E-33  0.0000000000E+00  0.7058822185E-34 -0.9465826441E-34 -0.8234382168E-30 -0.8234382168E-30  0.7058822185E-34  0.0000000000E+00  0.0000000000E+00 -0.1392315408E-29  0.4009554924E-29 -0.1934097651E-33  0.0000000000E+00  0.0000000000E+00  0.0000000000E+00  0.7058822185E-34 -0.9465826441E-34 -0.8234382168E-30  0.0000000000E+00  0.0000000000E+00  0.0000000000E+00
29  0.1190554029E-39 -0.1692160557E-39 -0.5023447240E-39  0.4093961703E-40 -0.8234381957E-30  0.7058822398E-34 -0.1392315438E-29  0.4009554807E-29 -0.1934097664E-33  0.0000000000E+00  0.7058822398E-34 -0.9465826534E-34 -0.8234381957E-30 -0.8234381957E-30  0.7058822398E-34  0.0000000000E+00  0.0000000000E+00 -0.1392315438E-29  0.4009554807E-29 -0.1934097664E-33  0.0000000000E+00  0.0000000000E+00  0.0000000000E+00  0.7058822398E-34 -0.9465826534E-34 -0.8234381957E-30  0.0000000000E+00  0.0000000000E+00  0.0000000000E+00
30 -0.2229168397E-39 -0.2330985170E-39 -0.5160745518E-39  0.7019004588E-40 -0.8234381862E-30  0.7058822505E-34 -0.1392315448E-29  0.4009554754E-29 -0.1934097665E-33  0.0000000000E+00  0.7058822505E-34 -0.9465826565E-34 -0.8234381862E-30 -0.8234381862E-30  0.7058822505E-34  0.0000000000E+00  0.0000000000E+00 -0.1392315448E-29  0.4009554754E-29 -0.1934097665E-33  0.0000000000E+00  0.0000000000E+00  0.0000000000E+00  0.7058822505E-34 -0.9465826565E-34 -0.8234381862E-30  0.0000000000E+00  0.0000000000E+00  0.0000000000E+00
31 -0.3346875328E-39 -0.2166301595E-39 -0.4216959844E-39  0.3050459845E-40 -0.8234381821E-30  0.7058822554E-34 -0.1392315445E-29  0.4009554731E-29 -0.1934097655E-33  0.0000000000E+00  0.7058822554E-34 -0.9465826549E-34 -0.8234381821E-30 -0.8234381821E-30  0.7058822554E-34  0.0000000000E+00  0.0000000000E+00 -0.1392315445E-29  0.4009554731E-29 -0.1934097655E-33  0.0000000000E+00  0.0000000000E+00  0.0000000000E+00  0.7058822554E-34 -0.9465826549E-34 -0.8234381821E-30  0.0000000000E+00  0.0000000000E+00  0.0000000000E+00
32 -0.3407347783E-39 -0.1718369069E-39 -0.2914745512E-39 -0.1265183763E-40 -0.8234381803E-30  0.7058822575E-34 -0.1392315436E-29  0.4009554721E-29 -0.1934097641E-33  0.0000000000E+00  0.7058822575E-34 -0.9465826516E-34 -0.8234381803E-30 -0.8234381803E-30  0.7058822575E-34  0.0000000000E+00  0.0000000000E+00 -0.1392315436E-29  0.4009554721E-29 -0.1934097641E-33  0.0000000000E+00  0.0000000000E+00  0.0000000000E+00  0.7058822575E-34 -0.9465826516E-34 -0.8234381803E-30  0.0000000000E+00  0.0000000000E+00  0.0000000000E+00
33 -0.2940606119E-39 -0.1236790354E-39 -0.1732343372E-39 -0.3019714382E-40 -0.8234381797E-30  0.7058822583E-34 -0.1392315428E-29  0.4009554717E-29 -0.1934097628E-33  0.0000000000E+00  0.7058822583E-34 -0.9465826483E-34 -0.8234381797E-30 -0.8234381797E-30  0.7058822583E-34  0.0000000000E+00  0.0000000000E+00 -0.1392315428E-29  0.4009554717E-29 -0.1934097628E-33  0.0000000000E+00  0.0000000000E+00  0.0000000000E+00  0.7058822583E-34 -0.9465826483E-34 -0.8234381797E-30  0.0000000000E+00  0.0000000000E+00  0.0000000000E+00
34 -0.2176638517E-39 -0.8191205820E-40 -0.8996183617E-40 -0.2725390973E-40 -0.8234381796E-30  0.7058822585E-34 -0.1392315421E-29  0.4009554717E-29 -0.1934097619E-33  0.0000000000E+00  0.7058822585E-34 -0.9465826460E-34 -0.8234381796E-30 -0.8234381796E-30  0.7058822585E-34  0.0000000000E+00  0.0000000000E+00 -0.1392315421E-29  0.4009554717E-29 -0.1934097619E-33  0.0000000000E+00  0.0000000000E+00  0.0000000000E+00  0.7058822585E-34 -0.9465826460E-34 -0.8234381796E-30  0.0000000000E+00  0.0000000000E+00  0.0000000000E+00
35 -0.1349762399E-39 -0.4949207315E-40 -0.4255498052E-40 -0.1698578143E-40 -0.8234381797E-30  0.7058822586E-34 -0.1392315417E-29  0.4009554717E-29 -0.1934097613E-33  0.0000000000E+00  0.7058822586E-34 -0.9465826446E-34 -0.8234381797E-30 -0.8234381797E-30  0.7058822586E-34  0.0000000000E+00  0.0000000000E+00 -0.1392315417E-29  0.4009554717E-29 -0.1934097613E-33  0.0000000000E+00  0.0000000000E+00  0.0000000000E+00  0.7058822586E-34 -0.9465826446E-34 -0.8234381797E-30  0.0000000000E+00  0.0000000000E+00  0.0000000000E+00
36 -0.6928064991E-40 -0.2554057631E-40 -0.1911485662E-40 -0.8762080891E-41 -0.8234381798E-30  0.7058822585E-34 -0.1392315416E-29  0.4009554718E-29 -0.1934097611E-33  0.0000000000E+00  0.7058822585E-34 -0.9465826441E-34 -0.8234381798E-30 -0.8234381798E-30  0.7058822585E-34  0.0000000000E+00  0.0000000000E+00 -0.1392315416E-29  0.4009554718E-29 -0.1934097611E-33  0.0000000000E+00  0.0000000000E+00  0.0000000000E+00  0.7058822585E-34 -0.9465826441E-34 -0.8234381798E-30  0.0000000000E+00  0.0000000000E+00  0.0000000000E+00
37 -0.2831348875E-40 -0.9356952793E-41 -0.8077978427E-41 -0.5415415490E-41 -0.8234381800E-30  0.7058822585E-34 -0.1392315415E-29  0.4009554719E-29 -0.1934097610E-33  0.0000000000E+00  0.7058822585E-34 -0.9465826439E-34 -0.8234381800E-30 -0.8234381800E-30  0.7058822585E-34  0.0000000000E+00  0.0000000000E+00 -0.1392315415E-29  0.4009554719E-29 -0.1934097610E-33  0.0000000000E+00  0.0000000000E+00  0.0000000000E+00  0.7058822585E-34 -0.9465826439E-34 -0.8234381800E-30  0.0000000000E+00  0.0000000000E+00  0.0000000000E+00
38 -0.8349727934E-41 -0.8593534314E-42 -0.2803191890E-41 -0.4363747904E-41 -0.8234381801E-30  0.7058822585E-34 -0.1392315415E-29  0.4009554720E-29 -0.1934097610E-33  0.0000000000E+00  0.7058822585E-34 -0.9465826439E-34 -0.8234381801E-30 -0.8234381801E-30  0.7058822585E-34  0.0000000000E+00  0.0000000000E+00 -0.1392315415E-29  0.4009554720E-29 -0.1934097610E-33  0.0000000000E+00  0.0000000000E+00  0.0000000000E+00  0.7058822585E-34 -0.9465826439E-34 -0.8234381801E-30  0.0000000000E+00  0.0000000000E+00  0.0000000000E+00
39  0.2799043103E-42  0.8577503920E-42 -0.7913518520E-42 -0.3311576166E-41 -0.8234381802E-30  0.7058822585E-34 -0.1392315415E-29  0.4009554720E-29 -0.1934097611E-33  0.0000000000E+00  0.7058822585E-34 -0.9465826440E-34 -0.8234381802E-30 -0.8234381802E-30  0.7058822585E-34  0.0000000000E+00  0.0000000000E+00 -0.1392315415E-29  0.4009554720E-29 -0.1934097611E-33  0.0000000000E+00  0.0000000000E+00  0.0000000000E+00  0.7058822585E-34 -0.9465826440E-34 -0.8234381802E-30  0.0000000000E+00  0.0000000000E+00  0.0000000000E+00
40  0.5322836843E-43  0.2353749108E-42 -0.4477632798E-42 -0.1750700732E-41 -0.8234381802E-30  0.7058822585E-34 -0.1392315416E-29  0.4009554720E-29 -0.1934097611E-33  0.0000000000E+00  0.7058822585E-34 -0.9465826440E-34 -0.8234381802E-30 -0.8234381802E-30  0.7058822585E-34  0.0000000000E+00  0.0000000000E+00 -0.1392315416E-29  0.4009554720E-29 -0.1934097611E-33  0.0000000000E+00  0.0000000000E+00  0.0000000000E+00  0.7058822585E-34 -0.9465826440E-34 -0.8234381802E-30  0.0000000000E+00  0.0000000000E+00  0.0000000000E+00
41 -0.7825080837E-43 -0.3732697887E-42 -0.5746703121E-42 -0.2158127410E-42 -0.8234381802E-30  0.7058822585E-34 -0.1392315416E-29  0.4009554720E-29 -0.1934097611E-33  0.0000000000E+00  0.7058822585E-34 -0.9465826441E-34 -0.8234381802E-30 -0.8234381802E-30  0.7058822585E-34  0.0000000000E+00  0.0000000000E+00 -0.1392315416E-29  0.4009554720E-29 -0.1934097611E-33  0.0000000000E+00  0.0000000000E+00  0.0000000000E+00  0.7058822585E-34 -0.9465826441E-34 -0.8234381802E-30  0.0000000000E+00  0.0000000000E+00  0.0000000000E+00
42 -0.3881413621E-42 -0.4745382363E-42 -0.6396817639E-42  0.3352220826E-42 -0.8234381802E-30  0.7058822585E-34 -0.1392315416E-29  0.4009554720E-29 -0.1934097611E-33  0.0000000000E+00  0.7058822585E-34 -0.9465826441E-34 -0.8234381802E-30 -0.8234381802E-30  0.7058822585E-34  0.0000000000E+00  0.0000000000E+00 -0.1392315416E-29  0.4009554720E-29 -0.1934097611E-33  0.0000000000E+00  0.0000000000E+00  0.0000000000E+00  0.7058822585E-34 -0.9465826441E-34 -0.8234381802E-30  0.0000000000E+00  0.0000000000E+00  0.0000000000E+00
43 -0.5044287390E-42 -0.2624545091E-42 -0.5604809904E-42  0.1971178621E-42 -0.8234381802E-30  0.7058822585E-34 -0.1392315416E-29  0.4009554720E-29 -0.1934097611E-33  0.0000000000E+00  0.7058822585E-34 -0.9465826441E-34 -0.8234381802E-30 -0.8234381802E-30  0.7058822585E-34  0.0000000000E+00  0.0000000000E+00 -0.1392315416E-29  0.4009554720E-29 -0.1934097611E-33  0.0000000000E+00  0.0000000000E+00  0.0000000000E+00  0.7058822585E-34 -0.9465826441E-34 -0.8234381802E-30  0.0000000000E+00  0.0000000000E+00  0.0000000000E+00
44 -0.1291747096E-42 -0.7723084742E-43 -0.3548614544E-42  0.2478353111E-44 -0.8234381802E-30  0.7058822585E-34 -0.1392315416E-29  0.4009554720E-29 -0.1934097611E-33  0.0000000000E+00  0.7058822585E-34 -0.9465826441E-34 -0.8234381802E-30 -0.8234381802E-30  0.7058822585E-34  0.0000000000E+00  0.0000000000E+00 -0.1392315416E-29  0.4009554720E-29 -0.1934097611E-33  0.0000000000E+00  0.0000000000E+00  0.0000000000E+00  0.7058822585E-34 -0.9465826441E-34 -0.8234381802E-30  0.0000000000E+00  0.0000000000E+00  0.0000000000E+00
45 -0.2610487033E-43 -0.5857278931E-44 -0.1512730437E-42 -0.3799379764E-43 -0.8234381802E-30  0.7058822585E-34 -0.1392315416E-29  0.4009554720E-29 -0.1934097611E-33  0.0000000000E+00  0.7058822585E-34 -0.9465826441E-34 -0.8234381802E-30 -0.8234381802E-30  0.7058822585E-34  0.0000000000E+00  0.0000000000E+00 -0.1392315416E-29  0.4009554720E-29 -0.1934097611E-33  0.0000000000E+00  0.0000000000E+00  0.0000000000E+00  0.7058822585E-34 -0.9465826441E-34 -0.8234381802E-30  0.0000000000E+00  0.0000000000E+00  0.0000000000E+00
46 -0.8982145129E-44 -0.5730349249E-44 -0.6997686937E-43 -0.4469484118E-44 -0.8234381802E-30  0.7058822585E-34 -0.1392315416E-29  0.4009554720E-29 -0.1934097611E-33  0.0000000000E+00  0.7058822585E-34 -0.9465826441E-34 -0.8234381802E-30 -0.8234381802E-30  0.7058822585E-34  0.0000000000E+00  0.0000000000E+00 -0.1392315416E-29  0.4009554720E-29 -0.1934097611E-33  0.0000000000E+00  0.0000000000E+00  0.0000000000E+00  0.7058822585E-34 -0.9465826441E-34 -0.8234381802E-30  0.0000000000E+00  0.0000000000E+00  0.0000000000E+00
47 -0.1926896716E-43  0.1358335322E-44 -0.8728179383E-44 -0.2475956505E-43 -0.8234381802E-30  0.7058822585E-34 -0.1392315416E-29  0.4009554720E-29 -0.1934097611E-33  0.0000000000E+00  0.7058822585E-34 -0.9465826441E-34 -0.8234381802E-30 -0.8234381802E-30  0.7058822585E-34  0.0000000000E+00  0.0000000000E+00 -0.1392315416E-29  0.4009554720E-29 -0.1934097611E-33  0.0000000000E+00  0.0000000000E+00  0.0000000000E+00  0.7058822585E-34 -0.9465826441E-34 -0.8234381802E-30  0.0000000000E+00  0.0000000000E+00  0.0000000000E+00
48 -0.1250829470E-43 -0.3086503748E-44 -0.1274160720E-43  0.8079775765E-44 -0.8234381802E-30  0.7058822585E-34 -0.1392315416E-29  0.4009554720E-29 -0.1934097611E-33  0.0000000000E+00  0.7058822585E-34 -0.9465826441E-34 -0.8234381802E-30 -0.8234381802E-30  0.7058822585E-34  0.0000000000E+00  0.0000000000E+00 -0.1392315416E-29  0.4009554720E-29 -0.1934097611E-33  0.0000000000E+00  0.0000000000E+00  0.0000000000E+00  0.7058822585E-34 -0.9465826441E-34 -0.8234381802E-30  0.0000000000E+00  0.0000000000E+00  0.0000000000E+00
49 -0.3495934430E-44  0.5789607039E-45 -0.4685991806E-44  0.6317411064E-45 -0.8234381802E-30  0.7058822585E-34 -0.1392315416E-29  0.4009554720E-29 -0.1934097611E-33  0.0000000000E+00  0.7058822585E-34 -0.9465826441E-34 -0.8234381802E-30 -0.8234381802E-30  0.7058822585E-34  0.0000000000E+00  0.0000000000E+00 -0.1392315416E-29  0.4009554720E-29 -0.1934097611E-33  0.0000000000E+00  0.0000000000E+00  0.0000000000E+00  0.7058822585E-34 -0.9465826441E-34 -0.8234381802E-30  0.0000000000E+00  0.0000000000E+00  0.0000000000E+00
50 -0.6053958336E-44 -0.7387828902E-45  0.9761157521E-45 -0.1254045223E-44 -0.8234381802E-30  0.7058822585E-34 -0.1392315416E-29  0.4009554720E-29 -0.1934097611E-33  0.0000000000E+00  0.7058822585E-34 -0.9465826441E-34 -0.8234381802E-30 -0.8234381802E-30  0.7058822585E-34  0.0000000000E+00  0.0000000000E+00 -0.1392315416E-29  0.4009554720E-29 -0.1934097611E-33  0.0000000000E+00  0.0000000000E+00  0.0000000000E+00  0.7058822585E-34 -0.9465826441E-34 -0.8234381802E-30  0.0000000000E+00  0.0000000000E+00  0.0000000000E+00
51  0.2981501276E-44 -0.6199584602E-45 -0.3455852396E-44 -0.4839026729E-45 -0.8234381802E-30  0.7058822585E-34 -0.1392315416E-29  0.4009554720E-29 -0.1934097611E-33  0.0000000000E+00  0.7058822585E-34 -0.9465826441E-34 -0.8234381802E-30 -0.8234381802E-30  0.7058822585E-34  0.0000000000E+00  0.0000000000E+00 -0.1392315416E-29  0.4009554720E-29 -0.1934097611E-33  0.0000000000E+00  0.0000000000E+00  0.0000000000E+00  0.7058822585E-34 -0.9465826441E-34 -0.8234381802E-30  0.0000000000E+00  0.0000000000E+00  0.0000000000E+00
52  0.5325396392E-45 -0.1199271893E-45 -0.1161762622E-44 -0.2435952524E-45 -0.8234381802E-30  0.7058822585E-34 -0.1392315416E-29  0.4009554720E-29 -0.1934097611E-33  0.0000000000E+00  0.7058822585E-34 -0.9465826441E-34 -0.8234381802E-30 -0.8234381802E-30  0.7058822585E-34  0.0000000000E+00  0.0000000000E+00 -0.1392315416E-29  0.4009554720E-29 -0.1934097611E-33  0.0000000000E+00  0.0000000000E+00  0.0000000000E+00  0.7058822585E-34 -0.9465826441E-34 -0.8234381802E-30  0.0000000000E+00  0.0000000000E+00  0.0000000000E+00
53  0.6852630786E-45  0.7447989382E-46 -0.1163336756E-45  0.2455403728E-45 -0.8234381802E-30  0.7058822585E-34 -0.1392315416E-29  0.4009554720E-29 -0.1934097611E-33  0.0000000000E+00  0.7058822585E-34 -0.9465826441E-34 -0.8234381802E-30 -0.8234381802E-30  0.7058822585E-34  0.0000000000E+00  0.0000000000E+00 -0.1392315416E-29  0.4009554720E-29 -0.1934097611E-33  0.0000000000E+00  0.0000000000E+00  0.0000000000E+00  0.7058822585E-34 -0.9465826441E-34 -0.8234381802E-30  0.0000000000E+00  0.0000000000E+00  0.0000000000E+00
54 -0.1296609998E-44  0.1109160525E-45  0.4096508762E-45 -0.3689356533E-45 -0.8234381802E-30  0.7058822585E-34 -0.1392315416E-29  0.4009554720E-29 -0.1934097611E-33  0.0000000000E+00  0.7058822585E-34 -0.9465826441E-34 -0.8234381802E-30 -0.8234381802E-30  0.7058822585E-34  0.0000000000E+00  0.0000000000E+00 -0.1392315416E-29  0.4009554720E-29 -0.1934097611E-33  0.0000000000E+00  0.0000000000E+00  0.0000000000E+00  0.7058822585E-34 -0.9465826441E-34 -0.8234381802E-30  0.0000000000E+00  0.0000000000E+00  0.0000000000E+00
55  0.3268397832E-46 -0.9089615289E-46 -0.2065069016E-45  0.1743586404E-45 -0.8234381802E-30  0.7058822585E-34 -0.1392315416E-29  0.4009554720E-29 -0.1934097611E-33  0.0000000000E+00  0.7058822585E-34 -0.9465826441E-34 -0.8234381802E-30 -0.8234381802E-30  0.7058822585E-34  0.0000000000E+00  0.0000000000E+00 -0.1392315416E-29  0.4009554720E-29 -0.1934097611E-33  0.0000000000E+00  0.0000000000E+00  0.0000000000E+00  0.7058822585E-34 -0.9465826441E-34 -0.8234381802E-30  0.0000000000E+00  0.0000000000E+00  0.0000000000E+00
56 -0.2814303294E-45  0.2299883479E-46  0.2766427584E-46 -0.8044312371E-46 -0.8234381802E-30  0.7058822585E-34 -0.1392315416E-29  0.4009554720E-29 -0.1934097611E-33  0.0000000000E+00  0.7058822585E-34 -0.9465826441E-34 -0.8234381802E-30 -0.8234381802E-30  0.7058822585E-34  0.0000000000E+00  0.0000000000E+00 -0.1392315416E-29  0.4009554720E-29 -0.1934097611E-33  0.0000000000E+00  0.0000000000E+00  0.0000000000E+00  0.7058822585E-34 -0.9465826441E-34 -0.8234381802E-30  0.0000000000E+00  0.0000000000E+00  0.0000000000E+00