# vtk DataFile Version 2.0
FUN3D:global_image_vtk
ASCII
DATASET UNSTRUCTURED_GRID
POINTS 213 double
   -0.5474724527974484E-02    0.5000000000000054E-30    0.2504942005183128E+01
    0.1212121212121166E-30    0.8032163479709808E-04    0.5000000000000000E-30
    0.1245419076927911E+01    0.1000000000000004E-29    0.2504942005183128E+01
    0.1212121212121166E-30    0.1038423406333200E-03    0.1000000000000000E-29
    0.2497696090160995E+01    0.5000000000000018E-30    0.2504942005183128E+01
    0.1212121212121166E-30    0.1099835811035899E-03    0.5000000000000000E-30
    0.3750591000219026E+01    0.1000000000000000E-29    0.2504942005183128E+01
    0.1212121212121166E-30    0.1354569463548061E-03    0.1000000000000000E-29
    0.5003221393556912E+01    0.4999999999999983E-30    0.2504942005183128E+01
    0.1212121212121166E-30    0.9645062306590235E-04    0.5000000000000000E-30
    0.5004676757729920E+01    0.9999999999999966E-30    0.1281291415009508E+01
    0.4999999999999698E-30    0.1636229089325703E-03    0.1000000000000000E-29
    0.5004772733264879E+01    0.4999999999999947E-30    0.2775097973707502E-01
    0.9999999999999752E-30    0.1902233958897548E-03    0.5000000000000000E-30
    0.5003581221826302E+01    0.1000000000000000E-29   -0.1225853358115238E+01
    0.4999999999999769E-30    0.1607086140448799E-03    0.1000000000000000E-29
    0.5001952553134341E+01    0.4999999999999983E-30   -0.2496589016201703E+01
    0.1212121212121180E-30    0.1082092391279099E-03    0.5000000000000000E-30
    0.3750348122005743E+01    0.1000000000000000E-29   -0.2496589016201703E+01
    0.1212121212121180E-30    0.1458754894506087E-03    0.1000000000000000E-29
    0.2498611463539369E+01    0.5000000000000018E-30   -0.2496589016201703E+01
    0.1212121212121180E-30    0.1009099588109019E-03    0.5000000000000000E-30
    0.1247175261509184E+01    0.1000000000000004E-29   -0.2496589016201703E+01
    0.1212121212121180E-30    0.1108958292210249E-03    0.1000000000000000E-29
   -0.3383969652657637E-02    0.5000000000000036E-30   -0.2496589016201703E+01
    0.1212121212121180E-30    0.8113625948968917E-04    0.5000000000000000E-30
   -0.4257789880244722E-02    0.1000000000000004E-29   -0.1225734673000734E+01
    0.4999999999999769E-30    0.3418763781409804E-04    0.1000000000000000E-29
   -0.5251625685942951E-02    0.5000000000000054E-30    0.2619501496228406E-01
    0.9999999999999752E-30    0.1038778534219187E-03    0.5000000000000000E-30
   -0.5676101163759828E-02    0.1000000000000007E-29    0.1278221743537384E+01
    0.4999999999999734E-30    0.8222048501205226E-04    0.1000000000000000E-29
    0.9003209217916410E+00    0.5000000000000054E-30    0.1608979307793919E+01
    0.9999999999999717E-30    0.8697981908400987E-04    0.5000000000000000E-30
    0.3983172228635222E+01    0.1000000000000000E-29   -0.1561211762265163E+01
    0.4999999999999769E-30    0.1756748191494295E-03    0.1000000000000000E-29
    0.4035602079387201E+01    0.5000000000000000E-30    0.1486760266132127E+01
    0.9999999999999680E-30    0.1711706614120900E-03    0.5000000000000000E-30
    0.1036613706197514E+01    0.1000000000000004E-29   -0.1455626287804053E+01
    0.4999999999999769E-30    0.1047334496957486E-03    0.1000000000000000E-29
    0.1094353449885533E+01    0.5000000000000054E-30   -0.2964620398686493E+00
    0.9999999999999608E-30    0.1260432266615430E-03    0.5000000000000000E-30
    0.7298399877475077E+00    0.1000000000000007E-29    0.6874686505187895E+00
    0.4999999999999447E-30    0.1044287163688429E-03    0.1000000000000000E-29
    0.1617018623562922E+01    0.5000000000000054E-30    0.8553209978724522E+00
    0.9999999999999430E-30    0.1529204508723958E-03    0.5000000000000000E-30
    0.2143199653243058E+01    0.1000000000000004E-29   -0.1627128369719471E+01
    0.4999999999999769E-30    0.1606130186569965E-03    0.1000000000000000E-29
    0.4088840479724988E+01    0.4999999999999983E-30   -0.4351046111772547E+00
    0.9999999999999752E-30    0.2719112872097695E-03    0.5000000000000000E-30
    0.2977916509313417E+01    0.1000000000000004E-29   -0.8334989944044712E+00
    0.4999999999999519E-30    0.2245152481764046E-03    0.1000000000000000E-29
    0.3044093243998018E+01    0.5000000000000018E-30   -0.1814361085627647E+01
    0.9999999999999787E-30    0.1616866746874113E-03    0.5000000000000000E-30
    0.3427866629114648E+01    0.1000000000000000E-29    0.3813906924771510E+00
    0.4999999999999697E-30    0.2935982215775401E-03    0.1000000000000000E-29
    0.4313225407775388E+01    0.4999999999999983E-30    0.5489135452878179E+00
    0.9999999999999430E-30    0.2311713278243532E-03    0.5000000000000000E-30
    0.1823032713305206E+01    0.1000000000000004E-29    0.1771265414472351E+01
    0.4999999999999698E-30    0.1835256048548506E-03    0.1000000000000000E-29
    0.2806311149527161E+01    0.5000000000000018E-30    0.1358629605773757E+01
    0.9999999999999680E-30    0.1942351430203604E-03    0.5000000000000000E-30
    0.1891860854168060E+01    0.1000000000000004E-29   -0.8481308814089862E+00
    0.4999999999999519E-30    0.1670436315511781E-03    0.1000000000000000E-29
    0.2268769174863575E+01    0.5000000000000054E-30    0.7723710290791078E-01
    0.9999999999999752E-30    0.2071744350432003E-03    0.5000000000000000E-30
    0.5000000000000000E+01   -0.5155249084597263E-46    0.2504942005183128E+01
    0.1212121212121166E-30    0.1250000000000000E+01   -0.5155249084597263E-46
    0.5000000000000000E+01   -0.5155249084597263E-46    0.2504942005183128E+01
    0.1212121212121166E-30    0.2500000000000000E+01   -0.5155249084597263E-46
    0.5000000000000000E+01   -0.5155249084597263E-46    0.2504942005183128E+01
    0.1212121212121166E-30    0.3750000000000000E+01   -0.5155249084597263E-46
    0.5000000000000000E+01   -0.5155249084597263E-46    0.2504942005183128E+01
    0.1212121212121166E-30    0.5000000000000000E+01   -0.5155249084597263E-46
    0.3750000000000000E+01   -0.5155249084597263E-46    0.2504942005183128E+01
    0.1212121212121166E-30    0.5000000000000000E+01   -0.5155249084597263E-46
    0.2500000000000000E+01   -0.5155249084597263E-46    0.2504942005183128E+01
    0.1212121212121166E-30    0.5000000000000000E+01   -0.5155249084597263E-46
    0.1250000000000000E+01   -0.5155249084597263E-46    0.2504942005183128E+01
    0.1212121212121166E-30    0.5000000000000000E+01   -0.5155249084597263E-46
   -0.2046068530355983E-18   -0.5155249084597263E-46    0.2504942005183128E+01
    0.1212121212121166E-30    0.5000000000000000E+01   -0.5155249084597263E-46
   -0.2046068530355983E-18   -0.5155249084597263E-46    0.2504942005183128E+01
    0.1212121212121166E-30    0.3750000000000000E+01   -0.5155249084597263E-46
   -0.2046068530355983E-18   -0.5155249084597263E-46    0.2504942005183128E+01
    0.1212121212121166E-30    0.2500000000000000E+01   -0.5155249084597263E-46
   -0.2046068530355983E-18   -0.5155249084597263E-46    0.2504942005183128E+01
    0.1212121212121166E-30    0.1250000000000000E+01   -0.5155249084597263E-46
    0.9588956281564857E+00    0.4088323204877400E-30    0.2504942005183128E+01
    0.1212121212121166E-30    0.9696525381352060E+00    0.8253355966550944E-30
    0.3981953078738458E+01    0.7369699780804329E-31    0.2504942005183128E+01
    0.1212121212121166E-30    0.4070563842685061E+01    0.1516277355824009E-30
    0.4036122227630947E+01    0.5331184872985859E-30    0.2504942005183128E+01
    0.1212121212121166E-30    0.1017567397295510E+01    0.8139234257757519E-30
    0.9637572814423740E+00   -0.9331067766499962E-32    0.2504942005183128E+01
    0.1212121212121166E-30    0.3973598195302102E+01    0.1306014370155742E-30
    0.1546540145187408E+01    0.8002905657891983E-31    0.2504942005183128E+01
    0.1212121212121166E-30    0.2931570146914614E+01    0.3996885550956883E-30
    0.6973799555340369E+00    0.3481309068093490E-32    0.2504942005183128E+01
    0.1212121212121166E-30    0.3070319941807038E+01    0.2100037182684302E-30
    0.8903742131192848E+00    0.7712488796292685E-31    0.2504942005183128E+01
    0.1212121212121166E-30    0.2056562221911888E+01    0.4294668085389898E-30
    0.2183042000953212E+01    0.3782461580968199E-31    0.2504942005183128E+01
    0.1212121212121166E-30    0.3960694433663585E+01    0.2259705361708032E-30
    0.3855844876673410E+01    0.1784932175605495E-30    0.2504942005183128E+01
    0.1212121212121166E-30    0.2933250553336677E+01    0.3558534735529404E-30
    0.3152611372409047E+01    0.1115283363383562E-30    0.2504942005183128E+01
    0.1212121212121166E-30    0.3637668364444231E+01    0.2959845527144641E-30
    0.3103307387203377E+01    0.5185271477249525E-31    0.2504942005183128E+01
    0.1212121212121166E-30    0.4332607801661248E+01    0.1521436499773035E-30
    0.3266711063326202E+01    0.3601961362733111E-30    0.2504942005183128E+01
    0.1212121212121166E-30    0.1889656537914600E+01    0.6353768785668950E-30
    0.4232537560707506E+01    0.2580489315426431E-30    0.2504942005183128E+01
    0.1212121212121166E-30    0.1918626923072698E+01    0.4090791405804639E-30
    0.1905522367558317E+01    0.6572817491135912E-30    0.2504942005183128E+01
    0.1212121212121166E-30    0.7226290082750000E+00    0.8977306600899637E-30
    0.2879767751810809E+01    0.6107141644543856E-30    0.2504942005183128E+01
    0.1212121212121166E-30    0.9080944620494492E+00    0.8180347387425747E-30
    0.2012711380865913E+01    0.3615868018456065E-30    0.2504942005183128E+01
    0.1212121212121166E-30    0.1767082331614309E+01    0.7060364642882397E-30
    0.2669681485317002E+01    0.1849800474539411E-30    0.2504942005183128E+01
    0.1212121212121166E-30    0.2853394290310446E+01    0.4820509466862405E-30
    0.5000000000000000E+01   -0.5155249084597263E-46    0.1250000000000000E+01
   -0.5155249084597263E-46    0.5000000000000000E+01   -0.5155249084597263E-46
    0.5000000000000000E+01   -0.5155249084597263E-46   -0.2046068530355983E-18
[...]
POINT_DATA 213
SCALARS u double 1
LOOKUP_TABLE default
   0.9999813700427744E+00
  -0.4156212042728774E-31
   0.1000027587052378E+01
   0.5333432039464535E-31
   0.1000058966049425E+01
  -0.2223353575787355E-31
   0.1000048982061426E+01
  -0.5550320404758542E-31
   0.1000014679893219E+01
  -0.3664137928651398E-31
   0.1000011111249618E+01
  -0.1104701582253961E-30
   0.1000014335378960E+01
  -0.8635797510778106E-31
   0.1000016492828070E+01
  -0.5480418714937331E-31
   0.1000019745520765E+01
   0.8788688737772973E-31
   0.1000055522160220E+01
   0.3536233996739528E-31
   0.1000053116810860E+01
  -0.3719004597864680E-31
   0.1000036341507507E+01
   0.1957218178059913E-30
   0.9999937670119367E+00
   0.1876762597417760E-31
   0.9999922598811418E+00
  -0.1376348298794037E-31
   0.9999885831599820E+00
   0.3396924575653524E-31
   0.9999837538644348E+00
  -0.1053662620424596E-31
   0.1000009995868704E+01
  -0.3113946046895139E-31
   0.1000062862682710E+01
   0.4695794708076409E-31
   0.1000053284861780E+01
  -0.7625375835905557E-31
   0.1000034650148647E+01
   0.9218743452396058E-31
   0.1000020923110685E+01
  -0.3988203293190845E-31
   0.1000002601659181E+01
   0.5234470759994887E-32
   0.1000037948496246E+01
  -0.1144717095982802E-30
   0.1000057298280147E+01
   0.4271938085301729E-31
   0.1000066728749817E+01
  -0.9640950062640566E-31
   0.1000076951530974E+01
   0.1709493265087376E-31
   0.1000065346674000E+01
  -0.4966748614207548E-31
   0.1000081053216401E+01
   0.2673682267698372E-31
   0.1000056377017416E+01
  -0.1658504117164020E-30
   0.1000050756136221E+01
   0.7522742383647924E-32
   0.1000061585688780E+01
  -0.6742246425014049E-31
   0.1000052551500349E+01
   0.4128224666523475E-31
   0.1000063330877610E+01
  -0.8252552524919429E-32
   0.1000008455634369E+01
  -0.3028649577997166E-32
   0.1000005121593624E+01
  -0.1450428792326627E-32
   0.1000002810510639E+01
  -0.2167765820674614E-33
   0.1000001898639856E+01
   0.3571047854936569E-33
   0.9999972101226119E+00
   0.7293759389349450E-33
   0.9999954327190798E+00
   0.4848045697548657E-33
   0.9999951253002615E+00
  -0.1640667803017262E-33
   0.9999969053505229E+00
   0.4059084999364944E-34
   0.9999965868222487E+00
   0.1055828122394478E-33
   0.9999953168073502E+00
   0.9426321925939172E-33
   0.9999924366065319E+00
   0.1103656136579457E-33
   0.1000001123784434E+01
  -0.1303343477444029E-31
   0.9999994251248119E+00
  -0.6871939754460171E-33
   0.1000024151302567E+01
  -0.2278150115932214E-31
   0.9999961480969930E+00
  -0.2646375246308293E-33
   0.9999977225448560E+00
  -0.2185007600103649E-33
   0.9999964676534313E+00
  -0.6251343713763950E-33
   0.9999978971810715E+00
  -0.8976666754117347E-33
   0.9999966118831387E+00
  -0.1490281710021811E-34
   0.1000002931166462E+01
  -0.4942729295202818E-32
   0.9999986856756848E+00
  -0.6746493699337319E-33
   0.9999970692360328E+00
   0.7639723309875007E-34
   0.1000012808161858E+01
  -0.1288051192794346E-31
   0.1000010408608516E+01
  -0.1324167498975628E-31
   0.1000026865268692E+01
   0.1223837681716181E-31
   0.1000034049575920E+01
  -0.2400885104337082E-31
   0.1000007194792850E+01
  -0.1493613489130775E-32
   0.1000000991032580E+01
  -0.1888301534902638E-32
   0.1000002092075196E+01
   0.1196654094074758E-33
   0.1000002117849307E+01
  -0.5722482431090597E-34
   0.1000001809686924E+01
  -0.4286610116143868E-33
   0.1000002017379972E+01
  -0.6593128518671138E-33
   0.1000002838598296E+01
   0.1390924981250457E-34
   0.1000005388246720E+01
   0.2243139835493835E-32
   0.1000009987895248E+01
   0.1078220245846365E-31
   0.1000011386232322E+01
  -0.1018858283243589E-31
   0.1000002732889914E+01
   0.7941861563436987E-34
   0.1000002611140663E+01
  -0.2401071627654469E-33
   0.1000011960938251E+01
   0.9692821815829358E-32
   0.1000009526931459E+01
  -0.1881569922224881E-31
   0.1000009524984215E+01
  -0.3835862336607870E-31
   0.1000009822160607E+01
  -0.5788401748173316E-32
   0.1000006591328405E+01
   0.2634355477120496E-32
   0.1000002616642064E+01
   0.1737037132086899E-34
   0.1000004384556636E+01
   0.3651630121390144E-33
   0.1000003994091908E+01
   0.6983415945818064E-33
   0.1000003218541217E+01
  -0.1833036749642851E-33
   0.1000002618954654E+01
   0.3797698973746211E-34
   0.1000006797134311E+01
  -0.3037300573643116E-32
   0.1000004416670143E+01
  -0.1289041959041979E-32
   0.1000008913430293E+01
   0.3555528322139225E-32
   0.1000006898928582E+01
   0.6500527956142086E-33
   0.9999972415588544E+00
   0.3470217903215016E-34
   0.9999972770955388E+00
   0.4561165262069942E-34
   0.9999971071858408E+00
   0.1720181643096650E-34
   0.9999968167339196E+00
  -0.5105372715258115E-34
   0.9999950213145913E+00
  -0.6079199742559027E-33
   0.9999953955165557E+00
  -0.1493986020630963E-32
   0.9999976011966090E+00
  -0.1571021616916353E-32
   0.9999978670309742E+00
   0.3321101680572302E-33
   0.9999954607537707E+00
  -0.3549387229784075E-33
   0.9999953922581188E+00
  -0.3814382977081994E-34
   0.9999979551670030E+00
  -0.1184194430374211E-32
   0.9999981137684936E+00
  -0.4829832456956310E-33
   0.9999987757062272E+00
  -0.1626272661840014E-33
   0.9999957677679916E+00
  -0.2513874491624807E-34
   0.9999957330093089E+00
  -0.1600429936980628E-32
   0.9999959193777841E+00
  -0.9791828263584331E-34
   0.9999948735245515E+00
  -0.6910165675239788E-33
   0.9999949512069682E+00
  -0.9832418266020077E-33
   0.9999956592630050E+00
  -0.6369650748849284E-34
   0.9999958693901483E+00
   0.7123561773400896E-33
   0.9999951155727540E+00
   0.2637442718991004E-33
   0.9999948157921319E+00
  -0.8966921341871529E-34
   0.9999956359669405E+00
  -0.7258391450764965E-33
   0.9999919372457166E+00
  -0.7196433684311261E-32
   0.9999949209955543E+00
  -0.1182655884277169E-32
   0.9999962709473781E+00
  -0.3661231002477420E-33
   0.9999965660640198E+00
   0.8203502340382693E-34
   0.9999869392284304E+00
  -0.1767842549681777E-31
   0.9999897037213297E+00
   0.4064310098079508E-32
   0.9999963256217008E+00
  -0.6464730094685742E-33
   0.9999966537829146E+00
  -0.1554751604948685E-33
   0.9999968688433777E+00
   0.1171720077999581E-33
   0.9999959081363837E+00
   0.1845268506344688E-33
   0.9999946282147437E+00
  -0.1433262579639137E-32
   0.9999877009225974E+00
   0.2178320903475526E-31
   0.9999917334850053E+00
   0.3754521587176761E-32
   0.9999941696191305E+00
  -0.9483731990104778E-34
   0.9999879724299701E+00
   0.2619154403791830E-31
   0.9999960278345481E+00
   0.1718065914666569E-33
   0.9999943553623087E+00
   0.5594028070811655E-33
   0.9999935683775956E+00
   0.1676798948717750E-32
   0.9999952213088754E+00
   0.3827415151005082E-33
   0.1000008585763918E+01
   0.4917508728367801E-31
   0.9999997846658870E+00
  -0.4292578093015605E-33
   0.1000029270900003E+01
   0.5401253923889407E-31
   0.9999961484908955E+00
  -0.2933601270506274E-33
   0.9999980425938921E+00
   0.2681557750815836E-32
   0.9999962863318054E+00
   0.7572423253970274E-33
   0.9999986551127573E+00
   0.7218588010854697E-32
   0.9999968303721657E+00
  -0.4139992764912410E-33
   0.1000003037119284E+01
   0.1920963907986324E-32
   0.9999993168863452E+00
   0.5093317205930375E-33
   0.9999974926859286E+00
  -0.8990238806663920E-33
   0.1000013898540447E+01
   0.8104476309307575E-32
   0.1000011706743800E+01
   0.9051019086999981E-32
   0.1000033020315084E+01
   0.1202937710353967E-30
   0.1000035153297446E+01
  -0.3237345038039992E-32
   0.1000009728387899E+01
   0.2590117331721156E-31
   0.1000001941704021E+01
   0.4336751938169477E-32
   0.1000001500752858E+01
  -0.2177204366819830E-32
   0.9999970102793149E+00
   0.1023576327133549E-32
   0.9999978430780390E+00
  -0.1066847425942973E-32
   0.1000001889037849E+01
  -0.4074936409880502E-32
   0.9999954679058819E+00
  -0.6665352736055505E-33
   0.9999973609539838E+00
  -0.2489235903430842E-32
   0.1000005074325243E+01
  -0.1446887908837409E-31
   0.9999958286248697E+00
   0.4943547461109830E-33
   0.9999964867373047E+00
  -0.3148665112652814E-33
   0.9999959582205523E+00
  -0.4673679354367224E-33
   0.1000001035131394E+01
  -0.4776542803312435E-32
   0.1000006742231770E+01
  -0.1697057066541570E-31
   0.9999957361304395E+00
  -0.6485602255410650E-33
   0.9999997097819039E+00
  -0.2333715530661392E-32
   0.1000011265021144E+01
  -0.5709311970369570E-32
   0.1000003983372634E+01
  -0.5761419932243282E-32
   0.9999999347147990E+00
  -0.1196714236103284E-32
   0.1000006970112445E+01
  -0.4907055867317015E-32
   0.9999965162728007E+00
  -0.2222763138846799E-33
   0.9999960219636048E+00
   0.2573068842732273E-33
   0.9999976521435996E+00
  -0.2008538502100121E-33
   0.1000004319727831E+01
   0.6998660541333947E-33
   0.1000000065572735E+01
   0.1098684008274317E-32
   0.9999957830620252E+00
   0.8887907430389582E-34
   0.9999961345684006E+00
   0.2846593932947022E-32
   0.1000000744667416E+01
   0.9577102018792497E-32
   0.1000011205808593E+01
   0.4803988779872578E-32
   0.9999956759052040E+00
  -0.2234376041773227E-33
   0.9999961241973141E+00
   0.8116205556168973E-33
   0.1000032129356680E+01
  -0.4283865465101448E-31
   0.1000025085803001E+01
  -0.3957476151463374E-31
   0.1000014628353345E+01
  -0.9049339795765624E-32
   0.1000006205406607E+01
  -0.7589613333202632E-32
   0.1000026428653569E+01
  -0.3549669998341049E-31
   0.1000010689418361E+01
  -0.1469190660054125E-31
   0.1000006534438253E+01
  -0.3003337000856873E-31
   0.9999969956816215E+00
   0.4806586436065677E-32
   0.1000004375944547E+01
  -0.2086061416254071E-32
   0.9999994171360835E+00
  -0.6349535498011714E-33
   0.9999968301659730E+00
  -0.9588884520372409E-34
   0.1000008609440709E+01
   0.2556622831166262E-32
   0.1000005430945957E+01
   0.4216263075043713E-32
   0.1000018024325555E+01
   0.1110090638992975E-31
   0.1000006719021433E+01
   0.3386862085812745E-32
   0.1000001544142044E+01
   0.5397681866155171E-33
   0.1000000954003939E+01
   0.5729435199570026E-33
   0.1000002077656172E+01
   0.4127717593874363E-32
   0.1000017316862719E+01
  -0.2066761744618518E-31
   0.1000025236563483E+01
  -0.5047990559640978E-31
   0.1000021705568907E+01
  -0.2316728603146512E-31
   0.1000012145613895E+01
   0.7358653394495148E-32
   0.1000040672753685E+01
   0.2092454032105148E-31
   0.1000027632200903E+01
   0.6018225928364755E-32
   0.1000020225355509E+01
   0.4125410931636247E-32
   0.1000026401471896E+01
  -0.1583980709396464E-32
   0.1000052777776738E+01
   0.1561791816706925E-31
   0.9999967161148461E+00
  -0.1892028346207924E-33
   0.9999958050537826E+00
  -0.1363552797300626E-33
   0.9999984779139435E+00
  -0.1798137406600866E-33
   0.1000001549915228E+01
  -0.1791676700536745E-32
   0.1000045648918599E+01
  -0.2216106470313302E-31
   0.1000045951621995E+01
  -0.4309159443634424E-31
   0.1000043045610112E+01
   0.4963861005360800E-31
   0.9999970249938378E+00
  -0.1072568311929685E-33
   0.9999988943287823E+00
   0.2519173596149304E-36
   0.1000000451539163E+01
  -0.1729629623424608E-32
   0.1000007920955813E+01
   0.9945765830236220E-32
   0.1000022459451749E+01
   0.4557151719373653E-31
   0.1000050502455538E+01
   0.2464658826346088E-31
SCALARS v double 1
LOOKUP_TABLE default
   0.0000000000000000E+00
   0.0000000000000000E+00
   0.0000000000000000E+00
   0.0000000000000000E+00
   0.0000000000000000E+00
   0.0000000000000000E+00
   0.0000000000000000E+00
   0.0000000000000000E+00
   0.0000000000000000E+00
   0.0000000000000000E+00
  -0.1530107778049508E-04
  -0.2134028150100431E-31
  -0.3576459238008504E-05
  -0.8602262829958828E-31
   0.1330393985760954E-04
  -0.4371236243217499E-31
   0.0000000000000000E+00
   0.0000000000000000E+00
   0.0000000000000000E+00
   0.0000000000000000E+00
   0.0000000000000000E+00
   0.0000000000000000E+00
   0.0000000000000000E+00
   0.0000000000000000E+00
   0.0000000000000000E+00
   0.0000000000000000E+00
   0.1944721515788822E-06
   0.2951528205302576E-32
   0.7726025449399009E-05
   0.2441707586553287E-31
   0.1787536090694580E-05
   0.1055734810852861E-31
   0.6133578422168994E-06
  -0.5255757424631961E-31
   0.1256828753740010E-04
   0.1654351550926285E-31
  -0.7262436843200368E-05
   0.3488381153646746E-32
  -0.1173792203234742E-04
  -0.6272162601055403E-32
   0.2742097310018901E-05
   0.3908339081459583E-31
   0.2656296623619875E-05
   0.5444524296281887E-31
   0.6513195720150818E-05
   0.3325041310526432E-31
  -0.9979850880727678E-05
  -0.3634901369817887E-31
   0.8141637278539129E-05
  -0.2126407002773369E-31
  -0.3349485774546170E-05
  -0.2750355611681502E-31
  -0.8796092838523036E-06
   0.2211255248360059E-31
   0.3569616079062118E-05
  -0.2817082810631909E-31
  -0.1185055105506963E-04
  -0.9126026004786405E-31
   0.1031617108188424E-04
  -0.2708072401505491E-31
   0.8899092269216626E-05
   0.3002197706734734E-31
  -0.8891045944753473E-05
  -0.6075561599470247E-31
   0.2107119186070267E-05
   0.1161187929981537E-32
   0.0000000000000000E+00
   0.0000000000000000E+00
   0.0000000000000000E+00
   0.0000000000000000E+00
   0.0000000000000000E+00
   0.0000000000000000E+00
   0.0000000000000000E+00
   0.0000000000000000E+00
   0.0000000000000000E+00
   0.0000000000000000E+00
   0.0000000000000000E+00
   0.0000000000000000E+00
   0.0000000000000000E+00
   0.0000000000000000E+00
   0.0000000000000000E+00
   0.0000000000000000E+00
   0.0000000000000000E+00
   0.0000000000000000E+00
   0.0000000000000000E+00
   0.0000000000000000E+00
   0.0000000000000000E+00
   0.0000000000000000E+00
   0.0000000000000000E+00
   0.0000000000000000E+00
   0.0000000000000000E+00
   0.0000000000000000E+00
   0.0000000000000000E+00
   0.0000000000000000E+00
   0.0000000000000000E+00
   0.0000000000000000E+00
   0.0000000000000000E+00
   0.0000000000000000E+00
   0.0000000000000000E+00
   0.0000000000000000E+00
   0.0000000000000000E+00
   0.0000000000000000E+00
   0.0000000000000000E+00
   0.0000000000000000E+00
   0.0000000000000000E+00
   0.0000000000000000E+00
   0.0000000000000000E+00
   0.0000000000000000E+00
   0.0000000000000000E+00
   0.0000000000000000E+00
   0.0000000000000000E+00
   0.0000000000000000E+00
   0.0000000000000000E+00
   0.0000000000000000E+00
   0.0000000000000000E+00
   0.0000000000000000E+00
   0.0000000000000000E+00
   0.0000000000000000E+00
   0.0000000000000000E+00
   0.0000000000000000E+00
   0.0000000000000000E+00
   0.0000000000000000E+00
   0.4842370288605850E-06
  -0.6977740235824449E-33
   0.1617965043102963E-06
   0.1201464038547462E-33
   0.6840439164806081E-08
   0.7039934707902111E-33
   0.0000000000000000E+00
   0.0000000000000000E+00
   0.0000000000000000E+00
   0.0000000000000000E+00
   0.0000000000000000E+00
   0.0000000000000000E+00
   0.0000000000000000E+00
   0.0000000000000000E+00
  -0.2716105397174673E-05
   0.1826199628324323E-31
   0.1288614278106770E-06
   0.9230075189486176E-33
   0.7783066533436607E-06
  -0.3948679250234048E-33
   0.3904205133867863E-05
  -0.5047315932878716E-31
   0.2901538922699717E-05
  -0.2721520891177527E-31
  -0.4874744503956267E-05
  -0.4686760795567703E-31
   0.1725084985469404E-05
  -0.3375259451448142E-32
   0.4013858384333643E-07
  -0.3427832205944682E-32
   0.5323633556500266E-06
   0.9203089736500087E-33
   0.5298638039994573E-06
   0.1116757656917578E-34
  -0.2301322061501522E-06
  -0.1457296874758444E-33
   0.1521365987465418E-05
  -0.1058104887951875E-33
   0.7908272114396260E-06
  -0.1481806967219274E-33
   0.1025869171362794E-06
   0.4876069960798955E-32
   0.1331178157079021E-05
   0.2044703795544442E-33
   0.8934988491947932E-06
  -0.9666309011913583E-32
   0.2420649653956402E-05
  -0.6033448329961886E-32
  -0.1268718474072288E-06
   0.1108160579323510E-33
   0.2779884918657539E-07
   0.3447199553061830E-34
   0.1706834697172490E-06
   0.1445316656899808E-33
   0.0000000000000000E+00
   0.0000000000000000E+00
   0.0000000000000000E+00
   0.0000000000000000E+00
   0.0000000000000000E+00
   0.0000000000000000E+00
   0.0000000000000000E+00
   0.0000000000000000E+00
   0.5138945545409059E-06
  -0.6830737136328524E-33
   0.2834531662849522E-06
   0.1277878895774055E-34
  -0.2543260023503062E-06
  -0.2185200434017682E-33
  -0.1986127635372157E-06
   0.4679083916364755E-33
  -0.5167366975373224E-07
   0.5383195899892086E-34
   0.3683346622881021E-06
  -0.5029358278597026E-33
   0.2220588698479456E-06
  -0.7256485953004652E-33
  -0.3157701034185990E-08
  -0.1707189249236126E-33
   0.2615760228262524E-06
   0.5353320015856582E-34
   0.1547370458429362E-06
  -0.3561005782897242E-33
   0.1758381873933445E-06
  -0.9857598757586788E-34
   0.1509008188184649E-06
  -0.7679819956349659E-34
   0.1719501694351666E-06
  -0.6449956275089340E-33
  -0.8904616056877226E-07
  -0.4382583371590498E-33
  -0.3166112168166775E-07
  -0.5638763175903148E-33
  -0.8500393884270013E-07
  -0.2938118622695611E-33
   0.0000000000000000E+00
   0.0000000000000000E+00
   0.0000000000000000E+00
   0.0000000000000000E+00
   0.0000000000000000E+00
   0.0000000000000000E+00
   0.7706505836311197E-07
   0.2619662727605605E-34
  -0.1088098645442907E-06
   0.3961653794945556E-31
   0.1358817190440107E-05
  -0.7984450738646512E-32
  -0.9961771607619566E-07
  -0.4875602375392168E-33
  -0.7145817850050552E-07
   0.1580162376847544E-33
  -0.4168808710688950E-08
   0.1635373174154755E-33
  -0.1350213644190837E-06
   0.7466740975915696E-33
  -0.3752440080494691E-07
  -0.3573568420531383E-32
   0.5913127685779377E-05
  -0.2888383245694913E-31
   0.1024501801870974E-05
  -0.3003865888096362E-32
   0.1665893762507401E-06
   0.2795321942076025E-33
   0.3687316455577022E-05
   0.1963860582880097E-31
   0.1801165478382328E-06
   0.3211268409967634E-33
   0.2456222737407506E-06
   0.1673875251743927E-33
  -0.3766285181253693E-06
   0.3002202749924177E-32
  -0.7483890818523239E-06
   0.8864040937965213E-34
   0.0000000000000000E+00
   0.0000000000000000E+00
   0.0000000000000000E+00
   0.0000000000000000E+00
   0.0000000000000000E+00
   0.0000000000000000E+00
   0.0000000000000000E+00
   0.0000000000000000E+00
   0.0000000000000000E+00
   0.0000000000000000E+00
   0.0000000000000000E+00
   0.0000000000000000E+00
   0.0000000000000000E+00
   0.0000000000000000E+00
   0.0000000000000000E+00
   0.0000000000000000E+00
   0.0000000000000000E+00
   0.0000000000000000E+00
   0.0000000000000000E+00
   0.0000000000000000E+00
   0.0000000000000000E+00
   0.0000000000000000E+00
   0.0000000000000000E+00
   0.0000000000000000E+00
   0.0000000000000000E+00
   0.0000000000000000E+00
   0.0000000000000000E+00
   0.0000000000000000E+00
   0.0000000000000000E+00
   0.0000000000000000E+00
   0.0000000000000000E+00
   0.0000000000000000E+00
   0.0000000000000000E+00
   0.0000000000000000E+00
   0.1352946910871500E-05
   0.3003920126265286E-32
  -0.1224494535079451E-06
   0.9366433912465487E-33
   0.7841759407027296E-06
   0.1131827467205504E-32
   0.1322941202132204E-05
   0.6529492426581006E-32
   0.4153793446297940E-06
   0.1150100739103054E-32
   0.1632975226848654E-05
   0.9722601530037735E-32
   0.3200761624073943E-05
   0.4397572733223416E-32
  -0.2266097091647735E-06
   0.4827996962717025E-33
   0.8272339339683626E-07
  -0.2759919033719593E-33
   0.8107570711496594E-08
   0.7740450736108787E-33
   0.1724354090268496E-05
  -0.2070118111333786E-32
   0.3541262321387815E-05
  -0.2892361796447263E-31
   0.2525412267862671E-07
  -0.2536522209736371E-33
   0.9241956047285758E-06
  -0.1888906535349704E-33
   0.1973237477288717E-05
  -0.1743423671260265E-32
   0.1483108334935091E-05
   0.2209446221920541E-33
   0.1136611631356168E-05
   0.4756049288580299E-33
   0.1937392515934758E-05
  -0.1753706275763772E-32
   0.2483080061862791E-06
   0.5389268364380612E-33
   0.1547256947409447E-06
  -0.4081813214484431E-33
   0.5255337787012176E-06
  -0.4389185855368605E-33
   0.1304965017493341E-05
  -0.4072532527812538E-33
   0.4301339137881873E-06
   0.2550905117640856E-32
  -0.1310316188725517E-06
  -0.4786432970250099E-34
   0.1944250115321498E-06
   0.4752159603849425E-32
  -0.2260669691849084E-06