TITLE="fun3d_case_title"
VARIABLES="Iteration" "R_1" "R_2" "R_3" "R_4" "C_L" "C_D" "C_M_x" "C_M_y" "C_M_z" "Wall Time" "C_x" "C_y" "C_z" "C_Lp" "C_Dp" "C_Lv" "C_Dv" "C_M_xp" "C_M_yp" "C_M_zp" "C_M_xv" "C_M_yv" "C_M_zv" "C_xp" "C_yp" "C_zp" "C_xv" "C_yv" "C_zv"
ZONE  I=100 F=POINT
1  0.1947036651E-03  0.1298024434E-04  0.9567229352E-16  0.1310784371E-15 -0.9646302399E-03  0.1285107421E-06  0.9405157674E-04 -0.1480933611E-02  0.2469405751E-07  0.3413000000E+00  0.1285107421E-06  0.5388855383E-08 -0.9646302399E-03 -0.9646302399E-03  0.1285107421E-06  0.0000000000E+00  0.0000000000E+00  0.9405157674E-04 -0.1480933611E-02  0.2469405751E-07  0.0000000000E+00  0.0000000000E+00  0.0000000000E+00  0.1285107421E-06  0.5388855383E-08 -0.9646302399E-03  0.0000000000E+00  0.0000000000E+00  0.0000000000E+00
2  0.3476427193E-04  0.7991851897E-05  0.2830181128E-05  0.8463251645E-05 -0.4001001243E-03  0.9007799993E-07  0.2136236591E-04 -0.2228531597E-02  0.1352021064E-07  0.3978000000E+00  0.9007799993E-07  0.2912474923E-08 -0.4001001243E-03 -0.4001001243E-03  0.9007799993E-07  0.0000000000E+00  0.0000000000E+00  0.2136236591E-04 -0.2228531597E-02  0.1352021064E-07  0.0000000000E+00  0.0000000000E+00  0.0000000000E+00  0.9007799993E-07  0.2912474923E-08 -0.4001001243E-03  0.0000000000E+00  0.0000000000E+00  0.0000000000E+00
3  0.1513727109E-04  0.3736156225E-05  0.1323081418E-05  0.3849351369E-05 -0.4028402642E-03  0.6509050966E-07 -0.3230296136E-04 -0.1570391352E-02  0.5138794344E-08  0.4375000000E+00  0.6509050966E-07  0.6858573296E-09 -0.4028402642E-03 -0.4028402642E-03  0.6509050966E-07  0.0000000000E+00  0.0000000000E+00 -0.3230296136E-04 -0.1570391352E-02  0.5138794344E-08  0.0000000000E+00  0.0000000000E+00  0.0000000000E+00  0.6509050966E-07  0.6858573296E-09 -0.4028402642E-03  0.0000000000E+00  0.0000000000E+00  0.0000000000E+00
4  0.9426199455E-05  0.2173644605E-05  0.4905063482E-06  0.1751844638E-05 -0.5183785784E-03  0.5884819295E-07 -0.4341767694E-04 -0.1012157747E-02  0.3534915500E-08  0.4820000000E+00  0.5884819295E-07  0.2419622209E-09 -0.5183785784E-03 -0.5183785784E-03  0.5884819295E-07  0.0000000000E+00  0.0000000000E+00 -0.4341767694E-04 -0.1012157747E-02  0.3534915500E-08  0.0000000000E+00  0.0000000000E+00  0.0000000000E+00  0.5884819295E-07  0.2419622209E-09 -0.5183785784E-03  0.0000000000E+00  0.0000000000E+00  0.0000000000E+00
5  0.4164061306E-05  0.1452604332E-05  0.3700249526E-06  0.1184275876E-05 -0.5847096630E-03  0.5839028895E-07 -0.3927935520E-04 -0.7475239357E-03  0.4256652674E-08  0.5217000000E+00  0.5839028895E-07  0.4767594590E-09 -0.5847096630E-03 -0.5847096630E-03  0.5839028895E-07  0.0000000000E+00  0.0000000000E+00 -0.3927935520E-04 -0.7475239357E-03  0.4256652674E-08  0.0000000000E+00  0.0000000000E+00  0.0000000000E+00  0.5839028895E-07  0.4767594590E-09 -0.5847096630E-03  0.0000000000E+00  0.0000000000E+00  0.0000000000E+00
6  0.2294950474E-05  0.9168741782E-06  0.2096062143E-06  0.7041498982E-06 -0.6092965392E-03  0.5835996028E-07 -0.3338832692E-04 -0.6463874237E-03  0.5036414175E-08  0.5661000000E+00  0.5835996028E-07  0.7287207123E-09 -0.6092965392E-03 -0.6092965392E-03  0.5835996028E-07  0.0000000000E+00  0.0000000000E+00 -0.3338832692E-04 -0.6463874237E-03  0.5036414175E-08  0.0000000000E+00  0.0000000000E+00  0.0000000000E+00  0.5835996028E-07  0.7287207123E-09 -0.6092965392E-03  0.0000000000E+00  0.0000000000E+00  0.0000000000E+00
7  0.1099140864E-05  0.5577909117E-06  0.1232775562E-06  0.3943671029E-06 -0.6164080005E-03  0.5805303455E-07 -0.2880210425E-04 -0.6106393086E-03  0.5530830335E-08  0.6059000000E+00  0.5805303455E-07  0.8869784907E-09 -0.6164080005E-03 -0.6164080005E-03  0.5805303455E-07  0.0000000000E+00  0.0000000000E+00 -0.2880210425E-04 -0.6106393086E-03  0.5530830335E-08  0.0000000000E+00  0.0000000000E+00  0.0000000000E+00  0.5805303455E-07  0.8869784907E-09 -0.6164080005E-03  0.0000000000E+00  0.0000000000E+00  0.0000000000E+00
8  0.6345907422E-06  0.3277670586E-06  0.7805723636E-07  0.2223171502E-06 -0.6182052747E-03  0.5775957214E-07 -0.2571093666E-04 -0.5974547930E-03  0.5859569275E-08  0.6503000000E+00  0.5775957214E-07  0.9885795130E-09 -0.6182052747E-03 -0.6182052747E-03  0.5775957214E-07  0.0000000000E+00  0.0000000000E+00 -0.2571093666E-04 -0.5974547930E-03  0.5859569275E-08  0.0000000000E+00  0.0000000000E+00  0.0000000000E+00  0.5775957214E-07  0.9885795130E-09 -0.6182052747E-03  0.0000000000E+00  0.0000000000E+00  0.0000000000E+00
9  0.4084689952E-06  0.1876219400E-06  0.5460645078E-07  0.1318210459E-06 -0.6187406251E-03  0.5760303958E-07 -0.2376522681E-04 -0.5917717425E-03  0.6094843100E-08  0.6902000000E+00  0.5760303958E-07  0.1059332710E-08 -0.6187406251E-03 -0.6187406251E-03  0.5760303958E-07  0.0000000000E+00  0.0000000000E+00 -0.2376522681E-04 -0.5917717425E-03  0.6094843100E-08  0.0000000000E+00  0.0000000000E+00  0.0000000000E+00  0.5760303958E-07  0.1059332710E-08 -0.6187406251E-03  0.0000000000E+00  0.0000000000E+00  0.0000000000E+00
10  0.2403628917E-06  0.1047973958E-06  0.3468727884E-07  0.7920332171E-07 -0.6190623986E-03  0.5753771508E-07 -0.2259383799E-04 -0.5885224760E-03  0.6251472748E-08  0.7288000000E+00  0.5753771508E-07  0.1106345275E-08 -0.6190623986E-03 -0.6190623986E-03  0.5753771508E-07  0.0000000000E+00  0.0000000000E+00 -0.2259383799E-04 -0.5885224760E-03  0.6251472748E-08  0.0000000000E+00  0.0000000000E+00  0.0000000000E+00  0.5753771508E-07  0.1106345275E-08 -0.6190623986E-03  0.0000000000E+00  0.0000000000E+00  0.0000000000E+00
11  0.1350324683E-06  0.5735962591E-07  0.1960568141E-07  0.4456174482E-07 -0.6193889644E-03  0.5750441866E-07 -0.2191404358E-04 -0.5860050151E-03  0.6342491716E-08  0.9224000000E+00  0.5750441866E-07  0.1134148851E-08 -0.6193889644E-03 -0.6193889644E-03  0.5750441866E-07  0.0000000000E+00  0.0000000000E+00 -0.2191404358E-04 -0.5860050151E-03  0.6342491716E-08  0.0000000000E+00  0.0000000000E+00  0.0000000000E+00  0.5750441866E-07  0.1134148851E-08 -0.6193889644E-03  0.0000000000E+00  0.0000000000E+00  0.0000000000E+00
12  0.7207726420E-07  0.3127073448E-07  0.1079394686E-07  0.2302205389E-07 -0.6197189234E-03  0.5747980067E-07 -0.2153093203E-04 -0.5838811644E-03  0.6389712414E-08  0.9670000000E+00  0.5747980067E-07  0.1148944511E-08 -0.6197189234E-03 -0.6197189234E-03  0.5747980067E-07  0.0000000000E+00  0.0000000000E+00 -0.2153093203E-04 -0.5838811644E-03  0.6389712414E-08  0.0000000000E+00  0.0000000000E+00  0.0000000000E+00  0.5747980067E-07  0.1148944511E-08 -0.6197189234E-03  0.0000000000E+00  0.0000000000E+00  0.0000000000E+00
13  0.3843189334E-07  0.1699900809E-07  0.6035659265E-08  0.1133409030E-07 -0.6199964104E-03  0.5746152163E-07 -0.2131973472E-04 -0.5822779828E-03  0.6413048913E-08  0.1007000000E+01  0.5746152163E-07  0.1156374613E-08 -0.6199964104E-03 -0.6199964104E-03  0.5746152163E-07  0.0000000000E+00  0.0000000000E+00 -0.2131973472E-04 -0.5822779828E-03  0.6413048913E-08  0.0000000000E+00  0.0000000000E+00  0.0000000000E+00  0.5746152163E-07  0.1156374613E-08 -0.6199964104E-03  0.0000000000E+00  0.0000000000E+00  0.0000000000E+00
14  0.2132100580E-07  0.9038099064E-08  0.3421133560E-08  0.5761912088E-08 -0.6201840747E-03  0.5745040098E-07 -0.2120669188E-04 -0.5812766191E-03  0.6424700315E-08  0.1045600000E+01  0.5745040098E-07  0.1160051528E-08 -0.6201840747E-03 -0.6201840747E-03  0.5745040098E-07  0.0000000000E+00  0.0000000000E+00 -0.2120669188E-04 -0.5812766191E-03  0.6424700315E-08  0.0000000000E+00  0.0000000000E+00  0.0000000000E+00  0.5745040098E-07  0.1160051528E-08 -0.6201840747E-03  0.0000000000E+00  0.0000000000E+00  0.0000000000E+00
15  0.1160516513E-07  0.4667296933E-08  0.1935820983E-08  0.3173162421E-08 -0.6202846723E-03  0.5744510409E-07 -0.2114947273E-04 -0.5807781679E-03  0.6430615189E-08  0.1085600000E+01  0.5744510409E-07  0.1161861100E-08 -0.6202846723E-03 -0.6202846723E-03  0.5744510409E-07  0.0000000000E+00  0.0000000000E+00 -0.2114947273E-04 -0.5807781679E-03  0.6430615189E-08  0.0000000000E+00  0.0000000000E+00  0.0000000000E+00  0.5744510409E-07  0.1161861100E-08 -0.6202846723E-03  0.0000000000E+00  0.0000000000E+00  0.0000000000E+00
16  0.5954588858E-08  0.2392538122E-08  0.1091551395E-08  0.1809982418E-08 -0.6203256965E-03  0.5744324447E-07 -0.2112296769E-04 -0.5805933748E-03  0.6433563781E-08  0.1124400000E+01  0.5744324447E-07  0.1162731693E-08 -0.6203256965E-03 -0.6203256965E-03  0.5744324447E-07  0.0000000000E+00  0.0000000000E+00 -0.2112296769E-04 -0.5805933748E-03  0.6433563781E-08  0.0000000000E+00  0.0000000000E+00  0.0000000000E+00  0.5744324447E-07  0.1162731693E-08 -0.6203256965E-03  0.0000000000E+00  0.0000000000E+00  0.0000000000E+00
17  0.2994675584E-08  0.1245998133E-08  0.6250560218E-09  0.1020559379E-08 -0.6203366139E-03  0.5744289984E-07 -0.2111204994E-04 -0.5805545613E-03  0.6434964140E-08  0.1164700000E+01  0.5744289984E-07  0.1163135523E-08 -0.6203366139E-03 -0.6203366139E-03  0.5744289984E-07  0.0000000000E+00  0.0000000000E+00 -0.2111204994E-04 -0.5805545613E-03  0.6434964140E-08  0.0000000000E+00  0.0000000000E+00  0.0000000000E+00  0.5744289984E-07  0.1163135523E-08 -0.6203366139E-03  0.0000000000E+00  0.0000000000E+00  0.0000000000E+00
18  0.1594507630E-08  0.6527620290E-09  0.3658310550E-09  0.5646932958E-09 -0.6203369337E-03  0.5744301358E-07 -0.2110815190E-04 -0.5805613460E-03  0.6435591138E-08  0.1203700000E+01  0.5744301358E-07  0.1163316194E-08 -0.6203369337E-03 -0.6203369337E-03  0.5744301358E-07  0.0000000000E+00  0.0000000000E+00 -0.2110815190E-04 -0.5805613460E-03  0.6435591138E-08  0.0000000000E+00  0.0000000000E+00  0.0000000000E+00  0.5744301358E-07  0.1163316194E-08 -0.6203369337E-03  0.0000000000E+00  0.0000000000E+00  0.0000000000E+00
19  0.9018893845E-09  0.3376372309E-09  0.2150828712E-09  0.3061725129E-09 -0.6203355971E-03  0.5744316343E-07 -0.2110697150E-04 -0.5805716871E-03  0.6435854901E-08  0.1243900000E+01  0.5744316343E-07  0.1163394387E-08 -0.6203355971E-03 -0.6203355971E-03  0.5744316343E-07  0.0000000000E+00  0.0000000000E+00 -0.2110697150E-04 -0.5805716871E-03  0.6435854901E-08  0.0000000000E+00  0.0000000000E+00  0.0000000000E+00  0.5744316343E-07  0.1163394387E-08 -0.6203355971E-03  0.0000000000E+00  0.0000000000E+00  0.0000000000E+00
20  0.5083041956E-09  0.1755496046E-09  0.1251694137E-09  0.1615358760E-09 -0.6203350932E-03  0.5744324607E-07 -0.2110664751E-04 -0.5805757551E-03  0.6435959002E-08  0.1288900000E+01  0.5744324607E-07  0.1163427055E-08 -0.6203350932E-03 -0.6203350932E-03  0.5744324607E-07  0.0000000000E+00  0.0000000000E+00 -0.2110664751E-04 -0.5805757551E-03  0.6435959002E-08  0.0000000000E+00  0.0000000000E+00  0.0000000000E+00  0.5744324607E-07  0.1163427055E-08 -0.6203350932E-03  0.0000000000E+00  0.0000000000E+00  0.0000000000E+00
21  0.2777033468E-09  0.9568444932E-10  0.7191147003E-10  0.8356968125E-10 -0.6203353382E-03  0.5744327272E-07 -0.2110651233E-04 -0.5805753418E-03  0.6435998901E-08  0.1485800000E+01  0.5744327272E-07  0.1163440399E-08 -0.6203353382E-03 -0.6203353382E-03  0.5744327272E-07  0.0000000000E+00  0.0000000000E+00 -0.2110651233E-04 -0.5805753418E-03  0.6435998901E-08  0.0000000000E+00  0.0000000000E+00  0.0000000000E+00  0.5744327272E-07  0.1163440399E-08 -0.6203353382E-03  0.0000000000E+00  0.0000000000E+00  0.0000000000E+00
22  0.1506316933E-09  0.5459817650E-10  0.4075764301E-10  0.4360327341E-10 -0.6203357809E-03  0.5744327436E-07 -0.2110639549E-04 -0.5805736925E-03  0.6436015854E-08  0.1524800000E+01  0.5744327436E-07  0.1163446044E-08 -0.6203357809E-03 -0.6203357809E-03  0.5744327436E-07  0.0000000000E+00  0.0000000000E+00 -0.2110639549E-04 -0.5805736925E-03  0.6436015854E-08  0.0000000000E+00  0.0000000000E+00  0.0000000000E+00  0.5744327436E-07  0.1163446044E-08 -0.6203357809E-03  0.0000000000E+00  0.0000000000E+00  0.0000000000E+00
23  0.8322380663E-10  0.3138162333E-10  0.2278166880E-10  0.2331007633E-10 -0.6203360993E-03  0.5744327128E-07 -0.2110629180E-04 -0.5805725235E-03  0.6436024856E-08  0.1565100000E+01  0.5744327128E-07  0.1163448635E-08 -0.6203360993E-03 -0.6203360993E-03  0.5744327128E-07  0.0000000000E+00  0.0000000000E+00 -0.2110629180E-04 -0.5805725235E-03  0.6436024856E-08  0.0000000000E+00  0.0000000000E+00  0.0000000000E+00  0.5744327128E-07  0.1163448635E-08 -0.6203360993E-03  0.0000000000E+00  0.0000000000E+00  0.0000000000E+00
24  0.4594458947E-10  0.1802697275E-10  0.1267968723E-10  0.1255105670E-10 -0.6203362328E-03  0.5744327078E-07 -0.2110622397E-04 -0.5805721482E-03  0.6436029800E-08  0.1604100000E+01  0.5744327078E-07  0.1163449726E-08 -0.6203362328E-03 -0.6203362328E-03  0.5744327078E-07  0.0000000000E+00  0.0000000000E+00 -0.2110622397E-04 -0.5805721482E-03  0.6436029800E-08  0.0000000000E+00  0.0000000000E+00  0.0000000000E+00  0.5744327078E-07  0.1163449726E-08 -0.6203362328E-03  0.0000000000E+00  0.0000000000E+00  0.0000000000E+00
25  0.2458119287E-10  0.1059792810E-10  0.7185232907E-11  0.6719109681E-11 -0.6203362430E-03  0.5744327301E-07 -0.2110619984E-04 -0.5805722743E-03  0.6436031352E-08  0.1644700000E+01  0.5744327301E-07  0.1163449809E-08 -0.6203362430E-03 -0.6203362430E-03  0.5744327301E-07  0.0000000000E+00  0.0000000000E+00 -0.2110619984E-04 -0.5805722743E-03  0.6436031352E-08  0.0000000000E+00  0.0000000000E+00  0.0000000000E+00  0.5744327301E-07  0.1163449809E-08 -0.6203362430E-03  0.0000000000E+00  0.0000000000E+00  0.0000000000E+00
26  0.1295857550E-10  0.6400535147E-11  0.4221125015E-11  0.3653860796E-11 -0.6203362048E-03  0.5744327611E-07 -0.2110621044E-04 -0.5805725574E-03  0.6436030123E-08  0.1683900000E+01  0.5744327611E-07  0.1163449190E-08 -0.6203362048E-03 -0.6203362048E-03  0.5744327611E-07  0.0000000000E+00  0.0000000000E+00 -0.2110621044E-04 -0.5805725574E-03  0.6436030123E-08  0.0000000000E+00  0.0000000000E+00  0.0000000000E+00  0.5744327611E-07  0.1163449190E-08 -0.6203362048E-03  0.0000000000E+00  0.0000000000E+00  0.0000000000E+00
27  0.7159992109E-11  0.3868899623E-11  0.2557701944E-11  0.2065493012E-11 -0.6203361643E-03  0.5744327870E-07 -0.2110624001E-04 -0.5805728009E-03  0.6436027183E-08  0.1724400000E+01  0.5744327870E-07  0.1163448190E-08 -0.6203361643E-03 -0.6203361643E-03  0.5744327870E-07  0.0000000000E+00  0.0000000000E+00 -0.2110624001E-04 -0.5805728009E-03  0.6436027183E-08  0.0000000000E+00  0.0000000000E+00  0.0000000000E+00  0.5744327870E-07  0.1163448190E-08 -0.6203361643E-03  0.0000000000E+00  0.0000000000E+00  0.0000000000E+00
28  0.4240139410E-11  0.2297393064E-11  0.1563376742E-11  0.1193869260E-11 -0.6203361378E-03  0.5744328033E-07 -0.2110627448E-04 -0.5805729494E-03  0.6436023684E-08  0.1763600000E+01  0.5744328033E-07  0.1163447108E-08 -0.6203361378E-03 -0.6203361378E-03  0.5744328033E-07  0.0000000000E+00  0.0000000000E+00 -0.2110627448E-04 -0.5805729494E-03  0.6436023684E-08  0.0000000000E+00  0.0000000000E+00  0.0000000000E+00  0.5744328033E-07  0.1163447108E-08 -0.6203361378E-03  0.0000000000E+00  0.0000000000E+00  0.0000000000E+00
29  0.2584010799E-11  0.1340606908E-11  0.9428809942E-12  0.6925760464E-12 -0.6203361248E-03  0.5744328115E-07 -0.2110630501E-04 -0.5805730200E-03  0.6436020473E-08  0.1804100000E+01  0.5744328115E-07  0.1163446148E-08 -0.6203361248E-03 -0.6203361248E-03  0.5744328115E-07  0.0000000000E+00  0.0000000000E+00 -0.2110630501E-04 -0.5805730200E-03  0.6436020473E-08  0.0000000000E+00  0.0000000000E+00  0.0000000000E+00  0.5744328115E-07  0.1163446148E-08 -0.6203361248E-03  0.0000000000E+00  0.0000000000E+00  0.0000000000E+00
30  0.1575876344E-11  0.7701876304E-12  0.5532363303E-12  0.4102327289E-12 -0.6203361198E-03  0.5744328149E-07 -0.2110632794E-04 -0.5805730470E-03  0.6436017973E-08  0.1850400000E+01  0.5744328149E-07  0.1163445409E-08 -0.6203361198E-03 -0.6203361198E-03  0.5744328149E-07  0.0000000000E+00  0.0000000000E+00 -0.2110632794E-04 -0.5805730470E-03  0.6436017973E-08  0.0000000000E+00  0.0000000000E+00  0.0000000000E+00  0.5744328149E-07  0.1163445409E-08 -0.6203361198E-03  0.0000000000E+00  0.0000000000E+00  0.0000000000E+00
31  0.9548973651E-12  0.4326333697E-12  0.3146632772E-12  0.2515291095E-12 -0.6203361183E-03  0.5744328160E-07 -0.2110634308E-04 -0.5805730563E-03  0.6436016263E-08  0.2045800000E+01  0.5744328160E-07  0.1163444902E-08 -0.6203361183E-03 -0.6203361183E-03  0.5744328160E-07  0.0000000000E+00  0.0000000000E+00 -0.2110634308E-04 -0.5805730563E-03  0.6436016263E-08  0.0000000000E+00  0.0000000000E+00  0.0000000000E+00  0.5744328160E-07  0.1163444902E-08 -0.6203361183E-03  0.0000000000E+00  0.0000000000E+00  0.0000000000E+00
32  0.5669847839E-12  0.2353726298E-12  0.1750814252E-12  0.1545796326E-12 -0.6203361177E-03  0.5744328164E-07 -0.2110635198E-04 -0.5805730607E-03  0.6436015222E-08  0.2085800000E+01  0.5744328164E-07  0.1163444590E-08 -0.6203361177E-03 -0.6203361177E-03  0.5744328164E-07  0.0000000000E+00  0.0000000000E+00 -0.2110635198E-04 -0.5805730607E-03  0.6436015222E-08  0.0000000000E+00  0.0000000000E+00  0.0000000000E+00  0.5744328164E-07  0.1163444590E-08 -0.6203361177E-03  0.0000000000E+00  0.0000000000E+00  0.0000000000E+00
33  0.3230614760E-12  0.1237161781E-12  0.9718903427E-13  0.9111573100E-13 -0.6203361171E-03  0.5744328166E-07 -0.2110635656E-04 -0.5805730643E-03  0.6436014662E-08  0.2125100000E+01  0.5744328166E-07  0.1163444419E-08 -0.6203361171E-03 -0.6203361171E-03  0.5744328166E-07  0.0000000000E+00  0.0000000000E+00 -0.2110635656E-04 -0.5805730643E-03  0.6436014662E-08  0.0000000000E+00  0.0000000000E+00  0.0000000000E+00  0.5744328166E-07  0.1163444419E-08 -0.6203361171E-03  0.0000000000E+00  0.0000000000E+00  0.0000000000E+00
34  0.1756298369E-12  0.6305533150E-13  0.5488103358E-13  0.5079846363E-13 -0.6203361166E-03  0.5744328167E-07 -0.2110635857E-04 -0.5805730675E-03  0.6436014399E-08  0.2164300000E+01  0.5744328167E-07  0.1163444337E-08 -0.6203361166E-03 -0.6203361166E-03  0.5744328167E-07  0.0000000000E+00  0.0000000000E+00 -0.2110635857E-04 -0.5805730675E-03  0.6436014399E-08  0.0000000000E+00  0.0000000000E+00  0.0000000000E+00  0.5744328167E-07  0.1163444337E-08 -0.6203361166E-03  0.0000000000E+00  0.0000000000E+00  0.0000000000E+00
35  0.9308731336E-13  0.3130105318E-13  0.3159817502E-13  0.2739771631E-13 -0.6203361162E-03  0.5744328169E-07 -0.2110635923E-04 -0.5805730697E-03  0.6436014300E-08  0.2203700000E+01  0.5744328169E-07  0.1163444304E-08 -0.6203361162E-03 -0.6203361162E-03  0.5744328169E-07  0.0000000000E+00  0.0000000000E+00 -0.2110635923E-04 -0.5805730697E-03  0.6436014300E-08  0.0000000000E+00  0.0000000000E+00  0.0000000000E+00  0.5744328169E-07  0.1163444304E-08 -0.6203361162E-03  0.0000000000E+00  0.0000000000E+00  0.0000000000E+00
36  0.4895441574E-13  0.1519063281E-13  0.1838288963E-13  0.1512259428E-13 -0.6203361159E-03  0.5744328169E-07 -0.2110635931E-04 -0.5805730711E-03  0.6436014277E-08  0.2243200000E+01  0.5744328169E-07  0.1163444295E-08 -0.6203361159E-03 -0.6203361159E-03  0.5744328169E-07  0.0000000000E+00  0.0000000000E+00 -0.2110635931E-04 -0.5805730711E-03  0.6436014277E-08  0.0000000000E+00  0.0000000000E+00  0.0000000000E+00  0.5744328169E-07  0.1163444295E-08 -0.6203361159E-03  0.0000000000E+00  0.0000000000E+00  0.0000000000E+00
37  0.2622653784E-13  0.7513736944E-14  0.1088163495E-13  0.8760208710E-14 -0.6203361158E-03  0.5744328170E-07 -0.2110635920E-04 -0.5805730717E-03  0.6436014281E-08  0.2282700000E+01  0.5744328170E-07  0.1163444296E-08 -0.6203361158E-03 -0.6203361158E-03  0.5744328170E-07  0.0000000000E+00  0.0000000000E+00 -0.2110635920E-04 -0.5805730717E-03  0.6436014281E-08  0.0000000000E+00  0.0000000000E+00  0.0000000000E+00  0.5744328170E-07  0.1163444296E-08 -0.6203361158E-03  0.0000000000E+00  0.0000000000E+00  0.0000000000E+00
38  0.1464571270E-13  0.4193641802E-14  0.6606447691E-14  0.5098876012E-14 -0.6203361157E-03  0.5744328170E-07 -0.2110635908E-04 -0.5805730718E-03  0.6436014290E-08  0.2322200000E+01  0.5744328170E-07  0.1163444298E-08 -0.6203361157E-03 -0.6203361157E-03  0.5744328170E-07  0.0000000000E+00  0.0000000000E+00 -0.2110635908E-04 -0.5805730718E-03  0.6436014290E-08  0.0000000000E+00  0.0000000000E+00  0.0000000000E+00  0.5744328170E-07  0.1163444298E-08 -0.6203361157E-03  0.0000000000E+00  0.0000000000E+00  0.0000000000E+00
39  0.8289608200E-14  0.2780893822E-14  0.4113174310E-14  0.2860251525E-14 -0.6203361157E-03  0.5744328170E-07 -0.2110635901E-04 -0.5805730718E-03  0.6436014297E-08  0.2361600000E+01  0.5744328170E-07  0.1163444300E-08 -0.6203361157E-03 -0.6203361157E-03  0.5744328170E-07  0.0000000000E+00  0.0000000000E+00 -0.2110635901E-04 -0.5805730718E-03  0.6436014297E-08  0.0000000000E+00  0.0000000000E+00  0.0000000000E+00  0.5744328170E-07  0.1163444300E-08 -0.6203361157E-03  0.0000000000E+00  0.0000000000E+00  0.0000000000E+00
40  0.5597502131E-14  0.1818836417E-14  0.2584284950E-14  0.1481454134E-14 -0.6203361157E-03  0.5744328170E-07 -0.2110635897E-04 -0.5805730717E-03  0.6436014300E-08  0.2412800000E+01  0.5744328170E-07  0.1163444301E-08 -0.6203361157E-03 -0.6203361157E-03  0.5744328170E-07  0.0000000000E+00  0.0000000000E+00 -0.2110635897E-04 -0.5805730717E-03  0.6436014300E-08  0.0000000000E+00  0.0000000000E+00  0.0000000000E+00  0.5744328170E-07  0.1163444301E-08 -0.6203361157E-03  0.0000000000E+00  0.0000000000E+00  0.0000000000E+00
41  0.3778315492E-14  0.1201815851E-14  0.1605358992E-14  0.7923633015E-15 -0.6203361157E-03  0.5744328170E-07 -0.2110635897E-04 -0.5805730716E-03  0.6436014300E-08  0.2606300000E+01  0.5744328170E-07  0.1163444301E-08 -0.6203361157E-03 -0.6203361157E-03  0.5744328170E-07  0.0000000000E+00  0.0000000000E+00 -0.2110635897E-04 -0.5805730716E-03  0.6436014300E-08  0.0000000000E+00  0.0000000000E+00  0.0000000000E+00  0.5744328170E-07  0.1163444301E-08 -0.6203361157E-03  0.0000000000E+00  0.0000000000E+00  0.0000000000E+00
42  0.2528127575E-14  0.6960044299E-15  0.9517085621E-15  0.5061117746E-15 -0.6203361158E-03  0.5744328170E-07 -0.2110635897E-04 -0.5805730716E-03  0.6436014300E-08  0.2645900000E+01  0.5744328170E-07  0.1163444301E-08 -0.6203361158E-03 -0.6203361158E-03  0.5744328170E-07  0.0000000000E+00  0.0000000000E+00 -0.2110635897E-04 -0.5805730716E-03  0.6436014300E-08  0.0000000000E+00  0.0000000000E+00  0.0000000000E+00  0.5744328170E-07  0.1163444301E-08 -0.6203361158E-03  0.0000000000E+00  0.0000000000E+00  0.0000000000E+00
43  0.2571455907E-14  0.4550649895E-15  0.5276346667E-15  0.3720013399E-15 -0.6203361158E-03  0.5744328170E-07 -0.2110635897E-04 -0.5805730716E-03  0.6436014300E-08  0.2685400000E+01  0.5744328170E-07  0.1163444301E-08 -0.6203361158E-03 -0.6203361158E-03  0.5744328170E-07  0.0000000000E+00  0.0000000000E+00 -0.2110635897E-04 -0.5805730716E-03  0.6436014300E-08  0.0000000000E+00  0.0000000000E+00  0.0000000000E+00  0.5744328170E-07  0.1163444301E-08 -0.6203361158E-03  0.0000000000E+00  0.0000000000E+00  0.0000000000E+00
44  0.2265533056E-14  0.3574193489E-15  0.3164901868E-15  0.2813836900E-15 -0.6203361158E-03  0.5744328170E-07 -0.2110635897E-04 -0.5805730716E-03  0.6436014300E-08  0.2724900000E+01  0.5744328170E-07  0.1163444301E-08 -0.6203361158E-03 -0.6203361158E-03  0.5744328170E-07  0.0000000000E+00  0.0000000000E+00 -0.2110635897E-04 -0.5805730716E-03  0.6436014300E-08  0.0000000000E+00  0.0000000000E+00  0.0000000000E+00  0.5744328170E-07  0.1163444301E-08 -0.6203361158E-03  0.0000000000E+00  0.0000000000E+00  0.0000000000E+00
45  0.2064799086E-14  0.3503496945E-15  0.2166269587E-15  0.2253524442E-15 -0.6203361158E-03  0.5744328170E-07 -0.2110635898E-04 -0.5805730716E-03  0.6436014299E-08  0.2763900000E+01  0.5744328170E-07  0.1163444301E-08 -0.6203361158E-03 -0.6203361158E-03  0.5744328170E-07  0.0000000000E+00  0.0000000000E+00 -0.2110635898E-04 -0.5805730716E-03  0.6436014299E-08  0.0000000000E+00  0.0000000000E+00  0.0000000000E+00  0.5744328170E-07  0.1163444301E-08 -0.6203361158E-03  0.0000000000E+00  0.0000000000E+00  0.0000000000E+00
46  0.2104129549E-14  0.3572713542E-15  0.1956287263E-15  0.1601985723E-15 -0.6203361158E-03  0.5744328170E-07 -0.2110635898E-04 -0.5805730716E-03  0.6436014299E-08  0.2803400000E+01  0.5744328170E-07  0.1163444301E-08 -0.6203361158E-03 -0.6203361158E-03  0.5744328170E-07  0.0000000000E+00  0.0000000000E+00 -0.2110635898E-04 -0.5805730716E-03  0.6436014299E-08  0.0000000000E+00  0.0000000000E+00  0.0000000000E+00  0.5744328170E-07  0.1163444301E-08 -0.6203361158E-03  0.0000000000E+00  0.0000000000E+00  0.0000000000E+00
47  0.2194520361E-14  0.3322337260E-15  0.1565227936E-15  0.1823909274E-15 -0.6203361158E-03  0.5744328170E-07 -0.2110635898E-04 -0.5805730716E-03  0.6436014299E-08  0.2842800000E+01  0.5744328170E-07  0.1163444301E-08 -0.6203361158E-03 -0.6203361158E-03  0.5744328170E-07  0.0000000000E+00  0.0000000000E+00 -0.2110635898E-04 -0.5805730716E-03  0.6436014299E-08  0.0000000000E+00  0.0000000000E+00  0.0000000000E+00  0.5744328170E-07  0.1163444301E-08 -0.6203361158E-03  0.0000000000E+00  0.0000000000E+00  0.0000000000E+00
48  0.1983514168E-14  0.3458273246E-15  0.1348182075E-15  0.1808472031E-15 -0.6203361158E-03  0.5744328170E-07 -0.2110635898E-04 -0.5805730716E-03  0.6436014300E-08  0.2882400000E+01  0.5744328170E-07  0.1163444301E-08 -0.6203361158E-03 -0.6203361158E-03  0.5744328170E-07  0.0000000000E+00  0.0000000000E+00 -0.2110635898E-04 -0.5805730716E-03  0.6436014300E-08  0.0000000000E+00  0.0000000000E+00  0.0000000000E+00  0.5744328170E-07  0.1163444301E-08 -0.6203361158E-03  0.0000000000E+00  0.0000000000E+00  0.0000000000E+00
49  0.1919780406E-14  0.3393713235E-15  0.1427901914E-15  0.1747629022E-15 -0.6203361157E-03  0.5744328170E-07 -0.2110635898E-04 -0.5805730716E-03  0.6436014300E-08  0.2921800000E+01  0.5744328170E-07  0.1163444301E-08 -0.6203361157E-03 -0.6203361157E-03  0.5744328170E-07  0.0000000000E+00  0.0000000000E+00 -0.2110635898E-04 -0.5805730716E-03  0.6436014300E-08  0.0000000000E+00  0.0000000000E+00  0.0000000000E+00  0.5744328170E-07  0.1163444301E-08 -0.6203361157E-03  0.0000000000E+00  0.0000000000E+00  0.0000000000E+00
50  0.1910881301E-14  0.3058483071E-15  0.1535626654E-15  0.1836879663E-15 -0.6203361157E-03  0.5744328170E-07 -0.2110635898E-04 -0.5805730716E-03  0.6436014299E-08  0.2967400000E+01  0.5744328170E-07  0.1163444301E-08 -0.6203361157E-03 -0.6203361157E-03  0.5744328170E-07  0.0000000000E+00  0.0000000000E+00 -0.2110635898E-04 -0.5805730716E-03  0.6436014299E-08  0.0000000000E+00  0.0000000000E+00  0.0000000000E+00  0.5744328170E-07  0.1163444301E-08 -0.6203361157E-03  0.0000000000E+00  0.0000000000E+00  0.0000000000E+00
51  0.1878578904E-14  0.3176536122E-15  0.1266311433E-15  0.1760968263E-15 -0.6203361158E-03  0.5744328170E-07 -0.2110635898E-04 -0.5805730716E-03  0.6436014299E-08  0.3162200000E+01  0.5744328170E-07  0.1163444301E-08 -0.6203361158E-03 -0.6203361158E-03  0.5744328170E-07  0.0000000000E+00  0.0000000000E+00 -0.2110635898E-04 -0.5805730716E-03  0.6436014299E-08  0.0000000000E+00  0.0000000000E+00  0.0000000000E+00  0.5744328170E-07  0.1163444301E-08 -0.6203361158E-03  0.0000000000E+00  0.0000000000E+00  0.0000000000E+00
52  0.1902944912E-14  0.3242635119E-15  0.1449718959E-15  0.1769609152E-15 -0.6203361158E-03  0.5744328170E-07 -0.2110635898E-04 -0.5805730716E-03  0.6436014299E-08  0.3202000000E+01  0.5744328170E-07  0.1163444301E-08 -0.6203361158E-03 -0.6203361158E-03  0.5744328170E-07  0.0000000000E+00  0.0000000000E+00 -0.2110635898E-04 -0.5805730716E-03  0.6436014299E-08  0.0000000000E+00  0.0000000000E+00  0.0000000000E+00  0.5744328170E-07  0.1163444301E-08 -0.6203361158E-03  0.0000000000E+00  0.0000000000E+00  0.0000000000E+00
53  0.2014212834E-14  0.3428596981E-15  0.1479157748E-15  0.1649027767E-15 -0.6203361158E-03  0.5744328170E-07 -0.2110635898E-04 -0.5805730715E-03  0.6436014299E-08  0.3241700000E+01  0.5744328170E-07  0.1163444301E-08 -0.6203361158E-03 -0.6203361158E-03  0.5744328170E-07  0.0000000000E+00  0.0000000000E+00 -0.2110635898E-04 -0.5805730715E-03  0.6436014299E-08  0.0000000000E+00  0.0000000000E+00  0.0000000000E+00  0.5744328170E-07  0.1163444301E-08 -0.6203361158E-03  0.0000000000E+00  0.0000000000E+00  0.0000000000E+00
54  0.2014757181E-14  0.3275360598E-15  0.1555908591E-15  0.1733924371E-15 -0.6203361157E-03  0.5744328170E-07 -0.2110635898E-04 -0.5805730716E-03  0.6436014299E-08  0.3281600000E+01  0.5744328170E-07  0.1163444301E-08 -0.6203361157E-03 -0.6203361157E-03  0.5744328170E-07  0.0000000000E+00  0.0000000000E+00 -0.2110635898E-04 -0.5805730716E-03  0.6436014299E-08  0.0000000000E+00  0.0000000000E+00  0.0000000000E+00  0.5744328170E-07  0.1163444301E-08 -0.6203361157E-03  0.0000000000E+00  0.0000000000E+00  0.0000000000E+00
55  0.1937470884E-14  0.3875929563E-15  0.1494875956E-15  0.1674311510E-15 -0.6203361158E-03  0.5744328170E-07 -0.2110635898E-04 -0.5805730715E-03  0.6436014299E-08  0.3321100000E+01  0.5744328170E-07  0.1163444301E-08 -0.6203361158E-03 -0.6203361158E-03  0.5744328170E-07  0.0000000000E+00  0.0000000000E+00 -0.2110635898E-04 -0.5805730715E-03  0.6436014299E-08  0.0000000000E+00  0.0000000000E+00  0.0000000000E+00  0.5744328170E-07  0.1163444301E-08 -0.6203361158E-03  0.0000000000E+00  0.0000000000E+00  0.0000000000E+00
56  0.1973569570E-14  0.3478036472E-15  0.1758160755E-15  0.1600572893E-15 -0.6203361157E-03  0.5744328170E-07 -0.2110635898E-04 -0.5805730716E-03  0.6436014299E-08  0.3360600000E+01  0.5744328170E-07  0.1163444301E-08 -0.6203361157E-03 -0.6203361157E-03  0.5744328170E-07  0.0000000000E+00  0.0000000000E+00 -0.2110635898E-04 -0.5805730716E-03  0.6436014299E-08  0.0000000000E+00  0.0000000000E+00  0.0000000000E+00  0.5744328170E-07  0.1163444301E-08 -0.6203361157E-03  0.0000000000E+00  0.0000000000E+00  0.0000000000E+00