# vtk DataFile Version 2.0
FUN3D:global_image_vtk
ASCII
DATASET UNSTRUCTURED_GRID
POINTS 213 double
   -0.5474724527974484E-02    0.4999999999999887E-30    0.2504942005183128E+01
    0.1212121212121313E-30    0.8032163479709808E-04    0.5000000000000000E-30
    0.1245419076927911E+01    0.9999999999999927E-30    0.2504942005183128E+01
    0.1212121212121313E-30    0.1038423406333200E-03    0.1000000000000000E-29
    0.2497696090160995E+01    0.4999999999999964E-30    0.2504942005183128E+01
    0.1212121212121313E-30    0.1099835811035899E-03    0.5000000000000000E-30
    0.3750591000219026E+01    0.1000000000000000E-29    0.2504942005183128E+01
    0.1212121212121313E-30    0.1354569463548061E-03    0.1000000000000000E-29
    0.5003221393556912E+01    0.5000000000000037E-30    0.2504942005183128E+01
    0.1212121212121313E-30    0.9645062306590235E-04    0.5000000000000000E-30
    0.5004676757729920E+01    0.1000000000000007E-29    0.1281291415009508E+01
    0.5000000000000651E-30    0.1636229089325703E-03    0.1000000000000000E-29
    0.5004772733264879E+01    0.5000000000000113E-30    0.2775097973707502E-01
    0.1000000000000054E-29    0.1902233958897548E-03    0.5000000000000000E-30
    0.5003581221826302E+01    0.1000000000000000E-29   -0.1225853358115238E+01
    0.5000000000000500E-30    0.1607086140448799E-03    0.1000000000000000E-29
    0.5001952553134341E+01    0.5000000000000037E-30   -0.2496589016201703E+01
    0.1212121212121282E-30    0.1082092391279099E-03    0.5000000000000000E-30
    0.3750348122005743E+01    0.1000000000000000E-29   -0.2496589016201703E+01
    0.1212121212121282E-30    0.1458754894506087E-03    0.1000000000000000E-29
    0.2498611463539369E+01    0.4999999999999964E-30   -0.2496589016201703E+01
    0.1212121212121282E-30    0.1009099588109019E-03    0.5000000000000000E-30
    0.1247175261509184E+01    0.9999999999999927E-30   -0.2496589016201703E+01
    0.1212121212121282E-30    0.1108958292210249E-03    0.1000000000000000E-29
   -0.3383969652657637E-02    0.4999999999999922E-30   -0.2496589016201703E+01
    0.1212121212121282E-30    0.8113625948968917E-04    0.5000000000000000E-30
   -0.4257789880244722E-02    0.9999999999999927E-30   -0.1225734673000734E+01
    0.5000000000000500E-30    0.3418763781409846E-04    0.1000000000000000E-29
   -0.5251625685942951E-02    0.4999999999999887E-30    0.2619501496228406E-01
    0.1000000000000054E-29    0.1038778534219187E-03    0.5000000000000000E-30
   -0.5676101163759828E-02    0.9999999999999845E-30    0.1278221743537384E+01
    0.5000000000000571E-30    0.8222048501205226E-04    0.1000000000000000E-29
    0.9003209217916410E+00    0.4999999999999887E-30    0.1608979307793919E+01
    0.1000000000000062E-29    0.8697981908400987E-04    0.5000000000000000E-30
    0.3983172228635222E+01    0.1000000000000000E-29   -0.1561211762265163E+01
    0.5000000000000500E-30    0.1756748191494295E-03    0.1000000000000000E-29
    0.4035602079387201E+01    0.5000000000000000E-30    0.1486760266132127E+01
    0.1000000000000068E-29    0.1711706614120900E-03    0.5000000000000000E-30
    0.1036613706197514E+01    0.9999999999999927E-30   -0.1455626287804053E+01
    0.5000000000000500E-30    0.1047334496957486E-03    0.1000000000000000E-29
    0.1094353449885533E+01    0.4999999999999887E-30   -0.2964620398686527E+00
    0.1000000000000419E-29    0.1260432266615430E-03    0.5000000000000000E-30
    0.7298399877475077E+00    0.9999999999999845E-30    0.6874686505187821E+00
    0.5000000000008378E-30    0.1044287163688429E-03    0.1000000000000000E-29
    0.1617018623562922E+01    0.4999999999999887E-30    0.8553209978724449E+00
    0.1000000000000841E-29    0.1529204508723958E-03    0.5000000000000000E-30
    0.2143199653243058E+01    0.9999999999999927E-30   -0.1627128369719471E+01
    0.5000000000000500E-30    0.1606130186569965E-03    0.1000000000000000E-29
    0.4088840479724988E+01    0.5000000000000037E-30   -0.4351046111772547E+00
    0.1000000000000054E-29    0.2719112872097695E-03    0.5000000000000000E-30
    0.2977916509313417E+01    0.9999999999999927E-30   -0.8334989944044715E+00
    0.5000000000001393E-30    0.2245152481764046E-03    0.1000000000000000E-29
    0.3044093243998018E+01    0.4999999999999964E-30   -0.1814361085627647E+01
    0.1000000000000046E-29    0.1616866746874113E-03    0.5000000000000000E-30
    0.3427866629114648E+01    0.1000000000000000E-29    0.3813906924771510E+00
    0.5000000000000652E-30    0.2935982215775401E-03    0.1000000000000000E-29
    0.4313225407775388E+01    0.5000000000000037E-30    0.5489135452878106E+00
    0.1000000000000841E-29    0.2311713278243532E-03    0.5000000000000000E-30
    0.1823032713305206E+01    0.9999999999999927E-30    0.1771265414472351E+01
    0.5000000000000651E-30    0.1835256048548506E-03    0.1000000000000000E-29
    0.2806311149527161E+01    0.4999999999999964E-30    0.1358629605773757E+01
    0.1000000000000068E-29    0.1942351430203604E-03    0.5000000000000000E-30
    0.1891860854168060E+01    0.9999999999999927E-30   -0.8481308814089865E+00
    0.5000000000001393E-30    0.1670436315511781E-03    0.1000000000000000E-29
    0.2268769174863575E+01    0.4999999999999887E-30    0.7723710290791078E-01
    0.1000000000000054E-29    0.2071744350432003E-03    0.5000000000000000E-30
    0.5000000000000000E+01    0.4764602034988080E-46    0.2504942005183128E+01
    0.1212121212121313E-30    0.1250000000000000E+01    0.4764602034988080E-46
    0.5000000000000000E+01    0.4764602034988080E-46    0.2504942005183128E+01
    0.1212121212121313E-30    0.2500000000000000E+01    0.4764602034988080E-46
    0.5000000000000000E+01    0.4764602034988080E-46    0.2504942005183128E+01
    0.1212121212121313E-30    0.3750000000000000E+01    0.4764602034988080E-46
    0.5000000000000000E+01    0.4764602034988080E-46    0.2504942005183128E+01
    0.1212121212121313E-30    0.5000000000000000E+01    0.4764602034988080E-46
    0.3750000000000000E+01    0.4764602034988080E-46    0.2504942005183128E+01
    0.1212121212121313E-30    0.5000000000000000E+01    0.4764602034988080E-46
    0.2500000000000000E+01    0.4764602034988080E-46    0.2504942005183128E+01
    0.1212121212121313E-30    0.5000000000000000E+01    0.4764602034988080E-46
    0.1250000000000000E+01    0.4764602034988080E-46    0.2504942005183128E+01
    0.1212121212121313E-30    0.5000000000000000E+01    0.4764602034988080E-46
    0.4394709908136436E-18    0.4764602034988080E-46    0.2504942005183128E+01
    0.1212121212121313E-30    0.5000000000000000E+01    0.4764602034988080E-46
    0.4394709908136436E-18    0.4764602034988080E-46    0.2504942005183128E+01
    0.1212121212121313E-30    0.3750000000000000E+01    0.4764602034988080E-46
    0.4394709908136436E-18    0.4764602034988080E-46    0.2504942005183128E+01
    0.1212121212121313E-30    0.2500000000000000E+01    0.4764602034988080E-46
    0.4394709908136436E-18    0.4764602034988080E-46    0.2504942005183128E+01
    0.1212121212121313E-30    0.1250000000000000E+01    0.4764602034988080E-46
    0.9588956281564853E+00    0.4088323204882669E-30    0.2504942005183128E+01
    0.1212121212121313E-30    0.9696525381352058E+00    0.8253355966553495E-30
    0.3981953078738459E+01    0.7369699780695488E-31    0.2504942005183128E+01
    0.1212121212121313E-30    0.4070563842685061E+01    0.1516277355831501E-30
    0.4036122227630946E+01    0.5331184872988818E-30    0.2504942005183128E+01
    0.1212121212121313E-30    0.1017567397295510E+01    0.8139234257758903E-30
    0.9637572814423745E+00   -0.9331067766183375E-32    0.2504942005183128E+01
    0.1212121212121313E-30    0.3973598195302102E+01    0.1306014370169125E-30
    0.1546540145187409E+01    0.8002905657977946E-31    0.2504942005183128E+01
    0.1212121212121313E-30    0.2931570146914614E+01    0.3996885550969834E-30
    0.6973799555340370E+00    0.3481309068962335E-32    0.2504942005183128E+01
    0.1212121212121313E-30    0.3070319941807037E+01    0.2100037182696425E-30
    0.8903742131192842E+00    0.7712488796435442E-31    0.2504942005183128E+01
    0.1212121212121313E-30    0.2056562221911887E+01    0.4294668085402327E-30
    0.2183042000953214E+01    0.3782461580951698E-31    0.2504942005183128E+01
    0.1212121212121313E-30    0.3960694433663586E+01    0.2259705361718510E-30
    0.3855844876673410E+01    0.1784932175602913E-30    0.2504942005183128E+01
    0.1212121212121313E-30    0.2933250553336676E+01    0.3558534735541043E-30
    0.3152611372409050E+01    0.1115283363374366E-30    0.2504942005183128E+01
    0.1212121212121313E-30    0.3637668364444232E+01    0.2959845527163909E-30
    0.3103307387203379E+01    0.5185271477161377E-31    0.2504942005183128E+01
    0.1212121212121313E-30    0.4332607801661249E+01    0.1521436499780048E-30
    0.3266711063326202E+01    0.3601961362743589E-30    0.2504942005183128E+01
    0.1212121212121313E-30    0.1889656537914600E+01    0.6353768785676792E-30
    0.4232537560707506E+01    0.2580489315429834E-30    0.2504942005183128E+01
    0.1212121212121313E-30    0.1918626923072697E+01    0.4090791405813261E-30
    0.1905522367558317E+01    0.6572817491142451E-30    0.2504942005183128E+01
    0.1212121212121313E-30    0.7226290082749999E+00    0.8977306600900936E-30
    0.2879767751810808E+01    0.6107141644547619E-30    0.2504942005183128E+01
    0.1212121212121313E-30    0.9080944620494492E+00    0.8180347387425695E-30
    0.2012711380865913E+01    0.3615868018469565E-30    0.2504942005183128E+01
    0.1212121212121313E-30    0.1767082331614309E+01    0.7060364642889229E-30
    0.2669681485317003E+01    0.1849800474545838E-30    0.2504942005183128E+01
    0.1212121212121313E-30    0.2853394290310446E+01    0.4820509466876428E-30
    0.5000000000000000E+01    0.4764602034988080E-46    0.1250000000000000E+01
    0.4764602034988080E-46    0.5000000000000000E+01    0.4764602034988080E-46
    0.5000000000000000E+01    0.4764602034988080E-46    0.4394709908136436E-18
[...]
POINT_DATA 213
SCALARS u double 1
LOOKUP_TABLE default
   0.9999813700427743E+00
  -0.4156212042730954E-31
   0.1000027587052378E+01
   0.5333432039461508E-31
   0.1000058966049425E+01
  -0.2223353575789887E-31
   0.1000048982061426E+01
  -0.5550320404756342E-31
   0.1000014679893219E+01
  -0.3664137928650553E-31
   0.1000011111249618E+01
  -0.1104701582253871E-30
   0.1000014335378960E+01
  -0.8635797510777635E-31
   0.1000016492828070E+01
  -0.5480418714938661E-31
   0.1000019745520765E+01
   0.8788688737770689E-31
   0.1000055522160220E+01
   0.3536233996733269E-31
   0.1000053116810860E+01
  -0.3719004597866361E-31
   0.1000036341507507E+01
   0.1957218178060094E-30
   0.9999937670119367E+00
   0.1876762597418977E-31
   0.9999922598811419E+00
  -0.1376348298794139E-31
   0.9999885831599821E+00
   0.3396924575653642E-31
   0.9999837538644347E+00
  -0.1053662620424216E-31
   0.1000009995868704E+01
  -0.3113946046896828E-31
   0.1000062862682711E+01
   0.4695794708070839E-31
   0.1000053284861780E+01
  -0.7625375835902947E-31
   0.1000034650148647E+01
   0.9218743452397075E-31
   0.1000020923110685E+01
  -0.3988203293190695E-31
   0.1000002601659181E+01
   0.5234470759991763E-32
   0.1000037948496246E+01
  -0.1144717095982910E-30
   0.1000057298280147E+01
   0.4271938085302142E-31
   0.1000066728749817E+01
  -0.9640950062641311E-31
   0.1000076951530974E+01
   0.1709493265086690E-31
   0.1000065346674000E+01
  -0.4966748614211843E-31
   0.1000081053216402E+01
   0.2673682267699638E-31
   0.1000056377017416E+01
  -0.1658504117163818E-30
   0.1000050756136221E+01
   0.7522742383615097E-32
   0.1000061585688780E+01
  -0.6742246425015074E-31
   0.1000052551500349E+01
   0.4128224666523993E-31
   0.1000063330877610E+01
  -0.8252552524915555E-32
   0.1000008455634369E+01
  -0.3028649577993271E-32
   0.1000005121593624E+01
  -0.1450428792320057E-32
   0.1000002810510639E+01
  -0.2167765820663067E-33
   0.1000001898639856E+01
   0.3571047854458884E-33
   0.9999972101226117E+00
   0.7293759388509647E-33
   0.9999954327190795E+00
   0.4848045697734776E-33
   0.9999951253002611E+00
  -0.1640667802380760E-33
   0.9999969053505228E+00
   0.4059085000649104E-34
   0.9999965868222487E+00
   0.1055828122355683E-33
   0.9999953168073505E+00
   0.9426321925933720E-33
   0.9999924366065318E+00
   0.1103656136593149E-33
   0.1000001123784434E+01
  -0.1303343477445561E-31
   0.9999994251248118E+00
  -0.6871939754379761E-33
   0.1000024151302567E+01
  -0.2278150115931178E-31
   0.9999961480969929E+00
  -0.2646375246103549E-33
   0.9999977225448559E+00
  -0.2185007600015843E-33
   0.9999964676534313E+00
  -0.6251343713724473E-33
   0.9999978971810716E+00
  -0.8976666754186177E-33
   0.9999966118831385E+00
  -0.1490281706367574E-34
   0.1000002931166462E+01
  -0.4942729295192792E-32
   0.9999986856756851E+00
  -0.6746493699147591E-33
   0.9999970692360325E+00
   0.7639723312050580E-34
   0.1000012808161858E+01
  -0.1288051192794370E-31
   0.1000010408608516E+01
  -0.1324167498973447E-31
   0.1000026865268691E+01
   0.1223837681714117E-31
   0.1000034049575919E+01
  -0.2400885104338391E-31
   0.1000007194792851E+01
  -0.1493613489153057E-32
   0.1000000991032580E+01
  -0.1888301534898880E-32
   0.1000002092075196E+01
   0.1196654093746458E-33
   0.1000002117849307E+01
  -0.5722482430042133E-34
   0.1000001809686923E+01
  -0.4286610115835812E-33
   0.1000002017379972E+01
  -0.6593128518377355E-33
   0.1000002838598296E+01
   0.1390924981401506E-34
   0.1000005388246720E+01
   0.2243139835493677E-32
   0.1000009987895248E+01
   0.1078220245845915E-31
   0.1000011386232323E+01
  -0.1018858283243365E-31
   0.1000002732889914E+01
   0.7941861562654164E-34
   0.1000002611140663E+01
  -0.2401071627584863E-33
   0.1000011960938251E+01
   0.9692821815829592E-32
   0.1000009526931459E+01
  -0.1881569922224700E-31
   0.1000009524984215E+01
  -0.3835862336607776E-31
   0.1000009822160607E+01
  -0.5788401748171329E-32
   0.1000006591328405E+01
   0.2634355477119575E-32
   0.1000002616642064E+01
   0.1737037132643001E-34
   0.1000004384556636E+01
   0.3651630121395564E-33
   0.1000003994091908E+01
   0.6983415945820469E-33
   0.1000003218541216E+01
  -0.1833036749629246E-33
   0.1000002618954654E+01
   0.3797698973997579E-34
   0.1000006797134311E+01
  -0.3037300573638288E-32
   0.1000004416670143E+01
  -0.1289041959038321E-32
   0.1000008913430293E+01
   0.3555528322141925E-32
   0.1000006898928582E+01
   0.6500527956140862E-33
   0.9999972415588544E+00
   0.3470217902920725E-34
   0.9999972770955389E+00
   0.4561165261912798E-34
   0.9999971071858407E+00
   0.1720181642922587E-34
   0.9999968167339196E+00
  -0.5105372715358591E-34
   0.9999950213145913E+00
  -0.6079199743069152E-33
   0.9999953955165558E+00
  -0.1493986020678127E-32
   0.9999976011966090E+00
  -0.1571021616896428E-32
   0.9999978670309740E+00
   0.3321101679780150E-33
   0.9999954607537705E+00
  -0.3549387230008980E-33
   0.9999953922581186E+00
  -0.3814382974720553E-34
   0.9999979551670028E+00
  -0.1184194430341920E-32
   0.9999981137684936E+00
  -0.4829832456712525E-33
   0.9999987757062272E+00
  -0.1626272662100824E-33
   0.9999957677679916E+00
  -0.2513874492466911E-34
   0.9999957330093090E+00
  -0.1600429937005859E-32
   0.9999959193777841E+00
  -0.9791828264762168E-34
   0.9999948735245517E+00
  -0.6910165675508544E-33
   0.9999949512069684E+00
  -0.9832418266518722E-33
   0.9999956592630050E+00
  -0.6369650748898519E-34
   0.9999958693901484E+00
   0.7123561773210422E-33
   0.9999951155727540E+00
   0.2637442719313482E-33
   0.9999948157921320E+00
  -0.8966921341520154E-34
   0.9999956359669406E+00
  -0.7258391450856899E-33
   0.9999919372457166E+00
  -0.7196433684312134E-32
   0.9999949209955543E+00
  -0.1182655884275284E-32
   0.9999962709473780E+00
  -0.3661231002433080E-33
   0.9999965660640197E+00
   0.8203502340419176E-34
   0.9999869392284305E+00
  -0.1767842549681411E-31
   0.9999897037213298E+00
   0.4064310098075937E-32
   0.9999963256217008E+00
  -0.6464730094716911E-33
   0.9999966537829148E+00
  -0.1554751604987448E-33
   0.9999968688433778E+00
   0.1171720077985186E-33
   0.9999959081363839E+00
   0.1845268506324838E-33
   0.9999946282147437E+00
  -0.1433262579636968E-32
   0.9999877009225973E+00
   0.2178320903475372E-31
   0.9999917334850050E+00
   0.3754521587176967E-32
   0.9999941696191303E+00
  -0.9483731990322890E-34
   0.9999879724299702E+00
   0.2619154403791754E-31
   0.9999960278345480E+00
   0.1718065914640478E-33
   0.9999943553623085E+00
   0.5594028070801672E-33
   0.9999935683775958E+00
   0.1676798948717994E-32
   0.9999952213088754E+00
   0.3827415150987437E-33
   0.1000008585763918E+01
   0.4917508728369504E-31
   0.9999997846658870E+00
  -0.4292578092993154E-33
   0.1000029270900003E+01
   0.5401253923887690E-31
   0.9999961484908955E+00
  -0.2933601270701875E-33
   0.9999980425938924E+00
   0.2681557750813253E-32
   0.9999962863318053E+00
   0.7572423253915714E-33
   0.9999986551127572E+00
   0.7218588010861789E-32
   0.9999968303721659E+00
  -0.4139992765248089E-33
   0.1000003037119284E+01
   0.1920963907988321E-32
   0.9999993168863452E+00
   0.5093317205787575E-33
   0.9999974926859286E+00
  -0.8990238806911628E-33
   0.1000013898540447E+01
   0.8104476309326142E-32
   0.1000011706743801E+01
   0.9051019086997868E-32
   0.1000033020315084E+01
   0.1202937710354179E-30
   0.1000035153297446E+01
  -0.3237345038031417E-32
   0.1000009728387899E+01
   0.2590117331723259E-31
   0.1000001941704021E+01
   0.4336751938172657E-32
   0.1000001500752859E+01
  -0.2177204366814671E-32
   0.9999970102793150E+00
   0.1023576327129823E-32
   0.9999978430780390E+00
  -0.1066847425937862E-32
   0.1000001889037849E+01
  -0.4074936409878091E-32
   0.9999954679058820E+00
  -0.6665352736076774E-33
   0.9999973609539837E+00
  -0.2489235903436138E-32
   0.1000005074325243E+01
  -0.1446887908838102E-31
   0.9999958286248697E+00
   0.4943547461112216E-33
   0.9999964867373046E+00
  -0.3148665112438245E-33
   0.9999959582205523E+00
  -0.4673679354304532E-33
   0.1000001035131394E+01
  -0.4776542803321793E-32
   0.1000006742231770E+01
  -0.1697057066542978E-31
   0.9999957361304393E+00
  -0.6485602255641487E-33
   0.9999997097819039E+00
  -0.2333715530648097E-32
   0.1000011265021144E+01
  -0.5709311970372028E-32
   0.1000003983372634E+01
  -0.5761419932242338E-32
   0.9999999347147991E+00
  -0.1196714236094383E-32
   0.1000006970112445E+01
  -0.4907055867317306E-32
   0.9999965162728007E+00
  -0.2222763138765236E-33
   0.9999960219636047E+00
   0.2573068842970868E-33
   0.9999976521435993E+00
  -0.2008538502012586E-33
   0.1000004319727831E+01
   0.6998660541352325E-33
   0.1000000065572735E+01
   0.1098684008269704E-32
   0.9999957830620252E+00
   0.8887907431072492E-34
   0.9999961345684005E+00
   0.2846593932949067E-32
   0.1000000744667416E+01
   0.9577102018799346E-32
   0.1000011205808593E+01
   0.4803988779879525E-32
   0.9999956759052040E+00
  -0.2234376041852608E-33
   0.9999961241973141E+00
   0.8116205556105984E-33
   0.1000032129356680E+01
  -0.4283865465103164E-31
   0.1000025085803001E+01
  -0.3957476151463312E-31
   0.1000014628353345E+01
  -0.9049339795762765E-32
   0.1000006205406607E+01
  -0.7589613333210806E-32
   0.1000026428653569E+01
  -0.3549669998343129E-31
   0.1000010689418361E+01
  -0.1469190660054774E-31
   0.1000006534438253E+01
  -0.3003337000857608E-31
   0.9999969956816213E+00
   0.4806586436073760E-32
   0.1000004375944547E+01
  -0.2086061416249170E-32
   0.9999994171360834E+00
  -0.6349535498007676E-33
   0.9999968301659728E+00
  -0.9588884517020711E-34
   0.1000008609440709E+01
   0.2556622831167981E-32
   0.1000005430945957E+01
   0.4216263075052877E-32
   0.1000018024325555E+01
   0.1110090638993074E-31
   0.1000006719021433E+01
   0.3386862085812369E-32
   0.1000001544142044E+01
   0.5397681866186570E-33
   0.1000000954003939E+01
   0.5729435199523755E-33
   0.1000002077656172E+01
   0.4127717593872730E-32
   0.1000017316862719E+01
  -0.2066761744617854E-31
   0.1000025236563483E+01
  -0.5047990559640597E-31
   0.1000021705568907E+01
  -0.2316728603147625E-31
   0.1000012145613895E+01
   0.7358653394501805E-32
   0.1000040672753685E+01
   0.2092454032106106E-31
   0.1000027632200903E+01
   0.6018225928378740E-32
   0.1000020225355509E+01
   0.4125410931632167E-32
   0.1000026401471896E+01
  -0.1583980709394617E-32
   0.1000052777776738E+01
   0.1561791816706903E-31
   0.9999967161148462E+00
  -0.1892028346390086E-33
   0.9999958050537826E+00
  -0.1363552797396547E-33
   0.9999984779139434E+00
  -0.1798137406640756E-33
   0.1000001549915228E+01
  -0.1791676700531895E-32
   0.1000045648918599E+01
  -0.2216106470313876E-31
   0.1000045951621995E+01
  -0.4309159443634134E-31
   0.1000043045610112E+01
   0.4963861005358760E-31
   0.9999970249938378E+00
  -0.1072568312163034E-33
   0.9999988943287822E+00
   0.2519173467239114E-36
   0.1000000451539163E+01
  -0.1729629623407979E-32
   0.1000007920955813E+01
   0.9945765830248266E-32
   0.1000022459451749E+01
   0.4557151719375305E-31
   0.1000050502455538E+01
   0.2464658826345636E-31
SCALARS v double 1
LOOKUP_TABLE default
   0.0000000000000000E+00
   0.0000000000000000E+00
   0.0000000000000000E+00
   0.0000000000000000E+00
   0.0000000000000000E+00
   0.0000000000000000E+00
   0.0000000000000000E+00
   0.0000000000000000E+00
   0.0000000000000000E+00
   0.0000000000000000E+00
  -0.1530107778052052E-04
  -0.2134028150103970E-31
  -0.3576459238194229E-05
  -0.8602262829964947E-31
   0.1330393985743578E-04
  -0.4371236243221257E-31
   0.0000000000000000E+00
   0.0000000000000000E+00
   0.0000000000000000E+00
   0.0000000000000000E+00
   0.0000000000000000E+00
   0.0000000000000000E+00
   0.0000000000000000E+00
   0.0000000000000000E+00
   0.0000000000000000E+00
   0.0000000000000000E+00
   0.1944721517240870E-06
   0.2951528205278790E-32
   0.7726025449313138E-05
   0.2441707586551674E-31
   0.1787536090752063E-05
   0.1055734810849248E-31
   0.6133578420251902E-06
  -0.5255757424635965E-31
   0.1256828753733211E-04
   0.1654351550929489E-31
  -0.7262436843138312E-05
   0.3488381153659517E-32
  -0.1173792203241184E-04
  -0.6272162601060851E-32
   0.2742097310057033E-05
   0.3908339081457157E-31
   0.2656296623655688E-05
   0.5444524296277822E-31
   0.6513195720245511E-05
   0.3325041310521846E-31
  -0.9979850880874882E-05
  -0.3634901369815388E-31
   0.8141637278428210E-05
  -0.2126407002769908E-31
  -0.3349485774423034E-05
  -0.2750355611674818E-31
  -0.8796092838020994E-06
   0.2211255248364399E-31
   0.3569616078891352E-05
  -0.2817082810626464E-31
  -0.1185055105525393E-04
  -0.9126026004785065E-31
   0.1031617108194814E-04
  -0.2708072401508628E-31
   0.8899092269142956E-05
   0.3002197706735258E-31
  -0.8891045944971555E-05
  -0.6075561599469533E-31
   0.2107119186036607E-05
   0.1161187929993850E-32
   0.0000000000000000E+00
   0.0000000000000000E+00
   0.0000000000000000E+00
   0.0000000000000000E+00
   0.0000000000000000E+00
   0.0000000000000000E+00
   0.0000000000000000E+00
   0.0000000000000000E+00
   0.0000000000000000E+00
   0.0000000000000000E+00
   0.0000000000000000E+00
   0.0000000000000000E+00
   0.0000000000000000E+00
   0.0000000000000000E+00
   0.0000000000000000E+00
   0.0000000000000000E+00
   0.0000000000000000E+00
   0.0000000000000000E+00
   0.0000000000000000E+00
   0.0000000000000000E+00
   0.0000000000000000E+00
   0.0000000000000000E+00
   0.0000000000000000E+00
   0.0000000000000000E+00
   0.0000000000000000E+00
   0.0000000000000000E+00
   0.0000000000000000E+00
   0.0000000000000000E+00
   0.0000000000000000E+00
   0.0000000000000000E+00
   0.0000000000000000E+00
   0.0000000000000000E+00
   0.0000000000000000E+00
   0.0000000000000000E+00
   0.0000000000000000E+00
   0.0000000000000000E+00
   0.0000000000000000E+00
   0.0000000000000000E+00
   0.0000000000000000E+00
   0.0000000000000000E+00
   0.0000000000000000E+00
   0.0000000000000000E+00
   0.0000000000000000E+00
   0.0000000000000000E+00
   0.0000000000000000E+00
   0.0000000000000000E+00
   0.0000000000000000E+00
   0.0000000000000000E+00
   0.0000000000000000E+00
   0.0000000000000000E+00
   0.0000000000000000E+00
   0.0000000000000000E+00
   0.0000000000000000E+00
   0.0000000000000000E+00
   0.0000000000000000E+00
   0.0000000000000000E+00
   0.4842370291467977E-06
  -0.6977740236124001E-33
   0.1617965045808219E-06
   0.1201464038143475E-33
   0.6840438975844165E-08
   0.7039934707558318E-33
   0.0000000000000000E+00
   0.0000000000000000E+00
   0.0000000000000000E+00
   0.0000000000000000E+00
   0.0000000000000000E+00
   0.0000000000000000E+00
   0.0000000000000000E+00
   0.0000000000000000E+00
  -0.2716105397219096E-05
   0.1826199628324884E-31
   0.1288614276726827E-06
   0.9230075189220398E-33
   0.7783066532600840E-06
  -0.3948679250561957E-33
   0.3904205133785603E-05
  -0.5047315932876951E-31
   0.2901538922719095E-05
  -0.2721520891174578E-31
  -0.4874744504056409E-05
  -0.4686760795566952E-31
   0.1725084985391463E-05
  -0.3375259451422092E-32
   0.4013858377231834E-07
  -0.3427832205931903E-32
   0.5323633555811534E-06
   0.9203089736000267E-33
   0.5298638039634340E-06
   0.1116757656255152E-34
  -0.2301322061781309E-06
  -0.1457296874805288E-33
   0.1521365987427663E-05
  -0.1058104888212455E-33
   0.7908272115679692E-06
  -0.1481806967753245E-33
   0.1025869169847679E-06
   0.4876069960809829E-32
   0.1331178157015324E-05
   0.2044703795588883E-33
   0.8934988492809857E-06
  -0.9666309011885753E-32
   0.2420649654003876E-05
  -0.6033448329934744E-32
  -0.1268718475571200E-06
   0.1108160579589788E-33
   0.2779884909216858E-07
   0.3447199555967167E-34
   0.1706834695975154E-06
   0.1445316657296535E-33
   0.0000000000000000E+00
   0.0000000000000000E+00
   0.0000000000000000E+00
   0.0000000000000000E+00
   0.0000000000000000E+00
   0.0000000000000000E+00
   0.0000000000000000E+00
   0.0000000000000000E+00
   0.5138945545966301E-06
  -0.6830737137201008E-33
   0.2834531661638689E-06
   0.1277878899098401E-34
  -0.2543260024131801E-06
  -0.2185200433775668E-33
  -0.1986127636331525E-06
   0.4679083915524017E-33
  -0.5167366961544456E-07
   0.5383195886018531E-34
   0.3683346626601697E-06
  -0.5029358279870254E-33
   0.2220588699427540E-06
  -0.7256485954342251E-33
  -0.3157701024585790E-08
  -0.1707189249723374E-33
   0.2615760227888570E-06
   0.5353320020482287E-34
   0.1547370459011519E-06
  -0.3561005782808453E-33
   0.1758381873256893E-06
  -0.9857598757454797E-34
   0.1509008187578837E-06
  -0.7679819951997883E-34
   0.1719501695724921E-06
  -0.6449956275794213E-33
  -0.8904616067139838E-07
  -0.4382583372010996E-33
  -0.3166112165023605E-07
  -0.5638763176164754E-33
  -0.8500393891042989E-07
  -0.2938118623751041E-33
   0.0000000000000000E+00
   0.0000000000000000E+00
   0.0000000000000000E+00
   0.0000000000000000E+00
   0.0000000000000000E+00
   0.0000000000000000E+00
   0.7706505825887899E-07
   0.2619662731021815E-34
  -0.1088098645350643E-06
   0.3961653794943686E-31
   0.1358817190387600E-05
  -0.7984450738648407E-32
  -0.9961771614443118E-07
  -0.4875602375014267E-33
  -0.7145817859491896E-07
   0.1580162377357537E-33
  -0.4168808810558283E-08
   0.1635373174656919E-33
  -0.1350213644408431E-06
   0.7466740975917554E-33
  -0.3752440073346720E-07
  -0.3573568420535980E-32
   0.5913127685742440E-05
  -0.2888383245696738E-31
   0.1024501801957584E-05
  -0.3003865888113213E-32
   0.1665893762532630E-06
   0.2795321942050210E-33
   0.3687316455544031E-05
   0.1963860582877522E-31
   0.1801165478565273E-06
   0.3211268409933510E-33
   0.2456222736733506E-06
   0.1673875251674554E-33
  -0.3766285182654230E-06
   0.3002202749916246E-32
  -0.7483890819514241E-06
   0.8864040938149768E-34
   0.0000000000000000E+00
   0.0000000000000000E+00
   0.0000000000000000E+00
   0.0000000000000000E+00
   0.0000000000000000E+00
   0.0000000000000000E+00
   0.0000000000000000E+00
   0.0000000000000000E+00
   0.0000000000000000E+00
   0.0000000000000000E+00
   0.0000000000000000E+00
   0.0000000000000000E+00
   0.0000000000000000E+00
   0.0000000000000000E+00
   0.0000000000000000E+00
   0.0000000000000000E+00
   0.0000000000000000E+00
   0.0000000000000000E+00
   0.0000000000000000E+00
   0.0000000000000000E+00
   0.0000000000000000E+00
   0.0000000000000000E+00
   0.0000000000000000E+00
   0.0000000000000000E+00
   0.0000000000000000E+00
   0.0000000000000000E+00
   0.0000000000000000E+00
   0.0000000000000000E+00
   0.0000000000000000E+00
   0.0000000000000000E+00
   0.0000000000000000E+00
   0.0000000000000000E+00
   0.0000000000000000E+00
   0.0000000000000000E+00
   0.1352946910921724E-05
   0.3003920126270493E-32
  -0.1224494535250560E-06
   0.9366433912556729E-33
   0.7841759406758291E-06
   0.1131827467214429E-32
   0.1322941202071931E-05
   0.6529492426579900E-32
   0.4153793445166941E-06
   0.1150100739099194E-32
   0.1632975226788330E-05
   0.9722601530016142E-32
   0.3200761624033825E-05
   0.4397572733212665E-32
  -0.2266097094049137E-06
   0.4827996962933790E-33
   0.8272339342240865E-07
  -0.2759919033585990E-33
   0.8107570567316879E-08
   0.7740450736195645E-33
   0.1724354090247540E-05
  -0.2070118111334001E-32
   0.3541262321330956E-05
  -0.2892361796448237E-31
   0.2525412266227394E-07
  -0.2536522209673181E-33
   0.9241956047093556E-06
  -0.1888906535336370E-33
   0.1973237477138354E-05
  -0.1743423671224479E-32
   0.1483108334861610E-05
   0.2209446222092798E-33
   0.1136611631319808E-05
   0.4756049288262113E-33
   0.1937392515754737E-05
  -0.1753706275739765E-32
   0.2483080061792370E-06
   0.5389268363981478E-33
   0.1547256948152466E-06
  -0.4081813214659063E-33
   0.5255337787315633E-06
  -0.4389185856052070E-33
   0.1304965017414509E-05
  -0.4072532527859100E-33
   0.4301339138378650E-06
   0.2550905117618719E-32
  -0.1310316188745917E-06
  -0.4786432967354156E-34
   0.1944250114828777E-06
   0.4752159603834895E-32
  -0.2260669691808527E-06