# vtk DataFile Version 2.0
FUN3D:global_image_vtk
ASCII
DATASET UNSTRUCTURED_GRID
POINTS 213 double
    0.0000000000000000E+00    0.2500000000000000E+01    0.0000000000000000E+00
    0.1250000000000000E+01    0.2500000000000000E+01    0.0000000000000000E+00
    0.2500000000000000E+01    0.2500000000000000E+01    0.0000000000000000E+00
    0.3750000000000000E+01    0.2500000000000000E+01    0.0000000000000000E+00
    0.5000000000000000E+01    0.2500000000000000E+01    0.0000000000000000E+00
    0.5000000000000000E+01    0.1250000000000000E+01    0.0000000000000000E+00
    0.5000000000000000E+01    0.0000000000000000E+00    0.0000000000000000E+00
    0.5000000000000000E+01   -0.1250000000000000E+01    0.0000000000000000E+00
    0.5000000000000000E+01   -0.2500000000000000E+01    0.0000000000000000E+00
    0.3750000000000000E+01   -0.2500000000000000E+01    0.0000000000000000E+00
    0.2500000000000000E+01   -0.2500000000000000E+01    0.0000000000000000E+00
    0.1250000000000000E+01   -0.2500000000000000E+01    0.0000000000000000E+00
    0.0000000000000000E+00   -0.2500000000000000E+01    0.0000000000000000E+00
    0.0000000000000000E+00   -0.1250000000000000E+01    0.0000000000000000E+00
    0.0000000000000000E+00    0.0000000000000000E+00    0.0000000000000000E+00
    0.0000000000000000E+00    0.1250000000000000E+01    0.0000000000000000E+00
    0.9058375365086910E+00    0.1578994732800803E+01    0.0000000000000000E+00
    0.3982050490726493E+01   -0.1583989954232354E+01    0.0000000000000000E+00
    0.4033849428301197E+01    0.1453322699199022E+01    0.0000000000000000E+00
    0.1040505887381675E+01   -0.1479596339503735E+01    0.0000000000000000E+00
    0.1099454400140349E+01   -0.3227322616384110E+00    0.0000000000000000E+00
    0.7354504170366591E+00    0.6593508822075582E+00    0.0000000000000000E+00
    0.1622302608453282E+01    0.8256214013940779E+00    0.0000000000000000E+00
    0.2145871574390382E+01   -0.1650070333782557E+01    0.0000000000000000E+00
    0.4086422318222992E+01   -0.4612828702537229E+00    0.0000000000000000E+00
    0.2979540174134984E+01   -0.8579242121530853E+00    0.0000000000000000E+00
    0.3045064261640043E+01   -0.1836846154397680E+01    0.0000000000000000E+00
    0.3428197553792836E+01    0.3508002863614053E+00    0.0000000000000000E+00
    0.4309693860063405E+01    0.5185680230613409E+00    0.0000000000000000E+00
    0.1827272193562204E+01    0.1738996113203182E+01    0.0000000000000000E+00
    0.2808563282768077E+01    0.1325493893339706E+01    0.0000000000000000E+00
    0.1895995683864404E+01   -0.8731419609589618E+00    0.0000000000000000E+00
    0.2273179336307740E+01    0.4906150219227333E-01    0.0000000000000000E+00
    0.5000000000000000E+01    0.2500000000000000E+01    0.1250000000000000E+01
    0.5000000000000000E+01    0.2500000000000000E+01    0.2500000000000000E+01
    0.5000000000000000E+01    0.2500000000000000E+01    0.3750000000000000E+01
    0.5000000000000000E+01    0.2500000000000000E+01    0.5000000000000000E+01
    0.3750000000000000E+01    0.2500000000000000E+01    0.5000000000000000E+01
    0.2500000000000000E+01    0.2500000000000000E+01    0.5000000000000000E+01
    0.1250000000000000E+01    0.2500000000000000E+01    0.5000000000000000E+01
    0.0000000000000000E+00    0.2500000000000000E+01    0.5000000000000000E+01
    0.0000000000000000E+00    0.2500000000000000E+01    0.3750000000000000E+01
    0.0000000000000000E+00    0.2500000000000000E+01    0.2500000000000000E+01
    0.0000000000000000E+00    0.2500000000000000E+01    0.1250000000000000E+01
    0.9631080833812172E+00    0.2500000000000000E+01    0.9613285771248219E+00
    0.3981732467264904E+01    0.2500000000000000E+01    0.4069753913607991E+01
    0.4035525118777670E+01    0.2500000000000000E+01    0.1012015867579395E+01
    0.9641717640894248E+00    0.2500000000000000E+01    0.3972455192261839E+01
    0.1547743040396780E+01    0.2500000000000000E+01    0.2928177746738678E+01
    0.6985170616192014E+00    0.2500000000000000E+01    0.3068281976055466E+01
    0.8931277594515110E+00    0.2500000000000000E+01    0.2052465503257726E+01
    0.2183293750162785E+01    0.2500000000000000E+01    0.3959073795658649E+01
    0.3855333506014705E+01    0.2500000000000000E+01    0.2931218481500625E+01
    0.3152495579421047E+01    0.2500000000000000E+01    0.3635850502723324E+01
    0.3103247580566054E+01    0.2500000000000000E+01    0.4331682712472464E+01
    0.3266837581688852E+01    0.2500000000000000E+01    0.1886092433583972E+01
    0.4231539241296245E+01    0.2500000000000000E+01    0.1915865356532799E+01
    0.1909741006522088E+01    0.2500000000000000E+01    0.7170024419130505E+00
    0.2880784107213163E+01    0.2500000000000000E+01    0.9046598906449592E+00
    0.2014316024535771E+01    0.2500000000000000E+01    0.1762464314805728E+01
    0.2670003247036656E+01    0.2500000000000000E+01    0.2850479545835163E+01
    0.5000000000000000E+01    0.1250000000000000E+01    0.5000000000000000E+01
    0.5000000000000000E+01    0.0000000000000000E+00    0.5000000000000000E+01
    0.5000000000000000E+01   -0.1250000000000000E+01    0.5000000000000000E+01
    0.5000000000000000E+01   -0.2500000000000000E+01    0.5000000000000000E+01
    0.5000000000000000E+01   -0.2500000000000000E+01    0.3750000000000000E+01
    0.5000000000000000E+01   -0.2500000000000000E+01    0.2500000000000000E+01
    0.5000000000000000E+01   -0.2500000000000000E+01    0.1250000000000000E+01
    0.5000000000000000E+01    0.1578994732800803E+01    0.9058375365086910E+00
    0.5000000000000000E+01   -0.1583989954232354E+01    0.3982050490726493E+01
    0.5000000000000000E+01    0.1453322699199022E+01    0.4033849428301197E+01
    0.5000000000000000E+01   -0.1479596339503735E+01    0.1040505887381675E+01
    0.5000000000000000E+01   -0.3227322616384110E+00    0.1099454400140349E+01
    0.5000000000000000E+01    0.6593508822075582E+00    0.7354504170366591E+00
    0.5000000000000000E+01    0.8256214013940779E+00    0.1622302608453282E+01
    0.5000000000000000E+01   -0.1650070333782557E+01    0.2145871574390382E+01
    0.5000000000000000E+01   -0.4612828702537229E+00    0.4086422318222992E+01
    0.5000000000000000E+01   -0.8579242121530853E+00    0.2979540174134984E+01
    0.5000000000000000E+01   -0.1836846154397680E+01    0.3045064261640043E+01
    0.5000000000000000E+01    0.3508002863614053E+00    0.3428197553792836E+01
    0.5000000000000000E+01    0.5185680230613409E+00    0.4309693860063405E+01
    0.5000000000000000E+01    0.1738996113203182E+01    0.1827272193562204E+01
    0.5000000000000000E+01    0.1325493893339706E+01    0.2808563282768077E+01
    0.5000000000000000E+01   -0.8731419609589618E+00    0.1895995683864404E+01
    0.5000000000000000E+01    0.4906150219227333E-01    0.2273179336307740E+01
    0.0000000000000000E+00    0.1250000000000000E+01    0.5000000000000000E+01
    0.0000000000000000E+00    0.0000000000000000E+00    0.5000000000000000E+01
    0.0000000000000000E+00   -0.1250000000000000E+01    0.5000000000000000E+01
    0.0000000000000000E+00   -0.2500000000000000E+01    0.5000000000000000E+01
    0.1250000000000000E+01   -0.2500000000000000E+01    0.5000000000000000E+01
    0.2500000000000000E+01   -0.2500000000000000E+01    0.5000000000000000E+01
    0.3750000000000000E+01   -0.2500000000000000E+01    0.5000000000000000E+01
    0.4042003247744892E+01    0.1558308132739014E+01    0.5000000000000000E+01
    0.9304122287900499E+00   -0.1548001304379777E+01    0.5000000000000000E+01
    0.1037243024609388E+01    0.1462892710085612E+01    0.5000000000000000E+01
    0.3946240828834967E+01   -0.1445243809615570E+01    0.5000000000000000E+01
    0.4092527262848217E+01   -0.3455338993778935E+00    0.5000000000000000E+01
    0.4293103109154542E+01    0.6277660831404320E+00    0.5000000000000000E+01
    0.3241512314643519E+01    0.7429886854239611E+00    0.5000000000000000E+01
    0.2844289952419609E+01   -0.1588117879734118E+01    0.5000000000000000E+01
    0.7159905765450471E+00   -0.6002320124191652E+00    0.5000000000000000E+01
    0.1754341919796891E+01   -0.7398147869923652E+00    0.5000000000000000E+01
    0.1870296826774691E+01   -0.1788622905643739E+01    0.5000000000000000E+01
    0.9220614901912976E+00    0.3083720183248586E+00    0.5000000000000000E+01
    0.3101523624086016E+01    0.1777901774806180E+01    0.5000000000000000E+01
    0.2192512063922564E+01    0.1576861561598471E+01    0.5000000000000000E+01
    0.2024793420196460E+01    0.4773861992750707E+00    0.5000000000000000E+01
    0.2990627757741975E+01   -0.4878110785814084E+00    0.5000000000000000E+01
    0.0000000000000000E+00   -0.2500000000000000E+01    0.1250000000000000E+01
    0.0000000000000000E+00   -0.2500000000000000E+01    0.2500000000000000E+01
    0.0000000000000000E+00   -0.2500000000000000E+01    0.3750000000000000E+01
    0.0000000000000000E+00    0.1558308132739014E+01    0.4042003247744892E+01
    0.0000000000000000E+00   -0.1548001304379777E+01    0.9304122287900499E+00
    0.0000000000000000E+00    0.1462892710085612E+01    0.1037243024609388E+01
    0.0000000000000000E+00   -0.1445243809615570E+01    0.3946240828834967E+01
    0.0000000000000000E+00   -0.3455338993778935E+00    0.4092527262848217E+01
    0.0000000000000000E+00    0.6277660831404320E+00    0.4293103109154542E+01
    0.0000000000000000E+00    0.7429886854239611E+00    0.3241512314643519E+01
    0.0000000000000000E+00   -0.1588117879734118E+01    0.2844289952419609E+01
    0.0000000000000000E+00   -0.6002320124191652E+00    0.7159905765450471E+00
    0.0000000000000000E+00   -0.7398147869923652E+00    0.1754341919796891E+01
    0.0000000000000000E+00   -0.1788622905643739E+01    0.1870296826774691E+01
    0.0000000000000000E+00    0.3083720183248586E+00    0.9220614901912976E+00
    0.0000000000000000E+00    0.1777901774806180E+01    0.3101523624086016E+01
    0.0000000000000000E+00    0.1576861561598471E+01    0.2192512063922564E+01
[...]
POINT_DATA 213
SCALARS rho double 1
LOOKUP_TABLE default
   0.1218188408917878E+01
   0.9219563999623086E+00
   0.9105857825797162E+00
   0.8964225330175737E+00
   0.7821692427114871E+00
   0.7113106762378240E+00
   0.6992877816089713E+00
   0.7032228720251598E+00
   0.7684485483594061E+00
   0.8894785922715265E+00
   0.8985906843938317E+00
   0.9250070790926825E+00
   0.1301128716861180E+01
   0.1347021601777953E+01
   0.1454830079558559E+01
   0.1286195611569769E+01
   0.9613275821207924E+00
   0.9044732488350269E+00
   0.8971279426374913E+00
   0.9254434010695404E+00
   0.9126314326302826E+00
   0.9860051643145115E+00
   0.8972448759863169E+00
   0.8999398719172736E+00
   0.9067064128233884E+00
   0.9111049888512063E+00
   0.8941482812709948E+00
   0.9124774707841011E+00
   0.8900271229521513E+00
   0.9016207502252592E+00
   0.9062548441036742E+00
   0.8624561149605431E+00
   0.9077609394206893E+00
   0.9506567906277257E+00
   0.1008473857025113E+01
   0.1007012593576334E+01
   0.1000097121157657E+01
   0.1000458153600557E+01
   0.1001014736842724E+01
   0.1002491243851285E+01
   0.1001958243806118E+01
   0.1004919895687373E+01
   0.1016636777307282E+01
   0.1058256909843215E+01
   0.1005085558867720E+01
   0.1000008455131808E+01
   0.9455906262462005E+00
   0.1002056685803308E+01
   0.9982574307397492E+00
   0.1004523129215925E+01
   0.1005395428766948E+01
   0.9993085552596050E+00
   0.9977994732429928E+00
   0.9988026984936632E+00
   0.9987253642085696E+00
   0.9780086780512084E+00
   0.9795786916493187E+00
   0.9637930609755994E+00
   0.9599874627488383E+00
   0.9865799577435002E+00
   0.9921867167077292E+00
   0.1000301819838164E+01
   0.1000502722579129E+01
   0.1000654352837546E+01
   0.9998058647806823E+00
   0.1009748694979563E+01
   0.1007065449488224E+01
   0.9445273072299223E+00
   0.9032166801244340E+00
   0.1007019525080260E+01
   0.1004202570372819E+01
   0.8963417531093703E+00
   0.8924925913737149E+00
   0.8470412910320312E+00
   0.9707918097456073E+00
   0.1000061234444505E+01
   0.1006091930151908E+01
   0.1015616520740889E+01
   0.1012922312232113E+01
   0.1012891102371240E+01
   0.1005117432677118E+01
   0.9862614946444059E+00
   0.1006605142340842E+01
   0.9849080800980586E+00
   0.1008136542826850E+01
   0.1001913392691495E+01
   0.1000780167059307E+01
   0.1001300401969142E+01
   0.1001844935308607E+01
   0.1002345366682179E+01
   0.1000280221841174E+01
   0.1000182558278020E+01
   0.9997306547088672E+00
   0.1001747440222209E+01
   0.1001924782087342E+01
   0.9986457302295025E+00
   0.9995068184688679E+00
   0.9998755552888560E+00
   0.1000190272632849E+01
   0.1000446598644048E+01
   0.1001064253892151E+01
   0.1001468685322701E+01
   0.1001330586621691E+01
   0.1001541370761328E+01
   0.1000848992633992E+01
   0.1001354432451256E+01
   0.1001121127069915E+01
   0.1000543169768757E+01
   0.1060304837780518E+01
   0.1020475041227521E+01
   0.1005924715269564E+01
   0.1003477026796139E+01
   0.1142165909205920E+01
   0.1083608646592792E+01
   0.1004372394042234E+01
   0.1003909345607058E+01
   0.1003796787968031E+01
   0.1006645230907053E+01
   0.1012287808549162E+01
   0.1193353519146545E+01
   0.1027989429832947E+01
   0.1034893380812856E+01
   0.1168957155007351E+01
   0.1009919142200036E+01
   0.1023532978622348E+01
   0.1017045813392748E+01
   0.1007880375884761E+01
   0.1014169565142607E+01
   0.1000107225014594E+01
   0.9441940473305637E+00
   0.1003513721065438E+01
   0.9988726953533400E+00
   0.1006458579424134E+01
   0.1009163935567095E+01
   0.9979499683486051E+00
   0.9977510425021605E+00
   0.9961574222807457E+00
   0.9984649877969546E+00
   0.9809291510435925E+00
   0.9780264184583086E+00
   0.9479514112931131E+00
   0.9505478257820257E+00
   0.9878203440264907E+00
   0.9899155446970058E+00
   0.9925452870366479E+00
   0.9998104307178769E+00
   0.9986254580660731E+00
   0.9946442201435171E+00
   0.1006841163437830E+01
   0.1021139808075136E+01
   0.9980072915868518E+00
   0.1004801084684793E+01
   0.1001440634097118E+01
   0.1004886029162747E+01
   0.9952188042619611E+00
   0.9849428972116034E+00
   0.1000233689701838E+01
   0.9938643450025685E+00
   0.9819023329538661E+00
   0.9943126767045192E+00
   0.9968755080530013E+00
   0.9936871382737501E+00
   0.9986995725263530E+00
   0.1000041629154613E+01
   0.9996663186337409E+00
   0.9958414415648171E+00
   0.9933696305522776E+00
   0.1001385726370745E+01
   0.1018313448281180E+01
   0.1002798033409059E+01
   0.9806309056883284E+00
   0.1001879022203302E+01
   0.1008215045917590E+01
   0.9700882004373367E+00
   0.9431554047285345E+00
   0.9846703023221113E+00
   0.9842507601888580E+00
   0.9754129031949575E+00
   0.9907891573895673E+00
   0.9774396800216240E+00
   0.1033918173650078E+01
   0.1021946564732429E+01
   0.1000027294420190E+01
   0.9991782489820732E+00
   0.9919026199796607E+00
   0.9906924880207183E+00
   0.9572689130490574E+00
   0.9929777485469682E+00
   0.1006248911317368E+01
   0.1002023906567696E+01
   0.9896529013416524E+00
   0.9652006868584319E+00
   0.9202429942448906E+00
   0.9722558398592760E+00
   0.9781727194406123E+00
   0.9559452815946154E+00
   0.9616842537147657E+00
   0.9489801489541437E+00
   0.9365472221554361E+00
   0.9302084038310631E+00
   0.9993115114329107E+00
   0.9994634565625168E+00
   0.9987968224719648E+00
   0.1002026445426075E+01
   0.9390057862944871E+00
   0.9238993410822187E+00
   0.9356987053643976E+00
   0.9984147393147538E+00
   0.9983366139584239E+00
   0.1000456956073743E+01
   0.9793769256866623E+00
   0.9713567049768559E+00
   0.9446879663032407E+00
SCALARS u double 1
LOOKUP_TABLE default
   0.0000000000000000E+00
   0.0000000000000000E+00
   0.0000000000000000E+00
   0.0000000000000000E+00
   0.0000000000000000E+00
   0.0000000000000000E+00
   0.0000000000000000E+00
   0.0000000000000000E+00
   0.0000000000000000E+00
   0.0000000000000000E+00
   0.0000000000000000E+00
   0.0000000000000000E+00
   0.0000000000000000E+00
   0.0000000000000000E+00
   0.0000000000000000E+00
   0.0000000000000000E+00
   0.0000000000000000E+00
   0.0000000000000000E+00
   0.0000000000000000E+00
   0.0000000000000000E+00
   0.0000000000000000E+00
   0.0000000000000000E+00
   0.0000000000000000E+00
   0.0000000000000000E+00
   0.0000000000000000E+00
   0.0000000000000000E+00
   0.0000000000000000E+00
   0.0000000000000000E+00
   0.0000000000000000E+00
   0.0000000000000000E+00
   0.0000000000000000E+00
   0.0000000000000000E+00
   0.0000000000000000E+00
   0.5047132227097908E+00
   0.5291720084392639E+00
   0.5145700863244178E+00
   0.4931583374217565E+00
   0.4878961451279403E+00
   0.4910807408066416E+00
   0.4931366147428660E+00
   0.4982582351505793E+00
   0.4935054345954411E+00
   0.4788320158450492E+00
   0.4523496500388127E+00
   0.4740685073185557E+00
   0.5098912790059650E+00
   0.4500618623574857E+00
   0.4980695702251508E+00
   0.5234940476223633E+00
   0.4994983624588650E+00
   0.5242345131894751E+00
   0.5063210053453688E+00
   0.5624441758843950E+00
   0.5248795793351744E+00
   0.5014861754847356E+00
   0.5725613197954591E+00
   0.5708906259621773E+00
   0.3684459676981334E+00
   0.4025520021976564E+00
   0.5559047802083906E+00
   0.5552371389668632E+00
   0.4941222605709559E+00
   0.4945924056322988E+00
   0.4922298640985012E+00
   0.4916879535211212E+00
   0.5126586389987856E+00
   0.5318601023853680E+00
   0.5048331970697315E+00
   0.4703077914841688E+00
   0.5097026996881423E+00
   0.5090161681134564E+00
   0.4952128431614288E+00
   0.5091794861050118E+00
   0.4862507300316442E+00
   0.5292125758643218E+00
   0.5274873943270639E+00
   0.5095507176064287E+00
   0.5264717844203914E+00
   0.5255459109732725E+00
   0.5249511180277220E+00
   0.5039238127100787E+00
   0.5286512723216612E+00
   0.5354730486337793E+00
   0.5369310215140080E+00
   0.5324032468051313E+00
   0.4987617997800390E+00
   0.4995686748619563E+00
   0.4985672199935164E+00
   0.4978712165460433E+00
   0.4945326527489355E+00
   0.4945939338275523E+00
   0.4893894098875563E+00
   0.4880331143145480E+00
   0.4965717842711728E+00
   0.4945983793778635E+00
   0.4860070354619023E+00
   0.4896070275294161E+00
   0.4899541499610247E+00
   0.4911024126614214E+00
   0.4925437458163670E+00
   0.4981712894797147E+00
   0.4945997078559669E+00
   0.4948173762012728E+00
   0.4976117790128299E+00
   0.4906423484325644E+00
   0.4935129473175690E+00
   0.4927057951693796E+00
   0.4919685585168417E+00
   0.4510714937320665E+00
   0.4773571067580470E+00
   0.4929717959694845E+00
   0.4921202479991086E+00
   0.4641222592770762E+00
   0.4734333142288989E+00
   0.4915425215003952E+00
   0.4906754467664028E+00
   0.4939939704016610E+00
   0.4854517565048244E+00
   0.4731677197511345E+00
   0.4016557929763803E+00
   0.4924081009480485E+00
   0.4585310396348536E+00
   0.4598492750221022E+00
   0.4894567186093384E+00
   0.4701744410329609E+00
   0.4743883827113488E+00
   0.4816591118598191E+00
   0.4810478649134610E+00
   0.5082588777038786E+00
   0.4446038356519358E+00
   0.4960955717384956E+00
   0.5313218852789667E+00
   0.4949406685545761E+00
   0.5217228816744222E+00
   0.5081443154821476E+00
   0.5662723171577759E+00
   0.5268910992591880E+00
   0.5035608958071043E+00
   0.5834173815254280E+00
   0.5718020906654149E+00
   0.3411331036064404E+00
   0.3855119695420948E+00
   0.5716207630978770E+00
   0.5643474568981297E+00
   0.5690172445574151E+00
   0.5290977046202272E+00
   0.5451110949981918E+00
   0.5701642012940193E+00
   0.5407586615992973E+00
   0.5487954439904308E+00
   0.5790976095956709E+00
   0.4955345039518088E+00
   0.5065606116695135E+00
   0.4994957535470978E+00
   0.5535675998055685E+00
   0.4600149246297829E+00
   0.4983821113805550E+00
   0.5492030684935141E+00
   0.5895826597215958E+00
   0.5824024159431851E+00
   0.5458164572597081E+00
   0.5786369121921682E+00
   0.5122355006828512E+00
   0.5055762449584859E+00
   0.5049516389318713E+00
   0.5645595598889159E+00
   0.5551774087238033E+00
   0.4977656641505904E+00
   0.5486993670561828E+00
   0.5484530392450245E+00
   0.5642422949582671E+00
   0.4955156635572448E+00
   0.4958306911553826E+00
   0.3908839256031247E+00
   0.3726064229679195E+00
   0.5585348504623280E+00
   0.5741333281810659E+00
   0.4178135988668246E+00
   0.5814924067529510E+00
   0.4184924454584601E+00
   0.5387788967390500E+00
   0.4989480563177937E+00
   0.5114385236518250E+00
   0.5070855340699866E+00
   0.5731797773679836E+00
   0.5855942982179189E+00
   0.5445358748281677E+00
   0.5655036972030065E+00
   0.5320226752981821E+00
   0.5310331380311591E+00
   0.5560204243628657E+00
   0.5552978387284176E+00
   0.4405837665813304E+00
   0.5283524096677525E+00
   0.5806026632619037E+00
   0.3397571234261136E+00
   0.4810549513272928E+00
   0.5509768106716386E+00
   0.4922015797697774E+00
   0.3108018560104425E+00
   0.5051432080648608E+00
   0.5043591800825417E+00
   0.5129752038579795E+00
   0.5386876583185564E+00
   0.3522286237777760E+00
   0.3560452460306823E+00
   0.3307722872532950E+00
   0.5084560125297376E+00
   0.5125798154602640E+00
   0.5315872458999431E+00
   0.5856085568560034E+00
   0.4639604538909846E+00
   0.3629515078935591E+00
SCALARS v double 1
LOOKUP_TABLE default
   0.0000000000000000E+00
   0.0000000000000000E+00
   0.0000000000000000E+00
   0.0000000000000000E+00
   0.0000000000000000E+00
   0.0000000000000000E+00
   0.0000000000000000E+00
   0.0000000000000000E+00
   0.0000000000000000E+00
   0.0000000000000000E+00
   0.0000000000000000E+00
   0.0000000000000000E+00
   0.0000000000000000E+00
   0.0000000000000000E+00
   0.0000000000000000E+00
   0.0000000000000000E+00
   0.0000000000000000E+00
   0.0000000000000000E+00
   0.0000000000000000E+00
   0.0000000000000000E+00
   0.0000000000000000E+00
   0.0000000000000000E+00
   0.0000000000000000E+00
   0.0000000000000000E+00
   0.0000000000000000E+00
   0.0000000000000000E+00
   0.0000000000000000E+00
   0.0000000000000000E+00
   0.0000000000000000E+00
   0.0000000000000000E+00
   0.0000000000000000E+00
   0.0000000000000000E+00
   0.0000000000000000E+00
   0.0000000000000000E+00
   0.0000000000000000E+00
   0.0000000000000000E+00
   0.0000000000000000E+00
   0.0000000000000000E+00
   0.0000000000000000E+00
   0.0000000000000000E+00
   0.0000000000000000E+00
   0.0000000000000000E+00
   0.0000000000000000E+00
   0.0000000000000000E+00
   0.0000000000000000E+00
   0.0000000000000000E+00
   0.0000000000000000E+00
   0.0000000000000000E+00
   0.0000000000000000E+00
   0.0000000000000000E+00
   0.0000000000000000E+00
   0.0000000000000000E+00
   0.0000000000000000E+00
   0.0000000000000000E+00
   0.0000000000000000E+00
   0.0000000000000000E+00
   0.0000000000000000E+00
   0.0000000000000000E+00
   0.0000000000000000E+00
   0.0000000000000000E+00
   0.0000000000000000E+00
   0.6141866405236134E-03
  -0.1448306481890352E-02
  -0.1419481256515628E-02
   0.0000000000000000E+00
   0.0000000000000000E+00
   0.0000000000000000E+00
   0.0000000000000000E+00
  -0.1864069989179567E-01
   0.2600309811097096E-03
   0.2184175529747542E-02
   0.1492235127348666E-01
  -0.5175117510074731E-02
  -0.6345174905357381E-02
  -0.1151061659235725E-01
   0.4677206002149723E-02
   0.5033993682775304E-03
   0.3144376102937607E-02
   0.1502843538273730E-02
   0.3455231620916488E-02
   0.1672515433745010E-02
  -0.6425213508755076E-02
   0.7387510646323184E-03
   0.4725773710940314E-02
   0.5498995766657039E-03
   0.7850870639471154E-04
  -0.1677877608655114E-03
   0.6178605802227491E-03
   0.0000000000000000E+00
   0.0000000000000000E+00
   0.0000000000000000E+00
   0.0000000000000000E+00
   0.8846710149012002E-04
   0.1432390958564394E-02
  -0.1139347670931799E-02
  -0.9362328431297259E-03
  -0.2150631700814138E-02
  -0.1277715606867501E-02
  -0.9755889183664446E-03
  -0.6416691662710843E-03
  -0.2443439598049839E-04
  -0.5410551543501707E-03
   0.7232457071410215E-03
  -0.1585248398808026E-02
   0.4344040778653223E-04
  -0.1682097760814469E-03
  -0.9239020917037085E-03
  -0.9283976907280148E-03
   0.0000000000000000E+00
   0.0000000000000000E+00
   0.0000000000000000E+00
  -0.1110281417946742E-02
  -0.8502813426879044E-02
   0.1598788228740814E-01
   0.2145641089213236E-03
  -0.1061547902388333E-02
  -0.1679864580119227E-02
  -0.5331248348038438E-02
  -0.1204589468004521E-02
  -0.3592545094047160E-02
  -0.2894663205249326E-02
   0.2196052394825323E-02
   0.2886966477843342E-01
  -0.1864362503160347E-03
  -0.4269655000949698E-02
   0.2461689956432928E-02
   0.9289189085814944E-03
   0.0000000000000000E+00
   0.0000000000000000E+00
   0.0000000000000000E+00
   0.0000000000000000E+00
   0.0000000000000000E+00
   0.0000000000000000E+00
   0.0000000000000000E+00
   0.0000000000000000E+00
   0.0000000000000000E+00
   0.0000000000000000E+00
   0.0000000000000000E+00
   0.0000000000000000E+00
   0.0000000000000000E+00
   0.0000000000000000E+00
   0.0000000000000000E+00
   0.0000000000000000E+00
   0.0000000000000000E+00
   0.4728700269332064E-02
   0.2800207642369804E-02
   0.6940103082092283E-02
   0.5693105066032515E-02
   0.8745964118718811E-02
   0.1260094216099995E-01
   0.5551278459132114E-03
   0.4343757520660487E-02
   0.2408645001659625E-02
   0.2337840969853354E-02
   0.3195361178066982E-02
  -0.1061373916887693E-01
  -0.4829945127516899E-03
   0.6073710203699468E-02
   0.2667929307351124E-02
   0.2288580220946507E-02
   0.3865639344530612E-02
  -0.2007010664038556E-02
   0.9031932427966917E-03
   0.2359724929837836E-02
   0.1133208432535340E-02
   0.2700831291481450E-02
   0.1778031359823100E-02
   0.1782771133338447E-02
   0.8113190786606087E-02
  -0.3279595556274186E-02
   0.5538097697045579E-02
   0.5729752952989538E-04
   0.8176045000653448E-05
  -0.1334903062998317E-01
  -0.3249876969269716E-02
  -0.3473894464737210E-02
   0.3725321658757648E-02
  -0.4056579042160464E-02
   0.9469035077349633E-03
  -0.2603493009954956E-01
  -0.2948261454666092E-02
   0.4207065379537566E-02
   0.6872525028170216E-03
   0.1817650649770937E-02
   0.4406672446622865E-02
   0.2322096189493646E-02
   0.3326321587369172E-02
   0.5032059175923705E-02
   0.1843951362947624E-02
   0.5720358892469618E-03
  -0.2993916986849165E-03
  -0.4696683072510886E-02
  -0.5533136832840301E-02
   0.4621501265160770E-03
   0.9755553620574077E-03
  -0.7232954933783786E-03
  -0.3854568508199689E-02
  -0.1244597936957509E-02
  -0.3701494236707398E-02
  -0.6968062050321543E-02
  -0.1683636698174134E-02
   0.5326886246334170E-03
  -0.3717665303950667E-03
   0.1112383447558939E-02
  -0.1846718443954029E-02
   0.7310634703909949E-02
  -0.9622756450663128E-02
  -0.1317292757469788E-04
  -0.4126731320772100E-03
   0.2403856816900538E-02
   0.1167290762143961E-02
   0.1280580248087404E-02
  -0.3850788859508699E-02
SCALARS w double 1
LOOKUP_TABLE default
   0.0000000000000000E+00
   0.0000000000000000E+00
   0.0000000000000000E+00
   0.0000000000000000E+00
   0.0000000000000000E+00
   0.0000000000000000E+00
   0.0000000000000000E+00
   0.0000000000000000E+00
   0.0000000000000000E+00
   0.0000000000000000E+00
   0.0000000000000000E+00
   0.0000000000000000E+00
   0.0000000000000000E+00
   0.0000000000000000E+00
   0.0000000000000000E+00
   0.0000000000000000E+00
   0.0000000000000000E+00
   0.0000000000000000E+00
   0.0000000000000000E+00
   0.0000000000000000E+00
   0.0000000000000000E+00
   0.0000000000000000E+00
   0.0000000000000000E+00
   0.0000000000000000E+00
   0.0000000000000000E+00
   0.0000000000000000E+00
   0.0000000000000000E+00
   0.0000000000000000E+00
   0.0000000000000000E+00
   0.0000000000000000E+00
   0.0000000000000000E+00
   0.0000000000000000E+00
   0.0000000000000000E+00
  -0.1144799569719032E+00
  -0.5030839000687303E-01
  -0.2178193921131900E-02
   0.5118076895113990E-02
  -0.7204871198952539E-03
  -0.6142071857680119E-03
   0.5792054118092844E-03
   0.1152090986950883E-02
   0.2307717735793528E-03
   0.3429866289893571E-02
   0.3875485745188134E-01
   0.5321008858843178E-01
  -0.1468607986007872E-02
  -0.2788568152057857E-01
   0.2112590769128875E-02
   0.1072481903185071E-01
   0.8121266979668761E-02
   0.4420261621703922E-01
  -0.3667263468732145E-03
  -0.1057497360804300E-01
  -0.3657846862302811E-02
  -0.2090606220026295E-02
   0.4979761564825103E-03
  -0.4610232986176188E-01
   0.1604755896440745E-01
   0.1236298025806771E-01
   0.2998025127499762E-01
   0.5100578084006758E-02
   0.4353362788077271E-02
   0.4393108298276052E-02
   0.3998697648583661E-02
   0.5454626106617218E-02
  -0.2575285094463653E-03
  -0.4853485351160087E-01
  -0.1125224525930390E+00
  -0.1281135314732596E+00
   0.2728977352476803E-02
   0.1974083045126645E-02
  -0.1152979919408676E+00
  -0.1132975591153151E+00
  -0.1136857048078055E+00
  -0.1074479968600898E+00
  -0.7766017073149797E-01
   0.3006178861719624E-02
  -0.2459112883580506E-01
  -0.2054647769334195E-01
  -0.9956688326265681E-02
   0.5267963829359253E-02
  -0.9137907930255407E-01
  -0.3410281828512562E-01
  -0.9188072229785016E-01
  -0.6785120750992402E-01
   0.1819986109252754E-02
   0.1569965915558766E-02
   0.1435528985531636E-02
   0.2117882688573845E-02
   0.1371349766932446E-02
  -0.1250115965627129E-02
  -0.1489736826251514E-02
   0.1139117848390811E-02
   0.2224572475058664E-02
   0.1195910329257373E-02
  -0.8046918772257082E-04
   0.1664180960443817E-03
   0.8351993549823515E-03
  -0.1604382293480907E-02
  -0.1951987293313819E-02
   0.1977652261903942E-02
  -0.4473547827653871E-04
  -0.4251375829471699E-03
   0.2234208407991487E-02
  -0.1092703825144029E-02
  -0.1887848394077382E-03
  -0.4968395706166183E-03
  -0.1828350705677265E-02
   0.6874034138186458E-01
   0.2307024294198069E-02
  -0.1098862677160782E-02
  -0.8110696543457222E-03
   0.1154833508784268E+00
   0.1041514589433413E+00
  -0.1746787375866304E-02
  -0.4417860288799842E-02
  -0.7692020014566447E-03
  -0.7113961981044903E-02
  -0.2686342415030473E-02
   0.1267494277596507E+00
   0.6334023583357806E-01
   0.2226856283263408E-01
   0.1349662339141832E+00