title="tecplot geometry and solution file"
variables = x y z rho u v w p mach temperature
zone t="boundary 1 bc-1", solutiontime= 0.3000000E+02, strandid=1001, i=32, j=46, f=feblock
  0.000000000000E+00  0.000000000000E+00  0.000000000000E+00  0.000000000000E+00  0.000000000000E+00  0.000000000000E+00  0.000000000000E+00
  0.000000000000E+00  0.000000000000E+00  0.000000000000E+00  0.000000000000E+00  0.000000000000E+00  0.000000000000E+00  0.000000000000E+00
  0.000000000000E+00  0.000000000000E+00  0.000000000000E+00  0.000000000000E+00  0.000000000000E+00  0.000000000000E+00  0.000000000000E+00
  0.000000000000E+00  0.000000000000E+00  0.000000000000E+00  0.000000000000E+00  0.000000000000E+00  0.000000000000E+00  0.000000000000E+00
  0.000000000000E+00  0.000000000000E+00  0.000000000000E+00  0.000000000000E+00
  0.250000000000E+01  0.250000000000E+01  0.125000000000E+01  0.146289271009E+01  0.157686156160E+01  0.308372018325E+00  0.000000000000E+00
 -0.125000000000E+01 -0.600232012419E+00  0.250000000000E+01  0.477386199275E+00  0.742988685424E+00 -0.739814786992E+00  0.177790177481E+01
  0.155830813274E+01  0.250000000000E+01 -0.250000000000E+01 -0.154800130438E+01 -0.487811078581E+00  0.250000000000E+01  0.627766083140E+00
 -0.345533899378E+00 -0.178862290564E+01 -0.158811787973E+01  0.125000000000E+01 -0.250000000000E+01 -0.144524380962E+01  0.000000000000E+00
 -0.125000000000E+01 -0.250000000000E+01 -0.250000000000E+01 -0.250000000000E+01
  0.000000000000E+00  0.125000000000E+01  0.000000000000E+00  0.103724302461E+01  0.219251206392E+01  0.922061490191E+00  0.000000000000E+00
  0.000000000000E+00  0.715990576545E+00  0.250000000000E+01  0.202479342020E+01  0.324151231464E+01  0.175434191980E+01  0.310152362409E+01
  0.404200324774E+01  0.375000000000E+01  0.000000000000E+00  0.930412228790E+00  0.299062775774E+01  0.500000000000E+01  0.429310310915E+01
  0.409252726285E+01  0.187029682677E+01  0.284428995242E+01  0.500000000000E+01  0.125000000000E+01  0.394624082883E+01  0.500000000000E+01
  0.500000000000E+01  0.250000000000E+01  0.375000000000E+01  0.500000000000E+01
  0.134427095521E+01  0.106355349789E+01  0.142583311975E+01  0.108608768458E+01  0.103229073191E+01  0.120095398815E+01  0.164467130265E+01
  0.149409505864E+01  0.123520451346E+01  0.102389277497E+01  0.102809486168E+01  0.101301793185E+01  0.103252924433E+01  0.101471855403E+01
  0.100663853308E+01  0.100830787977E+01  0.144946187694E+01  0.116393560738E+01  0.101462826378E+01  0.100426012315E+01  0.100679782943E+01
  0.100724517625E+01  0.104668093098E+01  0.101938426198E+01  0.100424771456E+01  0.106442287758E+01  0.100789309995E+01  0.100288827728E+01
  0.100334528220E+01  0.102847335516E+01  0.100958642269E+01  0.100399298682E+01
  0.000000000000E+00  0.445481905665E+00  0.000000000000E+00  0.468737705282E+00  0.462182814044E+00  0.443613902121E+00  0.000000000000E+00
  0.000000000000E+00  0.379272269891E+00  0.471739172373E+00  0.466575559707E+00  0.479355609602E+00  0.490159748158E+00  0.484515106218E+00
  0.488524341661E+00  0.489830762290E+00  0.000000000000E+00  0.450653863845E+00  0.474814559527E+00  0.495785193247E+00  0.490899320519E+00
  0.486835470273E+00  0.448668981852E+00  0.465807688750E+00  0.496536772466E+00  0.444686277080E+00  0.487701012911E+00  0.497534290164E+00
  0.496384277603E+00  0.470003192247E+00  0.489200128609E+00  0.495522056885E+00
  0.000000000000E+00  0.000000000000E+00  0.000000000000E+00  0.186087827731E-01 -0.276689036797E-02  0.332953326853E-01  0.000000000000E+00
  0.000000000000E+00 -0.594705494473E-02  0.000000000000E+00  0.356645039951E-02 -0.566634220873E-02 -0.416068156370E-02  0.305690674899E-04
 -0.106165890263E-02  0.000000000000E+00  0.000000000000E+00 -0.764116363522E-02  0.359671350696E-03  0.000000000000E+00 -0.203493441596E-02
 -0.138317603225E-02  0.156557850280E-02 -0.158520379868E-02 -0.634653407698E-04  0.000000000000E+00 -0.283782932883E-04 -0.196313889973E-03
  0.807245542009E-03  0.000000000000E+00  0.000000000000E+00  0.000000000000E+00
  0.000000000000E+00  0.452184516384E-01  0.000000000000E+00  0.123933090242E+00  0.247646887420E-01  0.165645060316E+00  0.000000000000E+00
  0.000000000000E+00  0.155763760752E+00  0.351821003210E-02  0.259784983101E-01 -0.651226923334E-02  0.749000127586E-01  0.371832858202E-02
 -0.149379957649E-03  0.458698693119E-03  0.000000000000E+00  0.140954774543E+00 -0.808568470433E-02  0.237163707170E-02 -0.304063053157E-03
 -0.438187149572E-02  0.255019530866E-01 -0.194953101127E-02  0.308353201598E-02  0.837465017164E-01 -0.121906385196E-02  0.268492004767E-02
  0.264020970351E-02  0.279393474845E-02 -0.834864979065E-03  0.344928880602E-02
  0.960184339087E+00  0.782340251282E+00  0.101844240712E+01  0.808726347229E+00  0.746125501896E+00  0.879446613020E+00  0.117475393124E+01
  0.106720080596E+01  0.916620564417E+00  0.737394856851E+00  0.743553661736E+00  0.725758836878E+00  0.757455022335E+00  0.729187976290E+00
  0.720784683626E+00  0.722781421745E+00  0.103532089624E+01  0.858317240008E+00  0.728064701967E+00  0.718614970448E+00  0.721013119857E+00
  0.721151245072E+00  0.760018574222E+00  0.732628081526E+00  0.718530883064E+00  0.791043168531E+00  0.722107644456E+00  0.717199210979E+00
  0.717636710791E+00  0.741799451358E+00  0.724056354760E+00  0.718400709838E+00
  0.000000000000E+00  0.441238849190E+00  0.000000000000E+00  0.475214830248E+00  0.460124279370E+00  0.468828197978E+00  0.000000000000E+00
  0.000000000000E+00  0.402302581113E+00  0.469815334401E+00  0.464411752749E+00  0.478714524869E+00  0.489298389195E+00  0.483068973919E+00
  0.487929680442E+00  0.488962236269E+00  0.000000000000E+00  0.464776440374E+00  0.473796213898E+00  0.495346937484E+00  0.490266003908E+00
  0.486286214446E+00  0.445717946008E+00  0.464382809889E+00  0.496127708911E+00  0.443623836696E+00  0.486964455032E+00  0.497246498086E+00
  0.496059304223E+00  0.467732698187E+00  0.488212329499E+00  0.495098325610E+00
  0.999990418232E+00  0.102982722916E+01  0.999990356664E+00  0.104247281523E+01  0.101190068879E+01  0.102520601986E+01  0.999990393881E+00
  0.999990676427E+00  0.103891199894E+01  0.100826260798E+01  0.101252828433E+01  0.100300531677E+01  0.102702856805E+01  0.100605548480E+01
  0.100244380074E+01  0.100355656317E+01  0.999991291799E+00  0.103239743539E+01  0.100459510063E+01  0.100179319624E+01  0.100260284468E+01
  0.100234954399E+01  0.101657149988E+01  0.100617534760E+01  0.100168835010E+01  0.104043276339E+01  0.100303365733E+01  0.100118718916E+01
  0.100134162479E+01  0.100976775596E+01  0.100405361432E+01  0.100176097540E+01
        12        19        11        11
        11         5        12        12
        10        14         5         5
        19        13        11        11
        19        24        13        13
        30        23        24        24
        19        12        22        22
        28        22        21        21
        11        13         6         6
         7         6         9         9
        15        12        14        14
        18        13        23        23
        15        25        21        21
        27        19        22        22
        18         8         9         9
        27        31        24        24
         4        11         6         6
         5        14        12        12
         4         2         5         5
        21        12        15        15
        14        16        15        15
        24        19        27        27
        22        29        27        27
        23        26        18        18
        17         8        18        18
         5        11         4         4
         6         3         4         4
        26        23        30        30
         5         2        10        10
        16        14        10        10
         3         6         7         7
        21        25        28        28
        29        22        28        28
         6        13         9         9
         2         4         1         1
        31        27        32        32
        25        15        20        20
        24        23        13        13
         8         7         9         9
        13        18         9         9
        31        30        24        24
        12        21        22        22
        29        32        27        27
         3         1         4         4
        26        17        18        18
        16        20        15        15
zone t="boundary 2 bc-2", solutiontime= 0.3000000E+02, strandid=1002, i=33, j=48, f=feblock
  0.500000000000E+01  0.375000000000E+01  0.250000000000E+01  0.288078410721E+01  0.125000000000E+01  0.190974100652E+01  0.326683758169E+01
  0.201431602454E+01  0.000000000000E+00  0.963108083381E+00  0.500000000000E+01  0.403552511878E+01  0.423153924130E+01  0.500000000000E+01
  0.385533350601E+01  0.500000000000E+01  0.398173246726E+01  0.315249557942E+01  0.267000324704E+01  0.154774304040E+01  0.218329375016E+01
  0.893127759452E+00  0.000000000000E+00  0.698517061619E+00  0.964171764089E+00  0.310324758057E+01  0.000000000000E+00  0.000000000000E+00
  0.125000000000E+01  0.500000000000E+01  0.375000000000E+01  0.250000000000E+01  0.000000000000E+00
 -0.250000000000E+01 -0.250000000000E+01 -0.250000000000E+01 -0.250000000000E+01 -0.250000000000E+01 -0.250000000000E+01 -0.250000000000E+01
 -0.250000000000E+01 -0.250000000000E+01 -0.250000000000E+01 -0.250000000000E+01 -0.250000000000E+01 -0.250000000000E+01 -0.250000000000E+01
 -0.250000000000E+01 -0.250000000000E+01 -0.250000000000E+01 -0.250000000000E+01 -0.250000000000E+01 -0.250000000000E+01 -0.250000000000E+01
 -0.250000000000E+01 -0.250000000000E+01 -0.250000000000E+01 -0.250000000000E+01 -0.250000000000E+01 -0.250000000000E+01 -0.250000000000E+01
 -0.250000000000E+01 -0.250000000000E+01 -0.250000000000E+01 -0.250000000000E+01 -0.250000000000E+01
  0.000000000000E+00  0.000000000000E+00  0.000000000000E+00  0.904659890645E+00  0.000000000000E+00  0.717002441913E+00  0.188609243358E+01
  0.176246431481E+01  0.000000000000E+00  0.961328577125E+00  0.125000000000E+01  0.101201586758E+01  0.191586535653E+01  0.250000000000E+01
  0.293121848150E+01  0.375000000000E+01  0.406975391361E+01  0.363585050272E+01  0.285047954584E+01  0.292817774674E+01  0.395907379566E+01
  0.205246550326E+01  0.125000000000E+01  0.306828197606E+01  0.397245519226E+01  0.433168271247E+01  0.250000000000E+01  0.375000000000E+01
  0.500000000000E+01  0.500000000000E+01  0.500000000000E+01  0.500000000000E+01  0.500000000000E+01
  0.830790703562E+00  0.935299893094E+00  0.934223612545E+00  0.968088184462E+00  0.961720604126E+00  0.964848863679E+00  0.984135780003E+00
  0.991412249221E+00  0.144946187694E+01  0.102921698739E+01  0.955879121483E+00  0.960694494468E+00  0.981487761251E+00  0.100642865706E+01
  0.997911808934E+00  0.100978033884E+01  0.100199536928E+01  0.998062662178E+00  0.991085540794E+00  0.100132677365E+01  0.100094560102E+01
  0.101224574942E+01  0.106442287758E+01  0.101082139883E+01  0.100685208434E+01  0.100118348056E+01  0.102847335516E+01  0.100958642269E+01
  0.100510131473E+01  0.100179266550E+01  0.100266107105E+01  0.100321132002E+01  0.100399298682E+01
  0.000000000000E+00  0.000000000000E+00  0.000000000000E+00  0.378986430199E+00  0.000000000000E+00  0.340639585332E+00  0.582178598631E+00
  0.575196196060E+00  0.000000000000E+00  0.489449987644E+00  0.494739778708E+00  0.431506423285E+00  0.568960656177E+00  0.536180097777E+00
  0.568880654362E+00  0.516236912631E+00  0.508560966537E+00  0.527401882336E+00  0.566649070207E+00  0.531829610687E+00  0.506098764653E+00
  0.520702306724E+00  0.444686277080E+00  0.491340492767E+00  0.492735544018E+00  0.501507670968E+00  0.470003192247E+00  0.489200128609E+00
  0.490458696133E+00  0.491425913021E+00  0.486215766961E+00  0.490305670802E+00  0.495522056885E+00
  0.000000000000E+00  0.000000000000E+00  0.000000000000E+00  0.000000000000E+00  0.000000000000E+00  0.000000000000E+00  0.000000000000E+00
  0.000000000000E+00  0.000000000000E+00  0.000000000000E+00  0.000000000000E+00  0.000000000000E+00  0.000000000000E+00  0.000000000000E+00
  0.000000000000E+00  0.000000000000E+00  0.000000000000E+00  0.000000000000E+00  0.000000000000E+00  0.000000000000E+00  0.000000000000E+00
  0.000000000000E+00  0.000000000000E+00  0.000000000000E+00  0.000000000000E+00  0.000000000000E+00  0.000000000000E+00  0.000000000000E+00
  0.000000000000E+00  0.000000000000E+00  0.000000000000E+00  0.000000000000E+00  0.000000000000E+00
  0.000000000000E+00  0.000000000000E+00  0.000000000000E+00 -0.229669050063E-02  0.000000000000E+00  0.183566620163E-01  0.121125298094E-01
  0.454988180646E-01  0.000000000000E+00  0.870794549559E-01 -0.995411748235E-01 -0.211863773338E-01 -0.306431621306E-01 -0.414437584764E-01
 -0.137766646425E-02  0.260099707135E-02  0.610395499851E-03  0.504423414772E-03  0.150973037081E-01  0.284028010510E-01  0.564180875137E-02
  0.553422927117E-01  0.837465017164E-01  0.110442352164E-01  0.679155579818E-02 -0.758172400706E-03  0.279393474845E-02 -0.834864979065E-03
  0.400613298413E-02  0.602953965434E-02 -0.143141936461E-03  0.120038986731E-02  0.344928880602E-02
  0.593416726619E+00  0.668065456175E+00  0.667296679939E+00  0.684257422432E+00  0.686937261140E+00  0.679200857786E+00  0.695811436217E+00
  0.702343446656E+00  0.103532089624E+01  0.723694340269E+00  0.672591765258E+00  0.675702789601E+00  0.694093100018E+00  0.720959756308E+00
  0.712691106393E+00  0.724771839078E+00  0.716580055374E+00  0.713298256103E+00  0.706429208453E+00  0.717736893216E+00  0.715375993599E+00
  0.730937357782E+00  0.791043168531E+00  0.724372398465E+00  0.721010237076E+00  0.715456550949E+00  0.741799451358E+00  0.724056354760E+00
  0.719312506326E+00  0.715891217984E+00  0.716607694508E+00  0.717367641195E+00  0.718400709838E+00
  0.000000000000E+00  0.000000000000E+00  0.000000000000E+00  0.380991527588E+00  0.000000000000E+00  0.343630189921E+00  0.585285714723E+00
  0.579373762796E+00  0.000000000000E+00  0.501056856820E+00  0.508458622927E+00  0.435372389830E+00  0.572638793089E+00  0.537002279807E+00
  0.568923446318E+00  0.514995399140E+00  0.508252844490E+00  0.527255573869E+00  0.567447252546E+00  0.531657857861E+00  0.505983435147E+00
  0.520795939073E+00  0.443623836696E+00  0.490664335521E+00  0.492156522456E+00  0.501394151744E+00  0.467732698187E+00  0.488212329499E+00
  0.490003321110E+00  0.491351321826E+00  0.486072870519E+00  0.490037731338E+00  0.495098325610E+00
  0.999991229686E+00  0.999991174543E+00  0.999991157758E+00  0.989538356918E+00  0.999991225591E+00  0.985523470769E+00  0.989839034915E+00
  0.991798140573E+00  0.999991291799E+00  0.984410565308E+00  0.985091577166E+00  0.984687547278E+00  0.990058540094E+00  0.100289638192E+01
  0.999855438142E+00  0.100485277409E+01  0.100121428530E+01  0.100055597347E+01  0.997896600371E+00  0.100350023283E+01  0.100058024134E+01
  0.101093267270E+01  0.104043276339E+01  0.100326463114E+01  0.100254481031E+01  0.100045515211E+01  0.100976775596E+01  0.100405361432E+01
  0.100192636712E+01  0.100045422540E+01  0.100058813619E+01  0.100109984570E+01  0.100176097540E+01
        15         7        19        19
         8        20        19        19
        18        19        21        21
         7         4         8         8
         3         6         4         4
        19         7         8         8
        19        18        15        15
        14        13        15        15
         8        22        20        20
        27        24        22        22
        19        20        21        21
        32        26        21        21
        17        18        26        26
        17        16        15        15
        25        29        21        21
        12         7        13        13
        10         8         6         6
        25        20        24        24
         4         6         8         8
        12         2         4         4
        10        23        22        22
        26        31        17        17
        30        16        17        17
         4         7        12        12
        13        11        12        12
        21        20        25        25
        24        28        25        25
        22         8        10        10
         6         5        10        10
        31        26        32        32
         4         2         3         3
         5         6         3         3
        11        13        14        14
        22        23        27        27
        28        24        27        27
        15        13         7         7
         2        12         1         1
        29        25        33        33
        23        10         9         9
        21        26        18        18
        16        14        15        15
        18        17        15        15
        29        32        21        21
        22        24        20        20
        28        33        25        25
        11         1        12        12
        31        30        17        17
         5         9        10        10
zone t="boundary 3 bc-3", solutiontime= 0.3000000E+02, strandid=1003, i=33, j=48, f=feblock
  0.375000000000E+01  0.250000000000E+01  0.500000000000E+01  0.403552511878E+01  0.288078410721E+01  0.125000000000E+01  0.190974100652E+01
  0.500000000000E+01  0.326683758169E+01  0.423153924130E+01  0.201431602454E+01  0.000000000000E+00  0.963108083381E+00  0.500000000000E+01
  0.267000324704E+01  0.385533350601E+01  0.893127759452E+00  0.154774304040E+01  0.000000000000E+00  0.500000000000E+01  0.315249557942E+01
  0.218329375016E+01  0.398173246726E+01  0.000000000000E+00  0.698517061619E+00  0.964171764089E+00  0.125000000000E+01  0.000000000000E+00
  0.500000000000E+01  0.310324758057E+01  0.250000000000E+01  0.375000000000E+01  0.000000000000E+00
  0.250000000000E+01  0.250000000000E+01  0.250000000000E+01  0.250000000000E+01  0.250000000000E+01  0.250000000000E+01  0.250000000000E+01
  0.250000000000E+01  0.250000000000E+01  0.250000000000E+01  0.250000000000E+01  0.250000000000E+01  0.250000000000E+01  0.250000000000E+01
  0.250000000000E+01  0.250000000000E+01  0.250000000000E+01  0.250000000000E+01  0.250000000000E+01  0.250000000000E+01  0.250000000000E+01
  0.250000000000E+01  0.250000000000E+01  0.250000000000E+01  0.250000000000E+01  0.250000000000E+01  0.250000000000E+01  0.250000000000E+01
  0.250000000000E+01  0.250000000000E+01  0.250000000000E+01  0.250000000000E+01  0.250000000000E+01
  0.000000000000E+00  0.000000000000E+00  0.000000000000E+00  0.101201586758E+01  0.904659890645E+00  0.000000000000E+00  0.717002441913E+00
  0.125000000000E+01  0.188609243358E+01  0.191586535653E+01  0.176246431481E+01  0.000000000000E+00  0.961328577125E+00  0.250000000000E+01
  0.285047954584E+01  0.293121848150E+01  0.205246550326E+01  0.292817774674E+01  0.125000000000E+01  0.375000000000E+01  0.363585050272E+01
  0.395907379566E+01  0.406975391361E+01  0.250000000000E+01  0.306828197606E+01  0.397245519226E+01  0.500000000000E+01  0.375000000000E+01
  0.500000000000E+01  0.433168271247E+01  0.500000000000E+01  0.500000000000E+01  0.500000000000E+01
  0.941859944070E+00  0.946295212837E+00  0.843729322239E+00  0.964336933856E+00  0.978822727690E+00  0.956975012014E+00  0.983330872979E+00
  0.963504832736E+00  0.982688838158E+00  0.984244419774E+00  0.990263162567E+00  0.134427095521E+01  0.101918222138E+01  0.100829754974E+01
  0.993455689075E+00  0.997997685641E+00  0.100807769232E+01  0.100072066470E+01  0.106355349789E+01  0.100673655399E+01  0.100058286232E+01
  0.100234914488E+01  0.100178187737E+01  0.102389277497E+01  0.100874170028E+01  0.100528328398E+01  0.100522806566E+01  0.100830787977E+01
  0.100196264585E+01  0.100161976251E+01  0.100413158245E+01  0.100321760295E+01  0.100426012315E+01
  0.000000000000E+00  0.000000000000E+00  0.000000000000E+00  0.439069099422E+00  0.399865003877E+00  0.000000000000E+00  0.373794157049E+00
  0.495011209821E+00  0.573056310894E+00  0.569603343120E+00  0.559933362324E+00  0.000000000000E+00  0.483390966801E+00  0.533822621813E+00
  0.556459181825E+00  0.564688393281E+00  0.522615985301E+00  0.522533605285E+00  0.445481905665E+00  0.518327246408E+00  0.524751664986E+00
  0.503888921585E+00  0.509844810374E+00  0.471739172373E+00  0.496245992081E+00  0.494940600050E+00  0.489078053185E+00  0.489830762290E+00
  0.493066857133E+00  0.499150260794E+00  0.486770765588E+00  0.484761470407E+00  0.495785193247E+00
  0.000000000000E+00  0.000000000000E+00  0.000000000000E+00  0.000000000000E+00  0.000000000000E+00  0.000000000000E+00  0.000000000000E+00
  0.000000000000E+00  0.000000000000E+00  0.000000000000E+00  0.000000000000E+00  0.000000000000E+00  0.000000000000E+00  0.000000000000E+00
  0.000000000000E+00  0.000000000000E+00  0.000000000000E+00  0.000000000000E+00  0.000000000000E+00  0.000000000000E+00  0.000000000000E+00
  0.000000000000E+00  0.000000000000E+00  0.000000000000E+00  0.000000000000E+00  0.000000000000E+00  0.000000000000E+00  0.000000000000E+00
  0.000000000000E+00  0.000000000000E+00  0.000000000000E+00  0.000000000000E+00  0.000000000000E+00
  0.000000000000E+00  0.000000000000E+00  0.000000000000E+00 -0.226117010485E-01  0.111964040861E-01  0.000000000000E+00  0.179816951928E-01
 -0.100759947857E+00  0.390462771590E-02 -0.389310781527E-01  0.340377978269E-01  0.000000000000E+00  0.652293874552E-01 -0.424919868185E-01
  0.843939220607E-02 -0.650842039930E-02  0.490054620425E-01  0.135872150044E-01  0.452184516384E-01  0.738603039098E-03 -0.699660420938E-03
  0.243778772386E-02  0.869626895356E-03  0.351821003210E-02  0.103943165360E-01  0.431641943079E-02  0.337414888758E-02  0.458698693119E-03
  0.573085046082E-02  0.341323311790E-03  0.160759033733E-02  0.570219482912E-03  0.237163707170E-02
  0.672750557412E+00  0.675918545387E+00  0.602658013425E+00  0.676093553749E+00  0.691308584447E+00  0.683546938413E+00  0.690066293793E+00
  0.677276430389E+00  0.695201602483E+00  0.696250862197E+00  0.703343733805E+00  0.960184339087E+00  0.719726009890E+00  0.722865756597E+00
  0.709447268851E+00  0.713700791379E+00  0.726067026655E+00  0.716602470644E+00  0.782340251282E+00  0.722285125949E+00  0.716127979931E+00
  0.716551058180E+00  0.716545849585E+00  0.737394856851E+00  0.722682507861E+00  0.719440848558E+00  0.719565453556E+00  0.722781421745E+00
  0.716029354790E+00  0.715846846263E+00  0.718146047198E+00  0.717061469191E+00  0.718614970448E+00
  0.000000000000E+00  0.000000000000E+00  0.000000000000E+00  0.443767003196E+00  0.402286638686E+00  0.000000000000E+00  0.377550332166E+00
  0.509226082022E+00  0.575832260574E+00  0.573705668292E+00  0.562554720930E+00  0.000000000000E+00  0.490563610826E+00  0.534527441928E+00
  0.556587471467E+00  0.564391371485E+00  0.522731038084E+00  0.522052599465E+00  0.441238849190E+00  0.517182766386E+00  0.524229434694E+00
  0.503688245589E+00  0.509494159593E+00  0.469815334401E+00  0.495615018641E+00  0.494484020724E+00  0.488564202289E+00  0.488962236269E+00
  0.492982471579E+00  0.499009450368E+00  0.486465184935E+00  0.484600385621E+00  0.495346937484E+00
  0.999990270641E+00  0.999990225782E+00  0.999990395682E+00  0.981535542214E+00  0.988771501566E+00  0.999990283722E+00  0.982469723933E+00
  0.984101968489E+00  0.990427697644E+00  0.990354821925E+00  0.994363179959E+00  0.999990418232E+00  0.988651874713E+00  0.100368394181E+01
  0.999768975419E+00  0.100118579663E+01  0.100834870671E+01  0.100252097742E+01  0.102982722916E+01  0.100443276081E+01  0.100199514669E+01
  0.100082040932E+01  0.100137985332E+01  0.100826260798E+01  0.100298769321E+01  0.100192374033E+01  0.100215231686E+01  0.100355656317E+01
  0.100047751366E+01  0.100056490724E+01  0.100126764624E+01  0.100066631000E+01  0.100179319624E+01
        15         9        16        16
        15        18        11        11
        22        15        21        21
        11         5         9         9
         5         7         2         2
        11         9        15        15
        16        21        15        15
        16        10        14        14
        18        17        11        11
        17        25        24        24
        22        18        15        15
        22        30        31        31
        30        21        23        23
        16        20        23        23
        22        27        26        26
        10         9         4         4
         7        11        13        13
        25        18        26        26
        11         7         5         5
         5         1         4         4
        17        19        13        13
        23        32        30        30
        23        20        29        29
         4         9         5         5
         4         8        10        10
        26        18        22        22
        26        28        25        25
        13        11        17        17
        13         6         7         7
        31        30        32        32
         2         1         5         5
         2         7         6         6
        14        10         8         8
        24        19        17        17
        24        25        28        28
         9        10        16        16
         3         4         1         1
        33        26        27        27
        12        13        19        19
        21        30        22        22
        16        14        20        20
        16        23        21        21
        22        31        27        27
        18        25        17        17
        26        33        28        28
         4         3         8         8
        23        29        32        32
        13        12         6         6
zone t="boundary 4 bc-4", solutiontime= 0.3000000E+02, strandid=1004, i=32, j=46, f=feblock
  0.125000000000E+01  0.219251206392E+01  0.103724302461E+01  0.500000000000E+01  0.250000000000E+01  0.375000000000E+01  0.404200324774E+01
  0.500000000000E+01  0.000000000000E+00  0.310152362409E+01  0.202479342020E+01  0.324151231464E+01  0.922061490191E+00  0.000000000000E+00
  0.299062775774E+01  0.394624082883E+01  0.500000000000E+01  0.409252726285E+01  0.500000000000E+01  0.429310310915E+01  0.175434191980E+01
  0.284428995242E+01  0.000000000000E+00  0.000000000000E+00  0.715990576545E+00  0.930412228790E+00  0.125000000000E+01  0.187029682677E+01
  0.500000000000E+01  0.375000000000E+01  0.250000000000E+01  0.000000000000E+00
  0.250000000000E+01  0.157686156160E+01  0.146289271009E+01  0.250000000000E+01  0.250000000000E+01  0.250000000000E+01  0.155830813274E+01
  0.125000000000E+01  0.250000000000E+01  0.177790177481E+01  0.477386199275E+00  0.742988685424E+00  0.308372018325E+00  0.125000000000E+01
 -0.487811078581E+00 -0.144524380962E+01 -0.125000000000E+01 -0.345533899378E+00  0.000000000000E+00  0.627766083140E+00 -0.739814786992E+00
 -0.158811787973E+01  0.000000000000E+00 -0.125000000000E+01 -0.600232012419E+00 -0.154800130438E+01 -0.250000000000E+01 -0.178862290564E+01
 -0.250000000000E+01 -0.250000000000E+01 -0.250000000000E+01 -0.250000000000E+01
  0.500000000000E+01  0.500000000000E+01  0.500000000000E+01  0.500000000000E+01  0.500000000000E+01  0.500000000000E+01  0.500000000000E+01
  0.500000000000E+01  0.500000000000E+01  0.500000000000E+01  0.500000000000E+01  0.500000000000E+01  0.500000000000E+01  0.500000000000E+01
  0.500000000000E+01  0.500000000000E+01  0.500000000000E+01  0.500000000000E+01  0.500000000000E+01  0.500000000000E+01  0.500000000000E+01
  0.500000000000E+01  0.500000000000E+01  0.500000000000E+01  0.500000000000E+01  0.500000000000E+01  0.500000000000E+01  0.500000000000E+01
  0.500000000000E+01  0.500000000000E+01  0.500000000000E+01  0.500000000000E+01
  0.100522806566E+01  0.100432876032E+01  0.100431979584E+01  0.100196264585E+01  0.100413158245E+01  0.100321760295E+01  0.100258242034E+01
  0.100200861393E+01  0.100426012315E+01  0.100372250975E+01  0.100446426388E+01  0.100346795859E+01  0.100365962187E+01  0.100424771456E+01
  0.100362234297E+01  0.100163990741E+01  0.100227391972E+01  0.100227000008E+01  0.100213198203E+01  0.100253976858E+01  0.100442342662E+01
  0.100337183029E+01  0.100288827728E+01  0.100334528220E+01  0.100323188999E+01  0.100406053090E+01  0.100510131473E+01  0.100431294083E+01
  0.100179266550E+01  0.100266107105E+01  0.100321132002E+01  0.100399298682E+01
  0.489078053185E+00  0.489240818200E+00  0.490984373926E+00  0.493066857133E+00  0.486770765588E+00  0.484761470407E+00  0.485407152911E+00
  0.494264591949E+00  0.495785193247E+00  0.486804572576E+00  0.488140435185E+00  0.487247624871E+00  0.494423888386E+00  0.496536772466E+00
  0.487846291930E+00  0.483216400261E+00  0.492572277419E+00  0.487262522446E+00  0.494866959204E+00  0.488014747430E+00  0.490097489871E+00
  0.488268908002E+00  0.497534290164E+00  0.496384277603E+00  0.495260169546E+00  0.493217141293E+00  0.490458696133E+00  0.490400775605E+00
  0.491425913021E+00  0.486215766961E+00  0.490305670802E+00  0.495522056885E+00
  0.000000000000E+00 -0.897697633638E-04 -0.129723476248E-02  0.000000000000E+00  0.000000000000E+00  0.000000000000E+00  0.425130431666E-03
  0.797928723879E-03  0.000000000000E+00  0.273726676140E-03 -0.942050345147E-03 -0.819964232564E-03 -0.174501585591E-02 -0.634653407698E-04
 -0.109815732515E-02 -0.102088539410E-02 -0.133119848994E-02 -0.213265722225E-02 -0.132837142251E-02 -0.106352539792E-02 -0.623725221190E-03
 -0.760443770959E-03 -0.196313889973E-03  0.807245542009E-03  0.519951703944E-04  0.161652252519E-02  0.000000000000E+00  0.791735022836E-03
  0.000000000000E+00  0.000000000000E+00  0.000000000000E+00  0.000000000000E+00