# vtk DataFile Version 2.0
FUN3D:global_image_vtk
ASCII
DATASET UNSTRUCTURED_GRID
POINTS 213 double
    0.0000000000000000E+00    0.2500000000000000E+01    0.0000000000000000E+00
    0.1250000000000000E+01    0.2500000000000000E+01    0.0000000000000000E+00
    0.2500000000000000E+01    0.2500000000000000E+01    0.0000000000000000E+00
    0.3750000000000000E+01    0.2500000000000000E+01    0.0000000000000000E+00
    0.5000000000000000E+01    0.2500000000000000E+01    0.0000000000000000E+00
    0.5000000000000000E+01    0.1250000000000000E+01    0.0000000000000000E+00
    0.5000000000000000E+01    0.0000000000000000E+00    0.0000000000000000E+00
    0.5000000000000000E+01   -0.1250000000000000E+01    0.0000000000000000E+00
    0.5000000000000000E+01   -0.2500000000000000E+01    0.0000000000000000E+00
    0.3750000000000000E+01   -0.2500000000000000E+01    0.0000000000000000E+00
    0.2500000000000000E+01   -0.2500000000000000E+01    0.0000000000000000E+00
    0.1250000000000000E+01   -0.2500000000000000E+01    0.0000000000000000E+00
    0.0000000000000000E+00   -0.2500000000000000E+01    0.0000000000000000E+00
    0.0000000000000000E+00   -0.1250000000000000E+01    0.0000000000000000E+00
    0.0000000000000000E+00    0.0000000000000000E+00    0.0000000000000000E+00
    0.0000000000000000E+00    0.1250000000000000E+01    0.0000000000000000E+00
    0.9058375365086910E+00    0.1578994732800803E+01    0.0000000000000000E+00
    0.3982050490726493E+01   -0.1583989954232354E+01    0.0000000000000000E+00
    0.4033849428301197E+01    0.1453322699199022E+01    0.0000000000000000E+00
    0.1040505887381675E+01   -0.1479596339503735E+01    0.0000000000000000E+00
    0.1099454400140349E+01   -0.3227322616384110E+00    0.0000000000000000E+00
    0.7354504170366591E+00    0.6593508822075582E+00    0.0000000000000000E+00
    0.1622302608453282E+01    0.8256214013940779E+00    0.0000000000000000E+00
    0.2145871574390382E+01   -0.1650070333782557E+01    0.0000000000000000E+00
    0.4086422318222992E+01   -0.4612828702537229E+00    0.0000000000000000E+00
    0.2979540174134984E+01   -0.8579242121530853E+00    0.0000000000000000E+00
    0.3045064261640043E+01   -0.1836846154397680E+01    0.0000000000000000E+00
    0.3428197553792836E+01    0.3508002863614053E+00    0.0000000000000000E+00
    0.4309693860063405E+01    0.5185680230613409E+00    0.0000000000000000E+00
    0.1827272193562204E+01    0.1738996113203182E+01    0.0000000000000000E+00
    0.2808563282768077E+01    0.1325493893339706E+01    0.0000000000000000E+00
    0.1895995683864404E+01   -0.8731419609589618E+00    0.0000000000000000E+00
    0.2273179336307740E+01    0.4906150219227333E-01    0.0000000000000000E+00
    0.5000000000000000E+01    0.2500000000000000E+01    0.1250000000000000E+01
    0.5000000000000000E+01    0.2500000000000000E+01    0.2500000000000000E+01
    0.5000000000000000E+01    0.2500000000000000E+01    0.3750000000000000E+01
    0.5000000000000000E+01    0.2500000000000000E+01    0.5000000000000000E+01
    0.3750000000000000E+01    0.2500000000000000E+01    0.5000000000000000E+01
    0.2500000000000000E+01    0.2500000000000000E+01    0.5000000000000000E+01
    0.1250000000000000E+01    0.2500000000000000E+01    0.5000000000000000E+01
    0.0000000000000000E+00    0.2500000000000000E+01    0.5000000000000000E+01
    0.0000000000000000E+00    0.2500000000000000E+01    0.3750000000000000E+01
    0.0000000000000000E+00    0.2500000000000000E+01    0.2500000000000000E+01
    0.0000000000000000E+00    0.2500000000000000E+01    0.1250000000000000E+01
    0.9631080833812172E+00    0.2500000000000000E+01    0.9613285771248219E+00
    0.3981732467264904E+01    0.2500000000000000E+01    0.4069753913607991E+01
    0.4035525118777670E+01    0.2500000000000000E+01    0.1012015867579395E+01
    0.9641717640894248E+00    0.2500000000000000E+01    0.3972455192261839E+01
    0.1547743040396780E+01    0.2500000000000000E+01    0.2928177746738678E+01
    0.6985170616192014E+00    0.2500000000000000E+01    0.3068281976055466E+01
    0.8931277594515110E+00    0.2500000000000000E+01    0.2052465503257726E+01
    0.2183293750162785E+01    0.2500000000000000E+01    0.3959073795658649E+01
    0.3855333506014705E+01    0.2500000000000000E+01    0.2931218481500625E+01
    0.3152495579421047E+01    0.2500000000000000E+01    0.3635850502723324E+01
    0.3103247580566054E+01    0.2500000000000000E+01    0.4331682712472464E+01
    0.3266837581688852E+01    0.2500000000000000E+01    0.1886092433583972E+01
    0.4231539241296245E+01    0.2500000000000000E+01    0.1915865356532799E+01
    0.1909741006522088E+01    0.2500000000000000E+01    0.7170024419130505E+00
    0.2880784107213163E+01    0.2500000000000000E+01    0.9046598906449592E+00
    0.2014316024535771E+01    0.2500000000000000E+01    0.1762464314805728E+01
    0.2670003247036656E+01    0.2500000000000000E+01    0.2850479545835163E+01
    0.5000000000000000E+01    0.1250000000000000E+01    0.5000000000000000E+01
    0.5000000000000000E+01    0.0000000000000000E+00    0.5000000000000000E+01
    0.5000000000000000E+01   -0.1250000000000000E+01    0.5000000000000000E+01
    0.5000000000000000E+01   -0.2500000000000000E+01    0.5000000000000000E+01
    0.5000000000000000E+01   -0.2500000000000000E+01    0.3750000000000000E+01
    0.5000000000000000E+01   -0.2500000000000000E+01    0.2500000000000000E+01
    0.5000000000000000E+01   -0.2500000000000000E+01    0.1250000000000000E+01
    0.5000000000000000E+01    0.1578994732800803E+01    0.9058375365086910E+00
    0.5000000000000000E+01   -0.1583989954232354E+01    0.3982050490726493E+01
    0.5000000000000000E+01    0.1453322699199022E+01    0.4033849428301197E+01
    0.5000000000000000E+01   -0.1479596339503735E+01    0.1040505887381675E+01
    0.5000000000000000E+01   -0.3227322616384110E+00    0.1099454400140349E+01
    0.5000000000000000E+01    0.6593508822075582E+00    0.7354504170366591E+00
    0.5000000000000000E+01    0.8256214013940779E+00    0.1622302608453282E+01
    0.5000000000000000E+01   -0.1650070333782557E+01    0.2145871574390382E+01
    0.5000000000000000E+01   -0.4612828702537229E+00    0.4086422318222992E+01
    0.5000000000000000E+01   -0.8579242121530853E+00    0.2979540174134984E+01
    0.5000000000000000E+01   -0.1836846154397680E+01    0.3045064261640043E+01
    0.5000000000000000E+01    0.3508002863614053E+00    0.3428197553792836E+01
    0.5000000000000000E+01    0.5185680230613409E+00    0.4309693860063405E+01
    0.5000000000000000E+01    0.1738996113203182E+01    0.1827272193562204E+01
    0.5000000000000000E+01    0.1325493893339706E+01    0.2808563282768077E+01
    0.5000000000000000E+01   -0.8731419609589618E+00    0.1895995683864404E+01
    0.5000000000000000E+01    0.4906150219227333E-01    0.2273179336307740E+01
    0.0000000000000000E+00    0.1250000000000000E+01    0.5000000000000000E+01
    0.0000000000000000E+00    0.0000000000000000E+00    0.5000000000000000E+01
    0.0000000000000000E+00   -0.1250000000000000E+01    0.5000000000000000E+01
    0.0000000000000000E+00   -0.2500000000000000E+01    0.5000000000000000E+01
    0.1250000000000000E+01   -0.2500000000000000E+01    0.5000000000000000E+01
    0.2500000000000000E+01   -0.2500000000000000E+01    0.5000000000000000E+01
    0.3750000000000000E+01   -0.2500000000000000E+01    0.5000000000000000E+01
    0.4042003247744892E+01    0.1558308132739014E+01    0.5000000000000000E+01
    0.9304122287900499E+00   -0.1548001304379777E+01    0.5000000000000000E+01
    0.1037243024609388E+01    0.1462892710085612E+01    0.5000000000000000E+01
    0.3946240828834967E+01   -0.1445243809615570E+01    0.5000000000000000E+01
    0.4092527262848217E+01   -0.3455338993778935E+00    0.5000000000000000E+01
    0.4293103109154542E+01    0.6277660831404320E+00    0.5000000000000000E+01
    0.3241512314643519E+01    0.7429886854239611E+00    0.5000000000000000E+01
    0.2844289952419609E+01   -0.1588117879734118E+01    0.5000000000000000E+01
    0.7159905765450471E+00   -0.6002320124191652E+00    0.5000000000000000E+01
    0.1754341919796891E+01   -0.7398147869923652E+00    0.5000000000000000E+01
    0.1870296826774691E+01   -0.1788622905643739E+01    0.5000000000000000E+01
    0.9220614901912976E+00    0.3083720183248586E+00    0.5000000000000000E+01
    0.3101523624086016E+01    0.1777901774806180E+01    0.5000000000000000E+01
    0.2192512063922564E+01    0.1576861561598471E+01    0.5000000000000000E+01
    0.2024793420196460E+01    0.4773861992750707E+00    0.5000000000000000E+01
    0.2990627757741975E+01   -0.4878110785814084E+00    0.5000000000000000E+01
    0.0000000000000000E+00   -0.2500000000000000E+01    0.1250000000000000E+01
    0.0000000000000000E+00   -0.2500000000000000E+01    0.2500000000000000E+01
    0.0000000000000000E+00   -0.2500000000000000E+01    0.3750000000000000E+01
    0.0000000000000000E+00    0.1558308132739014E+01    0.4042003247744892E+01
    0.0000000000000000E+00   -0.1548001304379777E+01    0.9304122287900499E+00
    0.0000000000000000E+00    0.1462892710085612E+01    0.1037243024609388E+01
    0.0000000000000000E+00   -0.1445243809615570E+01    0.3946240828834967E+01
    0.0000000000000000E+00   -0.3455338993778935E+00    0.4092527262848217E+01
    0.0000000000000000E+00    0.6277660831404320E+00    0.4293103109154542E+01
    0.0000000000000000E+00    0.7429886854239611E+00    0.3241512314643519E+01
    0.0000000000000000E+00   -0.1588117879734118E+01    0.2844289952419609E+01
    0.0000000000000000E+00   -0.6002320124191652E+00    0.7159905765450471E+00
    0.0000000000000000E+00   -0.7398147869923652E+00    0.1754341919796891E+01
    0.0000000000000000E+00   -0.1788622905643739E+01    0.1870296826774691E+01
    0.0000000000000000E+00    0.3083720183248586E+00    0.9220614901912976E+00
    0.0000000000000000E+00    0.1777901774806180E+01    0.3101523624086016E+01
    0.0000000000000000E+00    0.1576861561598471E+01    0.2192512063922564E+01
[...]
POINT_DATA 213
SCALARS rho double 1
LOOKUP_TABLE default
   0.1344271201573416E+01
   0.9569755321661629E+00
   0.9462957794135468E+00
   0.9418604188574552E+00
   0.8437293499173021E+00
   0.7738003617385529E+00
   0.7629838434138982E+00
   0.7664614262741233E+00
   0.8307910520515273E+00
   0.9353000082841567E+00
   0.9342241228637240E+00
   0.9617212422215569E+00
   0.1449462310716560E+01
   0.1494095575087846E+01
   0.1644671734102096E+01
   0.1425833351774755E+01
   0.1009014616280496E+01
   0.9508842615146248E+00
   0.9436503236905668E+00
   0.9581578206235379E+00
   0.9415864358810532E+00
   0.1036378078177872E+01
   0.9256165244672401E+00
   0.9322373613244560E+00
   0.9537501757122792E+00
   0.9518795572022056E+00
   0.9348611704597853E+00
   0.9564034636058535E+00
   0.9376105143719434E+00
   0.9300659050592514E+00
   0.9445154396915002E+00
   0.8863522898204287E+00
   0.9423591877574442E+00
   0.9635002130106446E+00
   0.1008299046849854E+01
   0.1006735317333051E+01
   0.1001964652400657E+01
   0.1003219633594398E+01
   0.1004132113403098E+01
   0.1005228657920051E+01
   0.1004260455806031E+01
   0.1008308256824469E+01
   0.1023893235158799E+01
   0.1063554072896063E+01
   0.1019182538044497E+01
   0.1001780809416313E+01
   0.9643308633386578E+00
   0.1005283770840121E+01
   0.1000721229470906E+01
   0.1008742157274652E+01
   0.1008078159707511E+01
   0.1002349869407373E+01
   0.9979987216456209E+00
   0.1000583611921522E+01
   0.1001620181788783E+01
   0.9826893318220613E+00
   0.9842439585840670E+00
   0.9833313614265805E+00
   0.9788206261382909E+00
   0.9902638643015521E+00
   0.9934562070495007E+00
   0.1002011786419648E+01
   0.1002134498980174E+01
   0.1002276365493066E+01
   0.1001794823600152E+01
   0.1009778591906235E+01
   0.1006429000200083E+01
   0.9558792970354616E+00
   0.9249396962409625E+00
   0.1007036723688375E+01
   0.1004504940763051E+01
   0.9143653100029959E+00
   0.9089674685489705E+00
   0.8751692858043613E+00
   0.9767272467212118E+00
   0.1000452594185807E+01
   0.1005831064672385E+01
   0.1012882664888793E+01
   0.1011618828368400E+01
   0.1010438587113962E+01
   0.1005468285380381E+01
   0.9907612576754584E+00
   0.1005140318542492E+01
   0.9860568252889194E+00
   0.1005609709318393E+01
   0.1004248054268545E+01
   0.1002888485013477E+01
   0.1003345469606706E+01
   0.1003992785954016E+01
   0.1005101783611816E+01
   0.1003211721880068E+01
   0.1002663227807522E+01
   0.1002586286956872E+01
   0.1004060925879545E+01
   0.1004320394815555E+01
   0.1001642018338665E+01
   0.1002273181436034E+01
   0.1002543533895272E+01
   0.1003469594773734E+01
   0.1003372716131566E+01
   0.1003232280863474E+01
   0.1004423938340251E+01
   0.1004313146319820E+01
   0.1003659896942283E+01
   0.1003723162410681E+01
   0.1004329786532641E+01
   0.1004465096745857E+01
   0.1003623450190778E+01
   0.1064422871836119E+01
   0.1028473841572351E+01
   0.1009586747029207E+01
   0.1006638897543876E+01
   0.1163936085753401E+01
   0.1086088038095318E+01
   0.1007893504674676E+01
   0.1007245610899687E+01
   0.1006798136490705E+01
   0.1013018390222748E+01
   0.1019384805613342E+01
   0.1235204798795590E+01
   0.1032529498796696E+01
   0.1046681519251557E+01
   0.1200954249593424E+01
   0.1014719000559528E+01
   0.1032291279380478E+01
   0.1028095408091888E+01
   0.1014628815046336E+01
   0.1029217432381214E+01
   0.1001994865702578E+01
   0.9606938319005710E+00
   0.1006852666881182E+01
   0.1001327244578543E+01
   0.1010822020339470E+01
   0.1012246167925854E+01
   0.1000946085088517E+01
   0.9979120737263012E+00
   0.9980632836414801E+00
   0.1001184211334315E+01
   0.9841362817481969E+00
   0.9814880851253968E+00
   0.9648491041471779E+00
   0.9680886327879433E+00
   0.9914125462574952E+00
   0.9910858495016821E+00
   0.9925545214459067E+00
   0.1001727564219964E+01
   0.9993409835459188E+00
   0.9941410804298539E+00
   0.1007038802867537E+01
   0.1022539535238143E+01
   0.1001088160124042E+01
   0.1008798586272447E+01
   0.1004773912444745E+01
   0.1009050315459689E+01
   0.9966470842056721E+00
   0.1004988664274746E+01
   0.1003325614977566E+01
   0.9949431494510057E+00
   0.9832681153716003E+00
   0.9943957748326797E+00
   0.9973420849021212E+00
   0.9932190223283941E+00
   0.1001306542540922E+01
   0.1003001703892023E+01
   0.1002183633881494E+01
   0.9947078221215327E+00
   0.9937965469694559E+00
   0.1004867940418730E+01
   0.1020077610128324E+01
   0.1005364603221868E+01
   0.9816998685103276E+00
   0.1004973106334969E+01
   0.1012382429242110E+01
   0.9871427411275997E+00
   0.9551518403684300E+00
   0.9865076513608982E+00
   0.9864533312463823E+00
   0.9918947533817269E+00
   0.9933508575934723E+00
   0.9954409147334676E+00
   0.1037336833916077E+01
   0.1033537236483601E+01
   0.1001443351578955E+01
   0.1001930558807018E+01
   0.9912478137022273E+00
   0.9910920211321450E+00
   0.9648493821566267E+00
   0.9933282249398560E+00
   0.1006058579079854E+01
   0.1001953998412952E+01
   0.9908736037949146E+00
   0.9740945278576560E+00
   0.9418802059289807E+00
   0.9819380137339341E+00
   0.9794804027452342E+00
   0.9704178578751672E+00
   0.9720484317107377E+00
   0.9557354591528309E+00
   0.9496738001296181E+00
   0.9528685559729162E+00
   0.1002659624611899E+01
   0.1002471701050768E+01
   0.1000509363108665E+01
   0.1001677330704335E+01
   0.9607933032067661E+00
   0.9491632286164438E+00
   0.9584517066633124E+00
   0.1001121273038666E+01
   0.1000496195992963E+01
   0.1001156675774191E+01
   0.9807376507947705E+00
   0.9806005296527023E+00
   0.9628482737992673E+00
SCALARS u double 1
LOOKUP_TABLE default
   0.0000000000000000E+00
   0.0000000000000000E+00
   0.0000000000000000E+00
   0.0000000000000000E+00
   0.0000000000000000E+00
   0.0000000000000000E+00
   0.0000000000000000E+00
   0.0000000000000000E+00
   0.0000000000000000E+00
   0.0000000000000000E+00
   0.0000000000000000E+00
   0.0000000000000000E+00
   0.0000000000000000E+00
   0.0000000000000000E+00
   0.0000000000000000E+00
   0.0000000000000000E+00
   0.0000000000000000E+00
   0.0000000000000000E+00
   0.0000000000000000E+00
   0.0000000000000000E+00
   0.0000000000000000E+00
   0.0000000000000000E+00
   0.0000000000000000E+00
   0.0000000000000000E+00
   0.0000000000000000E+00
   0.0000000000000000E+00
   0.0000000000000000E+00
   0.0000000000000000E+00
   0.0000000000000000E+00
   0.0000000000000000E+00
   0.0000000000000000E+00
   0.0000000000000000E+00
   0.0000000000000000E+00
   0.4950178598915662E+00
   0.5338222017112140E+00
   0.5183269620393763E+00
   0.4930649866438822E+00
   0.4847578063671578E+00
   0.4867665539592964E+00
   0.4890762765077246E+00
   0.4957848398225077E+00
   0.4898301190865566E+00
   0.4717387498264838E+00
   0.4454813121925170E+00
   0.4833907001016386E+00
   0.5098397365024998E+00
   0.4390714191225201E+00
   0.4949403330960270E+00
   0.5225329995946575E+00
   0.4962453889370134E+00
   0.5226154493533068E+00
   0.5038881211405881E+00
   0.5646883849256681E+00
   0.5247509026688137E+00
   0.4991465627901998E+00
   0.5730562198783135E+00
   0.5696051802903200E+00
   0.3737941478037756E+00
   0.3998658452647607E+00
   0.5599326691551116E+00
   0.5564587605444247E+00
   0.4942627384843987E+00
   0.4948659575360138E+00
   0.4925736012300703E+00
   0.4914269414897443E+00
   0.5162358259584398E+00
   0.5361800017104225E+00
   0.4947407043441686E+00
   0.4524113776469724E+00
   0.5128778464420147E+00
   0.5117942490493526E+00
   0.4783506683776599E+00
   0.4931689915355167E+00
   0.4603169965512610E+00
   0.5244892686958520E+00
   0.5297434631485827E+00
   0.5129580269153768E+00
   0.5328360413514621E+00
   0.5308943140296516E+00
   0.5309857501774551E+00
   0.5063657306405582E+00
   0.5282462824822386E+00
   0.5410313561939046E+00
   0.5361259823008834E+00
   0.5374105983358566E+00
   0.4965364365742515E+00
   0.4975340455530801E+00
   0.4963842128279386E+00
   0.4955219701469653E+00
   0.4904580799846796E+00
   0.4903043255928692E+00
   0.4862181880715294E+00
   0.4854049016513933E+00
   0.4932163565691095E+00
   0.4909832558014663E+00
   0.4832193884585298E+00
   0.4872622233719095E+00
   0.4880124494516517E+00
   0.4872445056793156E+00
   0.4882695542611338E+00
   0.4952596857476193E+00
   0.4900966045635421E+00
   0.4903998948800825E+00
   0.4944232186169500E+00
   0.4868001671249073E+00
   0.4892385091042691E+00
   0.4881392324674518E+00
   0.4878456786873539E+00
   0.4446865211748900E+00
   0.4700026789860717E+00
   0.4891998118826010E+00
   0.4885247150436750E+00
   0.4506529424354119E+00
   0.4687378141969790E+00
   0.4877009509652099E+00
   0.4868352765960526E+00
   0.4908994061319500E+00
   0.4793550504597149E+00
   0.4658069787229284E+00
   0.3792719052519019E+00
   0.4901596479465645E+00
   0.4486684160945725E+00
   0.4436134246092438E+00
   0.4845146385542050E+00
   0.4621821415671732E+00
   0.4665748257164318E+00
   0.4748138582681062E+00
   0.4894496552866298E+00
   0.5085557132890590E+00
   0.4315066141458476E+00
   0.4927348510823777E+00
   0.5318289415703528E+00
   0.4913398271707660E+00
   0.5207019799812977E+00
   0.5060964091541879E+00
   0.5688798001193616E+00
   0.5273992947426716E+00
   0.5015044322448085E+00
   0.5821788709833530E+00
   0.5689615938604062E+00
   0.3406393694109853E+00
   0.3789866183191852E+00
   0.5751958862580604E+00
   0.5666485980982898E+00
   0.5704108941991143E+00
   0.5291056386137043E+00
   0.5451902685208824E+00
   0.5718804654846723E+00
   0.5389078921227242E+00
   0.5475507289271322E+00
   0.5821713893269399E+00
   0.4925601119491606E+00
   0.5042157025304113E+00
   0.4961734789850309E+00
   0.5565207912508218E+00
   0.4758845684522769E+00
   0.4950267528912811E+00
   0.5498525420942592E+00
   0.5891201991898637E+00
   0.5841957725659277E+00
   0.5469097805018778E+00
   0.5805417760585372E+00
   0.5106251073436325E+00
   0.5030199970978908E+00
   0.5033624340456658E+00
   0.5676446663696995E+00
   0.5563943335580152E+00
   0.4947255309460013E+00
   0.5505244314669389E+00
   0.5510857979545091E+00
   0.5657351052350440E+00
   0.4920069156955221E+00
   0.4927298307149705E+00
   0.3865139200132701E+00
   0.3687753222121160E+00
   0.5574921080125083E+00
   0.5763755600178445E+00
   0.4194304203387504E+00
   0.5824843051096674E+00
   0.4265210020774843E+00
   0.5392800014017227E+00
   0.5012033324952884E+00
   0.5119513330198913E+00
   0.5049119003365170E+00
   0.5751975172031181E+00
   0.5876371607975475E+00
   0.5379903761848980E+00
   0.5677472900415874E+00
   0.5351249761370632E+00
   0.5338057209696154E+00
   0.5580314213573306E+00
   0.5512708164772544E+00
   0.4261852753376589E+00
   0.5273355983312011E+00
   0.5795711709288636E+00
   0.3318684610496323E+00
   0.4760280763250448E+00
   0.5446193820323842E+00
   0.4798325558908034E+00
   0.3005289189208937E+00
   0.5031050611706068E+00
   0.5017115345659053E+00
   0.5129033224310504E+00
   0.5414840543522936E+00
   0.3437602835073464E+00
   0.3397706393912744E+00
   0.3189921914894131E+00
   0.5065935577736597E+00
   0.5123483748534654E+00
   0.5330313665611950E+00
   0.5879310239263373E+00
   0.4644180228015545E+00
   0.3531267602410248E+00
SCALARS v double 1
LOOKUP_TABLE default
   0.0000000000000000E+00
   0.0000000000000000E+00
   0.0000000000000000E+00
   0.0000000000000000E+00
   0.0000000000000000E+00
   0.0000000000000000E+00
   0.0000000000000000E+00
   0.0000000000000000E+00
   0.0000000000000000E+00
   0.0000000000000000E+00
   0.0000000000000000E+00
   0.0000000000000000E+00
   0.0000000000000000E+00
   0.0000000000000000E+00
   0.0000000000000000E+00
   0.0000000000000000E+00
   0.0000000000000000E+00
   0.0000000000000000E+00
   0.0000000000000000E+00
   0.0000000000000000E+00
   0.0000000000000000E+00
   0.0000000000000000E+00
   0.0000000000000000E+00
   0.0000000000000000E+00
   0.0000000000000000E+00
   0.0000000000000000E+00
   0.0000000000000000E+00
   0.0000000000000000E+00
   0.0000000000000000E+00
   0.0000000000000000E+00
   0.0000000000000000E+00
   0.0000000000000000E+00
   0.0000000000000000E+00
   0.0000000000000000E+00
   0.0000000000000000E+00
   0.0000000000000000E+00
   0.0000000000000000E+00
   0.0000000000000000E+00
   0.0000000000000000E+00
   0.0000000000000000E+00
   0.0000000000000000E+00
   0.0000000000000000E+00
   0.0000000000000000E+00
   0.0000000000000000E+00
   0.0000000000000000E+00
   0.0000000000000000E+00
   0.0000000000000000E+00
   0.0000000000000000E+00
   0.0000000000000000E+00
   0.0000000000000000E+00
   0.0000000000000000E+00
   0.0000000000000000E+00
   0.0000000000000000E+00
   0.0000000000000000E+00
   0.0000000000000000E+00
   0.0000000000000000E+00
   0.0000000000000000E+00
   0.0000000000000000E+00
   0.0000000000000000E+00
   0.0000000000000000E+00
   0.0000000000000000E+00
   0.7970527760553909E-03
  -0.1329260937187339E-02
  -0.1332565197002109E-02
   0.0000000000000000E+00
   0.0000000000000000E+00
   0.0000000000000000E+00
   0.0000000000000000E+00
  -0.1922539784530848E-01
   0.4770859782992215E-03
   0.2183384895380100E-02
   0.1427344561260989E-01
  -0.6487909245723305E-02
  -0.7821185278941588E-02
  -0.1327700632001631E-01
   0.4914537590130317E-02
   0.6907518765379829E-03
   0.3434480273578180E-02
   0.1920877524813578E-02
   0.3148009197265270E-02
   0.1704812693125779E-02
  -0.7316101560578343E-02
  -0.7696685444190233E-04
   0.4468907347457457E-02
  -0.4385697046197695E-03
  -0.6384012830034595E-04
  -0.1963404712183527E-03
   0.8071298068514532E-03
   0.0000000000000000E+00
   0.0000000000000000E+00
   0.0000000000000000E+00
   0.0000000000000000E+00
   0.4257292087766812E-03
   0.1616311249286974E-02
  -0.1297549472830835E-02
  -0.1022759233658990E-02
  -0.2134310370204219E-02
  -0.1063978885390176E-02
  -0.8199793701558755E-03
  -0.7616970819857599E-03
   0.5202749402629249E-04
  -0.6244030363693194E-03
   0.7916523288657870E-03
  -0.1745235943167161E-02
   0.2747320061191913E-03
  -0.8938384903426292E-04
  -0.9424166187920814E-03
  -0.1100209347506387E-02
   0.0000000000000000E+00
   0.0000000000000000E+00
   0.0000000000000000E+00
  -0.1061760743970928E-02
  -0.7641073037192777E-02
   0.1860872139304928E-01
  -0.2835177407389615E-04
  -0.1383134570016425E-02
  -0.2035130612659337E-02
  -0.5666392859452930E-02
  -0.1585209841441232E-02
  -0.5946944962338063E-02
  -0.4160575846898872E-02
   0.1565608801350107E-02
   0.3329547008799577E-01
   0.3055282070029021E-04
  -0.2766865624130723E-02
   0.3566529655983473E-02
   0.3596079198355878E-03
   0.0000000000000000E+00
   0.0000000000000000E+00
   0.0000000000000000E+00
   0.0000000000000000E+00
   0.0000000000000000E+00
   0.0000000000000000E+00
   0.0000000000000000E+00
   0.0000000000000000E+00
   0.0000000000000000E+00
   0.0000000000000000E+00
   0.0000000000000000E+00
   0.0000000000000000E+00
   0.0000000000000000E+00
   0.0000000000000000E+00
   0.0000000000000000E+00
   0.0000000000000000E+00
   0.0000000000000000E+00
   0.5047092198094434E-02
   0.3230833443866257E-02
   0.8149195424030828E-02
   0.6168440110520251E-02
   0.1122937413698153E-01
   0.1429288536201880E-01
  -0.2038370112010227E-03
   0.5118254453986162E-02
   0.2914970703415778E-02
   0.3373636519077969E-02
   0.3728378981174599E-02
  -0.1465717220456577E-01
  -0.6159648836007783E-03
   0.6651667933901459E-02
   0.1542069613220534E-02
   0.1969674983838311E-02
   0.4266324668802635E-02
  -0.2790877361532294E-02
   0.1226923940891264E-02
   0.2819202424729055E-02
   0.1497480005865925E-02
   0.2575415531272034E-02
   0.2030697917045248E-02
   0.2118068613870818E-02
   0.8700481890289909E-02
  -0.3733387627553878E-02
   0.6241255734612713E-02
   0.2517228662924427E-04
  -0.3853997736550015E-03
  -0.1674683071772446E-01
  -0.4882003481573919E-02
  -0.4719969860450133E-02
   0.3445246675612049E-02
  -0.6135737209430157E-02
   0.9938042548150291E-04
  -0.3291377439081433E-01
  -0.3046152544853273E-02
   0.4722811287245889E-02
   0.9228772082117020E-03
   0.2112193438219087E-02
   0.4518852782930868E-02
   0.2720502934991137E-02
   0.3212631038166575E-02
   0.5200831325124018E-02
   0.1941855362014412E-02
   0.7316309129138170E-03
  -0.2551766638620796E-04
  -0.5374591568542785E-02
  -0.6959410115852400E-02
  -0.9443809977668464E-03
   0.1105342099408271E-02
  -0.2080577687841455E-02
  -0.3199985343768998E-02
  -0.2527664907087974E-02
  -0.4114990193481932E-02
  -0.7593851383720965E-02
  -0.1985685279086997E-02
   0.6240632973185203E-03
  -0.2238699281416115E-03
   0.1216996471447919E-02
  -0.3483892950177731E-02
   0.5229329378576559E-02
  -0.8487505810133180E-02
   0.2317136457891479E-04
  -0.3395061641754171E-03
   0.2542689280568942E-02
   0.1663495601849794E-02
   0.2021475312650248E-02
  -0.5620742780875749E-02
SCALARS w double 1
LOOKUP_TABLE default
   0.0000000000000000E+00
   0.0000000000000000E+00
   0.0000000000000000E+00
   0.0000000000000000E+00
   0.0000000000000000E+00
   0.0000000000000000E+00
   0.0000000000000000E+00
   0.0000000000000000E+00
   0.0000000000000000E+00
   0.0000000000000000E+00
   0.0000000000000000E+00
   0.0000000000000000E+00
   0.0000000000000000E+00
   0.0000000000000000E+00
   0.0000000000000000E+00
   0.0000000000000000E+00
   0.0000000000000000E+00
   0.0000000000000000E+00
   0.0000000000000000E+00
   0.0000000000000000E+00
   0.0000000000000000E+00
   0.0000000000000000E+00
   0.0000000000000000E+00
   0.0000000000000000E+00
   0.0000000000000000E+00
   0.0000000000000000E+00
   0.0000000000000000E+00
   0.0000000000000000E+00
   0.0000000000000000E+00
   0.0000000000000000E+00
   0.0000000000000000E+00
   0.0000000000000000E+00
   0.0000000000000000E+00
  -0.1007613260494239E+00
  -0.4249296406904441E-01
   0.7372258159791604E-03
   0.5725824838958715E-02
   0.5699525497612162E-03
   0.1609845029375500E-02
   0.3375128767804649E-02
   0.2371795317745283E-02
   0.4590669121517126E-03
   0.3518236747958048E-02
   0.4521816463721268E-01
   0.6522935305395787E-01
   0.8689678522623486E-03
  -0.2261157815062687E-01
   0.4316589537846438E-02
   0.1358737597857435E-01
   0.1039455278489125E-01
   0.4900550694178279E-01
   0.2437491131428603E-02
  -0.6509921284506251E-02
  -0.7011838282673740E-03
   0.3411499911725632E-03
   0.3904114490518191E-02
  -0.3893254921338894E-01
   0.1798167113455089E-01
   0.1119638682624833E-01
   0.3403773147685921E-01
   0.8438835136965289E-02
   0.4937330805580382E-02
   0.4970355756482203E-02
   0.4871519096781592E-02
   0.6027175749198451E-02
   0.2599276501848460E-02
  -0.4144394507508953E-01
  -0.9954186321182769E-01
  -0.1121678822794002E+00
   0.5070930352742097E-02
   0.4230807187199286E-02
  -0.1004723862065037E+00
  -0.9895200118253281E-01
  -0.9875428653243602E-01
  -0.9462494678721652E-01
  -0.6807084406385819E-01
   0.5154971033877494E-02
  -0.1935311828990156E-01
  -0.1575781012671821E-01
  -0.6002775502820815E-02
   0.6819088917379220E-02
  -0.8010049977338296E-01
  -0.2781086541694332E-01
  -0.8096408444614160E-01
  -0.5873252293624935E-01
   0.3083651020766334E-02
   0.2685172246383716E-02
   0.2640460522275415E-02
   0.3450224164991412E-02
   0.4007150087233110E-02
   0.1201281894125833E-02
  -0.1438405344817969E-03
   0.2039908534098723E-02
   0.4895760699596745E-02
   0.3857441149274993E-02
   0.1114198208376997E-02
   0.1182700183094499E-02
   0.1465312849488959E-02
  -0.1649763118850065E-04
   0.9002394765054936E-04
   0.4386725268653678E-02
   0.2715785913143739E-02
   0.2322823216264606E-02
   0.5010662598700125E-02
   0.1071746422013942E-02
   0.2712282054108676E-02
   0.2014020000744587E-02
   0.2884047028420691E-04
   0.8374661478597700E-01
   0.2793883471066309E-02
  -0.8346558592175731E-03
  -0.1492865931646967E-03
   0.1409548581187186E+00
   0.1239334074745599E+00
  -0.1219080704348786E-02
  -0.4381937078074112E-02
  -0.3042998787888200E-03
  -0.6512243216814924E-02
  -0.1949559706336286E-02
   0.1557638452695236E+00
   0.7490009745698169E-01
   0.2550184569247320E-01
   0.1656451267873107E+00