# vtk DataFile Version 2.0
FUN3D:global_image_vtk
ASCII
DATASET UNSTRUCTURED_GRID
POINTS 213 double
    0.0000000000000000E+00    0.2500000000000000E+01    0.0000000000000000E+00
    0.1250000000000000E+01    0.2500000000000000E+01    0.0000000000000000E+00
    0.2500000000000000E+01    0.2500000000000000E+01    0.0000000000000000E+00
    0.3750000000000000E+01    0.2500000000000000E+01    0.0000000000000000E+00
    0.5000000000000000E+01    0.2500000000000000E+01    0.0000000000000000E+00
    0.5000000000000000E+01    0.1250000000000000E+01    0.0000000000000000E+00
    0.5000000000000000E+01    0.0000000000000000E+00    0.0000000000000000E+00
    0.5000000000000000E+01   -0.1250000000000000E+01    0.0000000000000000E+00
    0.5000000000000000E+01   -0.2500000000000000E+01    0.0000000000000000E+00
    0.3750000000000000E+01   -0.2500000000000000E+01    0.0000000000000000E+00
    0.2500000000000000E+01   -0.2500000000000000E+01    0.0000000000000000E+00
    0.1250000000000000E+01   -0.2500000000000000E+01    0.0000000000000000E+00
    0.0000000000000000E+00   -0.2500000000000000E+01    0.0000000000000000E+00
    0.0000000000000000E+00   -0.1250000000000000E+01    0.0000000000000000E+00
    0.0000000000000000E+00    0.0000000000000000E+00    0.0000000000000000E+00
    0.0000000000000000E+00    0.1250000000000000E+01    0.0000000000000000E+00
    0.9058375365086910E+00    0.1578994732800803E+01    0.0000000000000000E+00
    0.3982050490726493E+01   -0.1583989954232354E+01    0.0000000000000000E+00
    0.4033849428301197E+01    0.1453322699199022E+01    0.0000000000000000E+00
    0.1040505887381675E+01   -0.1479596339503735E+01    0.0000000000000000E+00
    0.1099454400140349E+01   -0.3227322616384110E+00    0.0000000000000000E+00
    0.7354504170366591E+00    0.6593508822075582E+00    0.0000000000000000E+00
    0.1622302608453282E+01    0.8256214013940779E+00    0.0000000000000000E+00
    0.2145871574390382E+01   -0.1650070333782557E+01    0.0000000000000000E+00
    0.4086422318222992E+01   -0.4612828702537229E+00    0.0000000000000000E+00
    0.2979540174134984E+01   -0.8579242121530853E+00    0.0000000000000000E+00
    0.3045064261640043E+01   -0.1836846154397680E+01    0.0000000000000000E+00
    0.3428197553792836E+01    0.3508002863614053E+00    0.0000000000000000E+00
    0.4309693860063405E+01    0.5185680230613409E+00    0.0000000000000000E+00
    0.1827272193562204E+01    0.1738996113203182E+01    0.0000000000000000E+00
    0.2808563282768077E+01    0.1325493893339706E+01    0.0000000000000000E+00
    0.1895995683864404E+01   -0.8731419609589618E+00    0.0000000000000000E+00
    0.2273179336307740E+01    0.4906150219227333E-01    0.0000000000000000E+00
    0.5000000000000000E+01    0.2500000000000000E+01    0.1250000000000000E+01
    0.5000000000000000E+01    0.2500000000000000E+01    0.2500000000000000E+01
    0.5000000000000000E+01    0.2500000000000000E+01    0.3750000000000000E+01
    0.5000000000000000E+01    0.2500000000000000E+01    0.5000000000000000E+01
    0.3750000000000000E+01    0.2500000000000000E+01    0.5000000000000000E+01
    0.2500000000000000E+01    0.2500000000000000E+01    0.5000000000000000E+01
    0.1250000000000000E+01    0.2500000000000000E+01    0.5000000000000000E+01
    0.0000000000000000E+00    0.2500000000000000E+01    0.5000000000000000E+01
    0.0000000000000000E+00    0.2500000000000000E+01    0.3750000000000000E+01
    0.0000000000000000E+00    0.2500000000000000E+01    0.2500000000000000E+01
    0.0000000000000000E+00    0.2500000000000000E+01    0.1250000000000000E+01
    0.9631080833812172E+00    0.2500000000000000E+01    0.9613285771248219E+00
    0.3981732467264904E+01    0.2500000000000000E+01    0.4069753913607991E+01
    0.4035525118777670E+01    0.2500000000000000E+01    0.1012015867579395E+01
    0.9641717640894248E+00    0.2500000000000000E+01    0.3972455192261839E+01
    0.1547743040396780E+01    0.2500000000000000E+01    0.2928177746738678E+01
    0.6985170616192014E+00    0.2500000000000000E+01    0.3068281976055466E+01
    0.8931277594515110E+00    0.2500000000000000E+01    0.2052465503257726E+01
    0.2183293750162785E+01    0.2500000000000000E+01    0.3959073795658649E+01
    0.3855333506014705E+01    0.2500000000000000E+01    0.2931218481500625E+01
    0.3152495579421047E+01    0.2500000000000000E+01    0.3635850502723324E+01
    0.3103247580566054E+01    0.2500000000000000E+01    0.4331682712472464E+01
    0.3266837581688852E+01    0.2500000000000000E+01    0.1886092433583972E+01
    0.4231539241296245E+01    0.2500000000000000E+01    0.1915865356532799E+01
    0.1909741006522088E+01    0.2500000000000000E+01    0.7170024419130505E+00
    0.2880784107213163E+01    0.2500000000000000E+01    0.9046598906449592E+00
    0.2014316024535771E+01    0.2500000000000000E+01    0.1762464314805728E+01
    0.2670003247036656E+01    0.2500000000000000E+01    0.2850479545835163E+01
    0.5000000000000000E+01    0.1250000000000000E+01    0.5000000000000000E+01
    0.5000000000000000E+01    0.0000000000000000E+00    0.5000000000000000E+01
    0.5000000000000000E+01   -0.1250000000000000E+01    0.5000000000000000E+01
    0.5000000000000000E+01   -0.2500000000000000E+01    0.5000000000000000E+01
    0.5000000000000000E+01   -0.2500000000000000E+01    0.3750000000000000E+01
    0.5000000000000000E+01   -0.2500000000000000E+01    0.2500000000000000E+01
    0.5000000000000000E+01   -0.2500000000000000E+01    0.1250000000000000E+01
    0.5000000000000000E+01    0.1578994732800803E+01    0.9058375365086910E+00
    0.5000000000000000E+01   -0.1583989954232354E+01    0.3982050490726493E+01
    0.5000000000000000E+01    0.1453322699199022E+01    0.4033849428301197E+01
    0.5000000000000000E+01   -0.1479596339503735E+01    0.1040505887381675E+01
    0.5000000000000000E+01   -0.3227322616384110E+00    0.1099454400140349E+01
    0.5000000000000000E+01    0.6593508822075582E+00    0.7354504170366591E+00
    0.5000000000000000E+01    0.8256214013940779E+00    0.1622302608453282E+01
    0.5000000000000000E+01   -0.1650070333782557E+01    0.2145871574390382E+01
    0.5000000000000000E+01   -0.4612828702537229E+00    0.4086422318222992E+01
    0.5000000000000000E+01   -0.8579242121530853E+00    0.2979540174134984E+01
    0.5000000000000000E+01   -0.1836846154397680E+01    0.3045064261640043E+01
    0.5000000000000000E+01    0.3508002863614053E+00    0.3428197553792836E+01
    0.5000000000000000E+01    0.5185680230613409E+00    0.4309693860063405E+01
    0.5000000000000000E+01    0.1738996113203182E+01    0.1827272193562204E+01
    0.5000000000000000E+01    0.1325493893339706E+01    0.2808563282768077E+01
    0.5000000000000000E+01   -0.8731419609589618E+00    0.1895995683864404E+01
    0.5000000000000000E+01    0.4906150219227333E-01    0.2273179336307740E+01
    0.0000000000000000E+00    0.1250000000000000E+01    0.5000000000000000E+01
    0.0000000000000000E+00    0.0000000000000000E+00    0.5000000000000000E+01
    0.0000000000000000E+00   -0.1250000000000000E+01    0.5000000000000000E+01
    0.0000000000000000E+00   -0.2500000000000000E+01    0.5000000000000000E+01
    0.1250000000000000E+01   -0.2500000000000000E+01    0.5000000000000000E+01
    0.2500000000000000E+01   -0.2500000000000000E+01    0.5000000000000000E+01
    0.3750000000000000E+01   -0.2500000000000000E+01    0.5000000000000000E+01
    0.4042003247744892E+01    0.1558308132739014E+01    0.5000000000000000E+01
    0.9304122287900499E+00   -0.1548001304379777E+01    0.5000000000000000E+01
    0.1037243024609388E+01    0.1462892710085612E+01    0.5000000000000000E+01
    0.3946240828834967E+01   -0.1445243809615570E+01    0.5000000000000000E+01
    0.4092527262848217E+01   -0.3455338993778935E+00    0.5000000000000000E+01
    0.4293103109154542E+01    0.6277660831404320E+00    0.5000000000000000E+01
    0.3241512314643519E+01    0.7429886854239611E+00    0.5000000000000000E+01
    0.2844289952419609E+01   -0.1588117879734118E+01    0.5000000000000000E+01
    0.7159905765450471E+00   -0.6002320124191652E+00    0.5000000000000000E+01
    0.1754341919796891E+01   -0.7398147869923652E+00    0.5000000000000000E+01
    0.1870296826774691E+01   -0.1788622905643739E+01    0.5000000000000000E+01
    0.9220614901912976E+00    0.3083720183248586E+00    0.5000000000000000E+01
    0.3101523624086016E+01    0.1777901774806180E+01    0.5000000000000000E+01
    0.2192512063922564E+01    0.1576861561598471E+01    0.5000000000000000E+01
    0.2024793420196460E+01    0.4773861992750707E+00    0.5000000000000000E+01
    0.2990627757741975E+01   -0.4878110785814084E+00    0.5000000000000000E+01
    0.0000000000000000E+00   -0.2500000000000000E+01    0.1250000000000000E+01
    0.0000000000000000E+00   -0.2500000000000000E+01    0.2500000000000000E+01
    0.0000000000000000E+00   -0.2500000000000000E+01    0.3750000000000000E+01
    0.0000000000000000E+00    0.1558308132739014E+01    0.4042003247744892E+01
    0.0000000000000000E+00   -0.1548001304379777E+01    0.9304122287900499E+00
    0.0000000000000000E+00    0.1462892710085612E+01    0.1037243024609388E+01
    0.0000000000000000E+00   -0.1445243809615570E+01    0.3946240828834967E+01
    0.0000000000000000E+00   -0.3455338993778935E+00    0.4092527262848217E+01
    0.0000000000000000E+00    0.6277660831404320E+00    0.4293103109154542E+01
    0.0000000000000000E+00    0.7429886854239611E+00    0.3241512314643519E+01
    0.0000000000000000E+00   -0.1588117879734118E+01    0.2844289952419609E+01
    0.0000000000000000E+00   -0.6002320124191652E+00    0.7159905765450471E+00
    0.0000000000000000E+00   -0.7398147869923652E+00    0.1754341919796891E+01
    0.0000000000000000E+00   -0.1788622905643739E+01    0.1870296826774691E+01
    0.0000000000000000E+00    0.3083720183248586E+00    0.9220614901912976E+00
    0.0000000000000000E+00    0.1777901774806180E+01    0.3101523624086016E+01
    0.0000000000000000E+00    0.1576861561598471E+01    0.2192512063922564E+01
[...]
POINT_DATA 213
SCALARS rho double 1
LOOKUP_TABLE default
   0.1344271205676829E+01
   0.9569755298493535E+00
   0.9462957741125620E+00
   0.9418604284965205E+00
   0.8437293930657302E+00
   0.7738003667161517E+00
   0.7629838382427191E+00
   0.7664614099378400E+00
   0.8307910572225632E+00
   0.9353000132062751E+00
   0.9342241205991866E+00
   0.9617212404059698E+00
   0.1449462313762176E+01
   0.1494095572207681E+01
   0.1644671732511405E+01
   0.1425833352277998E+01
   0.1009014614339487E+01
   0.9508842609056707E+00
   0.9436503400798830E+00
   0.9581578216892940E+00
   0.9415864346774924E+00
   0.1036378077207640E+01
   0.9256165235139413E+00
   0.9322373603317500E+00
   0.9537501739555645E+00
   0.9518795626754263E+00
   0.9348611717141057E+00
   0.9564034713744821E+00
   0.9376105141637930E+00
   0.9300659026866890E+00
   0.9445154406263223E+00
   0.8863522892806065E+00
   0.9423591910646677E+00
   0.9635004515775406E+00
   0.1008299024196823E+01
   0.1006735312199066E+01
   0.1001964703768966E+01
   0.1003219637294035E+01
   0.1004132091413854E+01
   0.1005228650301516E+01
   0.1004260454991974E+01
   0.1008308253600708E+01
   0.1023893234570277E+01
   0.1063554069728172E+01
   0.1019182541242581E+01
   0.1001780827111673E+01
   0.9643311705657585E+00
   0.1005283769141319E+01
   0.1000721227041673E+01
   0.1008742155614939E+01
   0.1008078158955630E+01
   0.1002349866592115E+01
   0.9979987119740814E+00
   0.1000583611360468E+01
   0.1001620169623846E+01
   0.9826893135053165E+00
   0.9842440015748662E+00
   0.9833313548728377E+00
   0.9788207054584469E+00
   0.9902638537794246E+00
   0.9934562039804623E+00
   0.1002011804249576E+01
   0.1002134494306232E+01
   0.1002276331714866E+01
   0.1001794816242818E+01
   0.1009778641638814E+01
   0.1006428980446223E+01
   0.9558793171594909E+00
   0.9249397650973608E+00
   0.1007036756503630E+01
   0.1004504981700479E+01
   0.9143653178124381E+00
   0.9089674894088984E+00
   0.8751692681765849E+00
   0.9767272218174480E+00
   0.1000452578046411E+01
   0.1005831104963298E+01
   0.1012882654879705E+01
   0.1011618818877301E+01
   0.1010438605411415E+01
   0.1005468349970776E+01
   0.9907612482695776E+00
   0.1005140296555558E+01
   0.9860568199173700E+00
   0.1005609693730068E+01
   0.1004248053975846E+01
   0.1002888489884369E+01
   0.1003345471161085E+01
   0.1003992792743136E+01
   0.1005101779373603E+01
   0.1003211721734830E+01
   0.1002663186910985E+01
   0.1002586271127798E+01
   0.1004060928314213E+01
   0.1004320384686245E+01
   0.1001641974295909E+01
   0.1002273143513979E+01
   0.1002543487526467E+01
   0.1003469559568769E+01
   0.1003372698109970E+01
   0.1003232277532234E+01
   0.1004423921095681E+01
   0.1004313138116691E+01
   0.1003659889322280E+01
   0.1003723173217017E+01
   0.1004329766515696E+01
   0.1004465089806725E+01
   0.1003623446591952E+01
   0.1064422882041671E+01
   0.1028473838161651E+01
   0.1009586745783448E+01
   0.1006638897318743E+01
   0.1163936080719480E+01
   0.1086088034417944E+01
   0.1007893502059653E+01
   0.1007245611321655E+01
   0.1006798138091376E+01
   0.1013018389110617E+01
   0.1019384800467331E+01
   0.1235204798371945E+01
   0.1032529499310540E+01
   0.1046681515162602E+01
   0.1200954251905982E+01
   0.1014718998460525E+01
   0.1032291276410337E+01
   0.1028095404975426E+01
   0.1014628811738269E+01
   0.1029217430213707E+01
   0.1001994897794114E+01
   0.9606938608560138E+00
   0.1006852662221507E+01
   0.1001327244314263E+01
   0.1010822014885725E+01
   0.1012246166565445E+01
   0.1000946078104203E+01
   0.9979120651900132E+00
   0.9980632654072077E+00
   0.1001184196421929E+01
   0.9841362863077294E+00
   0.9814880898379300E+00
   0.9648491116061224E+00
   0.9680886349929723E+00
   0.9914125465012849E+00
   0.9910858517571607E+00
   0.9925545189909103E+00
   0.1001727561372489E+01
   0.9993409795610736E+00
   0.9941410790979702E+00
   0.1007038799227017E+01
   0.1022539534101246E+01
   0.1001088162976056E+01
   0.1008798583363273E+01
   0.1004773911076935E+01
   0.1009050313320287E+01
   0.9966470845570399E+00
   0.1004988666385061E+01
   0.1003325610351151E+01
   0.9949431480443359E+00
   0.9832681244901361E+00
   0.9943957829153568E+00
   0.9973420815288738E+00
   0.9932190152499388E+00
   0.1001306530588138E+01
   0.1003001698771984E+01
   0.1002183624667873E+01
   0.9947078225931368E+00
   0.9937965408395149E+00
   0.1004867939163064E+01
   0.1020077607965036E+01
   0.1005364603202435E+01
   0.9816998690324295E+00
   0.1004973101446482E+01
   0.1012382423765365E+01
   0.9871427459044546E+00
   0.9551518406890308E+00
   0.9865076490687809E+00
   0.9864533321023402E+00
   0.9918947477661928E+00
   0.9933508595405853E+00
   0.9954409154663307E+00
   0.1037336832393161E+01
   0.1033537234300365E+01
   0.1001443381776308E+01
   0.1001930557163033E+01
   0.9912478062146567E+00
   0.9910920133333418E+00
   0.9648493775580056E+00
   0.9933282109816870E+00
   0.1006058582619277E+01
   0.1001954008013682E+01
   0.9908735976896318E+00
   0.9740945120834675E+00
   0.9418802174786225E+00
   0.9819380079049053E+00
   0.9794803979812224E+00
   0.9704178593711829E+00
   0.9720484311343509E+00
   0.9557354680775506E+00
   0.9496738102083553E+00
   0.9528685637137468E+00
   0.1002659621167769E+01
   0.1002471689040043E+01
   0.1000509362365706E+01
   0.1001677336825087E+01
   0.9607932892866373E+00
   0.9491632477664068E+00
   0.9584517133265760E+00
   0.1001121272255094E+01
   0.1000496188064397E+01
   0.1001156664328074E+01
   0.9807376501575609E+00
   0.9806005260526480E+00
   0.9628482879387473E+00
SCALARS u double 1
LOOKUP_TABLE default
   0.0000000000000000E+00
   0.0000000000000000E+00
   0.0000000000000000E+00
   0.0000000000000000E+00
   0.0000000000000000E+00
   0.0000000000000000E+00
   0.0000000000000000E+00
   0.0000000000000000E+00
   0.0000000000000000E+00
   0.0000000000000000E+00
   0.0000000000000000E+00
   0.0000000000000000E+00
   0.0000000000000000E+00
   0.0000000000000000E+00
   0.0000000000000000E+00
   0.0000000000000000E+00
   0.0000000000000000E+00
   0.0000000000000000E+00
   0.0000000000000000E+00
   0.0000000000000000E+00
   0.0000000000000000E+00
   0.0000000000000000E+00
   0.0000000000000000E+00
   0.0000000000000000E+00
   0.0000000000000000E+00
   0.0000000000000000E+00
   0.0000000000000000E+00
   0.0000000000000000E+00
   0.0000000000000000E+00
   0.0000000000000000E+00
   0.0000000000000000E+00
   0.0000000000000000E+00
   0.0000000000000000E+00
   0.4950175856334033E+00
   0.5338222231558296E+00
   0.5183269061562654E+00
   0.4930651167598243E+00
   0.4847580698336272E+00
   0.4867665992685694E+00
   0.4890762831519402E+00
   0.4957848271647537E+00
   0.4898301305891111E+00
   0.4717387491878390E+00
   0.4454813165572264E+00
   0.4833906983000648E+00
   0.5098396817593790E+00
   0.4390713687878599E+00
   0.4949403293700864E+00
   0.5225330066299109E+00
   0.4962453948219392E+00
   0.5226154520051391E+00
   0.5038881024466979E+00
   0.5646883716493964E+00
   0.5247508807952691E+00
   0.4991465296084527E+00
   0.5730562238840393E+00
   0.5696051553997650E+00
   0.3737941423858485E+00
   0.3998658296382187E+00
   0.5599326772610422E+00
   0.5564587660716709E+00
   0.4942629151750454E+00
   0.4948660674852915E+00
   0.4925736297959138E+00
   0.4914269533854189E+00
   0.5162358321290662E+00
   0.5361800119870757E+00
   0.4947406768470235E+00
   0.4524113067559111E+00
   0.5128778364257998E+00
   0.5117941558068689E+00
   0.4783506471167873E+00
   0.4931689658448628E+00
   0.4603170088533007E+00
   0.5244892856945821E+00
   0.5297434648290243E+00
   0.5129579775316141E+00
   0.5328360363633966E+00
   0.5308943299010299E+00
   0.5309856979674744E+00
   0.5063656804999471E+00
   0.5282462924287911E+00
   0.5410313609667676E+00
   0.5361259700618999E+00
   0.5374106027153788E+00
   0.4965364377100188E+00
   0.4975340414007742E+00
   0.4963842084795123E+00
   0.4955219727604667E+00
   0.4904580514625624E+00
   0.4903043174461226E+00
   0.4862181870578857E+00
   0.4854052207303887E+00
   0.4932163620761473E+00
   0.4909832750542807E+00
   0.4832194211483221E+00
   0.4872623777449759E+00
   0.4880127072183738E+00
   0.4872446463175218E+00
   0.4882695519954943E+00
   0.4952596955663578E+00
   0.4900966132037449E+00
   0.4903998796914816E+00
   0.4944232354653331E+00
   0.4868002933199595E+00
   0.4892385565871139E+00
   0.4881392702674374E+00
   0.4878457457712720E+00
   0.4446864966588888E+00
   0.4700026837657965E+00
   0.4891998142940251E+00
   0.4885247039681434E+00
   0.4506529600348266E+00
   0.4687378120751696E+00
   0.4877009422240473E+00
   0.4868352726557303E+00
   0.4908993944993924E+00
   0.4793550538252909E+00
   0.4658069906051390E+00
   0.3792719066346587E+00
   0.4901596432171244E+00
   0.4486684200067377E+00
   0.4436134254706708E+00
   0.4845146405430574E+00
   0.4621821441312769E+00
   0.4665748333802583E+00
   0.4748138653559439E+00
   0.4894496557414760E+00
   0.5085558355125841E+00
   0.4315066215314194E+00
   0.4927348548375594E+00
   0.5318289530581871E+00
   0.4913398362539862E+00
   0.5207019774854384E+00
   0.5060964247474843E+00
   0.5688797946427809E+00
   0.5273993271705364E+00
   0.5015044747072229E+00
   0.5821788703262898E+00
   0.5689615781999083E+00
   0.3406393715545113E+00
   0.3789866158887744E+00
   0.5751958879548427E+00
   0.5666486052901706E+00
   0.5704108961938924E+00
   0.5291056399937315E+00
   0.5451902732439848E+00
   0.5718804677424345E+00
   0.5389078951353560E+00
   0.5475507282851173E+00
   0.5821713893571487E+00
   0.4925601130280112E+00
   0.5042156930195845E+00
   0.4961734807362869E+00
   0.5565207955953196E+00
   0.4758845668977552E+00
   0.4950267687267310E+00
   0.5498525376887721E+00
   0.5891201957110569E+00
   0.5841957763014215E+00
   0.5469097614365440E+00
   0.5805417745646143E+00
   0.5106251027557883E+00
   0.5030199878193913E+00
   0.5033624509927324E+00
   0.5676446441221408E+00
   0.5563943317997740E+00
   0.4947255282766971E+00
   0.5505244342429665E+00
   0.5510857976148185E+00
   0.5657351059249268E+00
   0.4920069203874791E+00
   0.4927298333393118E+00
   0.3865139126568951E+00
   0.3687753242198142E+00
   0.5574921085844695E+00
   0.5763755656413270E+00
   0.4194304170663881E+00
   0.5824843057764965E+00
   0.4265210008708156E+00
   0.5392800048462277E+00
   0.5012033392146992E+00
   0.5119513407962061E+00
   0.5049118734436842E+00
   0.5751974944551864E+00
   0.5876371481388456E+00
   0.5379903641898883E+00
   0.5677472809431177E+00
   0.5351249938882221E+00
   0.5338057154062125E+00
   0.5580314076223385E+00
   0.5512708140443613E+00
   0.4261852360414881E+00
   0.5273355992213311E+00
   0.5795711614929493E+00
   0.3318684694951351E+00
   0.4760280789116777E+00
   0.5446193747700393E+00
   0.4798325389184760E+00
   0.3005289178810998E+00
   0.5031050730180275E+00
   0.5017115429827718E+00
   0.5129033601619439E+00
   0.5414840128250555E+00
   0.3437602638992189E+00
   0.3397706462730547E+00
   0.3189921924240816E+00
   0.5065935980762508E+00
   0.5123484332177406E+00
   0.5330313151447316E+00
   0.5879310230733923E+00
   0.4644180286536959E+00
   0.3531267626011000E+00
SCALARS v double 1
LOOKUP_TABLE default
   0.0000000000000000E+00
   0.0000000000000000E+00
   0.0000000000000000E+00
   0.0000000000000000E+00
   0.0000000000000000E+00
   0.0000000000000000E+00
   0.0000000000000000E+00
   0.0000000000000000E+00
   0.0000000000000000E+00
   0.0000000000000000E+00
   0.0000000000000000E+00
   0.0000000000000000E+00
   0.0000000000000000E+00
   0.0000000000000000E+00
   0.0000000000000000E+00
   0.0000000000000000E+00
   0.0000000000000000E+00
   0.0000000000000000E+00
   0.0000000000000000E+00
   0.0000000000000000E+00
   0.0000000000000000E+00
   0.0000000000000000E+00
   0.0000000000000000E+00
   0.0000000000000000E+00
   0.0000000000000000E+00
   0.0000000000000000E+00
   0.0000000000000000E+00
   0.0000000000000000E+00
   0.0000000000000000E+00
   0.0000000000000000E+00
   0.0000000000000000E+00
   0.0000000000000000E+00
   0.0000000000000000E+00
   0.0000000000000000E+00
   0.0000000000000000E+00
   0.0000000000000000E+00
   0.0000000000000000E+00
   0.0000000000000000E+00
   0.0000000000000000E+00
   0.0000000000000000E+00
   0.0000000000000000E+00
   0.0000000000000000E+00
   0.0000000000000000E+00
   0.0000000000000000E+00
   0.0000000000000000E+00
   0.0000000000000000E+00
   0.0000000000000000E+00
   0.0000000000000000E+00
   0.0000000000000000E+00
   0.0000000000000000E+00
   0.0000000000000000E+00
   0.0000000000000000E+00
   0.0000000000000000E+00
   0.0000000000000000E+00
   0.0000000000000000E+00
   0.0000000000000000E+00
   0.0000000000000000E+00
   0.0000000000000000E+00
   0.0000000000000000E+00
   0.0000000000000000E+00
   0.0000000000000000E+00
   0.7970149295715849E-03
  -0.1329179066623655E-02
  -0.1332467230607825E-02
   0.0000000000000000E+00
   0.0000000000000000E+00
   0.0000000000000000E+00
   0.0000000000000000E+00
  -0.1922548481440146E-01
   0.4770999983698273E-03
   0.2183385606945666E-02
   0.1427344481896296E-01
  -0.6487915258802093E-02
  -0.7821227273478346E-02
  -0.1327703871801969E-01
   0.4914527655632875E-02
   0.6907420095281046E-03
   0.3434453062902436E-02
   0.1920871837130887E-02
   0.3147993695584229E-02
   0.1704807649265722E-02
  -0.7316147615378903E-02
  -0.7696634671222522E-04
   0.4468895617812271E-02
  -0.4385813508080075E-03
  -0.6384232535309039E-04
  -0.1963425679364838E-03
   0.8071301236338833E-03
   0.0000000000000000E+00
   0.0000000000000000E+00
   0.0000000000000000E+00
   0.0000000000000000E+00
   0.4256776444590432E-03
   0.1616320829211757E-02
  -0.1297542124063641E-02
  -0.1022692936149706E-02
  -0.2134173020116554E-02
  -0.1063925270745448E-02
  -0.8199084896339552E-03
  -0.7616474881704067E-03
   0.5202769246385088E-04
  -0.6243770739959913E-03
   0.7916695559396010E-03
  -0.1745239761331406E-02
   0.2747409950150701E-03
  -0.8937086014979433E-04
  -0.9423947477484125E-03
  -0.1100132938269093E-02
   0.0000000000000000E+00
   0.0000000000000000E+00
   0.0000000000000000E+00
  -0.1061766947909012E-02
  -0.7641071697105992E-02
   0.1860872660667214E-01
  -0.2835128355258883E-04
  -0.1383137837153657E-02
  -0.2035136181232211E-02
  -0.5666389553210386E-02
  -0.1585212807225516E-02
  -0.5946946420502152E-02
  -0.4160577527364270E-02
   0.1565609594232541E-02
   0.3329546857537875E-01
   0.3055492382871065E-04
  -0.2766863712316570E-02
   0.3566530873077646E-02
   0.3596087100794512E-03
   0.0000000000000000E+00
   0.0000000000000000E+00
   0.0000000000000000E+00
   0.0000000000000000E+00
   0.0000000000000000E+00
   0.0000000000000000E+00
   0.0000000000000000E+00
   0.0000000000000000E+00
   0.0000000000000000E+00
   0.0000000000000000E+00
   0.0000000000000000E+00
   0.0000000000000000E+00
   0.0000000000000000E+00
   0.0000000000000000E+00
   0.0000000000000000E+00
   0.0000000000000000E+00
   0.0000000000000000E+00
   0.5047087768509126E-02
   0.3230832132108155E-02
   0.8149190473936726E-02
   0.6168439528817963E-02
   0.1122937485442788E-01
   0.1429288609871594E-01
  -0.2038369369201720E-03
   0.5118251484982184E-02
   0.2914965101734383E-02
   0.3373633107482505E-02
   0.3728378672226100E-02
  -0.1465717218005210E-01
  -0.6159634605227991E-03
   0.6651661454211966E-02
   0.1542075797899728E-02
   0.1969670660379926E-02
   0.4266314506310910E-02
  -0.2790875494234914E-02
   0.1226913930448181E-02
   0.2819198352436955E-02
   0.1497470861162863E-02
   0.2575401720889651E-02
   0.2030687614963014E-02
   0.2118062182170355E-02
   0.8700481161054680E-02
  -0.3733386907653285E-02
   0.6241257302188657E-02
   0.2516859038242392E-04
  -0.3854007421699173E-03
  -0.1674683016883589E-01
  -0.4882004087462353E-02
  -0.4719970448204112E-02
   0.3445243422198001E-02
  -0.6135737736271818E-02
   0.9937809274791176E-04
  -0.3291377490020542E-01
  -0.3046153519226759E-02
   0.4722810547064187E-02
   0.9228721410741501E-03
   0.2112190971021207E-02
   0.4518837674992515E-02
   0.2720490979730745E-02
   0.3212629784163621E-02
   0.5200819179468256E-02
   0.1941852053764198E-02
   0.7316107164713674E-03
  -0.2552476377726598E-04
  -0.5374604314638505E-02
  -0.6959440195451654E-02
  -0.9443739074407802E-03
   0.1105341139045420E-02
  -0.2080574834503737E-02
  -0.3199984713185851E-02
  -0.2527658576281774E-02
  -0.4114988702670339E-02
  -0.7593845704115639E-02
  -0.1985685976037052E-02
   0.6240456268617291E-03
  -0.2238734063862120E-03
   0.1216991430921419E-02
  -0.3483901797537419E-02
   0.5229322879852494E-02
  -0.8487506056661143E-02
   0.2315281681453309E-04
  -0.3395278742665357E-03
   0.2542686636520373E-02
   0.1663494063165360E-02
   0.2021474069602232E-02
  -0.5620741627213513E-02
SCALARS w double 1
LOOKUP_TABLE default
   0.0000000000000000E+00
   0.0000000000000000E+00
   0.0000000000000000E+00
   0.0000000000000000E+00
   0.0000000000000000E+00
   0.0000000000000000E+00
   0.0000000000000000E+00
   0.0000000000000000E+00
   0.0000000000000000E+00
   0.0000000000000000E+00
   0.0000000000000000E+00
   0.0000000000000000E+00
   0.0000000000000000E+00
   0.0000000000000000E+00
   0.0000000000000000E+00
   0.0000000000000000E+00
   0.0000000000000000E+00
   0.0000000000000000E+00
   0.0000000000000000E+00
   0.0000000000000000E+00
   0.0000000000000000E+00
   0.0000000000000000E+00
   0.0000000000000000E+00
   0.0000000000000000E+00
   0.0000000000000000E+00
   0.0000000000000000E+00
   0.0000000000000000E+00
   0.0000000000000000E+00
   0.0000000000000000E+00
   0.0000000000000000E+00
   0.0000000000000000E+00
   0.0000000000000000E+00
   0.0000000000000000E+00
  -0.1007612634229214E+00
  -0.4249291930259202E-01
   0.7372151081522898E-03
   0.5725838385342633E-02
   0.5698908252547204E-03
   0.1609849943465554E-02
   0.3375126235150805E-02
   0.2371790530209467E-02
   0.4590633066925882E-03
   0.3518237444254872E-02
   0.4521816861906346E-01
   0.6522935596793319E-01
   0.8689907425597440E-03
  -0.2261159876611018E-01
   0.4316587832942379E-02
   0.1358736784743354E-01
   0.1039455050372676E-01
   0.4900550923644294E-01
   0.2437489366901434E-02
  -0.6509905438586659E-02
  -0.7011704210258529E-03
   0.3411828969119998E-03
   0.3904116861504441E-02
  -0.3893251616971279E-01
   0.1798167138874459E-01
   0.1119638337642572E-01
   0.3403773386311706E-01
   0.8438832154637858E-02
   0.4937429546189634E-02
   0.4970474281119440E-02
   0.4871612069529557E-02
   0.6027238607799572E-02
   0.2599307723033163E-02
  -0.4144394623411518E-01
  -0.9954184825649681E-01
  -0.1121678859800435E+00
   0.5070979932440628E-02
   0.4230811969441616E-02
  -0.1004723742671375E+00
  -0.9895198005064559E-01
  -0.9875428023209964E-01
  -0.9462491590433561E-01
  -0.6807083100007941E-01
   0.5155006840258024E-02
  -0.1935312120430865E-01
  -0.1575781435547366E-01
  -0.6002789793651766E-02
   0.6819135371842541E-02
  -0.8010044193263983E-01
  -0.2781087044298787E-01
  -0.8096406421826113E-01
  -0.5873251064905267E-01
   0.3083648208553064E-02
   0.2685165200544576E-02
   0.2640460840006368E-02
   0.3450217910697204E-02
   0.4007140620450036E-02
   0.1201238490546396E-02
  -0.1438525687294815E-03
   0.2039923764412199E-02
   0.4895748940068704E-02
   0.3857440140091374E-02
   0.1114229698271102E-02
   0.1182731882101723E-02
   0.1465413296304587E-02
  -0.1649192034547136E-04
   0.8999743329583233E-04
   0.4386725421400214E-02
   0.2715787899628059E-02
   0.2322812617179240E-02
   0.5010660495303431E-02
   0.1071683051292750E-02
   0.2712289155876521E-02
   0.2014009989415675E-02
   0.2879374540033416E-04
   0.8374660657041888E-01
   0.2793882375824112E-02
  -0.8346582137776905E-03
  -0.1492840041597392E-03
   0.1409548571388370E+00
   0.1239334056662885E+00
  -0.1219080188017525E-02
  -0.4381937770771264E-02
  -0.3042926601306607E-03
  -0.6512244862394702E-02
  -0.1949561350929757E-02
   0.1557638446473309E+00
   0.7490009498165133E-01
   0.2550184713742100E-01
   0.1656451264736532E+00