# vtk DataFile Version 2.0
FUN3D:global_image_vtk
ASCII
DATASET UNSTRUCTURED_GRID
POINTS 213 double
   -0.5474685441690063E-02    0.2504941971167291E+01    0.8038138598631638E-04
    0.1245419105183471E+01    0.2504941971167291E+01    0.1039425058011466E-03
    0.2497696093128781E+01    0.2504941971167291E+01    0.1101298164666318E-03
    0.3750590968915823E+01    0.2504941971167291E+01    0.1356499004945289E-03
    0.5003221331742151E+01    0.2504941971167291E+01    0.9668873038864802E-04
    0.5004676687979097E+01    0.1281291202167040E+01    0.1638053019383238E-03
    0.5004772673778115E+01    0.2775079906482875E-01    0.1903478008444817E-03
    0.5003581183341212E+01   -0.1225853508883529E+01    0.1607765204485461E-03
    0.5001952533742191E+01   -0.2496589036641631E+01    0.1082258890300881E-03
    0.3750348111606544E+01   -0.2496589036641631E+01    0.1458753696816364E-03
    0.2498611462994928E+01   -0.2496589036641631E+01    0.1008933264248785E-03
    0.1247175269333275E+01   -0.2496589036641631E+01    0.1108587619167430E-03
   -0.3383959865718813E-02   -0.2496589036641631E+01    0.8107259626499711E-04
   -0.4257768979766491E-02   -0.1225734811642590E+01    0.3415458742317357E-04
   -0.5251592448511482E-02    0.2619486024420484E-01    0.1038724387188997E-03
   -0.5676060312425949E-02    0.1278221569065708E+01    0.8224601702155958E-04
    0.9003209617952568E+00    0.1608979112280158E+01    0.8704140727716613E-04
    0.3983172210692289E+01   -0.1561211904840279E+01    0.1757116720369488E-03
    0.4035602039224468E+01    0.1486760030415519E+01    0.1713312862101626E-03
    0.1036613723302903E+01   -0.1455626429916847E+01    0.1047189301531800E-03
    0.1094353480630801E+01   -0.2964622010671859E+00    0.1260590236919490E-03
    0.7298400267479992E+00    0.6874684746719115E+00    0.1044598640546623E-03
    0.1617018659308945E+01    0.8553208024939365E+00    0.1529810904969943E-03
    0.2143199662875790E+01   -0.1627128509216730E+01    0.1606170425224043E-03
    0.4088840445400889E+01   -0.4351047825936265E+00    0.2719933294106347E-03
    0.2977916511248925E+01   -0.8334991483094494E+00    0.2245596931860764E-03
    0.3044093241383418E+01   -0.1814361225108581E+01    0.1617000112418842E-03
    0.3427866614805211E+01    0.3813904839972497E+00    0.2936955483435208E-03
    0.4313225355351750E+01    0.5489133376342497E+00    0.2313009573594043E-03
    0.1823032737597358E+01    0.1771265193544255E+01    0.1836202887152137E-03
    0.2806311152168375E+01    0.1358629373600682E+01    0.1943492163988824E-03
    0.1891860875936711E+01   -0.8481310365607544E+00    0.1670645501816173E-03
    0.2268769200166910E+01    0.7723691819196582E-01    0.2072307783084761E-03
    0.5000000000000000E+01    0.2504941971167291E+01    0.1250000000000000E+01
    0.5000000000000000E+01    0.2504941971167291E+01    0.2500000000000000E+01
    0.5000000000000000E+01    0.2504941971167291E+01    0.3750000000000000E+01
    0.5000000000000000E+01    0.2504941971167291E+01    0.5000000000000000E+01
    0.3750000000000000E+01    0.2504941971167291E+01    0.5000000000000000E+01
    0.2500000000000000E+01    0.2504941971167291E+01    0.5000000000000000E+01
    0.1250000000000000E+01    0.2504941971167291E+01    0.5000000000000000E+01
    0.0000000000000000E+00    0.2504941971167291E+01    0.5000000000000000E+01
    0.0000000000000000E+00    0.2504941971167291E+01    0.3750000000000000E+01
    0.0000000000000000E+00    0.2504941971167291E+01    0.2500000000000000E+01
    0.0000000000000000E+00    0.2504941971167291E+01    0.1250000000000000E+01
    0.9588956434871085E+00    0.2504941971167291E+01    0.9696525519543872E+00
    0.3981953078951401E+01    0.2504941971167291E+01    0.4070563854751271E+01
    0.4036122187252336E+01    0.2504941971167291E+01    0.1017567520094671E+01
    0.9637572773153888E+00    0.2504941971167291E+01    0.3973598203142229E+01
    0.1546540136992396E+01    0.2504941971167291E+01    0.2931570169315600E+01
    0.6973799521244313E+00    0.2504941971167291E+01    0.3070319952453756E+01
    0.8903742148356886E+00    0.2504941971167291E+01    0.2056562238187738E+01
    0.2183041995146012E+01    0.2504941971167291E+01    0.3960694449828019E+01
    0.3855844872709870E+01    0.2504941971167291E+01    0.2933250588118630E+01
    0.3152611367438029E+01    0.2504941971167291E+01    0.3637668388416195E+01
    0.3103307385241870E+01    0.2504941971167291E+01    0.4332607813099731E+01
    0.3266711045517940E+01    0.2504941971167291E+01    0.1889656617463738E+01
    0.4232537554484796E+01    0.2504941971167291E+01    0.1918626969802351E+01
    0.1905522374036519E+01    0.2504941971167291E+01    0.7226290832134606E+00
    0.2879767723645806E+01    0.2504941971167291E+01    0.9080945892181984E+00
    0.2012711365064515E+01    0.2504941971167291E+01    0.1767082390977754E+01
    0.2669681472994637E+01    0.2504941971167291E+01    0.2853394335010791E+01
    0.5000000000000000E+01    0.1250000000000000E+01    0.5000000000000000E+01
    0.5000000000000000E+01    0.0000000000000000E+00    0.5000000000000000E+01
    0.5000000000000000E+01   -0.1250000000000000E+01    0.5000000000000000E+01
    0.5000000000000000E+01   -0.2496589036641631E+01    0.5000000000000000E+01
    0.5000000000000000E+01   -0.2496589036641631E+01    0.3750000000000000E+01
    0.5000000000000000E+01   -0.2496589036641631E+01    0.2500000000000000E+01
    0.5000000000000000E+01   -0.2496589036641631E+01    0.1250000000000000E+01
    0.5000000000000000E+01    0.1578994732800803E+01    0.9058375365086910E+00
    0.5000000000000000E+01   -0.1583989954232354E+01    0.3982050490726493E+01
    0.5000000000000000E+01    0.1453322699199022E+01    0.4033849428301197E+01
    0.5000000000000000E+01   -0.1479596339503735E+01    0.1040505887381675E+01
    0.5000000000000000E+01   -0.3227322616384110E+00    0.1099454400140349E+01
    0.5000000000000000E+01    0.6593508822075582E+00    0.7354504170366591E+00
    0.5000000000000000E+01    0.8256214013940779E+00    0.1622302608453282E+01
    0.5000000000000000E+01   -0.1650070333782557E+01    0.2145871574390382E+01
    0.5000000000000000E+01   -0.4612828702537229E+00    0.4086422318222992E+01
    0.5000000000000000E+01   -0.8579242121530853E+00    0.2979540174134984E+01
    0.5000000000000000E+01   -0.1836846154397680E+01    0.3045064261640043E+01
    0.5000000000000000E+01    0.3508002863614053E+00    0.3428197553792836E+01
    0.5000000000000000E+01    0.5185680230613409E+00    0.4309693860063405E+01
    0.5000000000000000E+01    0.1738996113203182E+01    0.1827272193562204E+01
    0.5000000000000000E+01    0.1325493893339706E+01    0.2808563282768077E+01
    0.5000000000000000E+01   -0.8731419609589618E+00    0.1895995683864404E+01
    0.5000000000000000E+01    0.4906150219227333E-01    0.2273179336307740E+01
    0.0000000000000000E+00    0.1250000000000000E+01    0.5000000000000000E+01
    0.0000000000000000E+00    0.0000000000000000E+00    0.5000000000000000E+01
    0.0000000000000000E+00   -0.1250000000000000E+01    0.5000000000000000E+01
    0.0000000000000000E+00   -0.2496589036641631E+01    0.5000000000000000E+01
    0.1250000000000000E+01   -0.2496589036641631E+01    0.5000000000000000E+01
    0.2500000000000000E+01   -0.2496589036641631E+01    0.5000000000000000E+01
    0.3750000000000000E+01   -0.2496589036641631E+01    0.5000000000000000E+01
    0.4042003247744892E+01    0.1558308132739014E+01    0.5000000000000000E+01
    0.9304122287900499E+00   -0.1548001304379777E+01    0.5000000000000000E+01
    0.1037243024609388E+01    0.1462892710085612E+01    0.5000000000000000E+01
    0.3946240828834967E+01   -0.1445243809615570E+01    0.5000000000000000E+01
    0.4092527262848217E+01   -0.3455338993778935E+00    0.5000000000000000E+01
    0.4293103109154542E+01    0.6277660831404320E+00    0.5000000000000000E+01
    0.3241512314643519E+01    0.7429886854239611E+00    0.5000000000000000E+01
    0.2844289952419609E+01   -0.1588117879734118E+01    0.5000000000000000E+01
    0.7159905765450471E+00   -0.6002320124191652E+00    0.5000000000000000E+01
    0.1754341919796891E+01   -0.7398147869923652E+00    0.5000000000000000E+01
    0.1870296826774691E+01   -0.1788622905643739E+01    0.5000000000000000E+01
    0.9220614901912976E+00    0.3083720183248586E+00    0.5000000000000000E+01
    0.3101523624086016E+01    0.1777901774806180E+01    0.5000000000000000E+01
    0.2192512063922564E+01    0.1576861561598471E+01    0.5000000000000000E+01
    0.2024793420196460E+01    0.4773861992750707E+00    0.5000000000000000E+01
    0.2990627757741975E+01   -0.4878110785814084E+00    0.5000000000000000E+01
    0.0000000000000000E+00   -0.2496589036641631E+01    0.1250000000000000E+01
    0.0000000000000000E+00   -0.2496589036641631E+01    0.2500000000000000E+01
    0.0000000000000000E+00   -0.2496589036641631E+01    0.3750000000000000E+01
    0.0000000000000000E+00    0.1558308132739014E+01    0.4042003247744892E+01
    0.0000000000000000E+00   -0.1548001304379777E+01    0.9304122287900499E+00
    0.0000000000000000E+00    0.1462892710085612E+01    0.1037243024609388E+01
    0.0000000000000000E+00   -0.1445243809615570E+01    0.3946240828834967E+01
    0.0000000000000000E+00   -0.3455338993778935E+00    0.4092527262848217E+01
    0.0000000000000000E+00    0.6277660831404320E+00    0.4293103109154542E+01
    0.0000000000000000E+00    0.7429886854239611E+00    0.3241512314643519E+01
    0.0000000000000000E+00   -0.1588117879734118E+01    0.2844289952419609E+01
    0.0000000000000000E+00   -0.6002320124191652E+00    0.7159905765450471E+00
    0.0000000000000000E+00   -0.7398147869923652E+00    0.1754341919796891E+01
    0.0000000000000000E+00   -0.1788622905643739E+01    0.1870296826774691E+01
    0.0000000000000000E+00    0.3083720183248586E+00    0.9220614901912976E+00
    0.0000000000000000E+00    0.1777901774806180E+01    0.3101523624086016E+01
    0.0000000000000000E+00    0.1576861561598471E+01    0.2192512063922564E+01
[...]
POINT_DATA 213
SCALARS rho double 1
LOOKUP_TABLE default
   0.1346125694796166E+01
   0.9572084527647159E+00
   0.9461020639078310E+00
   0.9421833077515451E+00
   0.8436100785905984E+00
   0.7742024922725290E+00
   0.7627632914204227E+00
   0.7661496233415083E+00
   0.8310481703367273E+00
   0.9353608197671168E+00
   0.9344036383958126E+00
   0.9615898876470118E+00
   0.1448480208888133E+01
   0.1495421840745496E+01
   0.1646754928386011E+01
   0.1426608058877440E+01
   0.1009808068720545E+01
   0.9511456929613190E+00
   0.9438291099370734E+00
   0.9574489508573057E+00
   0.9414832416640710E+00
   0.1037118221425502E+01
   0.9258147537148589E+00
   0.9322497228174008E+00
   0.9538141799783557E+00
   0.9520438484218462E+00
   0.9350971720205303E+00
   0.9565537237118984E+00
   0.9378700247679986E+00
   0.9303318784868153E+00
   0.9446515867126767E+00
   0.8862352513653092E+00
   0.9424046836435387E+00
   0.9637217255547943E+00
   0.1008362577771464E+01
   0.1006713364979943E+01
   0.1001959240549324E+01
   0.1003218316276318E+01
   0.1004120538082305E+01
   0.1005207992650283E+01
   0.1004249813847905E+01
   0.1008267843881786E+01
   0.1023867443067886E+01
   0.1063751875324939E+01
   0.1019386187162550E+01
   0.1001778934113195E+01
   0.9645975233962127E+00
   0.1005263110528871E+01
   0.1000745578316714E+01
   0.1008695104813589E+01
   0.1008032475142374E+01
   0.1002354650880928E+01
   0.9980224682790697E+00
   0.1000594440604983E+01
   0.1001621537589709E+01
   0.9828107810948172E+00
   0.9844011041687802E+00
   0.9834292502931192E+00
   0.9790423922415000E+00
   0.9904798796909378E+00
   0.9935224893886282E+00
   0.1002009103475692E+01
   0.1002132311998061E+01
   0.1002273033582344E+01
   0.1001793219489186E+01
   0.1009814972833390E+01
   0.1006499311746365E+01
   0.9560849990714433E+00
   0.9252996566846684E+00
   0.1007053712651857E+01
   0.1004491538498333E+01
   0.9144889717496777E+00
   0.9091476761027107E+00
   0.8752502590928546E+00
   0.9768039036524944E+00
   0.1000530366597904E+01
   0.1005826553460159E+01
   0.1012895293779664E+01
   0.1011677102427482E+01
   0.1010415988351583E+01
   0.1005456560095682E+01
   0.9909260255109615E+00
   0.1005152543423375E+01
   0.9860803849583136E+00
   0.1005592650627473E+01
   0.1004239968494958E+01
   0.1002886283632250E+01
   0.1003350788888628E+01
   0.1003998912068579E+01
   0.1005116700254017E+01
   0.1003224183257990E+01
   0.1002669183700806E+01
   0.1002590255848429E+01
   0.1004070004659134E+01
   0.1004304937933147E+01
   0.1001643036025514E+01
   0.1002279357321934E+01
   0.1002547248782046E+01
   0.1003472641567354E+01
   0.1003380931080911E+01
   0.1003233776571535E+01
   0.1004430854293408E+01
   0.1004325283197202E+01
   0.1003653379478008E+01
   0.1003719191863770E+01
   0.1004319534138416E+01
   0.1004463155501093E+01
   0.1003629980599653E+01
   0.1064490581493571E+01
   0.1028445780971466E+01
   0.1009607603147358E+01
   0.1006626774102680E+01
   0.1163979474301360E+01
   0.1086026004530845E+01
   0.1007908398971680E+01
   0.1007252664643617E+01
   0.1006796746946194E+01
   0.1013053608644300E+01
   0.1019342644427339E+01
   0.1235143811205291E+01
   0.1032536232933641E+01
   0.1046567728934203E+01
   0.1201703012923373E+01
   0.1014671125332396E+01
   0.1032295324199357E+01
   0.1028222151031623E+01
   0.1014641483573335E+01
   0.1029002257770451E+01
   0.1002002818476376E+01
   0.9607830580820343E+00
   0.1006859706957375E+01
   0.1001326954010046E+01
   0.1010800868392035E+01
   0.1012237273234308E+01
   0.1000940436429749E+01
   0.9979317235317271E+00
   0.9980683699440458E+00
   0.1001191956733438E+01
   0.9841985797708348E+00
   0.9815070579349666E+00
   0.9648654914695903E+00
   0.9680713427303040E+00
   0.9914149190810136E+00
   0.9910916479216345E+00
   0.9925598184526015E+00
   0.1001728510387253E+01
   0.9993250772469898E+00
   0.9941444029265192E+00
   0.1006981383545160E+01
   0.1022611654050737E+01
   0.1001121691833201E+01
   0.1008784265586801E+01
   0.1004775043985264E+01
   0.1009029447306729E+01
   0.9967197949768095E+00
   0.1005567613152641E+01
   0.1003325685873309E+01
   0.9949865129967045E+00
   0.9833521892790746E+00
   0.9944521638504357E+00
   0.9973482230863625E+00
   0.9932519263849633E+00
   0.1001312608249057E+01
   0.1003001448725940E+01
   0.1002189173482844E+01
   0.9947119516184405E+00
   0.9937839725485380E+00
   0.1004862069432108E+01
   0.1020102936709556E+01
   0.1005341234391232E+01
   0.9817063601277444E+00
   0.1004975501327933E+01
   0.1012376568815320E+01
   0.9873747459242643E+00
   0.9551282272141179E+00
   0.9865280377056442E+00
   0.9865952832622918E+00
   0.9920084248960107E+00
   0.9934470865439960E+00
   0.9960657346530501E+00
   0.1037405690909355E+01
   0.1033165796316029E+01
   0.1001443358073557E+01
   0.1001929574473312E+01
   0.9912286695852791E+00
   0.9911121698768763E+00
   0.9649300819288682E+00
   0.9933729920342977E+00
   0.1006089075111740E+01
   0.1001962080811795E+01
   0.9908628495068642E+00
   0.9742274508734283E+00
   0.9420781785086674E+00
   0.9821604770833580E+00
   0.9794777371334424E+00
   0.9704352201666977E+00
   0.9720842372276950E+00
   0.9557868488075459E+00
   0.9497981758175184E+00
   0.9529847958460911E+00
   0.1002637256815283E+01
   0.1002476301970761E+01
   0.1000513242287924E+01
   0.1001675737919767E+01
   0.9610108169557122E+00
   0.9492469479940552E+00
   0.9586432519906015E+00
   0.1001121462568691E+01
   0.1000500591166407E+01
   0.1001161102485536E+01
   0.9807429276960825E+00
   0.9805608284045635E+00
   0.9629214371680949E+00
SCALARS u double 1
LOOKUP_TABLE default
   0.0000000000000000E+00
   0.0000000000000000E+00
   0.0000000000000000E+00
   0.0000000000000000E+00
   0.0000000000000000E+00
   0.0000000000000000E+00
   0.0000000000000000E+00
   0.0000000000000000E+00
   0.0000000000000000E+00
   0.0000000000000000E+00
   0.0000000000000000E+00
   0.0000000000000000E+00
   0.0000000000000000E+00
   0.0000000000000000E+00
   0.0000000000000000E+00
   0.0000000000000000E+00
   0.0000000000000000E+00
   0.0000000000000000E+00
   0.0000000000000000E+00
   0.0000000000000000E+00
   0.0000000000000000E+00
   0.0000000000000000E+00
   0.0000000000000000E+00
   0.0000000000000000E+00
   0.0000000000000000E+00
   0.0000000000000000E+00
   0.0000000000000000E+00
   0.0000000000000000E+00
   0.0000000000000000E+00
   0.0000000000000000E+00
   0.0000000000000000E+00
   0.0000000000000000E+00
   0.0000000000000000E+00
   0.4946084390401927E+00
   0.5336296229396318E+00
   0.5182737288741467E+00
   0.4930696975717617E+00
   0.4847718119407546E+00
   0.4868108136215565E+00
   0.4891429098222757E+00
   0.4958014376856488E+00
   0.4899016128305096E+00
   0.4718097598415638E+00
   0.4448926899587122E+00
   0.4844425910270793E+00
   0.5097672109152417E+00
   0.4402157107391101E+00
   0.4949584587264896E+00
   0.5222981757400214E+00
   0.4962761335160878E+00
   0.5223877814044878E+00
   0.5038134104987479E+00
   0.5644352140168803E+00
   0.5245862239270023E+00
   0.4990946955700001E+00
   0.5729384848058962E+00
   0.5693720714277726E+00
   0.3752129680555750E+00
   0.4003935337290811E+00
   0.5599622500290192E+00
   0.5562276759088145E+00
   0.4942631174082609E+00
   0.4948654038379108E+00
   0.4925634782160048E+00
   0.4913991786278299E+00
   0.5162611628896594E+00
   0.5363588932424808E+00
   0.4951213607874799E+00
   0.4520531595291146E+00
   0.5129024774602046E+00
   0.5117690526466812E+00
   0.4786251287212235E+00
   0.4931155293858667E+00
   0.4600306954373692E+00
   0.5242629198942729E+00
   0.5299866667529152E+00
   0.5129711999262242E+00
   0.5328938855274254E+00
   0.5309772093587957E+00
   0.5309771260032817E+00
   0.5063651410168181E+00
   0.5279605765590211E+00
   0.5409254473520546E+00
   0.5363677255166565E+00
   0.5374194372046539E+00
   0.4965359093627201E+00
   0.4975361620576713E+00
   0.4963807509447990E+00
   0.4955144774623553E+00
   0.4904151887411470E+00
   0.4902491479027326E+00
   0.4861626503315030E+00
   0.4854037739485382E+00
   0.4931941380558058E+00
   0.4910329234529665E+00
   0.4831698316704344E+00
   0.4872469605538904E+00
   0.4880010969404510E+00
   0.4872294036566420E+00
   0.4882160211825337E+00
   0.4952567366102064E+00
   0.4900705809522777E+00
   0.4903581267311219E+00
   0.4944346859692930E+00
   0.4868163397682271E+00
   0.4892720557095896E+00
   0.4881455378810288E+00
   0.4878245184535986E+00
   0.4449022026405866E+00
   0.4700099664047616E+00
   0.4891756201751429E+00
   0.4885980866227725E+00
   0.4510286412221490E+00
   0.4681799610771305E+00
   0.4876648975240540E+00
   0.4868253758067068E+00
   0.4909267533148864E+00
   0.4793946319363144E+00
   0.4657884653213649E+00
   0.3794302312506628E+00
   0.4903697421167626E+00
   0.4487929174615810E+00
   0.4432385355260770E+00
   0.4845729179217863E+00
   0.4621884481320237E+00
   0.4663602298884558E+00
   0.4747774268406411E+00
   0.4893613112006148E+00
   0.5085681474237945E+00
   0.4304904287089617E+00
   0.4927280753895680E+00
   0.5320316185099402E+00
   0.4913826501723280E+00
   0.5209404404684701E+00
   0.5061319828047625E+00
   0.5690636320469999E+00
   0.5275039918421973E+00
   0.5015047795155723E+00
   0.5821373618613742E+00
   0.5691503700217367E+00
   0.3402452490602696E+00
   0.3785432685556889E+00
   0.5753091283338612E+00
   0.5668547247073810E+00
   0.5703055450940464E+00
   0.5291879661617318E+00
   0.5449833828652827E+00
   0.5719093999232508E+00
   0.5385694587091782E+00
   0.5475896936889235E+00
   0.5821565652939794E+00
   0.4925313046001146E+00
   0.5041557177772595E+00
   0.4961299804140852E+00
   0.5562803684740067E+00
   0.4757814624157559E+00
   0.4950174786318816E+00
   0.5496174672072691E+00
   0.5889519110818057E+00
   0.5839568631087025E+00
   0.5468163498067876E+00
   0.5803877175568930E+00
   0.5106055693788724E+00
   0.5029532236716114E+00
   0.5033085380851179E+00
   0.5676232052870219E+00
   0.5564629528967064E+00
   0.4947135441323400E+00
   0.5506799461326910E+00
   0.5513545696829826E+00
   0.5658254157230909E+00
   0.4919953536842080E+00
   0.4927852057935224E+00
   0.3865438338108345E+00
   0.3687907202102801E+00
   0.5574381187364820E+00
   0.5761778935277737E+00
   0.4194381851565695E+00
   0.5822999347244131E+00
   0.4268238595782662E+00
   0.5397390504913874E+00
   0.5016174621437451E+00
   0.5119228251417622E+00
   0.5048434168007259E+00
   0.5752768158184705E+00
   0.5878367583822599E+00
   0.5382358738623368E+00
   0.5679645541100953E+00
   0.5352016964049838E+00
   0.5338463699699345E+00
   0.5582293100247288E+00
   0.5511563293009519E+00
   0.4256775843519338E+00
   0.5272986084059113E+00
   0.5796794667591860E+00
   0.3318312940208975E+00
   0.4761441131774724E+00
   0.5446494937269470E+00
   0.4800669226981726E+00
   0.3006201115470326E+00
   0.5031625243250761E+00
   0.5017180913079216E+00
   0.5129133729796856E+00
   0.5414117118086904E+00
   0.3435217015008052E+00
   0.3398080158395614E+00
   0.3190194433778123E+00
   0.5066187045011811E+00
   0.5123864689540895E+00
   0.5329068386150756E+00
   0.5881307275880229E+00
   0.4644883168924288E+00
   0.3529622376807662E+00
SCALARS v double 1
LOOKUP_TABLE default
   0.0000000000000000E+00
   0.0000000000000000E+00
   0.0000000000000000E+00
   0.0000000000000000E+00
   0.0000000000000000E+00
   0.0000000000000000E+00
   0.0000000000000000E+00
   0.0000000000000000E+00
   0.0000000000000000E+00
   0.0000000000000000E+00
   0.0000000000000000E+00
   0.0000000000000000E+00
   0.0000000000000000E+00
   0.0000000000000000E+00
   0.0000000000000000E+00
   0.0000000000000000E+00
   0.0000000000000000E+00
   0.0000000000000000E+00
   0.0000000000000000E+00
   0.0000000000000000E+00
   0.0000000000000000E+00
   0.0000000000000000E+00
   0.0000000000000000E+00
   0.0000000000000000E+00
   0.0000000000000000E+00
   0.0000000000000000E+00
   0.0000000000000000E+00
   0.0000000000000000E+00
   0.0000000000000000E+00
   0.0000000000000000E+00
   0.0000000000000000E+00
   0.0000000000000000E+00
   0.0000000000000000E+00
   0.0000000000000000E+00
   0.0000000000000000E+00
   0.0000000000000000E+00
   0.0000000000000000E+00
   0.0000000000000000E+00
   0.0000000000000000E+00
   0.0000000000000000E+00
   0.0000000000000000E+00
   0.0000000000000000E+00
   0.0000000000000000E+00
   0.0000000000000000E+00
   0.0000000000000000E+00
   0.0000000000000000E+00
   0.0000000000000000E+00
   0.0000000000000000E+00
   0.0000000000000000E+00
   0.0000000000000000E+00
   0.0000000000000000E+00
   0.0000000000000000E+00
   0.0000000000000000E+00
   0.0000000000000000E+00
   0.0000000000000000E+00
   0.0000000000000000E+00
   0.0000000000000000E+00
   0.0000000000000000E+00
   0.0000000000000000E+00
   0.0000000000000000E+00
   0.0000000000000000E+00
   0.8513955361176255E-03
  -0.1262646023073898E-02
  -0.1293747196427892E-02
   0.0000000000000000E+00
   0.0000000000000000E+00
   0.0000000000000000E+00
   0.0000000000000000E+00
  -0.1933774494556609E-01
   0.5035656971416055E-03
   0.2213150726908526E-02
   0.1419313534929409E-01
  -0.6753674551784069E-02
  -0.8171004421051987E-02
  -0.1325788718023518E-01
   0.4993929178394706E-02
   0.7358934070585304E-03
   0.3478388764905058E-02
   0.1946723832698348E-02
   0.3168072266651884E-02
   0.1755557793782191E-02
  -0.7295454604917310E-02
  -0.6912294257420446E-04
   0.4552258095464294E-02
  -0.4165984000191034E-03
  -0.6650692158955433E-04
  -0.2024618782404039E-03
   0.8052041902672200E-03
   0.0000000000000000E+00
   0.0000000000000000E+00
   0.0000000000000000E+00
   0.0000000000000000E+00
   0.4747328653852941E-03
   0.1624022890303565E-02
  -0.1273125041852939E-02
  -0.9977717767302187E-03
  -0.2076428544271429E-02
  -0.9960615484767841E-03
  -0.7502640411583945E-03
  -0.7419340926186074E-03
   0.6055381865947473E-04
  -0.5966235993547257E-03
   0.8041021995615886E-03
  -0.1730002248429782E-02
   0.3146405561774571E-03
  -0.5710223162575474E-04
  -0.8890514618019557E-03
  -0.1052087353778058E-02
   0.0000000000000000E+00
   0.0000000000000000E+00
   0.0000000000000000E+00
  -0.1035601496447496E-02
  -0.7789944224346689E-02
   0.1821259126100351E-01
  -0.2902416971028587E-04
  -0.1377098222242002E-02
  -0.2028456947007970E-02
  -0.5613671772719550E-02
  -0.1620474381082516E-02
  -0.6357462322352098E-02
  -0.4327186037960853E-02
   0.1517793743078732E-02
   0.3300594270581655E-01
   0.4394529829127671E-04
  -0.2766565870398479E-02
   0.3629287488198087E-02
   0.3910358756429751E-03
   0.0000000000000000E+00
   0.0000000000000000E+00
   0.0000000000000000E+00
   0.0000000000000000E+00
   0.0000000000000000E+00
   0.0000000000000000E+00
   0.0000000000000000E+00
   0.0000000000000000E+00
   0.0000000000000000E+00
   0.0000000000000000E+00
   0.0000000000000000E+00
   0.0000000000000000E+00
   0.0000000000000000E+00
   0.0000000000000000E+00
   0.0000000000000000E+00
   0.0000000000000000E+00
   0.0000000000000000E+00
   0.5001778196297528E-02
   0.3214065065724244E-02
   0.8126045455211041E-02
   0.6096300950009707E-02
   0.1117411732735705E-01
   0.1403811528123924E-01
  -0.3216221144896562E-03
   0.5161911444150662E-02
   0.2930107585325357E-02
   0.3378096200238730E-02
   0.3728544903386701E-02
  -0.1469573980207350E-01
  -0.6136953896364875E-03
   0.6639776179997158E-02
   0.1457244614340702E-02
   0.1959300739027500E-02
   0.4263980430200463E-02
  -0.2812426158119026E-02
   0.1267609577193253E-02
   0.2851959414345258E-02
   0.1534868031413744E-02
   0.2563344866182603E-02
   0.2013569101298102E-02
   0.2154333995321959E-02
   0.8583998694345870E-02
  -0.3830083253381843E-02
   0.6155698670903522E-02
   0.4725666910432263E-04
  -0.4231582248172106E-03
  -0.1674129340540903E-01
  -0.4996659887241276E-02
  -0.4827349435058912E-02
   0.3399378242604838E-02
  -0.6077437487919819E-02
   0.3194967242608648E-04
  -0.3284948881754061E-01
  -0.3181989491007376E-02
   0.4581319063922039E-02
   0.9682240723878036E-03
   0.2133486665785194E-02
   0.4530687697951422E-02
   0.2692787741503252E-02
   0.3243073203976614E-02
   0.5223605127046106E-02
   0.1957627594942595E-02
   0.7485460677542039E-03
  -0.5693750210179601E-04
  -0.5322690140554031E-02
  -0.6972866624943840E-02
  -0.9635303160089457E-03
   0.1062718465647742E-02
  -0.2106021482048089E-02
  -0.3219291745886720E-02
  -0.2544864648764180E-02
  -0.4131306124126490E-02
  -0.7566170041725391E-02
  -0.2012358476862120E-02
   0.6515130175073328E-03
  -0.1916276468322615E-03
   0.1227816750971086E-02
  -0.3502806472664674E-02
   0.4846684277725530E-02
  -0.8642681610464092E-02
   0.3341930296732897E-04
  -0.3327777675304933E-03
   0.2558606058705142E-02
   0.1615750370951429E-02
   0.2039006090882664E-02
  -0.5641501447136423E-02
SCALARS w double 1
LOOKUP_TABLE default
   0.0000000000000000E+00
   0.0000000000000000E+00
   0.0000000000000000E+00
   0.0000000000000000E+00
   0.0000000000000000E+00
   0.0000000000000000E+00
   0.0000000000000000E+00
   0.0000000000000000E+00
   0.0000000000000000E+00
   0.0000000000000000E+00
   0.0000000000000000E+00
   0.0000000000000000E+00
   0.0000000000000000E+00
   0.0000000000000000E+00
   0.0000000000000000E+00
   0.0000000000000000E+00
   0.0000000000000000E+00
   0.0000000000000000E+00
   0.0000000000000000E+00
   0.0000000000000000E+00
   0.0000000000000000E+00
   0.0000000000000000E+00
   0.0000000000000000E+00
   0.0000000000000000E+00
   0.0000000000000000E+00
   0.0000000000000000E+00
   0.0000000000000000E+00
   0.0000000000000000E+00
   0.0000000000000000E+00
   0.0000000000000000E+00
   0.0000000000000000E+00
   0.0000000000000000E+00
   0.0000000000000000E+00
  -0.1007241858921599E+00
  -0.4245528620579037E-01
   0.7158753615157114E-03
   0.5704943558356095E-02
   0.5684952912200789E-03
   0.1606878242818750E-02
   0.3372604798010369E-02
   0.2364299402581616E-02
   0.4720647222298982E-03
   0.3528387233048786E-02
   0.4533336070130927E-01
   0.6563397479811608E-01
   0.8384124266384250E-03
  -0.2266132317408940E-01
   0.4271064976066521E-02
   0.1341970173599861E-01
   0.1029750710298378E-01
   0.4870834203713951E-01
   0.2381551735221542E-02
  -0.6534999693249104E-02
  -0.7372433721334508E-03
   0.3056375870741885E-03
   0.3846852349330295E-02
  -0.3893635252289628E-01
   0.1820273584096610E-01
   0.1120446069779713E-01
   0.3395774046041404E-01
   0.8380191415436979E-02
   0.4924617876883452E-02
   0.4973761413350903E-02
   0.4900522917433984E-02
   0.6056718409335976E-02
   0.2695309307555957E-02
  -0.4127769734062432E-01
  -0.9927104317848351E-01
  -0.1120360380853563E+00
   0.5144525313299163E-02
   0.4216388428284433E-02
  -0.1002595860482313E+00
  -0.9892594349068373E-01
  -0.9835483711505233E-01
  -0.9443969382455998E-01
  -0.6790972039198301E-01
   0.5196996620952545E-02
  -0.1927315220196281E-01
  -0.1563508313095667E-01
  -0.5964345919511706E-02
   0.6822779802407590E-02
  -0.7999951897205376E-01
  -0.2776431479434453E-01
  -0.8086526756576351E-01
  -0.5863339146028454E-01
   0.3073989812117419E-02
   0.2685175147707837E-02
   0.2644703078773577E-02
   0.3457404374785706E-02
   0.3998529298526321E-02
   0.1199876519488535E-02
  -0.1355432377560599E-03
   0.2028966191348382E-02
   0.4894373680666646E-02
   0.3864560753660236E-02
   0.1126430713201589E-02
   0.1188310627253266E-02
   0.1460245323187607E-02
  -0.2199459240792283E-04
   0.9121998348825986E-04
   0.4387187200718753E-02
   0.2712579859881916E-02
   0.2317255083772442E-02
   0.5007037344022617E-02
   0.1069971393927898E-02
   0.2707114404578130E-02
   0.2010664724075671E-02
   0.3391927296046214E-04
   0.8386260354650137E-01
   0.2832480964333568E-02
  -0.8469296581163193E-03
  -0.1274285298754272E-03
   0.1410903979825487E+00
   0.1236626536393949E+00
  -0.1228867735326603E-02
  -0.4383136247455723E-02
  -0.2804612791957433E-03
  -0.6477826838253151E-02
  -0.1895598713950367E-02
   0.1559394040483233E+00
   0.7528604328438830E-01
   0.2567550695077199E-01
   0.1661313051472782E+00