title="tecplot geometry and solution file"
variables = x y z mach temperature lambda1 lambda2 lambda3 lambda4 lambda5
zone t="boundary 1 bc-1", solutiontime= 0.5000000E+02, strandid=1001, i=32, j=46, f=feblock
 -0.547468544169E-02  0.000000000000E+00 -0.567606031243E-02  0.000000000000E+00  0.000000000000E+00  0.000000000000E+00 -0.525159244851E-02
 -0.425776897977E-02  0.000000000000E+00  0.000000000000E+00  0.000000000000E+00  0.000000000000E+00  0.000000000000E+00  0.000000000000E+00
  0.000000000000E+00  0.000000000000E+00 -0.338395986572E-02  0.000000000000E+00  0.000000000000E+00  0.000000000000E+00  0.000000000000E+00
  0.000000000000E+00  0.000000000000E+00  0.000000000000E+00  0.000000000000E+00  0.000000000000E+00  0.000000000000E+00  0.000000000000E+00
  0.000000000000E+00  0.000000000000E+00  0.000000000000E+00  0.000000000000E+00
  0.250494197117E+01  0.250494197117E+01  0.127822156907E+01  0.146289271009E+01  0.157686156160E+01  0.308372018325E+00  0.261948602442E-01
 -0.122573481164E+01 -0.600232012419E+00  0.250494197117E+01  0.477386199275E+00  0.742988685424E+00 -0.739814786992E+00  0.177790177481E+01
  0.155830813274E+01  0.250494197117E+01 -0.249658903664E+01 -0.154800130438E+01 -0.487811078581E+00  0.250494197117E+01  0.627766083140E+00
 -0.345533899378E+00 -0.178862290564E+01 -0.158811787973E+01  0.125000000000E+01 -0.249658903664E+01 -0.144524380962E+01  0.000000000000E+00
 -0.125000000000E+01 -0.249658903664E+01 -0.249658903664E+01 -0.249658903664E+01
  0.803813859867E-04  0.125000000000E+01  0.822460170215E-04  0.103724302461E+01  0.219251206392E+01  0.922061490191E+00  0.103872438719E-03
  0.341545874230E-04  0.715990576545E+00  0.250000000000E+01  0.202479342020E+01  0.324151231464E+01  0.175434191980E+01  0.310152362409E+01
  0.404200324774E+01  0.375000000000E+01  0.810725962649E-04  0.930412228790E+00  0.299062775774E+01  0.500000000000E+01  0.429310310915E+01
  0.409252726285E+01  0.187029682677E+01  0.284428995242E+01  0.500000000000E+01  0.125000000000E+01  0.394624082883E+01  0.500000000000E+01
  0.500000000000E+01  0.250000000000E+01  0.375000000000E+01  0.500000000000E+01
  0.000000000000E+00  0.440666214091E+00  0.000000000000E+00  0.474617251435E+00  0.460123126357E+00  0.468636774984E+00  0.000000000000E+00
  0.000000000000E+00  0.402549872254E+00  0.469884091894E+00  0.464193478194E+00  0.478749614938E+00  0.489549465334E+00  0.483128669053E+00
  0.488002259909E+00  0.489034104323E+00  0.000000000000E+00  0.465240564346E+00  0.473760502823E+00  0.495364297290E+00  0.490293371229E+00
  0.486277598054E+00  0.445854520604E+00  0.464358879564E+00  0.496127933522E+00  0.443900347073E+00  0.486930056481E+00  0.497248722542E+00
  0.496055921459E+00  0.467744048732E+00  0.488189258165E+00  0.495091099977E+00
  0.999990300362E+00  0.102983027301E+01  0.999990762612E+00  0.104241479569E+01  0.101187755093E+01  0.102516586953E+01  0.999991420552E+00
  0.999992171067E+00  0.103882587599E+01  0.100825880510E+01  0.101253541373E+01  0.100301664923E+01  0.102705528947E+01  0.100604152563E+01
  0.100244540576E+01  0.100354834274E+01  0.999992724186E+00  0.103209927148E+01  0.100459382920E+01  0.100178631734E+01  0.100260315206E+01
  0.100234717451E+01  0.101657069468E+01  0.100620508927E+01  0.100168367826E+01  0.104024762909E+01  0.100303428499E+01  0.100118707696E+01
  0.100134422954E+01  0.100976315298E+01  0.100405567247E+01  0.100176392267E+01
  0.591479989401E+01  0.114840516649E+02  0.610226173457E+01  0.148358871479E+02  0.894433219838E+01  0.875184465757E+01  0.960620159343E+01
  0.670048386228E+01  0.197244251588E+01  0.421254533897E+01  0.126293671716E+02  0.631355576600E+01  0.156282502803E+02  0.274653408981E+01
  0.288741904762E+02  0.223908481638E+02  0.858892335534E+01  0.819887179424E+01  0.480898916477E+01  0.148637009067E+03  0.434926737459E+02
  0.244812849328E+02  0.128293853037E+02  0.398265217410E+01  0.152368708399E+03  0.169819272019E+02  0.210236660592E+02  0.166342070427E+03
  0.147038652150E+03  0.456907355846E+01  0.201959726419E+02  0.137690662962E+03
  0.130947755572E+01  0.457601812484E+01  0.175912284174E+01  0.496547838082E+01  0.368516367253E+01  0.582496139592E+01  0.965040707527E+00
  0.184145707096E+01  0.439478439564E+01  0.254626465231E+01  0.412854674621E+01  0.208023388289E+01  0.475070669135E+01  0.158017317257E+01
  0.581676442962E+01  0.481226907397E+01  0.126436775381E+01  0.526857454084E+01  0.184831280542E+01  0.306836968653E+02  0.882835236073E+01
  0.487917260986E+01  0.426274036660E+01  0.179936698272E+01  0.318876625384E+02  0.443046568634E+01  0.430940878829E+01  0.348535549812E+02
  0.307175435895E+02  0.223080006532E+01  0.464319179669E+01  0.286311329595E+02
  0.348190714753E+00  0.212711229850E+00  0.216344685661E+00  0.350831369875E+00 -0.243405259116E+00 -0.319469686248E+00  0.405461623839E+00
 -0.556048800511E+00  0.722021115427E+00  0.374566957125E-02 -0.944796047884E-01  0.272728546937E+00  0.809446755682E-01  0.171962749339E+00
  0.486383673875E+00  0.208269854960E-01 -0.470097522868E+00 -0.981605466507E+00  0.263902049828E+00 -0.186969737011E-01  0.315875753063E+00
  0.541970861038E-01  0.411625579555E+00  0.619392871314E-01 -0.119590182617E+00 -0.259271109646E+00 -0.155906031554E-01  0.160360599920E+00
  0.115031867997E+00 -0.169064935806E-01 -0.600844350972E-01 -0.179157706205E-01
 -0.329400514746E+01 -0.102988460775E+02 -0.438995916047E+01 -0.107409860076E+02 -0.884803053573E+01 -0.167538577148E+02 -0.289522461623E+01
 -0.368599208877E+01 -0.193405845739E+02 -0.887721701081E+01 -0.798812301762E+01 -0.676346878586E+01 -0.663528818194E+01 -0.769350373508E+01
 -0.491366873929E+01 -0.556682224396E+01 -0.251318589095E+01 -0.150233831286E+02 -0.704167406738E+01 -0.207936418393E+01 -0.434100707653E+01
 -0.487004169117E+01 -0.818860017684E+01 -0.745634819208E+01 -0.196355749168E+01 -0.114207544100E+02 -0.495176300138E+01 -0.180245710988E+01
 -0.220790274858E+01 -0.870716259763E+01 -0.538298883083E+01 -0.223053849810E+01
 -0.167832381668E+01 -0.475340897493E+01 -0.211829528350E+01 -0.592043904696E+01 -0.310524225863E+01 -0.444186886179E+01 -0.147433694621E+01
 -0.140094284128E+01 -0.204330622959E+01 -0.116174005162E+01 -0.434228492404E+01 -0.212602605733E+01 -0.531274570982E+01 -0.594017406624E+00
 -0.113116500385E+02 -0.872232502681E+01 -0.168055553580E+01 -0.420692523892E+01 -0.152837543014E+01 -0.617352099442E+02 -0.174345421986E+02
 -0.947753334912E+01 -0.437907296015E+01 -0.113885615838E+01 -0.633672967992E+02 -0.654144201283E+01 -0.802073051792E+01 -0.693760264033E+02
 -0.611890295148E+02 -0.119438313150E+01 -0.781505028670E+01 -0.571440162196E+02
        12        19        11        11
        11         5        12        12
        10        14         5         5
        19        13        11        11
        19        24        13        13
        30        23        24        24
        19        12        22        22
        28        22        21        21
        11        13         6         6
         7         6         9         9
        15        12        14        14
        18        13        23        23
        15        25        21        21
        27        19        22        22
        18         8         9         9
        27        31        24        24
         4        11         6         6
         5        14        12        12
         4         2         5         5
        21        12        15        15
        14        16        15        15
        24        19        27        27
        22        29        27        27
        23        26        18        18
        17         8        18        18
         5        11         4         4
         6         3         4         4
        26        23        30        30
         5         2        10        10
        16        14        10        10
         3         6         7         7
        21        25        28        28
        29        22        28        28
         6        13         9         9
         2         4         1         1
        31        27        32        32
        25        15        20        20
        24        23        13        13
         8         7         9         9
        13        18         9         9
        31        30        24        24
        12        21        22        22
        29        32        27        27
         3         1         4         4
        26        17        18        18
        16        20        15        15
zone t="boundary 2 bc-2", solutiontime= 0.5000000E+02, strandid=1002, i=33, j=48, f=feblock
  0.500195253374E+01  0.375034811161E+01  0.249861146299E+01  0.288036674177E+01  0.124717526933E+01  0.190856698521E+01  0.326577190273E+01
  0.201394856120E+01 -0.338395986572E-02  0.962374249381E+00  0.500000000000E+01  0.403430190008E+01  0.423029563807E+01  0.500000000000E+01
  0.385439188940E+01  0.500000000000E+01  0.398133433176E+01  0.315200081417E+01  0.266958028869E+01  0.154798029824E+01  0.218327860466E+01
  0.893688440338E+00  0.000000000000E+00  0.699009761768E+00  0.964460899052E+00  0.310303671659E+01  0.000000000000E+00  0.000000000000E+00
  0.125000000000E+01  0.500000000000E+01  0.375000000000E+01  0.250000000000E+01  0.000000000000E+00
 -0.249658903664E+01 -0.249658903664E+01 -0.249658903664E+01 -0.249658903664E+01 -0.249658903664E+01 -0.249658903664E+01 -0.249658903664E+01
 -0.249658903664E+01 -0.249658903664E+01 -0.249658903664E+01 -0.249658903664E+01 -0.249658903664E+01 -0.249658903664E+01 -0.249658903664E+01
 -0.249658903664E+01 -0.249658903664E+01 -0.249658903664E+01 -0.249658903664E+01 -0.249658903664E+01 -0.249658903664E+01 -0.249658903664E+01
 -0.249658903664E+01 -0.249658903664E+01 -0.249658903664E+01 -0.249658903664E+01 -0.249658903664E+01 -0.249658903664E+01 -0.249658903664E+01
 -0.249658903664E+01 -0.249658903664E+01 -0.249658903664E+01 -0.249658903664E+01 -0.249658903664E+01
  0.108225889030E-03  0.145875369682E-03  0.100893326425E-03  0.901663374396E+00  0.110858761917E-03  0.714928318829E+00  0.188140648011E+01
  0.175892165504E+01  0.810725962649E-04  0.957504300331E+00  0.125000000000E+01  0.100596698996E+01  0.191313519089E+01  0.250000000000E+01
  0.292898096716E+01  0.375000000000E+01  0.406883369524E+01  0.363389289944E+01  0.284756860985E+01  0.292582308120E+01  0.395754054931E+01
  0.205027256979E+01  0.125000000000E+01  0.306703272692E+01  0.397155766662E+01  0.433068622168E+01  0.250000000000E+01  0.375000000000E+01
  0.500000000000E+01  0.500000000000E+01  0.500000000000E+01  0.500000000000E+01  0.500000000000E+01
  0.000000000000E+00  0.000000000000E+00  0.000000000000E+00  0.380610262149E+00  0.000000000000E+00  0.343302163911E+00  0.585285498568E+00
  0.579523873721E+00  0.000000000000E+00  0.500979747332E+00  0.508782814017E+00  0.434361560749E+00  0.572843977212E+00  0.537166654001E+00
  0.569106490033E+00  0.515013352172E+00  0.508252450097E+00  0.527349030424E+00  0.567655252726E+00  0.531857855076E+00  0.506012444339E+00
  0.521051129094E+00  0.443900347073E+00  0.490706184896E+00  0.492149786373E+00  0.501385664791E+00  0.467744048732E+00  0.488189258165E+00
  0.489961991134E+00  0.491321546659E+00  0.486017931588E+00  0.489981935261E+00  0.495091099977E+00
  0.999993488485E+00  0.999993690942E+00  0.999993544242E+00  0.989581137391E+00  0.999993139053E+00  0.985581489207E+00  0.989839349776E+00
  0.991729030504E+00  0.999992724186E+00  0.984216351929E+00  0.985140607796E+00  0.984808793931E+00  0.990067211347E+00  0.100292629404E+01
  0.999859927063E+00  0.100487346357E+01  0.100122739133E+01  0.100057008832E+01  0.997888967161E+00  0.100350843654E+01  0.100059307424E+01
  0.101090476404E+01  0.104024762909E+01  0.100327844767E+01  0.100254887617E+01  0.100046793890E+01  0.100976315298E+01  0.100405567247E+01
  0.100192580062E+01  0.100045822703E+01  0.100058944082E+01  0.100110055989E+01  0.100176392267E+01
  0.145178956978E+02  0.146056783851E+02  0.145401728635E+02  0.156731336179E+02  0.136568594260E+02  0.153333376385E+02  0.185701189595E+02
  0.162344742762E+02  0.858892335534E+01  0.167120074051E+02  0.223075812721E+02  0.185241202126E+02  0.204422706965E+02  0.168722602381E+02
  0.133216159564E+02  0.116636009904E+02  0.870190242032E+01  0.104702498334E+02  0.133893041600E+02  0.755002634062E+01  0.135932152862E+02
  0.127581558214E+02  0.169819272019E+02  0.643818622991E+01  0.223222956326E+02  0.163315235070E+02  0.456907355846E+01  0.201959726419E+02
  0.123220181633E+03  0.136718145294E+02  0.543871011484E+02  0.106569369936E+03  0.137690662962E+03
 -0.285864789520E+01  0.354771302797E+00  0.598576243181E+00  0.633720252239E+01  0.161666213827E+00  0.535145699435E+01 -0.304960066208E+01
  0.934782941353E+00  0.126436775381E+01  0.578746237288E+01 -0.491832376334E+01  0.241891765484E+00 -0.476054642844E+01 -0.438571511874E+01
 -0.407034433566E+01 -0.273679097623E+01 -0.374261790446E+01 -0.350788740224E+01 -0.346805115444E+01 -0.201443136404E+01 -0.180136339808E+01
  0.201913969804E+01  0.443046568634E+01 -0.816064665047E-02  0.212098403399E+01 -0.209352299797E+01  0.223080006532E+01  0.464319179669E+01
  0.219726441312E+02 -0.751164695436E+00  0.531941734767E+01  0.163234678755E+02  0.286311329595E+02
 -0.363028625111E+00 -0.282137040343E+00  0.406717303300E+00  0.101129602357E+01  0.447015267744E+00  0.152787101494E+01 -0.275824798538E+00
 -0.482837733822E+00 -0.470097522868E+00  0.324616542779E+00 -0.138723010501E+00 -0.367390581798E+00  0.100099594142E+00 -0.290627163977E-01
 -0.133634124149E-01  0.428285925558E-01 -0.515606131964E-01  0.259403533314E-01  0.133750886924E+00  0.173732982113E+00 -0.132921889453E-01
 -0.396983542802E-02 -0.259271109646E+00 -0.746306579971E-01 -0.101079913950E+00  0.102100628168E-01 -0.169064935806E-01 -0.600844350972E-01
 -0.608136636351E-02  0.507411742429E-02  0.363225625539E-02 -0.170116905759E-01 -0.179157706205E-01
 -0.194686704221E+01 -0.328926288116E+01 -0.292585096181E+01 -0.148172148848E+02 -0.401468458264E+01 -0.196100835602E+02 -0.353144099815E+01
 -0.709461261757E+01 -0.251318589095E+01 -0.123376061782E+02 -0.117053780676E+01 -0.536135398735E+01 -0.151232808815E+01 -0.660500713552E+00
 -0.255044770063E+01 -0.821729557149E+00 -0.258763976761E+01 -0.391970122295E+01 -0.475166077580E+01 -0.652571910976E+01 -0.460776643481E+01
 -0.784124481060E+01 -0.114207544100E+02 -0.662340759035E+01 -0.486928393739E+01 -0.388101742630E+01 -0.870716259763E+01 -0.538298883083E+01
 -0.308187680582E+01 -0.145847614541E+01 -0.334757251764E+01 -0.372925029298E+01 -0.223053849810E+01
 -0.189284516543E+01 -0.101802577683E-01  0.698149929225E-02 -0.634933721020E+01 -0.365776402778E-01 -0.698278844945E+01 -0.396780689096E+01
 -0.418350597134E+01 -0.168055553580E+01 -0.703083619253E+01 -0.499104289766E+01 -0.507071911784E+01 -0.435290058894E+01 -0.321211661070E+01
 -0.229758166721E+01 -0.235438531162E+01 -0.102913703232E+01 -0.169306264881E+01 -0.264506875132E+01 -0.116653672966E+01 -0.342098532707E+01
 -0.382974011681E+01 -0.654144201283E+01 -0.151182553285E+01 -0.786057608607E+01 -0.432248382340E+01 -0.119438313150E+01 -0.781505028670E+01
 -0.500070882295E+02 -0.410536863047E+01 -0.203612796295E+02 -0.423039030305E+02 -0.571440162196E+02
        15         7        19        19
         8        20        19        19
        18        19        21        21
         7         4         8         8
         3         6         4         4
        19         7         8         8
        19        18        15        15
        14        13        15        15
         8        22        20        20
        27        24        22        22
        19        20        21        21
        32        26        21        21
        17        18        26        26
        17        16        15        15
        25        29        21        21
        12         7        13        13
        10         8         6         6
        25        20        24        24
         4         6         8         8
        12         2         4         4
        10        23        22        22
        26        31        17        17
        30        16        17        17
         4         7        12        12
        13        11        12        12
        21        20        25        25
        24        28        25        25
        22         8        10        10
         6         5        10        10
        31        26        32        32
         4         2         3         3
         5         6         3         3
        11        13        14        14
        22        23        27        27
        28        24        27        27
        15        13         7         7
         2        12         1         1
        29        25        33        33
        23        10         9         9
        21        26        18        18
        16        14        15        15
        18        17        15        15
        29        32        21        21
        22        24        20        20
        28        33        25        25
        11         1        12        12
        31        30        17        17
         5         9        10        10
zone t="boundary 3 bc-3", solutiontime= 0.5000000E+02, strandid=1003, i=33, j=48, f=feblock
  0.375059096892E+01  0.249769609313E+01  0.500322133174E+01  0.403612218725E+01  0.287976772365E+01  0.124541910518E+01  0.190552237404E+01
  0.500000000000E+01  0.326671104552E+01  0.423253755448E+01  0.201271136506E+01 -0.547468544169E-02  0.958895643487E+00  0.500000000000E+01
  0.266968147299E+01  0.385584487271E+01  0.890374214836E+00  0.154654013699E+01  0.000000000000E+00  0.500000000000E+01  0.315261136744E+01
  0.218304199515E+01  0.398195307895E+01  0.000000000000E+00  0.697379952124E+00  0.963757277315E+00  0.125000000000E+01  0.000000000000E+00
  0.500000000000E+01  0.310330738524E+01  0.250000000000E+01  0.375000000000E+01  0.000000000000E+00
  0.250494197117E+01  0.250494197117E+01  0.250494197117E+01  0.250494197117E+01  0.250494197117E+01  0.250494197117E+01  0.250494197117E+01
  0.250494197117E+01  0.250494197117E+01  0.250494197117E+01  0.250494197117E+01  0.250494197117E+01  0.250494197117E+01  0.250494197117E+01
  0.250494197117E+01  0.250494197117E+01  0.250494197117E+01  0.250494197117E+01  0.250494197117E+01  0.250494197117E+01  0.250494197117E+01
  0.250494197117E+01  0.250494197117E+01  0.250494197117E+01  0.250494197117E+01  0.250494197117E+01  0.250494197117E+01  0.250494197117E+01
  0.250494197117E+01  0.250494197117E+01  0.250494197117E+01  0.250494197117E+01  0.250494197117E+01
  0.135649900494E-03  0.110129816467E-03  0.966887303890E-04  0.101756752009E+01  0.908094589218E+00  0.103942505801E-03  0.722629083213E+00
  0.125000000000E+01  0.188965661746E+01  0.191862696980E+01  0.176708239098E+01  0.803813859867E-04  0.969652551954E+00  0.250000000000E+01
  0.285339433501E+01  0.293325058812E+01  0.205656223819E+01  0.293157016932E+01  0.125000000000E+01  0.375000000000E+01  0.363766838842E+01
  0.396069444983E+01  0.407056385475E+01  0.250000000000E+01  0.307031995245E+01  0.397359820314E+01  0.500000000000E+01  0.375000000000E+01
  0.500000000000E+01  0.433260781310E+01  0.500000000000E+01  0.500000000000E+01  0.500000000000E+01
  0.000000000000E+00  0.000000000000E+00  0.000000000000E+00  0.444930326687E+00  0.402807304829E+00  0.000000000000E+00  0.379033816204E+00
  0.508818740007E+00  0.575701380330E+00  0.573472074602E+00  0.562547829758E+00  0.000000000000E+00  0.491637802825E+00  0.534336813543E+00
  0.556352181579E+00  0.564140551432E+00  0.522485305911E+00  0.521817734730E+00  0.440666214091E+00  0.517132977413E+00  0.524068294234E+00
  0.503616120436E+00  0.509419881731E+00  0.469884091894E+00  0.495645014420E+00  0.494503343531E+00  0.488630212220E+00  0.489034104323E+00
  0.492987209122E+00  0.498957573931E+00  0.486507800265E+00  0.484614058974E+00  0.495364297290E+00
  0.999989345567E+00  0.999989414891E+00  0.999989632591E+00  0.981380974378E+00  0.988680684584E+00  0.999989832933E+00  0.982276351823E+00
  0.984074897465E+00  0.990406099424E+00  0.990319064682E+00  0.994391010835E+00  0.999990300362E+00  0.988748587757E+00  0.100365238200E+01
  0.999773192633E+00  0.100117376381E+01  0.100830261588E+01  0.100251270964E+01  0.102983027301E+01  0.100441979611E+01  0.100199190108E+01
  0.100081961865E+01  0.100137906157E+01  0.100825880510E+01  0.100297440226E+01  0.100191721483E+01  0.100214792073E+01  0.100354834274E+01
  0.100047555022E+01  0.100056537700E+01  0.100126704333E+01  0.100066742194E+01  0.100178631734E+01
  0.203372874393E+02  0.118754385799E+02  0.166020036032E+02  0.184700295231E+02  0.175209776878E+02  0.884244985767E+01  0.159044574477E+02
  0.231413184051E+02  0.195975268582E+02  0.199206037738E+02  0.180568888933E+02  0.591479989401E+01  0.169401541857E+02  0.164257742818E+02
  0.139833909633E+02  0.148255887939E+02  0.134162671837E+02  0.875876809316E+01  0.114840516649E+02  0.119671368590E+02  0.102205316144E+02
  0.117347313670E+02  0.932299738735E+01  0.421254533897E+01  0.528762116746E+01  0.296088480176E+02  0.108754677721E+03  0.223908481638E+02
  0.115597706196E+02  0.149777320630E+02  0.999175834565E+02  0.528880403360E+02  0.148637009067E+03
  0.449029008035E+00  0.126245760865E+01 -0.346361056720E+01  0.304700881143E+01  0.749205216214E+01  0.333819189729E+00  0.771844846244E+01
 -0.505649149846E+01 -0.410158886841E+01 -0.537336602283E+01  0.442589321897E+00  0.130947755572E+01  0.619230895543E+01 -0.433840902046E+01
 -0.328222536019E+01 -0.387180949285E+01  0.286115910318E+01 -0.181909562264E+01  0.457601812484E+01 -0.297070127390E+01 -0.356924137630E+01
 -0.244894086555E+01 -0.358937453093E+01  0.254626465231E+01 -0.245355592773E+00  0.349456785914E+01  0.190439667363E+02  0.481226907397E+01
 -0.114574001737E+01 -0.243140881960E+01  0.150514496532E+02  0.497381318539E+01  0.306836968653E+02
 -0.137134314422E+00  0.696467857982E-01  0.218082575146E+00 -0.134016457055E+01 -0.143409779880E+01 -0.931818259037E-01 -0.495938822218E-02
  0.100412680024E+00  0.383881282735E+00  0.668448768343E-01  0.392369578414E+00  0.348190714753E+00  0.310566485043E+00 -0.326540417638E-01
 -0.849016428678E-01  0.253039913918E-01 -0.103360359376E+00 -0.288655354352E+00  0.212711229850E+00 -0.461210457234E-01 -0.706539965315E-02
  0.284187544647E-01  0.100235867373E-01  0.374566957125E-02  0.839990511800E-01  0.137290263734E+00 -0.385005777201E-01  0.208269854960E-01
 -0.273546832993E-01 -0.198948066059E-02 -0.115829774361E-01 -0.426128019873E-02 -0.186969737011E-01
 -0.445940136728E+01 -0.404140587898E+01 -0.189608595941E+01 -0.139311101063E+02 -0.160701808931E+02 -0.377845174254E+01 -0.152482390172E+02
 -0.852456420208E+00 -0.505173653810E+01 -0.178207933928E+01 -0.730858030477E+01 -0.329400514746E+01 -0.107428780152E+02 -0.785777128711E+00
 -0.529576867770E+01 -0.273042408221E+01 -0.810080132472E+01 -0.705483482029E+01 -0.102988460775E+02 -0.996720866380E+00 -0.388678808111E+01
 -0.489093008924E+01 -0.267460829803E+01 -0.887721701081E+01 -0.730323674145E+01 -0.512724446478E+01 -0.326375832617E+01 -0.556682224396E+01
 -0.133447531044E+01 -0.382164059545E+01 -0.379475738807E+01 -0.332743670766E+01 -0.207936418393E+01
  0.186925035774E-02 -0.804877700387E-01 -0.193547048222E+01 -0.622114614754E+01 -0.717516604687E+01 -0.111800212204E+00 -0.737485644882E+01
 -0.522468153742E+01 -0.399713588808E+01 -0.390138058089E+01 -0.470302432299E+01 -0.167832381668E+01 -0.678896914555E+01 -0.310882052453E+01
 -0.290971058967E+01 -0.288060205156E+01 -0.423979081903E+01 -0.161573073332E+01 -0.475340897493E+01 -0.234182526191E+01 -0.155989157999E+01
 -0.255045825269E+01 -0.131346147752E+01 -0.116174005162E+01 -0.108966763289E+01 -0.108747556009E+02 -0.438713462567E+02 -0.872232502681E+01
 -0.323520851254E+01 -0.374904955915E+01 -0.395293887139E+02 -0.197155001060E+02 -0.617352099442E+02
        15         9        16        16
        15        18        11        11
        22        15        21        21
        11         5         9         9
         5         7         2         2
        11         9        15        15
        16        21        15        15
        16        10        14        14
        18        17        11        11
        17        25        24        24
        22        18        15        15
        22        30        31        31
        30        21        23        23
        16        20        23        23
        22        27        26        26
        10         9         4         4
         7        11        13        13
        25        18        26        26
        11         7         5         5
         5         1         4         4
        17        19        13        13
        23        32        30        30
        23        20        29        29
         4         9         5         5
         4         8        10        10
        26        18        22        22
        26        28        25        25
        13        11        17        17
        13         6         7         7
        31        30        32        32
         2         1         5         5
         2         7         6         6
        14        10         8         8
        24        19        17        17
        24        25        28        28
         9        10        16        16
         3         4         1         1
        33        26        27        27
        12        13        19        19
        21        30        22        22
        16        14        20        20
        16        23        21        21
        22        31        27        27
        18        25        17        17
        26        33        28        28
         4         3         8         8
        23        29        32        32
        13        12         6         6
zone t="boundary 4 bc-4", solutiontime= 0.5000000E+02, strandid=1004, i=32, j=46, f=feblock
  0.125000000000E+01  0.219251206392E+01  0.103724302461E+01  0.500000000000E+01  0.250000000000E+01  0.375000000000E+01  0.404200324774E+01
  0.500000000000E+01  0.000000000000E+00  0.310152362409E+01  0.202479342020E+01  0.324151231464E+01  0.922061490191E+00  0.000000000000E+00
  0.299062775774E+01  0.394624082883E+01  0.500000000000E+01  0.409252726285E+01  0.500000000000E+01  0.429310310915E+01  0.175434191980E+01
  0.284428995242E+01  0.000000000000E+00  0.000000000000E+00  0.715990576545E+00  0.930412228790E+00  0.125000000000E+01  0.187029682677E+01
  0.500000000000E+01  0.375000000000E+01  0.250000000000E+01  0.000000000000E+00
  0.250494197117E+01  0.157686156160E+01  0.146289271009E+01  0.250494197117E+01  0.250494197117E+01  0.250494197117E+01  0.155830813274E+01
  0.125000000000E+01  0.250494197117E+01  0.177790177481E+01  0.477386199275E+00  0.742988685424E+00  0.308372018325E+00  0.125000000000E+01
 -0.487811078581E+00 -0.144524380962E+01 -0.125000000000E+01 -0.345533899378E+00  0.000000000000E+00  0.627766083140E+00 -0.739814786992E+00
 -0.158811787973E+01  0.000000000000E+00 -0.125000000000E+01 -0.600232012419E+00 -0.154800130438E+01 -0.249658903664E+01 -0.178862290564E+01
 -0.249658903664E+01 -0.249658903664E+01 -0.249658903664E+01 -0.249658903664E+01
  0.500000000000E+01  0.500000000000E+01  0.500000000000E+01  0.500000000000E+01  0.500000000000E+01  0.500000000000E+01  0.500000000000E+01
  0.500000000000E+01  0.500000000000E+01  0.500000000000E+01  0.500000000000E+01  0.500000000000E+01  0.500000000000E+01  0.500000000000E+01
  0.500000000000E+01  0.500000000000E+01  0.500000000000E+01  0.500000000000E+01  0.500000000000E+01  0.500000000000E+01  0.500000000000E+01
  0.500000000000E+01  0.500000000000E+01  0.500000000000E+01  0.500000000000E+01  0.500000000000E+01  0.500000000000E+01  0.500000000000E+01
  0.500000000000E+01  0.500000000000E+01  0.500000000000E+01  0.500000000000E+01
  0.488630212220E+00  0.488908716439E+00  0.490613563023E+00  0.492987209122E+00  0.486507800265E+00  0.484614058974E+00  0.485349379989E+00
  0.494165072826E+00  0.495364297290E+00  0.486547191318E+00  0.487827844382E+00  0.487055837589E+00  0.494058544536E+00  0.496127933522E+00
  0.487591516691E+00  0.483167459327E+00  0.492383185910E+00  0.487198277340E+00  0.494738152002E+00  0.487948631654E+00  0.489652457880E+00
  0.487975472983E+00  0.497248722542E+00  0.496055921459E+00  0.494948818827E+00  0.492779385287E+00  0.489961991134E+00  0.489965023644E+00
  0.491321546659E+00  0.486017931588E+00  0.489981935261E+00  0.495091099977E+00
  0.100214792073E+01  0.100152366602E+01  0.100177921758E+01  0.100047555022E+01  0.100126704333E+01  0.100066742194E+01  0.100025486927E+01
  0.100050300652E+01  0.100178631734E+01  0.100112357820E+01  0.100132836583E+01  0.100072276399E+01  0.100164069721E+01  0.100168367826E+01
  0.100096358335E+01  0.100001091236E+01  0.100083203976E+01  0.100022366105E+01  0.100062122326E+01  0.100023363627E+01  0.100174700863E+01
  0.100098998959E+01  0.100118707696E+01  0.100134422954E+01  0.100132700903E+01  0.100179943015E+01  0.100192580062E+01  0.100163765934E+01
  0.100045822703E+01  0.100058944082E+01  0.100110055989E+01  0.100176392267E+01
  0.108754677721E+03  0.104554906134E+03  0.110013709457E+03  0.115597706196E+02  0.999175834565E+02  0.528880403360E+02  0.365029188507E+02
  0.114354070024E+02  0.148637009067E+03  0.818381839788E+02  0.111703323458E+03  0.769353884519E+02  0.133925154230E+03  0.152368708399E+03
  0.872549649372E+02  0.353622708458E+02  0.130051647064E+02  0.448398574265E+02  0.106866210671E+02  0.448489724885E+02  0.138180933050E+03
  0.828045043517E+02  0.166342070427E+03  0.147038652150E+03  0.155547442279E+03  0.123068589674E+03  0.123220181633E+03  0.129189305074E+03
  0.136718145294E+02  0.543871011484E+02  0.106569369936E+03  0.137690662962E+03