title="tecplot geometry and solution file"
variables = x y z mach temperature lambda1 lambda2 lambda3 lambda4 lambda5
zone t="boundary 1 bc-1", solutiontime= 0.1000000E+03, strandid=1001, i=32, j=46, f=feblock
 -0.547468544169E-02  0.000000000000E+00 -0.567606031243E-02  0.000000000000E+00  0.000000000000E+00  0.000000000000E+00 -0.525159244851E-02
 -0.425776897977E-02  0.000000000000E+00  0.000000000000E+00  0.000000000000E+00  0.000000000000E+00  0.000000000000E+00  0.000000000000E+00
  0.000000000000E+00  0.000000000000E+00 -0.338395986572E-02  0.000000000000E+00  0.000000000000E+00  0.000000000000E+00  0.000000000000E+00
  0.000000000000E+00  0.000000000000E+00  0.000000000000E+00  0.000000000000E+00  0.000000000000E+00  0.000000000000E+00  0.000000000000E+00
  0.000000000000E+00  0.000000000000E+00  0.000000000000E+00  0.000000000000E+00
  0.250494197117E+01  0.250494197117E+01  0.127822156907E+01  0.146289271009E+01  0.157686156160E+01  0.308372018325E+00  0.261948602442E-01
 -0.122573481164E+01 -0.600232012419E+00  0.250494197117E+01  0.477386199275E+00  0.742988685424E+00 -0.739814786992E+00  0.177790177481E+01
  0.155830813274E+01  0.250494197117E+01 -0.249658903664E+01 -0.154800130438E+01 -0.487811078581E+00  0.250494197117E+01  0.627766083140E+00
 -0.345533899378E+00 -0.178862290564E+01 -0.158811787973E+01  0.125000000000E+01 -0.249658903664E+01 -0.144524380962E+01  0.000000000000E+00
 -0.125000000000E+01 -0.249658903664E+01 -0.249658903664E+01 -0.249658903664E+01
  0.803813859867E-04  0.125000000000E+01  0.822460170215E-04  0.103724302461E+01  0.219251206392E+01  0.922061490191E+00  0.103872438719E-03
  0.341545874230E-04  0.715990576545E+00  0.250000000000E+01  0.202479342020E+01  0.324151231464E+01  0.175434191980E+01  0.310152362409E+01
  0.404200324774E+01  0.375000000000E+01  0.810725962649E-04  0.930412228790E+00  0.299062775774E+01  0.500000000000E+01  0.429310310915E+01
  0.409252726285E+01  0.187029682677E+01  0.284428995242E+01  0.500000000000E+01  0.125000000000E+01  0.394624082883E+01  0.500000000000E+01
  0.500000000000E+01  0.250000000000E+01  0.375000000000E+01  0.500000000000E+01
  0.000000000000E+00  0.440666214091E+00  0.000000000000E+00  0.474617251435E+00  0.460123126357E+00  0.468636774984E+00  0.000000000000E+00
  0.000000000000E+00  0.402549872254E+00  0.469884091894E+00  0.464193478194E+00  0.478749614938E+00  0.489549465334E+00  0.483128669053E+00
  0.488002259909E+00  0.489034104323E+00  0.000000000000E+00  0.465240564346E+00  0.473760502823E+00  0.495364297290E+00  0.490293371229E+00
  0.486277598054E+00  0.445854520604E+00  0.464358879564E+00  0.496127933522E+00  0.443900347073E+00  0.486930056481E+00  0.497248722542E+00
  0.496055921459E+00  0.467744048732E+00  0.488189258165E+00  0.495091099977E+00
  0.999990300362E+00  0.102983027301E+01  0.999990762612E+00  0.104241479569E+01  0.101187755093E+01  0.102516586953E+01  0.999991420552E+00
  0.999992171067E+00  0.103882587599E+01  0.100825880510E+01  0.101253541373E+01  0.100301664923E+01  0.102705528947E+01  0.100604152563E+01
  0.100244540576E+01  0.100354834274E+01  0.999992724186E+00  0.103209927148E+01  0.100459382920E+01  0.100178631734E+01  0.100260315206E+01
  0.100234717451E+01  0.101657069468E+01  0.100620508927E+01  0.100168367826E+01  0.104024762909E+01  0.100303428499E+01  0.100118707696E+01
  0.100134422954E+01  0.100976315298E+01  0.100405567247E+01  0.100176392267E+01
  0.591479992977E+01  0.114840529074E+02  0.610226143743E+01  0.148358879397E+02  0.894433212663E+01  0.875184341567E+01  0.960620166719E+01
  0.670048397067E+01  0.197244363705E+01  0.421254451356E+01  0.126293676257E+02  0.631355283356E+01  0.156282534134E+02  0.274653432280E+01
  0.288741939462E+02  0.223908487834E+02  0.858892350747E+01  0.819887438974E+01  0.480898564801E+01  0.148637003267E+03  0.434926825707E+02
  0.244812901228E+02  0.128293844971E+02  0.398265263683E+01  0.152368699149E+03  0.169819200411E+02  0.210236687590E+02  0.166342055804E+03
  0.147038648670E+03  0.456907325615E+01  0.201959745809E+02  0.137690657804E+03
  0.130947755119E+01  0.457601843030E+01  0.175912284638E+01  0.496547860339E+01  0.368516373514E+01  0.582496096914E+01  0.965040691731E+00
  0.184145706655E+01  0.439478448427E+01  0.254626457564E+01  0.412854681153E+01  0.208023324924E+01  0.475070735089E+01  0.158017326772E+01
  0.581676508398E+01  0.481226926784E+01  0.126436775899E+01  0.526857495866E+01  0.184831204011E+01  0.306836957854E+02  0.882835455874E+01
  0.487917420050E+01  0.426274026620E+01  0.179936705204E+01  0.318876606872E+02  0.443046448209E+01  0.430940912516E+01  0.348535517838E+02
  0.307175430382E+02  0.223080005691E+01  0.464319209237E+01  0.286311322588E+02
  0.348190744018E+00  0.212711234646E+00  0.216344691898E+00  0.350831600287E+00 -0.243405100475E+00 -0.319469567901E+00  0.405461588155E+00
 -0.556048813561E+00  0.722021259036E+00  0.374567698005E-02 -0.944795832040E-01  0.272728448088E+00  0.809445821777E-01  0.171962800912E+00
  0.486383759483E+00  0.208270136434E-01 -0.470097538066E+00 -0.981605634602E+00  0.263901937258E+00 -0.186969560938E-01  0.315875962656E+00
  0.541970629841E-01  0.411625371996E+00  0.619392419346E-01 -0.119590291961E+00 -0.259271125062E+00 -0.155907315513E-01  0.160360713012E+00
  0.115031984060E+00 -0.169064881089E-01 -0.600844484722E-01 -0.179157809682E-01
 -0.329400515052E+01 -0.102988460248E+02 -0.438995908153E+01 -0.107409857881E+02 -0.884803035204E+01 -0.167538574235E+02 -0.289522461224E+01
 -0.368599209546E+01 -0.193405844645E+02 -0.887721699090E+01 -0.798812291654E+01 -0.676346908705E+01 -0.663528820386E+01 -0.769350386803E+01
 -0.491366875690E+01 -0.556682215561E+01 -0.251318589880E+01 -0.150233830628E+02 -0.704167418086E+01 -0.207936415006E+01 -0.434100673678E+01
 -0.487004152891E+01 -0.818860026170E+01 -0.745634832239E+01 -0.196355726241E+01 -0.114207545657E+02 -0.495176291509E+01 -0.180245670452E+01
 -0.220790262977E+01 -0.870716272714E+01 -0.538298859444E+01 -0.223053846743E+01
 -0.167832387236E+01 -0.475340950975E+01 -0.211829493079E+01 -0.592043938822E+01 -0.310524225588E+01 -0.444186832929E+01 -0.147433695932E+01
 -0.140094285842E+01 -0.204330666619E+01 -0.116173973279E+01 -0.434228513590E+01 -0.212602480505E+01 -0.531274703378E+01 -0.594017525939E+00
 -0.113116515564E+02 -0.872232533313E+01 -0.168055561255E+01 -0.420692629765E+01 -0.152837392878E+01 -0.617352074856E+02 -0.174345461094E+02
 -0.947753573002E+01 -0.437907263385E+01 -0.113885634644E+01 -0.633672929022E+02 -0.654143906921E+01 -0.802073164778E+01 -0.693760201894E+02
 -0.611890280478E+02 -0.119438302031E+01 -0.781505113151E+01 -0.571440140642E+02
        12        19        11        11
        11         5        12        12
        10        14         5         5
        19        13        11        11
        19        24        13        13
        30        23        24        24
        19        12        22        22
        28        22        21        21
        11        13         6         6
         7         6         9         9
        15        12        14        14
        18        13        23        23
        15        25        21        21
        27        19        22        22
        18         8         9         9
        27        31        24        24
         4        11         6         6
         5        14        12        12
         4         2         5         5
        21        12        15        15
        14        16        15        15
        24        19        27        27
        22        29        27        27
        23        26        18        18
        17         8        18        18
         5        11         4         4
         6         3         4         4
        26        23        30        30
         5         2        10        10
        16        14        10        10
         3         6         7         7
        21        25        28        28
        29        22        28        28
         6        13         9         9
         2         4         1         1
        31        27        32        32
        25        15        20        20
        24        23        13        13
         8         7         9         9
        13        18         9         9
        31        30        24        24
        12        21        22        22
        29        32        27        27
         3         1         4         4
        26        17        18        18
        16        20        15        15
zone t="boundary 2 bc-2", solutiontime= 0.1000000E+03, strandid=1002, i=33, j=48, f=feblock
  0.500195253374E+01  0.375034811161E+01  0.249861146299E+01  0.288036674177E+01  0.124717526933E+01  0.190856698521E+01  0.326577190273E+01
  0.201394856120E+01 -0.338395986572E-02  0.962374249381E+00  0.500000000000E+01  0.403430190008E+01  0.423029563807E+01  0.500000000000E+01
  0.385439188940E+01  0.500000000000E+01  0.398133433176E+01  0.315200081417E+01  0.266958028869E+01  0.154798029824E+01  0.218327860466E+01
  0.893688440338E+00  0.000000000000E+00  0.699009761768E+00  0.964460899052E+00  0.310303671659E+01  0.000000000000E+00  0.000000000000E+00
  0.125000000000E+01  0.500000000000E+01  0.375000000000E+01  0.250000000000E+01  0.000000000000E+00
 -0.249658903664E+01 -0.249658903664E+01 -0.249658903664E+01 -0.249658903664E+01 -0.249658903664E+01 -0.249658903664E+01 -0.249658903664E+01
 -0.249658903664E+01 -0.249658903664E+01 -0.249658903664E+01 -0.249658903664E+01 -0.249658903664E+01 -0.249658903664E+01 -0.249658903664E+01
 -0.249658903664E+01 -0.249658903664E+01 -0.249658903664E+01 -0.249658903664E+01 -0.249658903664E+01 -0.249658903664E+01 -0.249658903664E+01
 -0.249658903664E+01 -0.249658903664E+01 -0.249658903664E+01 -0.249658903664E+01 -0.249658903664E+01 -0.249658903664E+01 -0.249658903664E+01
 -0.249658903664E+01 -0.249658903664E+01 -0.249658903664E+01 -0.249658903664E+01 -0.249658903664E+01
  0.108225889030E-03  0.145875369682E-03  0.100893326425E-03  0.901663374396E+00  0.110858761917E-03  0.714928318829E+00  0.188140648011E+01
  0.175892165504E+01  0.810725962649E-04  0.957504300331E+00  0.125000000000E+01  0.100596698996E+01  0.191313519089E+01  0.250000000000E+01
  0.292898096716E+01  0.375000000000E+01  0.406883369524E+01  0.363389289944E+01  0.284756860985E+01  0.292582308120E+01  0.395754054931E+01
  0.205027256979E+01  0.125000000000E+01  0.306703272692E+01  0.397155766662E+01  0.433068622168E+01  0.250000000000E+01  0.375000000000E+01
  0.500000000000E+01  0.500000000000E+01  0.500000000000E+01  0.500000000000E+01  0.500000000000E+01
  0.000000000000E+00  0.000000000000E+00  0.000000000000E+00  0.380610262149E+00  0.000000000000E+00  0.343302163911E+00  0.585285498568E+00
  0.579523873721E+00  0.000000000000E+00  0.500979747332E+00  0.508782814017E+00  0.434361560749E+00  0.572843977212E+00  0.537166654001E+00
  0.569106490033E+00  0.515013352172E+00  0.508252450097E+00  0.527349030424E+00  0.567655252726E+00  0.531857855076E+00  0.506012444339E+00
  0.521051129094E+00  0.443900347073E+00  0.490706184896E+00  0.492149786373E+00  0.501385664791E+00  0.467744048732E+00  0.488189258165E+00
  0.489961991134E+00  0.491321546659E+00  0.486017931588E+00  0.489981935261E+00  0.495091099977E+00
  0.999993488485E+00  0.999993690942E+00  0.999993544242E+00  0.989581137391E+00  0.999993139053E+00  0.985581489207E+00  0.989839349776E+00
  0.991729030504E+00  0.999992724186E+00  0.984216351929E+00  0.985140607796E+00  0.984808793931E+00  0.990067211347E+00  0.100292629404E+01
  0.999859927063E+00  0.100487346357E+01  0.100122739133E+01  0.100057008832E+01  0.997888967161E+00  0.100350843654E+01  0.100059307424E+01
  0.101090476404E+01  0.104024762909E+01  0.100327844767E+01  0.100254887617E+01  0.100046793890E+01  0.100976315298E+01  0.100405567247E+01
  0.100192580062E+01  0.100045822703E+01  0.100058944082E+01  0.100110055989E+01  0.100176392267E+01
  0.145178956656E+02  0.146056783638E+02  0.145401728152E+02  0.156731329761E+02  0.136568594888E+02  0.153333393648E+02  0.185701188994E+02
  0.162344738671E+02  0.858892350747E+01  0.167120075673E+02  0.223075812839E+02  0.185241195125E+02  0.204422707077E+02  0.168722601971E+02
  0.133216159175E+02  0.116636010355E+02  0.870190221173E+01  0.104702498771E+02  0.133893034925E+02  0.755002556575E+01  0.135932161578E+02
  0.127581554131E+02  0.169819200411E+02  0.643818592397E+01  0.223222975458E+02  0.163315238583E+02  0.456907325615E+01  0.201959745809E+02
  0.123220180555E+03  0.136718144506E+02  0.543871011205E+02  0.106569370392E+03  0.137690657804E+03
 -0.285864788897E+01  0.354771301425E+00  0.598576237724E+00  0.633720243260E+01  0.161666189696E+00  0.535145726807E+01 -0.304960063814E+01
  0.934782883748E+00  0.126436775899E+01  0.578746235617E+01 -0.491832373104E+01  0.241891643257E+00 -0.476054639773E+01 -0.438571510913E+01
 -0.407034432815E+01 -0.273679096252E+01 -0.374261795003E+01 -0.350788739993E+01 -0.346805127115E+01 -0.201443148283E+01 -0.180136325776E+01
  0.201913989209E+01  0.443046448209E+01 -0.816063719723E-02  0.212098432109E+01 -0.209352295258E+01  0.223080005691E+01  0.464319209237E+01
  0.219726436907E+02 -0.751164700573E+00  0.531941739023E+01  0.163234680538E+02  0.286311322588E+02
 -0.363028622412E+00 -0.282137039165E+00  0.406717303234E+00  0.101129601478E+01  0.447015256320E+00  0.152787101697E+01 -0.275824803159E+00
 -0.482837735063E+00 -0.470097538066E+00  0.324616556966E+00 -0.138723010543E+00 -0.367390588037E+00  0.100099594501E+00 -0.290627158269E-01
 -0.133634130849E-01  0.428285933222E-01 -0.515606172806E-01  0.259403516432E-01  0.133750882921E+00  0.173732981262E+00 -0.132921823109E-01
 -0.396979016433E-02 -0.259271125062E+00 -0.746306374248E-01 -0.101079920565E+00  0.102100623762E-01 -0.169064881089E-01 -0.600844484722E-01
 -0.608137555321E-02  0.507411692578E-02  0.363225536702E-02 -0.170116836706E-01 -0.179157809682E-01
 -0.194686704325E+01 -0.328926288281E+01 -0.292585095609E+01 -0.148172148369E+02 -0.401468460008E+01 -0.196100834680E+02 -0.353144098783E+01
 -0.709461262603E+01 -0.251318589880E+01 -0.123376061799E+02 -0.117053780586E+01 -0.536135396333E+01 -0.151232809088E+01 -0.660500710006E+00
 -0.255044768655E+01 -0.821729558372E+00 -0.258763977601E+01 -0.391970121126E+01 -0.475166077964E+01 -0.652571911235E+01 -0.460776640763E+01
 -0.784124465832E+01 -0.114207545657E+02 -0.662340756732E+01 -0.486928384639E+01 -0.388101741246E+01 -0.870716272714E+01 -0.538298859444E+01
 -0.308187681375E+01 -0.145847614392E+01 -0.334757250609E+01 -0.372925028916E+01 -0.223053846743E+01
 -0.189284515571E+01 -0.101802596812E-01  0.698152647767E-02 -0.634933694658E+01 -0.365776595886E-01 -0.698278917868E+01 -0.396780688197E+01
 -0.418350580445E+01 -0.168055561255E+01 -0.703083623851E+01 -0.499104291693E+01 -0.507071882512E+01 -0.435290060640E+01 -0.321211660233E+01
 -0.229758166024E+01 -0.235438533364E+01 -0.102913694527E+01 -0.169306266925E+01 -0.264506847232E+01 -0.116653641452E+01 -0.342098569615E+01
 -0.382974001988E+01 -0.654143906921E+01 -0.151182541406E+01 -0.786057688527E+01 -0.432248397160E+01 -0.119438302031E+01 -0.781505113151E+01
 -0.500070877132E+02 -0.410536860243E+01 -0.203612796323E+02 -0.423039032391E+02 -0.571440140642E+02
        15         7        19        19
         8        20        19        19
        18        19        21        21
         7         4         8         8
         3         6         4         4
        19         7         8         8
        19        18        15        15
        14        13        15        15
         8        22        20        20
        27        24        22        22
        19        20        21        21
        32        26        21        21
        17        18        26        26
        17        16        15        15
        25        29        21        21
        12         7        13        13
        10         8         6         6
        25        20        24        24
         4         6         8         8
        12         2         4         4
        10        23        22        22
        26        31        17        17
        30        16        17        17
         4         7        12        12
        13        11        12        12
        21        20        25        25
        24        28        25        25
        22         8        10        10
         6         5        10        10
        31        26        32        32
         4         2         3         3
         5         6         3         3
        11        13        14        14
        22        23        27        27
        28        24        27        27
        15        13         7         7
         2        12         1         1
        29        25        33        33
        23        10         9         9
        21        26        18        18
        16        14        15        15
        18        17        15        15
        29        32        21        21
        22        24        20        20
        28        33        25        25
        11         1        12        12
        31        30        17        17
         5         9        10        10
zone t="boundary 3 bc-3", solutiontime= 0.1000000E+03, strandid=1003, i=33, j=48, f=feblock
  0.375059096892E+01  0.249769609313E+01  0.500322133174E+01  0.403612218725E+01  0.287976772365E+01  0.124541910518E+01  0.190552237404E+01
  0.500000000000E+01  0.326671104552E+01  0.423253755448E+01  0.201271136506E+01 -0.547468544169E-02  0.958895643487E+00  0.500000000000E+01
  0.266968147299E+01  0.385584487271E+01  0.890374214836E+00  0.154654013699E+01  0.000000000000E+00  0.500000000000E+01  0.315261136744E+01
  0.218304199515E+01  0.398195307895E+01  0.000000000000E+00  0.697379952124E+00  0.963757277315E+00  0.125000000000E+01  0.000000000000E+00
  0.500000000000E+01  0.310330738524E+01  0.250000000000E+01  0.375000000000E+01  0.000000000000E+00
  0.250494197117E+01  0.250494197117E+01  0.250494197117E+01  0.250494197117E+01  0.250494197117E+01  0.250494197117E+01  0.250494197117E+01
  0.250494197117E+01  0.250494197117E+01  0.250494197117E+01  0.250494197117E+01  0.250494197117E+01  0.250494197117E+01  0.250494197117E+01
  0.250494197117E+01  0.250494197117E+01  0.250494197117E+01  0.250494197117E+01  0.250494197117E+01  0.250494197117E+01  0.250494197117E+01
  0.250494197117E+01  0.250494197117E+01  0.250494197117E+01  0.250494197117E+01  0.250494197117E+01  0.250494197117E+01  0.250494197117E+01
  0.250494197117E+01  0.250494197117E+01  0.250494197117E+01  0.250494197117E+01  0.250494197117E+01
  0.135649900494E-03  0.110129816467E-03  0.966887303890E-04  0.101756752009E+01  0.908094589218E+00  0.103942505801E-03  0.722629083213E+00
  0.125000000000E+01  0.188965661746E+01  0.191862696980E+01  0.176708239098E+01  0.803813859867E-04  0.969652551954E+00  0.250000000000E+01
  0.285339433501E+01  0.293325058812E+01  0.205656223819E+01  0.293157016932E+01  0.125000000000E+01  0.375000000000E+01  0.363766838842E+01
  0.396069444983E+01  0.407056385475E+01  0.250000000000E+01  0.307031995245E+01  0.397359820314E+01  0.500000000000E+01  0.375000000000E+01
  0.500000000000E+01  0.433260781310E+01  0.500000000000E+01  0.500000000000E+01  0.500000000000E+01
  0.000000000000E+00  0.000000000000E+00  0.000000000000E+00  0.444930326687E+00  0.402807304829E+00  0.000000000000E+00  0.379033816204E+00
  0.508818740007E+00  0.575701380330E+00  0.573472074602E+00  0.562547829758E+00  0.000000000000E+00  0.491637802825E+00  0.534336813543E+00
  0.556352181579E+00  0.564140551432E+00  0.522485305911E+00  0.521817734730E+00  0.440666214091E+00  0.517132977413E+00  0.524068294234E+00
  0.503616120436E+00  0.509419881731E+00  0.469884091894E+00  0.495645014420E+00  0.494503343531E+00  0.488630212220E+00  0.489034104323E+00
  0.492987209122E+00  0.498957573931E+00  0.486507800265E+00  0.484614058974E+00  0.495364297290E+00
  0.999989345567E+00  0.999989414891E+00  0.999989632591E+00  0.981380974378E+00  0.988680684584E+00  0.999989832933E+00  0.982276351823E+00
  0.984074897465E+00  0.990406099424E+00  0.990319064682E+00  0.994391010835E+00  0.999990300362E+00  0.988748587757E+00  0.100365238200E+01
  0.999773192633E+00  0.100117376381E+01  0.100830261588E+01  0.100251270964E+01  0.102983027301E+01  0.100441979611E+01  0.100199190108E+01
  0.100081961865E+01  0.100137906157E+01  0.100825880510E+01  0.100297440226E+01  0.100191721483E+01  0.100214792073E+01  0.100354834274E+01
  0.100047555022E+01  0.100056537700E+01  0.100126704333E+01  0.100066742194E+01  0.100178631734E+01
  0.203372872287E+02  0.118754385363E+02  0.166020035798E+02  0.184700278421E+02  0.175209800604E+02  0.884244988266E+01  0.159044606179E+02
  0.231413186057E+02  0.195975262124E+02  0.199206039908E+02  0.180568886177E+02  0.591479992977E+01  0.169401558826E+02  0.164257741850E+02
  0.139833910498E+02  0.148255888762E+02  0.134162670182E+02  0.875876828574E+01  0.114840529074E+02  0.119671368805E+02  0.102205313735E+02
  0.117347319870E+02  0.932299721566E+01  0.421254451356E+01  0.528762068284E+01  0.296088479082E+02  0.108754677888E+03  0.223908487834E+02
  0.115597705247E+02  0.149777323084E+02  0.999175830386E+02  0.528880405939E+02  0.148637003267E+03
  0.449028993938E+00  0.126245757659E+01 -0.346361054332E+01  0.304700884126E+01  0.749205300378E+01  0.333819169920E+00  0.771844949531E+01
 -0.505649139509E+01 -0.410158903023E+01 -0.537336592627E+01  0.442589451854E+00  0.130947755119E+01  0.619230966866E+01 -0.433840902582E+01
 -0.328222535841E+01 -0.387180944426E+01  0.286115933948E+01 -0.181909563190E+01  0.457601843030E+01 -0.297070125374E+01 -0.356924140074E+01
 -0.244894070037E+01 -0.358937455541E+01  0.254626457564E+01 -0.245355413695E+00  0.349456780548E+01  0.190439664145E+02  0.481226926784E+01
 -0.114574003276E+01 -0.243140871577E+01  0.150514496226E+02  0.497381324489E+01  0.306836957854E+02
 -0.137134315450E+00  0.696467870024E-01  0.218082583680E+00 -0.134016458556E+01 -0.143409784273E+01 -0.931818196812E-01 -0.495941063570E-02
  0.100412678513E+00  0.383881295788E+00  0.668448736813E-01  0.392369583417E+00  0.348190744018E+00  0.310566442838E+00 -0.326540419511E-01
 -0.849016402756E-01  0.253039915235E-01 -0.103360395650E+00 -0.288655354066E+00  0.212711234646E+00 -0.461210455193E-01 -0.706539882064E-02
  0.284187435083E-01  0.100235866051E-01  0.374567698005E-02  0.839990399364E-01  0.137290274035E+00 -0.385005871421E-01  0.208270136434E-01
 -0.273546836726E-01 -0.198948047610E-02 -0.115829900639E-01 -0.426127919207E-02 -0.186969560938E-01
 -0.445940134505E+01 -0.404140591296E+01 -0.189608596683E+01 -0.139311100370E+02 -0.160701809640E+02 -0.377845177078E+01 -0.152482391722E+02
 -0.852456453915E+00 -0.505173652995E+01 -0.178207933411E+01 -0.730858031275E+01 -0.329400515052E+01 -0.107428782017E+02 -0.785777122253E+00
 -0.529576866490E+01 -0.273042406858E+01 -0.810080149968E+01 -0.705483483600E+01 -0.102988460248E+02 -0.996720866374E+00 -0.388678808425E+01
 -0.489093003462E+01 -0.267460829831E+01 -0.887721699090E+01 -0.730323679334E+01 -0.512724435681E+01 -0.326375826569E+01 -0.556682215561E+01
 -0.133447531123E+01 -0.382164058040E+01 -0.379475738901E+01 -0.332743668654E+01 -0.207936415006E+01
  0.186930986539E-02 -0.804877972950E-01 -0.193547052151E+01 -0.622114551540E+01 -0.717516713914E+01 -0.111800267560E+00 -0.737485790580E+01
 -0.522468165672E+01 -0.399713560004E+01 -0.390138069566E+01 -0.470302423496E+01 -0.167832387236E+01 -0.678896993981E+01 -0.310882049166E+01
 -0.290971062834E+01 -0.288060210008E+01 -0.423979079409E+01 -0.161573080359E+01 -0.475340950975E+01 -0.234182527913E+01 -0.155989148504E+01
 -0.255045852842E+01 -0.131346141093E+01 -0.116173973279E+01 -0.108966746875E+01 -0.108747555618E+02 -0.438713462658E+02 -0.872232533313E+01
 -0.323520847441E+01 -0.374904968193E+01 -0.395293885362E+02 -0.197155002221E+02 -0.617352074856E+02
        15         9        16        16
        15        18        11        11
        22        15        21        21
        11         5         9         9
         5         7         2         2
        11         9        15        15
        16        21        15        15
        16        10        14        14
        18        17        11        11
        17        25        24        24
        22        18        15        15
        22        30        31        31
        30        21        23        23
        16        20        23        23
        22        27        26        26
        10         9         4         4
         7        11        13        13
        25        18        26        26
        11         7         5         5
         5         1         4         4
        17        19        13        13
        23        32        30        30
        23        20        29        29
         4         9         5         5
         4         8        10        10
        26        18        22        22
        26        28        25        25
        13        11        17        17
        13         6         7         7
        31        30        32        32
         2         1         5         5
         2         7         6         6
        14        10         8         8
        24        19        17        17
        24        25        28        28
         9        10        16        16
         3         4         1         1
        33        26        27        27
        12        13        19        19
        21        30        22        22
        16        14        20        20
        16        23        21        21
        22        31        27        27
        18        25        17        17
        26        33        28        28
         4         3         8         8
        23        29        32        32
        13        12         6         6
zone t="boundary 4 bc-4", solutiontime= 0.1000000E+03, strandid=1004, i=32, j=46, f=feblock
  0.125000000000E+01  0.219251206392E+01  0.103724302461E+01  0.500000000000E+01  0.250000000000E+01  0.375000000000E+01  0.404200324774E+01
  0.500000000000E+01  0.000000000000E+00  0.310152362409E+01  0.202479342020E+01  0.324151231464E+01  0.922061490191E+00  0.000000000000E+00
  0.299062775774E+01  0.394624082883E+01  0.500000000000E+01  0.409252726285E+01  0.500000000000E+01  0.429310310915E+01  0.175434191980E+01
  0.284428995242E+01  0.000000000000E+00  0.000000000000E+00  0.715990576545E+00  0.930412228790E+00  0.125000000000E+01  0.187029682677E+01
  0.500000000000E+01  0.375000000000E+01  0.250000000000E+01  0.000000000000E+00
  0.250494197117E+01  0.157686156160E+01  0.146289271009E+01  0.250494197117E+01  0.250494197117E+01  0.250494197117E+01  0.155830813274E+01
  0.125000000000E+01  0.250494197117E+01  0.177790177481E+01  0.477386199275E+00  0.742988685424E+00  0.308372018325E+00  0.125000000000E+01
 -0.487811078581E+00 -0.144524380962E+01 -0.125000000000E+01 -0.345533899378E+00  0.000000000000E+00  0.627766083140E+00 -0.739814786992E+00
 -0.158811787973E+01  0.000000000000E+00 -0.125000000000E+01 -0.600232012419E+00 -0.154800130438E+01 -0.249658903664E+01 -0.178862290564E+01
 -0.249658903664E+01 -0.249658903664E+01 -0.249658903664E+01 -0.249658903664E+01
  0.500000000000E+01  0.500000000000E+01  0.500000000000E+01  0.500000000000E+01  0.500000000000E+01  0.500000000000E+01  0.500000000000E+01
  0.500000000000E+01  0.500000000000E+01  0.500000000000E+01  0.500000000000E+01  0.500000000000E+01  0.500000000000E+01  0.500000000000E+01
  0.500000000000E+01  0.500000000000E+01  0.500000000000E+01  0.500000000000E+01  0.500000000000E+01  0.500000000000E+01  0.500000000000E+01
  0.500000000000E+01  0.500000000000E+01  0.500000000000E+01  0.500000000000E+01  0.500000000000E+01  0.500000000000E+01  0.500000000000E+01
  0.500000000000E+01  0.500000000000E+01  0.500000000000E+01  0.500000000000E+01
  0.488630212220E+00  0.488908716439E+00  0.490613563023E+00  0.492987209122E+00  0.486507800265E+00  0.484614058974E+00  0.485349379989E+00
  0.494165072826E+00  0.495364297290E+00  0.486547191318E+00  0.487827844382E+00  0.487055837589E+00  0.494058544536E+00  0.496127933522E+00
  0.487591516691E+00  0.483167459327E+00  0.492383185910E+00  0.487198277340E+00  0.494738152002E+00  0.487948631654E+00  0.489652457880E+00
  0.487975472983E+00  0.497248722542E+00  0.496055921459E+00  0.494948818827E+00  0.492779385287E+00  0.489961991134E+00  0.489965023644E+00
  0.491321546659E+00  0.486017931588E+00  0.489981935261E+00  0.495091099977E+00
  0.100214792073E+01  0.100152366602E+01  0.100177921758E+01  0.100047555022E+01  0.100126704333E+01  0.100066742194E+01  0.100025486927E+01
  0.100050300652E+01  0.100178631734E+01  0.100112357820E+01  0.100132836583E+01  0.100072276399E+01  0.100164069721E+01  0.100168367826E+01
  0.100096358335E+01  0.100001091236E+01  0.100083203976E+01  0.100022366105E+01  0.100062122326E+01  0.100023363627E+01  0.100174700863E+01
  0.100098998959E+01  0.100118707696E+01  0.100134422954E+01  0.100132700903E+01  0.100179943015E+01  0.100192580062E+01  0.100163765934E+01
  0.100045822703E+01  0.100058944082E+01  0.100110055989E+01  0.100176392267E+01
  0.108754677888E+03  0.104554904378E+03  0.110013709094E+03  0.115597705247E+02  0.999175830386E+02  0.528880405939E+02  0.365029190738E+02
  0.114354069208E+02  0.148637003267E+03  0.818381832515E+02  0.111703324321E+03  0.769353874777E+02  0.133925151151E+03  0.152368699149E+03
  0.872549633318E+02  0.353622709245E+02  0.130051645929E+02  0.448398575719E+02  0.106866210337E+02  0.448489724317E+02  0.138180929363E+03
  0.828045026532E+02  0.166342055804E+03  0.147038648670E+03  0.155547442965E+03  0.123068588201E+03  0.123220180555E+03  0.129189303025E+03
  0.136718144506E+02  0.543871011205E+02  0.106569370392E+03  0.137690657804E+03