title="tecplot geometry and solution file"
variables = x y z mach temperature lambda1 lambda2 lambda3 lambda4 lambda5
zone t="boundary 1 bc-1", solutiontime= 0.6000000E+02, strandid=1001, i=32, j=46, f=feblock
  0.000000000000E+00  0.000000000000E+00  0.000000000000E+00  0.000000000000E+00  0.000000000000E+00  0.000000000000E+00  0.000000000000E+00
  0.000000000000E+00  0.000000000000E+00  0.000000000000E+00  0.000000000000E+00  0.000000000000E+00  0.000000000000E+00  0.000000000000E+00
  0.000000000000E+00  0.000000000000E+00  0.000000000000E+00  0.000000000000E+00  0.000000000000E+00  0.000000000000E+00  0.000000000000E+00
  0.000000000000E+00  0.000000000000E+00  0.000000000000E+00  0.000000000000E+00  0.000000000000E+00  0.000000000000E+00  0.000000000000E+00
  0.000000000000E+00  0.000000000000E+00  0.000000000000E+00  0.000000000000E+00
  0.250000000000E+01  0.250000000000E+01  0.125000000000E+01  0.146289271009E+01  0.157686156160E+01  0.308372018325E+00  0.000000000000E+00
 -0.125000000000E+01 -0.600232012419E+00  0.250000000000E+01  0.477386199275E+00  0.742988685424E+00 -0.739814786992E+00  0.177790177481E+01
  0.155830813274E+01  0.250000000000E+01 -0.250000000000E+01 -0.154800130438E+01 -0.487811078581E+00  0.250000000000E+01  0.627766083140E+00
 -0.345533899378E+00 -0.178862290564E+01 -0.158811787973E+01  0.125000000000E+01 -0.250000000000E+01 -0.144524380962E+01  0.000000000000E+00
 -0.125000000000E+01 -0.250000000000E+01 -0.250000000000E+01 -0.250000000000E+01
  0.000000000000E+00  0.125000000000E+01  0.000000000000E+00  0.103724302461E+01  0.219251206392E+01  0.922061490191E+00  0.000000000000E+00
  0.000000000000E+00  0.715990576545E+00  0.250000000000E+01  0.202479342020E+01  0.324151231464E+01  0.175434191980E+01  0.310152362409E+01
  0.404200324774E+01  0.375000000000E+01  0.000000000000E+00  0.930412228790E+00  0.299062775774E+01  0.500000000000E+01  0.429310310915E+01
  0.409252726285E+01  0.187029682677E+01  0.284428995242E+01  0.500000000000E+01  0.125000000000E+01  0.394624082883E+01  0.500000000000E+01
  0.500000000000E+01  0.250000000000E+01  0.375000000000E+01  0.500000000000E+01
  0.000000000000E+00  0.441238348384E+00  0.000000000000E+00  0.475214987021E+00  0.460123708856E+00  0.468827815405E+00  0.000000000000E+00
  0.000000000000E+00  0.402302516798E+00  0.469814974359E+00  0.464411128942E+00  0.478714034184E+00  0.489298241651E+00  0.483068557888E+00
  0.487930073118E+00  0.488961654628E+00  0.000000000000E+00  0.464775721414E+00  0.473795651891E+00  0.495346592024E+00  0.490266103446E+00
  0.486286083902E+00  0.445717618051E+00  0.464382274634E+00  0.496127394917E+00  0.443624103833E+00  0.486964461957E+00  0.497246279768E+00
  0.496059270892E+00  0.467732355362E+00  0.488212087362E+00  0.495098264817E+00
  0.999990295028E+00  0.102982719499E+01  0.999990757903E+00  0.104247294232E+01  0.101190080524E+01  0.102520618293E+01  0.999991416700E+00
  0.999992168096E+00  0.103891223624E+01  0.100826277309E+01  0.101252833877E+01  0.100300548289E+01  0.102702865700E+01  0.100605563290E+01
  0.100244400478E+01  0.100355660048E+01  0.999992721792E+00  0.103239739214E+01  0.100459524090E+01  0.100179336279E+01  0.100260305842E+01
  0.100234966417E+01  0.101657153079E+01  0.100617544692E+01  0.100168844809E+01  0.104043292670E+01  0.100303376377E+01  0.100118726928E+01
  0.100134171022E+01  0.100976788415E+01  0.100405369352E+01  0.100176112495E+01
  0.171323119124E-18 -0.274147291005E-19 -0.842544330457E-19 -0.390266590253E-19  0.652890915092E-19 -0.356381611236E-18 -0.348009689765E-18
 -0.125628430576E-18 -0.175272887651E-17  0.450247398366E-19  0.108470327846E-18  0.135843016842E-19  0.333126867497E-18  0.213269498140E-20
  0.157253729525E-18  0.110006655043E-18 -0.290243652282E-18  0.655429391851E-18  0.563524544394E-19  0.963505710047E-18  0.301516285524E-18
  0.193127110758E-18  0.219060046473E-18  0.486983313280E-19  0.108090096900E-17  0.601709858904E-18  0.203222052960E-18  0.138945754790E-17
  0.141233092122E-17  0.392849689399E-19  0.186972451985E-18  0.137972330783E-17
  0.115521088621E-18  0.275395157125E-19  0.138410738943E-18  0.843658447623E-19  0.137251457679E-19  0.115720540092E-18  0.175391247579E-19
  0.319927283204E-20 -0.116147262793E-18  0.108946734385E-19  0.539071484218E-19  0.112780778242E-19  0.113173125267E-18 -0.150904995180E-21
  0.295181963507E-19  0.190691834577E-19 -0.384003846387E-20  0.164604871276E-18  0.237914360905E-19  0.194787240695E-18  0.616700167479E-19
  0.416538397016E-19  0.963766883065E-19  0.399969063415E-19  0.222486990579E-18  0.190639307355E-18  0.459252997282E-19  0.287932157088E-18
  0.292694710032E-18  0.399576588303E-19  0.485007329925E-19  0.285220629853E-18
 -0.146345630279E-19  0.152832862711E-19  0.100066938588E-18  0.170142949365E-18 -0.247187911505E-19  0.159080201793E-18  0.181472125564E-19
 -0.261232406982E-19 -0.124835780597E-18 -0.779881553395E-22  0.231046339493E-20 -0.576695279580E-19 -0.995620683743E-19 -0.423345466373E-19
 -0.306759794477E-19  0.466304607164E-21  0.241028626212E-19 -0.930673057405E-19 -0.513393000582E-19  0.134855420110E-20 -0.447087574965E-19
 -0.500003309337E-19 -0.495633689612E-19 -0.537514092684E-19 -0.251158267186E-19  0.106103575562E-19 -0.330052052226E-19 -0.295527731187E-19
 -0.200070100886E-19 -0.700466670325E-21  0.647671539825E-21  0.150842788883E-20
 -0.129717436849E-18 -0.853172804029E-19 -0.149722051997E-18 -0.117558676480E-18 -0.278808085170E-19 -0.149981740914E-18  0.214598957670E-20
 -0.187976471763E-19 -0.129364359233E-18  0.219091418933E-19 -0.212679708315E-19 -0.443225015472E-19  0.318866241337E-19 -0.110937269800E-19
 -0.185966478726E-19  0.493351114006E-21  0.204728008977E-19  0.164068908840E-19 -0.690487761348E-19 -0.158140460903E-19 -0.344033543928E-19
 -0.525993545082E-19 -0.136852080265E-18 -0.110077304455E-18 -0.166457629098E-19 -0.720559003905E-19 -0.705380443367E-19 -0.160379231196E-19
 -0.238172654313E-19 -0.138744729675E-18 -0.851053194481E-19 -0.234657761036E-19
 -0.653633492056E-19 -0.531942513020E-20  0.523354981942E-19  0.101515025612E-20 -0.187273619562E-19  0.898480328736E-20  0.136628066909E-18
  0.127549119577E-19  0.552321911983E-18 -0.115312936271E-19 -0.378608173414E-19 -0.414265332491E-20 -0.138249799450E-18  0.481163813452E-20
 -0.591805921385E-19 -0.406552345815E-19  0.343731587470E-19 -0.278881288646E-18 -0.219084021078E-19 -0.398989812842E-18 -0.119531141878E-18
 -0.746199154968E-19 -0.100606773622E-18 -0.198923893342E-19 -0.448466923339E-18 -0.274059129733E-18 -0.777222310966E-19 -0.579212683756E-18
 -0.587290452509E-18 -0.198356664763E-19 -0.733333336356E-19 -0.572613992708E-18
        12        19        11        11
        11         5        12        12
        10        14         5         5
        19        13        11        11
        19        24        13        13
        30        23        24        24
        19        12        22        22
        28        22        21        21
        11        13         6         6
         7         6         9         9
        15        12        14        14
        18        13        23        23
        15        25        21        21
        27        19        22        22
        18         8         9         9
        27        31        24        24
         4        11         6         6
         5        14        12        12
         4         2         5         5
        21        12        15        15
        14        16        15        15
        24        19        27        27
        22        29        27        27
        23        26        18        18
        17         8        18        18
         5        11         4         4
         6         3         4         4
        26        23        30        30
         5         2        10        10
        16        14        10        10
         3         6         7         7
        21        25        28        28
        29        22        28        28
         6        13         9         9
         2         4         1         1
        31        27        32        32
        25        15        20        20
        24        23        13        13
         8         7         9         9
        13        18         9         9
        31        30        24        24
        12        21        22        22
        29        32        27        27
         3         1         4         4
        26        17        18        18
        16        20        15        15
zone t="boundary 2 bc-2", solutiontime= 0.6000000E+02, strandid=1002, i=33, j=48, f=feblock
  0.500000000000E+01  0.375000000000E+01  0.250000000000E+01  0.288078410721E+01  0.125000000000E+01  0.190974100652E+01  0.326683758169E+01
  0.201431602454E+01  0.000000000000E+00  0.963108083381E+00  0.500000000000E+01  0.403552511878E+01  0.423153924130E+01  0.500000000000E+01
  0.385533350601E+01  0.500000000000E+01  0.398173246726E+01  0.315249557942E+01  0.267000324704E+01  0.154774304040E+01  0.218329375016E+01
  0.893127759452E+00  0.000000000000E+00  0.698517061619E+00  0.964171764089E+00  0.310324758057E+01  0.000000000000E+00  0.000000000000E+00
  0.125000000000E+01  0.500000000000E+01  0.375000000000E+01  0.250000000000E+01  0.000000000000E+00
 -0.250000000000E+01 -0.250000000000E+01 -0.250000000000E+01 -0.250000000000E+01 -0.250000000000E+01 -0.250000000000E+01 -0.250000000000E+01
 -0.250000000000E+01 -0.250000000000E+01 -0.250000000000E+01 -0.250000000000E+01 -0.250000000000E+01 -0.250000000000E+01 -0.250000000000E+01
 -0.250000000000E+01 -0.250000000000E+01 -0.250000000000E+01 -0.250000000000E+01 -0.250000000000E+01 -0.250000000000E+01 -0.250000000000E+01
 -0.250000000000E+01 -0.250000000000E+01 -0.250000000000E+01 -0.250000000000E+01 -0.250000000000E+01 -0.250000000000E+01 -0.250000000000E+01
 -0.250000000000E+01 -0.250000000000E+01 -0.250000000000E+01 -0.250000000000E+01 -0.250000000000E+01
  0.000000000000E+00  0.000000000000E+00  0.000000000000E+00  0.904659890645E+00  0.000000000000E+00  0.717002441913E+00  0.188609243358E+01
  0.176246431481E+01  0.000000000000E+00  0.961328577125E+00  0.125000000000E+01  0.101201586758E+01  0.191586535653E+01  0.250000000000E+01
  0.293121848150E+01  0.375000000000E+01  0.406975391361E+01  0.363585050272E+01  0.285047954584E+01  0.292817774674E+01  0.395907379566E+01
  0.205246550326E+01  0.125000000000E+01  0.306828197606E+01  0.397245519226E+01  0.433168271247E+01  0.250000000000E+01  0.375000000000E+01
  0.500000000000E+01  0.500000000000E+01  0.500000000000E+01  0.500000000000E+01  0.500000000000E+01
  0.000000000000E+00  0.000000000000E+00  0.000000000000E+00  0.380991906500E+00  0.000000000000E+00  0.343629824950E+00  0.585286157424E+00
  0.579373264282E+00  0.000000000000E+00  0.501056069140E+00  0.508460362676E+00  0.435373026572E+00  0.572640041190E+00  0.537002098944E+00
  0.568922553871E+00  0.514994090651E+00  0.508247257160E+00  0.527252853130E+00  0.567446661127E+00  0.531657143909E+00  0.505981016593E+00
  0.520795579399E+00  0.443624103833E+00  0.490663730453E+00  0.492155873749E+00  0.501390784676E+00  0.467732355362E+00  0.488212087362E+00
  0.490002767114E+00  0.491352304715E+00  0.486075475228E+00  0.490036479234E+00  0.495098264817E+00
  0.999993487379E+00  0.999993690057E+00  0.999993543115E+00  0.989539055875E+00  0.999993137282E+00  0.985524707174E+00  0.989838908967E+00
  0.991798516580E+00  0.999992721792E+00  0.984411112416E+00  0.985091906406E+00  0.984689080896E+00  0.990058464829E+00  0.100289621837E+01
  0.999855369243E+00  0.100485306649E+01  0.100121554699E+01  0.100055642931E+01  0.997896793475E+00  0.100350029570E+01  0.100058068723E+01
  0.101093276247E+01  0.104043292670E+01  0.100326475367E+01  0.100254498742E+01  0.100045587387E+01  0.100976788415E+01  0.100405369352E+01
  0.100192656835E+01  0.100045434508E+01  0.100058774183E+01  0.100109993754E+01  0.100176112495E+01
  0.143842096986E-18  0.727123969621E-18 -0.367107859932E-18  0.144849063078E-18  0.356563855665E-18  0.179944566278E-17  0.365365747792E-18
  0.353141607168E-18 -0.290243652282E-18  0.103160107430E-17  0.388639934050E-18  0.591520520851E-18  0.308725158786E-18  0.236047969356E-18
  0.168881595167E-18  0.131899974301E-18  0.101763395657E-18  0.113041568812E-18  0.190636269301E-18  0.993909739856E-19  0.142444014220E-18
  0.342889696349E-18  0.601709858904E-18  0.979443011551E-19  0.226080936749E-18  0.176722819560E-18  0.392849689399E-19  0.186972451985E-18
  0.124244453679E-17  0.154263750718E-18  0.572421886977E-18  0.108123486988E-17  0.137972330783E-17
 -0.957337978595E-19  0.275961350520E-19 -0.121825635883E-19  0.325519848938E-19  0.608848170678E-19  0.839831815474E-19  0.493510020036E-20
  0.424267362937E-19 -0.384003846387E-20  0.408891457738E-18 -0.846053866420E-19  0.188912742574E-19 -0.784528673400E-19 -0.618194333174E-19
 -0.453804074260E-19 -0.309224035373E-19 -0.381390141687E-19 -0.341624663079E-19 -0.314032647877E-19  0.227976547324E-20 -0.163719964641E-19
  0.162404397177E-18  0.190639307355E-18  0.337986133612E-19  0.242412225556E-19 -0.180091846299E-19  0.399576588303E-19  0.485007329925E-19
  0.225866076978E-18 -0.684147457196E-20  0.570663989420E-19  0.171461427905E-18  0.285220629853E-18
  0.189641245358E-19 -0.600794845602E-19  0.674090739149E-19  0.467776577107E-19 -0.300560225006E-19 -0.935989451599E-19 -0.735571633134E-20
 -0.179690413492E-19  0.241028626212E-19 -0.496396970254E-19  0.530430839208E-20 -0.717675879044E-20  0.251616488983E-20 -0.318779387773E-21
 -0.143276306198E-20  0.118933222622E-20 -0.108827993108E-20  0.218165511628E-20 -0.123279365273E-20 -0.703080021348E-21  0.564252165934E-22
 -0.701417859835E-21  0.106103575562E-19 -0.104580111965E-21 -0.118911324469E-20  0.578255548912E-21 -0.700466670325E-21  0.647671539825E-21
  0.490440923920E-21  0.479053494648E-21  0.435081070295E-21 -0.472294515746E-21  0.150842788883E-20
 -0.244018887447E-19 -0.160553243067E-18  0.834987243435E-19 -0.341152342850E-18 -0.922156748577E-19 -0.427654066934E-18 -0.124491600036E-18
 -0.252448530001E-18  0.204728008977E-19 -0.253291927390E-18 -0.161058026367E-20 -0.207631625694E-18 -0.538830440493E-19 -0.130990563432E-19
 -0.526277455464E-19 -0.102299012949E-19 -0.336709806323E-19 -0.581203978805E-19 -0.999221023644E-19 -0.134900608350E-18 -0.643913161008E-19
 -0.209327336803E-18 -0.720559003905E-19 -0.124767948283E-18 -0.682169113982E-19 -0.499433929696E-19 -0.138744729675E-18 -0.851053194481E-19
 -0.321960868790E-19 -0.159160776937E-19 -0.349450425025E-19 -0.376602109374E-19 -0.234657761036E-19
  0.189333335961E-19 -0.540620468058E-19  0.559707927433E-20 -0.104751336068E-18 -0.818312827597E-19 -0.549775162189E-18 -0.104053211927E-18
 -0.113577490525E-18  0.343731587470E-19 -0.476186597199E-18 -0.864423923598E-19 -0.203168938885E-18 -0.639875784436E-19 -0.454039571345E-19
 -0.326364418853E-19 -0.265349769893E-19 -0.142613374605E-19 -0.199345138882E-19 -0.447181743059E-19 -0.242601405568E-19 -0.367253089804E-19
 -0.155787702262E-18 -0.274059129733E-18 -0.338000736919E-19 -0.801385679246E-19 -0.479034987868E-19 -0.198356664763E-19 -0.733333336356E-19
 -0.505405813246E-18 -0.468636317783E-19 -0.214787131663E-18 -0.431020908963E-18 -0.572613992708E-18
        15         7        19        19
         8        20        19        19
        18        19        21        21
         7         4         8         8
         3         6         4         4
        19         7         8         8
        19        18        15        15
        14        13        15        15
         8        22        20        20
        27        24        22        22
        19        20        21        21
        32        26        21        21
        17        18        26        26
        17        16        15        15
        25        29        21        21
        12         7        13        13
        10         8         6         6
        25        20        24        24
         4         6         8         8
        12         2         4         4
        10        23        22        22
        26        31        17        17
        30        16        17        17
         4         7        12        12
        13        11        12        12
        21        20        25        25
        24        28        25        25
        22         8        10        10
         6         5        10        10
        31        26        32        32
         4         2         3         3
         5         6         3         3
        11        13        14        14
        22        23        27        27
        28        24        27        27
        15        13         7         7
         2        12         1         1
        29        25        33        33
        23        10         9         9
        21        26        18        18
        16        14        15        15
        18        17        15        15
        29        32        21        21
        22        24        20        20
        28        33        25        25
        11         1        12        12
        31        30        17        17
         5         9        10        10
zone t="boundary 3 bc-3", solutiontime= 0.6000000E+02, strandid=1003, i=33, j=48, f=feblock
  0.375000000000E+01  0.250000000000E+01  0.500000000000E+01  0.403552511878E+01  0.288078410721E+01  0.125000000000E+01  0.190974100652E+01
  0.500000000000E+01  0.326683758169E+01  0.423153924130E+01  0.201431602454E+01  0.000000000000E+00  0.963108083381E+00  0.500000000000E+01
  0.267000324704E+01  0.385533350601E+01  0.893127759452E+00  0.154774304040E+01  0.000000000000E+00  0.500000000000E+01  0.315249557942E+01
  0.218329375016E+01  0.398173246726E+01  0.000000000000E+00  0.698517061619E+00  0.964171764089E+00  0.125000000000E+01  0.000000000000E+00
  0.500000000000E+01  0.310324758057E+01  0.250000000000E+01  0.375000000000E+01  0.000000000000E+00
  0.250000000000E+01  0.250000000000E+01  0.250000000000E+01  0.250000000000E+01  0.250000000000E+01  0.250000000000E+01  0.250000000000E+01
  0.250000000000E+01  0.250000000000E+01  0.250000000000E+01  0.250000000000E+01  0.250000000000E+01  0.250000000000E+01  0.250000000000E+01
  0.250000000000E+01  0.250000000000E+01  0.250000000000E+01  0.250000000000E+01  0.250000000000E+01  0.250000000000E+01  0.250000000000E+01
  0.250000000000E+01  0.250000000000E+01  0.250000000000E+01  0.250000000000E+01  0.250000000000E+01  0.250000000000E+01  0.250000000000E+01
  0.250000000000E+01  0.250000000000E+01  0.250000000000E+01  0.250000000000E+01  0.250000000000E+01
  0.000000000000E+00  0.000000000000E+00  0.000000000000E+00  0.101201586758E+01  0.904659890645E+00  0.000000000000E+00  0.717002441913E+00
  0.125000000000E+01  0.188609243358E+01  0.191586535653E+01  0.176246431481E+01  0.000000000000E+00  0.961328577125E+00  0.250000000000E+01
  0.285047954584E+01  0.293121848150E+01  0.205246550326E+01  0.292817774674E+01  0.125000000000E+01  0.375000000000E+01  0.363585050272E+01
  0.395907379566E+01  0.406975391361E+01  0.250000000000E+01  0.306828197606E+01  0.397245519226E+01  0.500000000000E+01  0.375000000000E+01
  0.500000000000E+01  0.433168271247E+01  0.500000000000E+01  0.500000000000E+01  0.500000000000E+01
  0.000000000000E+00  0.000000000000E+00  0.000000000000E+00  0.443767745459E+00  0.402286944574E+00  0.000000000000E+00  0.377550369545E+00
  0.509232128688E+00  0.575832179754E+00  0.573707405285E+00  0.562554064412E+00  0.000000000000E+00  0.490563299840E+00  0.534527096543E+00
  0.556586982170E+00  0.564391577749E+00  0.522730517385E+00  0.522052000170E+00  0.441238348384E+00  0.517182331791E+00  0.524228630763E+00
  0.503687457534E+00  0.509488571178E+00  0.469814974359E+00  0.495614442414E+00  0.494483780212E+00  0.488562428343E+00  0.488961654628E+00
  0.492980744788E+00  0.499005552222E+00  0.486460936507E+00  0.484596927548E+00  0.495346592024E+00
  0.999989339439E+00  0.999989408764E+00  0.999989626853E+00  0.981541895460E+00  0.988773990194E+00  0.999989827144E+00  0.982469462434E+00
  0.984104309047E+00  0.990427545862E+00  0.990355285694E+00  0.994362997073E+00  0.999990295028E+00  0.988652071037E+00  0.100368369414E+01
  0.999769197113E+00  0.100118501219E+01  0.100834885320E+01  0.100252111043E+01  0.102982719499E+01  0.100443319461E+01  0.100199536635E+01
  0.100082056599E+01  0.100138192342E+01  0.100826277309E+01  0.100298787130E+01  0.100192389555E+01  0.100215267510E+01  0.100355660048E+01
  0.100047670023E+01  0.100056591053E+01  0.100126820231E+01  0.100066573360E+01  0.100179336279E+01
 -0.956256665456E-18 -0.415727977532E-18 -0.844214139235E-21  0.405370317398E-19  0.222396574067E-18  0.310572863906E-18  0.201901264069E-18
 -0.784429226375E-19  0.234630709606E-19 -0.161072952560E-19  0.163448854309E-18  0.171323119124E-18  0.227139310915E-18  0.358084051687E-19
  0.366495561270E-19  0.366474631644E-19  0.130011327074E-18  0.265894388579E-19 -0.274147291005E-19  0.509453095860E-19  0.422383345652E-19
  0.500974877086E-19  0.458194855783E-19  0.450247398366E-19  0.938132250959E-20  0.156475855134E-18  0.665006878785E-18  0.110006655043E-18
  0.637079136878E-19  0.795928144245E-19  0.579116786237E-18  0.286732681874E-18  0.963505710047E-18
  0.291753067754E-19 -0.745993312147E-19  0.639154650560E-19  0.898473287649E-19 -0.195211087745E-18 -0.848737674888E-19 -0.365585328361E-18
  0.261674225737E-19  0.351529285857E-19  0.525461603122E-19 -0.156425573514E-18  0.115521088621E-18 -0.989200344376E-21 -0.896503696000E-20
 -0.176369544424E-19  0.369126435834E-20 -0.445899013595E-19 -0.604273056883E-19  0.275395157125E-19 -0.127389794295E-19 -0.248185906507E-19
 -0.268901506424E-19 -0.201715031979E-19  0.108946734385E-19 -0.407723215744E-19  0.916424034055E-20  0.104154753367E-18  0.190691834577E-19
 -0.637860698948E-20 -0.212343074800E-19  0.733255148087E-19  0.254435957186E-19  0.194787240695E-18
 -0.137461216707E-18 -0.983301423732E-19 -0.153093740115E-19 -0.809522739521E-19 -0.120876746314E-18 -0.442990913731E-19 -0.335314269565E-19
 -0.568540645159E-20 -0.286903256336E-19 -0.935652710497E-20 -0.429466149985E-19 -0.146345630279E-19 -0.345053160885E-19 -0.130532472243E-20
 -0.653480331632E-20 -0.575405280531E-20 -0.224077720517E-19 -0.803358039363E-20  0.152832862711E-19  0.351321008382E-21  0.211080204869E-20
 -0.578082868566E-21 -0.292659725852E-22 -0.779881553395E-22 -0.460181236954E-20 -0.997321047795E-21  0.104827066542E-20  0.466304607164E-21
  0.357156906062E-21  0.511492265316E-23  0.252036664460E-21 -0.229937639414E-22  0.134855420110E-20
  0.294255972122E-18  0.182617099118E-18  0.226146407906E-19  0.414759675318E-18  0.522590497145E-18 -0.863710103450E-19  0.397066238886E-18
 -0.132836333953E-19  0.223210077968E-18  0.330435762196E-19  0.263513332531E-18 -0.129717436849E-18 -0.691239553109E-19  0.168852615435E-21
  0.640216902728E-19  0.217089099323E-19  0.676581404645E-19  0.543024965260E-19 -0.853172804029E-19 -0.315391558135E-20  0.128679058880E-19
 -0.269080111891E-20 -0.425035566948E-20  0.219091418933E-19  0.296575146890E-19 -0.870499443622E-20 -0.209596720524E-19  0.493351114006E-21
 -0.766181033277E-20 -0.587665857658E-20 -0.219786561076E-19 -0.170052767946E-19 -0.158140460903E-19
  0.177261948884E-18  0.530665702134E-19  0.148491952925E-19 -0.890479390012E-19 -0.748037830317E-19  0.479828168978E-19  0.350597441262E-19
  0.251820830290E-19 -0.204150579650E-19 -0.105253214428E-19 -0.184614233672E-19 -0.653633492056E-19 -0.627517407460E-19 -0.677406372162E-20
 -0.602834808861E-21 -0.115997500764E-19 -0.230074991838E-19  0.152777771634E-19 -0.531942513020E-20 -0.978171324495E-20 -0.171514576305E-20
 -0.371746665911E-20 -0.624203954021E-20 -0.115312936271E-19  0.101897214400E-19 -0.535830671076E-19 -0.264817630176E-18 -0.406552345815E-19
 -0.178104907571E-19 -0.179050558125E-19 -0.225293289180E-18 -0.106308372133E-18 -0.398989812842E-18
        15         9        16        16
        15        18        11        11
        22        15        21        21
        11         5         9         9
         5         7         2         2
        11         9        15        15
        16        21        15        15
        16        10        14        14
        18        17        11        11
        17        25        24        24
        22        18        15        15
        22        30        31        31
        30        21        23        23
        16        20        23        23
        22        27        26        26
        10         9         4         4
         7        11        13        13
        25        18        26        26
        11         7         5         5
         5         1         4         4
        17        19        13        13
        23        32        30        30
        23        20        29        29
         4         9         5         5
         4         8        10        10
        26        18        22        22
        26        28        25        25
        13        11        17        17
        13         6         7         7
        31        30        32        32
         2         1         5         5
         2         7         6         6
        14        10         8         8
        24        19        17        17
        24        25        28        28
         9        10        16        16
         3         4         1         1
        33        26        27        27
        12        13        19        19
        21        30        22        22
        16        14        20        20
        16        23        21        21
        22        31        27        27
        18        25        17        17
        26        33        28        28
         4         3         8         8
        23        29        32        32
        13        12         6         6
zone t="boundary 4 bc-4", solutiontime= 0.6000000E+02, strandid=1004, i=32, j=46, f=feblock
  0.125000000000E+01  0.219251206392E+01  0.103724302461E+01  0.500000000000E+01  0.250000000000E+01  0.375000000000E+01  0.404200324774E+01
  0.500000000000E+01  0.000000000000E+00  0.310152362409E+01  0.202479342020E+01  0.324151231464E+01  0.922061490191E+00  0.000000000000E+00
  0.299062775774E+01  0.394624082883E+01  0.500000000000E+01  0.409252726285E+01  0.500000000000E+01  0.429310310915E+01  0.175434191980E+01
  0.284428995242E+01  0.000000000000E+00  0.000000000000E+00  0.715990576545E+00  0.930412228790E+00  0.125000000000E+01  0.187029682677E+01
  0.500000000000E+01  0.375000000000E+01  0.250000000000E+01  0.000000000000E+00
  0.250000000000E+01  0.157686156160E+01  0.146289271009E+01  0.250000000000E+01  0.250000000000E+01  0.250000000000E+01  0.155830813274E+01
  0.125000000000E+01  0.250000000000E+01  0.177790177481E+01  0.477386199275E+00  0.742988685424E+00  0.308372018325E+00  0.125000000000E+01
 -0.487811078581E+00 -0.144524380962E+01 -0.125000000000E+01 -0.345533899378E+00  0.000000000000E+00  0.627766083140E+00 -0.739814786992E+00
 -0.158811787973E+01  0.000000000000E+00 -0.125000000000E+01 -0.600232012419E+00 -0.154800130438E+01 -0.250000000000E+01 -0.178862290564E+01
 -0.250000000000E+01 -0.250000000000E+01 -0.250000000000E+01 -0.250000000000E+01
  0.500000000000E+01  0.500000000000E+01  0.500000000000E+01  0.500000000000E+01  0.500000000000E+01  0.500000000000E+01  0.500000000000E+01
  0.500000000000E+01  0.500000000000E+01  0.500000000000E+01  0.500000000000E+01  0.500000000000E+01  0.500000000000E+01  0.500000000000E+01
  0.500000000000E+01  0.500000000000E+01  0.500000000000E+01  0.500000000000E+01  0.500000000000E+01  0.500000000000E+01  0.500000000000E+01
  0.500000000000E+01  0.500000000000E+01  0.500000000000E+01  0.500000000000E+01  0.500000000000E+01  0.500000000000E+01  0.500000000000E+01
  0.500000000000E+01  0.500000000000E+01  0.500000000000E+01  0.500000000000E+01
  0.488562428343E+00  0.488873127044E+00  0.490562939264E+00  0.492980744788E+00  0.486460936507E+00  0.484596927548E+00  0.485347896276E+00
  0.494163542317E+00  0.495346592024E+00  0.486528232758E+00  0.487819998460E+00  0.487068916091E+00  0.494045904395E+00  0.496127394917E+00
  0.487612357629E+00  0.483219722850E+00  0.492395510969E+00  0.487214141159E+00  0.494738985333E+00  0.487958525499E+00  0.489677249447E+00
  0.488029107105E+00  0.497246279768E+00  0.496059270892E+00  0.494951052257E+00  0.492800373677E+00  0.490002767114E+00  0.490005124553E+00
  0.491352304715E+00  0.486075475228E+00  0.490036479234E+00  0.495098264817E+00
  0.100215267510E+01  0.100152652958E+01  0.100178347660E+01  0.100047670023E+01  0.100126820231E+01  0.100066573360E+01  0.100025357725E+01
  0.100050391679E+01  0.100179336279E+01  0.100112367258E+01  0.100133045248E+01  0.100072432973E+01  0.100164366725E+01  0.100168844809E+01
  0.100096274503E+01  0.100000874853E+01  0.100082864314E+01  0.100022269190E+01  0.100062146074E+01  0.100023497311E+01  0.100174635719E+01
  0.100098855496E+01  0.100118726928E+01  0.100134171022E+01  0.100132635956E+01  0.100179873777E+01  0.100192656835E+01  0.100163748619E+01
  0.100045434508E+01  0.100058774183E+01  0.100109993754E+01  0.100176112495E+01
  0.665006878785E-18  0.655953726708E-18  0.730597339338E-18  0.637079136878E-19  0.579116786237E-18  0.286732681874E-18  0.210263300998E-18
  0.656469941187E-19  0.963505710047E-18  0.470895715566E-18  0.858235589731E-18  0.546447072324E-18  0.107846354035E-17  0.108090096900E-17
  0.764514351344E-18  0.354154437031E-18  0.133290026455E-18  0.382503632677E-18  0.880696177245E-19  0.313994131111E-18  0.127385215665E-17
  0.832395085747E-18  0.138945754790E-17  0.141233092122E-17  0.138616809329E-17  0.120947017087E-17  0.124244453679E-17  0.129339632074E-17
  0.154263750718E-18  0.572421886977E-18  0.108123486988E-17  0.137972330783E-17