title="tecplot geometry and solution file"
variables = x y z mach temperature lambda1 lambda2 lambda3 lambda4 lambda5
zone t="boundary 1 bc-1", solutiontime= 0.1000000E+02, strandid=1001, i=32, j=46, f=feblock
  0.000000000000E+00  0.000000000000E+00  0.000000000000E+00  0.000000000000E+00  0.000000000000E+00  0.000000000000E+00  0.000000000000E+00
  0.000000000000E+00  0.000000000000E+00  0.000000000000E+00  0.000000000000E+00  0.000000000000E+00  0.000000000000E+00  0.000000000000E+00
  0.000000000000E+00  0.000000000000E+00  0.000000000000E+00  0.000000000000E+00  0.000000000000E+00  0.000000000000E+00  0.000000000000E+00
  0.000000000000E+00  0.000000000000E+00  0.000000000000E+00  0.000000000000E+00  0.000000000000E+00  0.000000000000E+00  0.000000000000E+00
  0.000000000000E+00  0.000000000000E+00  0.000000000000E+00  0.000000000000E+00
  0.250000000000E+01  0.250000000000E+01  0.125000000000E+01  0.146289271009E+01  0.157686156160E+01  0.308372018325E+00  0.000000000000E+00
 -0.125000000000E+01 -0.600232012419E+00  0.250000000000E+01  0.477386199275E+00  0.742988685424E+00 -0.739814786992E+00  0.177790177481E+01
  0.155830813274E+01  0.250000000000E+01 -0.250000000000E+01 -0.154800130438E+01 -0.487811078581E+00  0.250000000000E+01  0.627766083140E+00
 -0.345533899378E+00 -0.178862290564E+01 -0.158811787973E+01  0.125000000000E+01 -0.250000000000E+01 -0.144524380962E+01  0.000000000000E+00
 -0.125000000000E+01 -0.250000000000E+01 -0.250000000000E+01 -0.250000000000E+01
  0.000000000000E+00  0.125000000000E+01  0.000000000000E+00  0.103724302461E+01  0.219251206392E+01  0.922061490191E+00  0.000000000000E+00
  0.000000000000E+00  0.715990576545E+00  0.250000000000E+01  0.202479342020E+01  0.324151231464E+01  0.175434191980E+01  0.310152362409E+01
  0.404200324774E+01  0.375000000000E+01  0.000000000000E+00  0.930412228790E+00  0.299062775774E+01  0.500000000000E+01  0.429310310915E+01
  0.409252726285E+01  0.187029682677E+01  0.284428995242E+01  0.500000000000E+01  0.125000000000E+01  0.394624082883E+01  0.500000000000E+01
  0.500000000000E+01  0.250000000000E+01  0.375000000000E+01  0.500000000000E+01
  0.000000000000E+00  0.441238348384E+00  0.000000000000E+00  0.475214987021E+00  0.460123708856E+00  0.468827815405E+00  0.000000000000E+00
  0.000000000000E+00  0.402302516798E+00  0.469814974359E+00  0.464411128942E+00  0.478714034184E+00  0.489298241651E+00  0.483068557888E+00
  0.487930073118E+00  0.488961654628E+00  0.000000000000E+00  0.464775721414E+00  0.473795651891E+00  0.495346592024E+00  0.490266103446E+00
  0.486286083902E+00  0.445717618051E+00  0.464382274634E+00  0.496127394917E+00  0.443624103833E+00  0.486964461957E+00  0.497246279768E+00
  0.496059270892E+00  0.467732355362E+00  0.488212087362E+00  0.495098264817E+00
  0.999990295028E+00  0.102982719499E+01  0.999990757903E+00  0.104247294232E+01  0.101190080524E+01  0.102520618293E+01  0.999991416700E+00
  0.999992168096E+00  0.103891223624E+01  0.100826277309E+01  0.101252833877E+01  0.100300548289E+01  0.102702865700E+01  0.100605563290E+01
  0.100244400478E+01  0.100355660048E+01  0.999992721792E+00  0.103239739214E+01  0.100459524090E+01  0.100179336279E+01  0.100260305842E+01
  0.100234966417E+01  0.101657153079E+01  0.100617544692E+01  0.100168844809E+01  0.104043292670E+01  0.100303376377E+01  0.100118726928E+01
  0.100134171022E+01  0.100976788415E+01  0.100405369352E+01  0.100176112495E+01
  0.163070571223E-18 -0.416278479876E-19 -0.646470182816E-19  0.122342688030E-19  0.736915041734E-19 -0.252560110899E-18 -0.367469587574E-18
 -0.136611152862E-18 -0.178271882603E-17  0.480153565983E-19  0.136443787717E-18  0.444346971265E-19  0.345492338146E-18  0.275101854586E-19
  0.254962714294E-18  0.167055350223E-18 -0.285357496315E-18  0.612665609323E-18  0.671859362474E-19  0.105449313658E-17  0.413063299086E-18
  0.284631764135E-18  0.249499463651E-18  0.660473442045E-19  0.119002118220E-17  0.597776315288E-18  0.283720814033E-18  0.148083866712E-17
  0.149442034951E-17  0.500995812305E-19  0.241072291801E-18  0.145844244805E-17
  0.118127480948E-18  0.292522992567E-19  0.155645504311E-18  0.108490556393E-18  0.127650983248E-19  0.176913494104E-18  0.216256125839E-19
  0.515438873198E-20 -0.107419103769E-18  0.939497793129E-20  0.586579644199E-19  0.165555090495E-19  0.113725176473E-18  0.313299547977E-20
  0.494716820730E-19  0.288051459285E-19 -0.217412054099E-20  0.157050168972E-18  0.270728201369E-19  0.216616834205E-18  0.863294918241E-19
  0.617088523959E-19  0.102764795091E-18  0.463148683909E-19  0.248312230465E-18  0.190142632649E-18  0.642362252628E-19  0.308644717075E-18
  0.308043230030E-18  0.457267824649E-19  0.620309472928E-19  0.297393472338E-18
 -0.186114562021E-19  0.146117058337E-19  0.895395870828E-19  0.148654149980E-18 -0.261169321747E-19  0.179878265471E-18  0.226143620066E-19
 -0.290402487961E-19 -0.114744920605E-18 -0.636779351057E-21  0.933688396371E-20 -0.541916392288E-19 -0.833762337978E-19 -0.411138932712E-19
 -0.302579510894E-19  0.547875693992E-21  0.227864458318E-19 -0.902412640995E-19 -0.443166726041E-19  0.189550595628E-20 -0.446137477649E-19
 -0.498356519872E-19 -0.435285899010E-19 -0.494590348574E-19 -0.287230837352E-19  0.100575339741E-19 -0.329773121673E-19 -0.341289741214E-19
 -0.223296128838E-19 -0.733197596268E-21  0.437273611860E-21  0.165373639857E-20
 -0.132587024298E-18 -0.106633583095E-18 -0.158573054822E-18 -0.158449627376E-18 -0.545382084590E-19 -0.210353261928E-18  0.138866538157E-20
 -0.168032000039E-19 -0.150172601424E-18 -0.458405617782E-21 -0.495626801405E-19 -0.559894284944E-19  0.181474075381E-19 -0.250700831127E-19
 -0.221560798750E-19 -0.879977433096E-21  0.207422853861E-19  0.194709276252E-19 -0.817375590264E-19 -0.170234364628E-19 -0.370565983135E-19
 -0.582498145448E-19 -0.139649887551E-18 -0.118106952526E-18 -0.180814551794E-19 -0.729577019236E-19 -0.771735582695E-19 -0.175358657568E-19
 -0.252970210968E-19 -0.144720382320E-18 -0.922879887576E-19 -0.253345246438E-19
 -0.620544450070E-19  0.245341369126E-20  0.266262882993E-19 -0.214038984771E-19 -0.193858220869E-19 -0.392228479785E-19  0.139324944341E-18
  0.169570269146E-19  0.559794345303E-18 -0.112568035230E-19 -0.472939230207E-19 -0.157605354925E-19 -0.141112657066E-18 -0.417929384015E-20
 -0.997298400588E-19 -0.641829262572E-19  0.331487663769E-19 -0.260613583971E-18 -0.254886520835E-19 -0.435964996792E-18 -0.166289013950E-18
 -0.112552100820E-18 -0.112739969625E-18 -0.263948950098E-19 -0.493483624085E-18 -0.271518703818E-18 -0.110775938377E-18 -0.616775584995E-18
 -0.620389283827E-18 -0.237232736791E-19 -0.951785570999E-19 -0.603956694878E-18
        12        19        11        11
        11         5        12        12
        10        14         5         5
        19        13        11        11
        19        24        13        13
        30        23        24        24
        19        12        22        22
        28        22        21        21
        11        13         6         6
         7         6         9         9
        15        12        14        14
        18        13        23        23
        15        25        21        21
        27        19        22        22
        18         8         9         9
        27        31        24        24
         4        11         6         6
         5        14        12        12
         4         2         5         5
        21        12        15        15
        14        16        15        15
        24        19        27        27
        22        29        27        27
        23        26        18        18
        17         8        18        18
         5        11         4         4
         6         3         4         4
        26        23        30        30
         5         2        10        10
        16        14        10        10
         3         6         7         7
        21        25        28        28
        29        22        28        28
         6        13         9         9
         2         4         1         1
        31        27        32        32
        25        15        20        20
        24        23        13        13
         8         7         9         9
        13        18         9         9
        31        30        24        24
        12        21        22        22
        29        32        27        27
         3         1         4         4
        26        17        18        18
        16        20        15        15
zone t="boundary 2 bc-2", solutiontime= 0.1000000E+02, strandid=1002, i=33, j=48, f=feblock
  0.500000000000E+01  0.375000000000E+01  0.250000000000E+01  0.288078410721E+01  0.125000000000E+01  0.190974100652E+01  0.326683758169E+01
  0.201431602454E+01  0.000000000000E+00  0.963108083381E+00  0.500000000000E+01  0.403552511878E+01  0.423153924130E+01  0.500000000000E+01
  0.385533350601E+01  0.500000000000E+01  0.398173246726E+01  0.315249557942E+01  0.267000324704E+01  0.154774304040E+01  0.218329375016E+01
  0.893127759452E+00  0.000000000000E+00  0.698517061619E+00  0.964171764089E+00  0.310324758057E+01  0.000000000000E+00  0.000000000000E+00
  0.125000000000E+01  0.500000000000E+01  0.375000000000E+01  0.250000000000E+01  0.000000000000E+00
 -0.250000000000E+01 -0.250000000000E+01 -0.250000000000E+01 -0.250000000000E+01 -0.250000000000E+01 -0.250000000000E+01 -0.250000000000E+01
 -0.250000000000E+01 -0.250000000000E+01 -0.250000000000E+01 -0.250000000000E+01 -0.250000000000E+01 -0.250000000000E+01 -0.250000000000E+01
 -0.250000000000E+01 -0.250000000000E+01 -0.250000000000E+01 -0.250000000000E+01 -0.250000000000E+01 -0.250000000000E+01 -0.250000000000E+01
 -0.250000000000E+01 -0.250000000000E+01 -0.250000000000E+01 -0.250000000000E+01 -0.250000000000E+01 -0.250000000000E+01 -0.250000000000E+01
 -0.250000000000E+01 -0.250000000000E+01 -0.250000000000E+01 -0.250000000000E+01 -0.250000000000E+01
  0.000000000000E+00  0.000000000000E+00  0.000000000000E+00  0.904659890645E+00  0.000000000000E+00  0.717002441913E+00  0.188609243358E+01
  0.176246431481E+01  0.000000000000E+00  0.961328577125E+00  0.125000000000E+01  0.101201586758E+01  0.191586535653E+01  0.250000000000E+01
  0.293121848150E+01  0.375000000000E+01  0.406975391361E+01  0.363585050272E+01  0.285047954584E+01  0.292817774674E+01  0.395907379566E+01
  0.205246550326E+01  0.125000000000E+01  0.306828197606E+01  0.397245519226E+01  0.433168271247E+01  0.250000000000E+01  0.375000000000E+01
  0.500000000000E+01  0.500000000000E+01  0.500000000000E+01  0.500000000000E+01  0.500000000000E+01
  0.000000000000E+00  0.000000000000E+00  0.000000000000E+00  0.380991906500E+00  0.000000000000E+00  0.343629824950E+00  0.585286157424E+00
  0.579373264282E+00  0.000000000000E+00  0.501056069140E+00  0.508460362676E+00  0.435373026572E+00  0.572640041190E+00  0.537002098944E+00
  0.568922553871E+00  0.514994090651E+00  0.508247257160E+00  0.527252853130E+00  0.567446661127E+00  0.531657143909E+00  0.505981016593E+00
  0.520795579399E+00  0.443624103833E+00  0.490663730453E+00  0.492155873749E+00  0.501390784676E+00  0.467732355362E+00  0.488212087362E+00
  0.490002767114E+00  0.491352304715E+00  0.486075475228E+00  0.490036479234E+00  0.495098264817E+00
  0.999993487379E+00  0.999993690057E+00  0.999993543115E+00  0.989539055875E+00  0.999993137282E+00  0.985524707174E+00  0.989838908967E+00
  0.991798516580E+00  0.999992721792E+00  0.984411112416E+00  0.985091906406E+00  0.984689080896E+00  0.990058464829E+00  0.100289621837E+01
  0.999855369243E+00  0.100485306649E+01  0.100121554699E+01  0.100055642931E+01  0.997896793475E+00  0.100350029570E+01  0.100058068723E+01
  0.101093276247E+01  0.104043292670E+01  0.100326475367E+01  0.100254498742E+01  0.100045587387E+01  0.100976788415E+01  0.100405369352E+01
  0.100192656835E+01  0.100045434508E+01  0.100058774183E+01  0.100109993754E+01  0.100176112495E+01
  0.150951519041E-18  0.736859631531E-18 -0.358526948309E-18  0.173566877687E-18  0.360791426920E-18  0.180016555150E-17  0.382038084030E-18
  0.378170185885E-18 -0.285357496315E-18  0.105274944905E-17  0.411842749876E-18  0.599074065730E-18  0.330233287090E-18  0.252086590594E-18
  0.181821034546E-18  0.144415831976E-18  0.114449902362E-18  0.123460906315E-18  0.196759251513E-18  0.117001303411E-18  0.172329543817E-18
  0.345737297738E-18  0.597776315288E-18  0.970916709508E-19  0.273239557744E-18  0.206140609441E-18  0.500995812305E-19  0.241072291801E-18
  0.136225930223E-17  0.173819444137E-18  0.641192726338E-18  0.120211392636E-17  0.145844244805E-17
 -0.976815267524E-19  0.275358379989E-19 -0.117749885083E-19  0.312716958032E-19  0.615347829843E-19  0.812732415882E-19  0.579033960900E-21
  0.432729229985E-19 -0.217412054099E-20  0.412180750371E-18 -0.888348147546E-19  0.118579328348E-19 -0.831467493590E-19 -0.660557407023E-19
 -0.503986445084E-19 -0.341071793886E-19 -0.416354338816E-19 -0.392547117699E-19 -0.371012470919E-19  0.493772978272E-20 -0.155353145227E-19
  0.161976957378E-18  0.190142632649E-18  0.345701264911E-19  0.323783158830E-19 -0.182549331434E-19  0.457267824649E-19  0.620309472928E-19
  0.240734753299E-18 -0.731211481535E-20  0.632406095621E-19  0.185750234284E-18  0.297393472338E-18
  0.192272777179E-19 -0.601024552186E-19  0.673615785826E-19  0.472956364790E-19 -0.300177971204E-19 -0.928519632712E-19 -0.736784875661E-20
 -0.173557596027E-19  0.227864458318E-19 -0.499751004848E-19  0.528333509951E-20 -0.704736611619E-20  0.217062916130E-20 -0.404656122704E-21
 -0.173915528220E-20  0.114294748307E-20 -0.131071398435E-20  0.184833627233E-20 -0.136576470278E-20 -0.676741071067E-21  0.190311461066E-21
 -0.166306570751E-20  0.100575339741E-19 -0.487314672676E-21 -0.859306223290E-21  0.514415498624E-21 -0.733197596268E-21  0.437273611860E-21
  0.619757086668E-21  0.328470750984E-21  0.283004697451E-21 -0.446375110471E-21  0.165373639857E-20
 -0.243772315466E-19 -0.160674331664E-18  0.832712214995E-19 -0.341635368712E-18 -0.924195656962E-19 -0.428509303101E-18 -0.125872395477E-18
 -0.255834769832E-18  0.207422853861E-19 -0.255858800355E-18 -0.152174029723E-20 -0.208371862805E-18 -0.539450681277E-19 -0.137860725272E-19
 -0.537907988429E-19 -0.113361231426E-19 -0.360091049687E-19 -0.600741143751E-19 -0.101853466108E-18 -0.139306318880E-18 -0.666187495604E-19
 -0.216474474410E-18 -0.729577019236E-19 -0.131951697617E-18 -0.728471715369E-19 -0.519943344654E-19 -0.144720382320E-18 -0.922879887576E-19
 -0.344777208691E-19 -0.179752764857E-19 -0.388827139626E-19 -0.418467294582E-19 -0.253345246438E-19
  0.179177640900E-19 -0.538296927879E-19  0.522558391858E-20 -0.112793477133E-18 -0.820442567350E-19 -0.547173401900E-18 -0.107261693443E-18
 -0.121396528786E-18  0.331487663769E-19 -0.483404427169E-18 -0.920036168042E-19 -0.201849813189E-18 -0.688142343188E-19 -0.483951787291E-19
 -0.344449793423E-19 -0.289460867994E-19 -0.166904484420E-19 -0.209006777270E-19 -0.439016480513E-19 -0.298100915139E-19 -0.466874155158E-19
 -0.155285502729E-18 -0.271518703818E-18 -0.321725847489E-19 -0.982678685993E-19 -0.574478240383E-19 -0.237232736791E-19 -0.951785570999E-19
 -0.552290920402E-18 -0.530125054357E-19 -0.240408981878E-18 -0.477699833529E-18 -0.603956694878E-18
        15         7        19        19
         8        20        19        19
        18        19        21        21
         7         4         8         8
         3         6         4         4
        19         7         8         8
        19        18        15        15
        14        13        15        15
         8        22        20        20
        27        24        22        22
        19        20        21        21
        32        26        21        21
        17        18        26        26
        17        16        15        15
        25        29        21        21
        12         7        13        13
        10         8         6         6
        25        20        24        24
         4         6         8         8
        12         2         4         4
        10        23        22        22
        26        31        17        17
        30        16        17        17
         4         7        12        12
        13        11        12        12
        21        20        25        25
        24        28        25        25
        22         8        10        10
         6         5        10        10
        31        26        32        32
         4         2         3         3
         5         6         3         3
        11        13        14        14
        22        23        27        27
        28        24        27        27
        15        13         7         7
         2        12         1         1
        29        25        33        33
        23        10         9         9
        21        26        18        18
        16        14        15        15
        18        17        15        15
        29        32        21        21
        22        24        20        20
        28        33        25        25
        11         1        12        12
        31        30        17        17
         5         9        10        10
zone t="boundary 3 bc-3", solutiontime= 0.1000000E+02, strandid=1003, i=33, j=48, f=feblock
  0.375000000000E+01  0.250000000000E+01  0.500000000000E+01  0.403552511878E+01  0.288078410721E+01  0.125000000000E+01  0.190974100652E+01
  0.500000000000E+01  0.326683758169E+01  0.423153924130E+01  0.201431602454E+01  0.000000000000E+00  0.963108083381E+00  0.500000000000E+01
  0.267000324704E+01  0.385533350601E+01  0.893127759452E+00  0.154774304040E+01  0.000000000000E+00  0.500000000000E+01  0.315249557942E+01
  0.218329375016E+01  0.398173246726E+01  0.000000000000E+00  0.698517061619E+00  0.964171764089E+00  0.125000000000E+01  0.000000000000E+00
  0.500000000000E+01  0.310324758057E+01  0.250000000000E+01  0.375000000000E+01  0.000000000000E+00
  0.250000000000E+01  0.250000000000E+01  0.250000000000E+01  0.250000000000E+01  0.250000000000E+01  0.250000000000E+01  0.250000000000E+01
  0.250000000000E+01  0.250000000000E+01  0.250000000000E+01  0.250000000000E+01  0.250000000000E+01  0.250000000000E+01  0.250000000000E+01
  0.250000000000E+01  0.250000000000E+01  0.250000000000E+01  0.250000000000E+01  0.250000000000E+01  0.250000000000E+01  0.250000000000E+01
  0.250000000000E+01  0.250000000000E+01  0.250000000000E+01  0.250000000000E+01  0.250000000000E+01  0.250000000000E+01  0.250000000000E+01
  0.250000000000E+01  0.250000000000E+01  0.250000000000E+01  0.250000000000E+01  0.250000000000E+01
  0.000000000000E+00  0.000000000000E+00  0.000000000000E+00  0.101201586758E+01  0.904659890645E+00  0.000000000000E+00  0.717002441913E+00
  0.125000000000E+01  0.188609243358E+01  0.191586535653E+01  0.176246431481E+01  0.000000000000E+00  0.961328577125E+00  0.250000000000E+01
  0.285047954584E+01  0.293121848150E+01  0.205246550326E+01  0.292817774674E+01  0.125000000000E+01  0.375000000000E+01  0.363585050272E+01
  0.395907379566E+01  0.406975391361E+01  0.250000000000E+01  0.306828197606E+01  0.397245519226E+01  0.500000000000E+01  0.375000000000E+01
  0.500000000000E+01  0.433168271247E+01  0.500000000000E+01  0.500000000000E+01  0.500000000000E+01
  0.000000000000E+00  0.000000000000E+00  0.000000000000E+00  0.443767745459E+00  0.402286944574E+00  0.000000000000E+00  0.377550369545E+00
  0.509232128688E+00  0.575832179754E+00  0.573707405285E+00  0.562554064412E+00  0.000000000000E+00  0.490563299840E+00  0.534527096543E+00
  0.556586982170E+00  0.564391577749E+00  0.522730517385E+00  0.522052000170E+00  0.441238348384E+00  0.517182331791E+00  0.524228630763E+00
  0.503687457534E+00  0.509488571178E+00  0.469814974359E+00  0.495614442414E+00  0.494483780212E+00  0.488562428343E+00  0.488961654628E+00
  0.492980744788E+00  0.499005552222E+00  0.486460936507E+00  0.484596927548E+00  0.495346592024E+00
  0.999989339439E+00  0.999989408764E+00  0.999989626853E+00  0.981541895460E+00  0.988773990194E+00  0.999989827144E+00  0.982469462434E+00
  0.984104309047E+00  0.990427545862E+00  0.990355285694E+00  0.994362997073E+00  0.999990295028E+00  0.988652071037E+00  0.100368369414E+01
  0.999769197113E+00  0.100118501219E+01  0.100834885320E+01  0.100252111043E+01  0.102982719499E+01  0.100443319461E+01  0.100199536635E+01
  0.100082056599E+01  0.100138192342E+01  0.100826277309E+01  0.100298787130E+01  0.100192389555E+01  0.100215267510E+01  0.100355660048E+01
  0.100047670023E+01  0.100056591053E+01  0.100126820231E+01  0.100066573360E+01  0.100179336279E+01
 -0.930795632629E-18 -0.391085854757E-18  0.513497046214E-20  0.791944868918E-19  0.197482331598E-18  0.322707370856E-18  0.173634397199E-18
 -0.572912056753E-19  0.521821282177E-19  0.352230407194E-20  0.185564601551E-18  0.163070571223E-18  0.190394756534E-18  0.576618432792E-19
  0.488551702848E-19  0.549221007155E-19  0.129475953075E-18  0.413089253117E-19 -0.416278479876E-19  0.662983735187E-19  0.503185492768E-19
  0.657039307762E-19  0.574770683116E-19  0.480153565983E-19  0.223583199337E-20  0.220262754601E-18  0.842139215750E-18  0.167055350223E-18
  0.776346980895E-19  0.103280784585E-18  0.706769528831E-18  0.353015327787E-18  0.105449313658E-17
  0.267804565867E-19 -0.744689591514E-19  0.610147772959E-19  0.792252639260E-19 -0.219446031939E-18 -0.813667030615E-19 -0.389378500306E-18
  0.199667545721E-19  0.308187028300E-19  0.472829612272E-19 -0.175103577940E-18  0.118127480948E-18 -0.126261373371E-19 -0.140884865625E-19
 -0.244503163126E-19 -0.590614181822E-21 -0.679136068830E-19 -0.707425291005E-19  0.292522992567E-19 -0.164064416437E-19 -0.292374306932E-19
 -0.284734703593E-19 -0.247610456881E-19  0.939497793129E-20 -0.561720774903E-19  0.222567844685E-19  0.136983429700E-18  0.288051459285E-19
 -0.808536807182E-20 -0.234410224691E-19  0.905200487302E-19  0.305778356118E-19  0.216616834205E-18
 -0.138863733929E-18 -0.995497947561E-19 -0.161313054298E-19 -0.810605567203E-19 -0.120793289914E-18 -0.458723691023E-19 -0.325116823477E-19
 -0.530570096602E-20 -0.284306356577E-19 -0.874425711402E-20 -0.426008991432E-19 -0.186114562021E-19 -0.342425532440E-19 -0.124489927036E-20
 -0.683994552160E-20 -0.573156565051E-20 -0.208429139895E-19 -0.784413376772E-20  0.146117058337E-19  0.425005166761E-21  0.209896361838E-20
 -0.227236180344E-21  0.410280847288E-23 -0.636779351057E-21 -0.499121066217E-20 -0.116372877495E-20  0.908765520245E-21  0.547875693992E-21
  0.287234077489E-21  0.672871983871E-22  0.235886212990E-21 -0.672007674236E-22  0.189550595628E-20
  0.291449946634E-18  0.182146498780E-18  0.223213467283E-19  0.415829842003E-18  0.520032372517E-18 -0.863284260984E-19  0.390126944536E-18
 -0.146366981708E-19  0.220689321394E-18  0.311045608106E-19  0.257878435937E-18 -0.132587024298E-18 -0.774794374567E-19 -0.254492731415E-21
  0.576151947232E-19  0.190320005121E-19  0.619277775824E-19  0.457836317129E-19 -0.106633583095E-18 -0.392672902787E-20  0.619501505218E-20
 -0.113170848303E-19 -0.746021401098E-20 -0.458405617782E-21  0.271215841507E-19 -0.134485624733E-19 -0.268478246723E-19 -0.879977433096E-21
 -0.923651019798E-20 -0.107495695569E-19 -0.273416204649E-19 -0.207653316098E-19 -0.170234364628E-19
  0.175649325430E-18  0.529806312219E-19  0.146520472669E-19 -0.982132164378E-19 -0.567729713276E-19  0.479226476649E-19  0.550320554404E-19
  0.214052639678E-19 -0.273172918899E-19 -0.137326622436E-19 -0.190699465779E-19 -0.620544450070E-19 -0.422041095815E-19 -0.113037921061E-19
 -0.877252607848E-21 -0.151877880428E-19 -0.145849180879E-19  0.145447138852E-19  0.245341369126E-20 -0.129385960749E-19 -0.172158750543E-20
 -0.744685888061E-20 -0.786799980315E-20 -0.112568035230E-19  0.171715490563E-19 -0.794292737045E-19 -0.336763787914E-18 -0.641829262572E-19
 -0.215718215915E-19 -0.246107618545E-19 -0.275477146710E-18 -0.130920675484E-18 -0.435964996792E-18
        15         9        16        16
        15        18        11        11
        22        15        21        21
        11         5         9         9
         5         7         2         2
        11         9        15        15
        16        21        15        15
        16        10        14        14
        18        17        11        11
        17        25        24        24
        22        18        15        15
        22        30        31        31
        30        21        23        23
        16        20        23        23
        22        27        26        26
        10         9         4         4
         7        11        13        13
        25        18        26        26
        11         7         5         5
         5         1         4         4
        17        19        13        13
        23        32        30        30
        23        20        29        29
         4         9         5         5
         4         8        10        10
        26        18        22        22
        26        28        25        25
        13        11        17        17
        13         6         7         7
        31        30        32        32
         2         1         5         5
         2         7         6         6
        14        10         8         8
        24        19        17        17
        24        25        28        28
         9        10        16        16
         3         4         1         1
        33        26        27        27
        12        13        19        19
        21        30        22        22
        16        14        20        20
        16        23        21        21
        22        31        27        27
        18        25        17        17
        26        33        28        28
         4         3         8         8
        23        29        32        32
        13        12         6         6
zone t="boundary 4 bc-4", solutiontime= 0.1000000E+02, strandid=1004, i=32, j=46, f=feblock
  0.125000000000E+01  0.219251206392E+01  0.103724302461E+01  0.500000000000E+01  0.250000000000E+01  0.375000000000E+01  0.404200324774E+01
  0.500000000000E+01  0.000000000000E+00  0.310152362409E+01  0.202479342020E+01  0.324151231464E+01  0.922061490191E+00  0.000000000000E+00
  0.299062775774E+01  0.394624082883E+01  0.500000000000E+01  0.409252726285E+01  0.500000000000E+01  0.429310310915E+01  0.175434191980E+01
  0.284428995242E+01  0.000000000000E+00  0.000000000000E+00  0.715990576545E+00  0.930412228790E+00  0.125000000000E+01  0.187029682677E+01
  0.500000000000E+01  0.375000000000E+01  0.250000000000E+01  0.000000000000E+00
  0.250000000000E+01  0.157686156160E+01  0.146289271009E+01  0.250000000000E+01  0.250000000000E+01  0.250000000000E+01  0.155830813274E+01
  0.125000000000E+01  0.250000000000E+01  0.177790177481E+01  0.477386199275E+00  0.742988685424E+00  0.308372018325E+00  0.125000000000E+01
 -0.487811078581E+00 -0.144524380962E+01 -0.125000000000E+01 -0.345533899378E+00  0.000000000000E+00  0.627766083140E+00 -0.739814786992E+00
 -0.158811787973E+01  0.000000000000E+00 -0.125000000000E+01 -0.600232012419E+00 -0.154800130438E+01 -0.250000000000E+01 -0.178862290564E+01
 -0.250000000000E+01 -0.250000000000E+01 -0.250000000000E+01 -0.250000000000E+01
  0.500000000000E+01  0.500000000000E+01  0.500000000000E+01  0.500000000000E+01  0.500000000000E+01  0.500000000000E+01  0.500000000000E+01
  0.500000000000E+01  0.500000000000E+01  0.500000000000E+01  0.500000000000E+01  0.500000000000E+01  0.500000000000E+01  0.500000000000E+01
  0.500000000000E+01  0.500000000000E+01  0.500000000000E+01  0.500000000000E+01  0.500000000000E+01  0.500000000000E+01  0.500000000000E+01
  0.500000000000E+01  0.500000000000E+01  0.500000000000E+01  0.500000000000E+01  0.500000000000E+01  0.500000000000E+01  0.500000000000E+01
  0.500000000000E+01  0.500000000000E+01  0.500000000000E+01  0.500000000000E+01
  0.488562428343E+00  0.488873127044E+00  0.490562939264E+00  0.492980744788E+00  0.486460936507E+00  0.484596927548E+00  0.485347896276E+00
  0.494163542317E+00  0.495346592024E+00  0.486528232758E+00  0.487819998460E+00  0.487068916091E+00  0.494045904395E+00  0.496127394917E+00
  0.487612357629E+00  0.483219722850E+00  0.492395510969E+00  0.487214141159E+00  0.494738985333E+00  0.487958525499E+00  0.489677249447E+00
  0.488029107105E+00  0.497246279768E+00  0.496059270892E+00  0.494951052257E+00  0.492800373677E+00  0.490002767114E+00  0.490005124553E+00
  0.491352304715E+00  0.486075475228E+00  0.490036479234E+00  0.495098264817E+00
  0.100215267510E+01  0.100152652958E+01  0.100178347660E+01  0.100047670023E+01  0.100126820231E+01  0.100066573360E+01  0.100025357725E+01
  0.100050391679E+01  0.100179336279E+01  0.100112367258E+01  0.100133045248E+01  0.100072432973E+01  0.100164366725E+01  0.100168844809E+01
  0.100096274503E+01  0.100000874853E+01  0.100082864314E+01  0.100022269190E+01  0.100062146074E+01  0.100023497311E+01  0.100174635719E+01
  0.100098855496E+01  0.100118726928E+01  0.100134171022E+01  0.100132635956E+01  0.100179873777E+01  0.100192656835E+01  0.100163748619E+01
  0.100045434508E+01  0.100058774183E+01  0.100109993754E+01  0.100176112495E+01
  0.842139215750E-18  0.791902234872E-18  0.872186353089E-18  0.776346980895E-19  0.706769528831E-18  0.353015327787E-18  0.256234990833E-18
  0.782579920454E-19  0.105449313658E-17  0.567303942699E-18  0.994235512057E-18  0.645291140748E-18  0.120107871637E-17  0.119002118220E-17
  0.866132178183E-18  0.394994471481E-18  0.148224567296E-18  0.440861480997E-18  0.989250861098E-19  0.370711922216E-18  0.140804498083E-17
  0.912269881362E-18  0.148083866712E-17  0.149442034951E-17  0.152319077026E-17  0.131776703160E-17  0.136225930223E-17  0.141406312386E-17
  0.173819444137E-18  0.641192726338E-18  0.120211392636E-17  0.145844244805E-17