title="tecplot geometry and solution file"
variables = x y z mach temperature lambda1 lambda2 lambda3 lambda4 lambda5
zone t="boundary 1 bc-1", solutiontime= 0.2000000E+02, strandid=1001, i=32, j=46, f=feblock
  0.000000000000E+00  0.000000000000E+00  0.000000000000E+00  0.000000000000E+00  0.000000000000E+00  0.000000000000E+00  0.000000000000E+00
  0.000000000000E+00  0.000000000000E+00  0.000000000000E+00  0.000000000000E+00  0.000000000000E+00  0.000000000000E+00  0.000000000000E+00
  0.000000000000E+00  0.000000000000E+00  0.000000000000E+00  0.000000000000E+00  0.000000000000E+00  0.000000000000E+00  0.000000000000E+00
  0.000000000000E+00  0.000000000000E+00  0.000000000000E+00  0.000000000000E+00  0.000000000000E+00  0.000000000000E+00  0.000000000000E+00
  0.000000000000E+00  0.000000000000E+00  0.000000000000E+00  0.000000000000E+00
  0.250000000000E+01  0.250000000000E+01  0.125000000000E+01  0.146289271009E+01  0.157686156160E+01  0.308372018325E+00  0.000000000000E+00
 -0.125000000000E+01 -0.600232012419E+00  0.250000000000E+01  0.477386199275E+00  0.742988685424E+00 -0.739814786992E+00  0.177790177481E+01
  0.155830813274E+01  0.250000000000E+01 -0.250000000000E+01 -0.154800130438E+01 -0.487811078581E+00  0.250000000000E+01  0.627766083140E+00
 -0.345533899378E+00 -0.178862290564E+01 -0.158811787973E+01  0.125000000000E+01 -0.250000000000E+01 -0.144524380962E+01  0.000000000000E+00
 -0.125000000000E+01 -0.250000000000E+01 -0.250000000000E+01 -0.250000000000E+01
  0.000000000000E+00  0.125000000000E+01  0.000000000000E+00  0.103724302461E+01  0.219251206392E+01  0.922061490191E+00  0.000000000000E+00
  0.000000000000E+00  0.715990576545E+00  0.250000000000E+01  0.202479342020E+01  0.324151231464E+01  0.175434191980E+01  0.310152362409E+01
  0.404200324774E+01  0.375000000000E+01  0.000000000000E+00  0.930412228790E+00  0.299062775774E+01  0.500000000000E+01  0.429310310915E+01
  0.409252726285E+01  0.187029682677E+01  0.284428995242E+01  0.500000000000E+01  0.125000000000E+01  0.394624082883E+01  0.500000000000E+01
  0.500000000000E+01  0.250000000000E+01  0.375000000000E+01  0.500000000000E+01
  0.000000000000E+00  0.441238348384E+00  0.000000000000E+00  0.475214987021E+00  0.460123708856E+00  0.468827815405E+00  0.000000000000E+00
  0.000000000000E+00  0.402302516798E+00  0.469814974359E+00  0.464411128942E+00  0.478714034184E+00  0.489298241651E+00  0.483068557888E+00
  0.487930073118E+00  0.488961654628E+00  0.000000000000E+00  0.464775721414E+00  0.473795651891E+00  0.495346592024E+00  0.490266103446E+00
  0.486286083902E+00  0.445717618051E+00  0.464382274634E+00  0.496127394917E+00  0.443624103833E+00  0.486964461957E+00  0.497246279768E+00
  0.496059270892E+00  0.467732355362E+00  0.488212087362E+00  0.495098264817E+00
  0.999990295028E+00  0.102982719499E+01  0.999990757903E+00  0.104247294232E+01  0.101190080524E+01  0.102520618293E+01  0.999991416700E+00
  0.999992168096E+00  0.103891223624E+01  0.100826277309E+01  0.101252833877E+01  0.100300548289E+01  0.102702865700E+01  0.100605563290E+01
  0.100244400478E+01  0.100355660048E+01  0.999992721792E+00  0.103239739214E+01  0.100459524090E+01  0.100179336279E+01  0.100260305842E+01
  0.100234966417E+01  0.101657153079E+01  0.100617544692E+01  0.100168844809E+01  0.104043292670E+01  0.100303376377E+01  0.100118726928E+01
  0.100134171022E+01  0.100976788415E+01  0.100405369352E+01  0.100176112495E+01
  0.168681660079E-18 -0.248841636256E-19 -0.824655096785E-19 -0.360808541174E-19  0.704767122027E-19 -0.356803370749E-18 -0.352615408902E-18
 -0.125137332742E-18 -0.175763155511E-17  0.492361773090E-19  0.110513740234E-18  0.966336944982E-20  0.336419492148E-18 -0.439296678376E-21
  0.145543713167E-18  0.100249516956E-18 -0.289086649647E-18  0.660803964409E-18  0.565010316492E-19  0.978736515494E-18  0.291728055172E-18
  0.181947117584E-18  0.222519395207E-18  0.471721889567E-19  0.109440664086E-17  0.609675076374E-18  0.193141569140E-18  0.140360786370E-17
  0.142183578746E-17  0.384407532851E-19  0.179091223059E-18  0.138708335992E-17
  0.115770797423E-18  0.269669445101E-19  0.138946648039E-18  0.859093504532E-19  0.128703653575E-19  0.122507564925E-18  0.176878422379E-19
  0.326745760959E-20 -0.115024175446E-18  0.982012784308E-20  0.540509781221E-19  0.100905315002E-19  0.112567746649E-18 -0.179861547224E-20
  0.274696563887E-19  0.166376474697E-19 -0.373073340528E-20  0.164085716311E-18  0.235892501140E-19  0.199305155713E-18  0.598792341589E-19
  0.394554216602E-19  0.966404223116E-19  0.395969237196E-19  0.225811235237E-18  0.191508769082E-18  0.441414813461E-19  0.290930229061E-18
  0.295003164871E-18  0.397622598561E-19  0.471423427040E-19  0.287174217807E-18
 -0.157182074881E-19  0.151835221028E-19  0.100217210119E-18  0.165342331326E-18 -0.266356588254E-19  0.158567233559E-18  0.185665035475E-19
 -0.268030631370E-19 -0.124776354933E-18 -0.158713628669E-21  0.257156713323E-20 -0.569781685189E-19 -0.970926950157E-19 -0.429540189786E-19
 -0.306930817167E-19  0.479366716985E-21  0.241676047275E-19 -0.932653734774E-19 -0.501431003852E-19  0.129223457865E-20 -0.449073327790E-19
 -0.500551458481E-19 -0.491760840965E-19 -0.533967071498E-19 -0.255184744237E-19  0.106012506065E-19 -0.331559768362E-19 -0.294927768438E-19
 -0.197432199140E-19 -0.742899989046E-21  0.591101127154E-21  0.151299258439E-20
 -0.129028217003E-18 -0.868047758434E-19 -0.149814263337E-18 -0.122386303773E-18 -0.314084816377E-19 -0.159531023907E-18  0.265067752936E-20
 -0.185461706326E-19 -0.130823256496E-18  0.205069427839E-19 -0.241536141345E-19 -0.443505779260E-19  0.325632854873E-19 -0.115503102285E-19
 -0.183230484930E-19  0.161440203691E-20  0.203374746949E-19  0.186483313697E-19 -0.687060887514E-19 -0.154847859841E-19 -0.346298212720E-19
 -0.527077970399E-19 -0.135186480415E-18 -0.109230978389E-18 -0.166458788657E-19 -0.723496610335E-19 -0.703790198253E-19 -0.160763914488E-19
 -0.240063663156E-19 -0.138060780323E-18 -0.850625723777E-19 -0.235541187197E-19
 -0.638909876497E-19 -0.598360553653E-20  0.504793677115E-19 -0.168931873035E-21 -0.203889152135E-19  0.854875205561E-20  0.137478819193E-18
  0.128389018249E-19  0.553828445211E-18 -0.128296085402E-19 -0.385494801455E-19 -0.243221090738E-20 -0.139436956973E-18  0.615965933836E-20
 -0.543631994078E-19 -0.366619476979E-19  0.341265155482E-19 -0.280811739127E-18 -0.219343887769E-19 -0.405723870260E-18 -0.115445176826E-18
 -0.699010347408E-19 -0.102048112779E-18 -0.192456673748E-19 -0.454257051072E-18 -0.277379186871E-18 -0.735173628674E-19 -0.585215957513E-18
 -0.591356050360E-18 -0.194197463001E-19 -0.700598356929E-19 -0.575809976380E-18
        12        19        11        11
        11         5        12        12
        10        14         5         5
        19        13        11        11
        19        24        13        13
        30        23        24        24
        19        12        22        22
        28        22        21        21
        11        13         6         6
         7         6         9         9
        15        12        14        14
        18        13        23        23
        15        25        21        21
        27        19        22        22
        18         8         9         9
        27        31        24        24
         4        11         6         6
         5        14        12        12
         4         2         5         5
        21        12        15        15
        14        16        15        15
        24        19        27        27
        22        29        27        27
        23        26        18        18
        17         8        18        18
         5        11         4         4
         6         3         4         4
        26        23        30        30
         5         2        10        10
        16        14        10        10
         3         6         7         7
        21        25        28        28
        29        22        28        28
         6        13         9         9
         2         4         1         1
        31        27        32        32
        25        15        20        20
        24        23        13        13
         8         7         9         9
        13        18         9         9
        31        30        24        24
        12        21        22        22
        29        32        27        27
         3         1         4         4
        26        17        18        18
        16        20        15        15
zone t="boundary 2 bc-2", solutiontime= 0.2000000E+02, strandid=1002, i=33, j=48, f=feblock
  0.500000000000E+01  0.375000000000E+01  0.250000000000E+01  0.288078410721E+01  0.125000000000E+01  0.190974100652E+01  0.326683758169E+01
  0.201431602454E+01  0.000000000000E+00  0.963108083381E+00  0.500000000000E+01  0.403552511878E+01  0.423153924130E+01  0.500000000000E+01
  0.385533350601E+01  0.500000000000E+01  0.398173246726E+01  0.315249557942E+01  0.267000324704E+01  0.154774304040E+01  0.218329375016E+01
  0.893127759452E+00  0.000000000000E+00  0.698517061619E+00  0.964171764089E+00  0.310324758057E+01  0.000000000000E+00  0.000000000000E+00
  0.125000000000E+01  0.500000000000E+01  0.375000000000E+01  0.250000000000E+01  0.000000000000E+00
 -0.250000000000E+01 -0.250000000000E+01 -0.250000000000E+01 -0.250000000000E+01 -0.250000000000E+01 -0.250000000000E+01 -0.250000000000E+01
 -0.250000000000E+01 -0.250000000000E+01 -0.250000000000E+01 -0.250000000000E+01 -0.250000000000E+01 -0.250000000000E+01 -0.250000000000E+01
 -0.250000000000E+01 -0.250000000000E+01 -0.250000000000E+01 -0.250000000000E+01 -0.250000000000E+01 -0.250000000000E+01 -0.250000000000E+01
 -0.250000000000E+01 -0.250000000000E+01 -0.250000000000E+01 -0.250000000000E+01 -0.250000000000E+01 -0.250000000000E+01 -0.250000000000E+01
 -0.250000000000E+01 -0.250000000000E+01 -0.250000000000E+01 -0.250000000000E+01 -0.250000000000E+01
  0.000000000000E+00  0.000000000000E+00  0.000000000000E+00  0.904659890645E+00  0.000000000000E+00  0.717002441913E+00  0.188609243358E+01
  0.176246431481E+01  0.000000000000E+00  0.961328577125E+00  0.125000000000E+01  0.101201586758E+01  0.191586535653E+01  0.250000000000E+01
  0.293121848150E+01  0.375000000000E+01  0.406975391361E+01  0.363585050272E+01  0.285047954584E+01  0.292817774674E+01  0.395907379566E+01
  0.205246550326E+01  0.125000000000E+01  0.306828197606E+01  0.397245519226E+01  0.433168271247E+01  0.250000000000E+01  0.375000000000E+01
  0.500000000000E+01  0.500000000000E+01  0.500000000000E+01  0.500000000000E+01  0.500000000000E+01
  0.000000000000E+00  0.000000000000E+00  0.000000000000E+00  0.380991906500E+00  0.000000000000E+00  0.343629824950E+00  0.585286157424E+00
  0.579373264282E+00  0.000000000000E+00  0.501056069140E+00  0.508460362676E+00  0.435373026572E+00  0.572640041190E+00  0.537002098944E+00
  0.568922553871E+00  0.514994090651E+00  0.508247257160E+00  0.527252853130E+00  0.567446661127E+00  0.531657143909E+00  0.505981016593E+00
  0.520795579399E+00  0.443624103833E+00  0.490663730453E+00  0.492155873749E+00  0.501390784676E+00  0.467732355362E+00  0.488212087362E+00
  0.490002767114E+00  0.491352304715E+00  0.486075475228E+00  0.490036479234E+00  0.495098264817E+00
  0.999993487379E+00  0.999993690057E+00  0.999993543115E+00  0.989539055875E+00  0.999993137282E+00  0.985524707174E+00  0.989838908967E+00
  0.991798516580E+00  0.999992721792E+00  0.984411112416E+00  0.985091906406E+00  0.984689080896E+00  0.990058464829E+00  0.100289621837E+01
  0.999855369243E+00  0.100485306649E+01  0.100121554699E+01  0.100055642931E+01  0.997896793475E+00  0.100350029570E+01  0.100058068723E+01
  0.101093276247E+01  0.104043292670E+01  0.100326475367E+01  0.100254498742E+01  0.100045587387E+01  0.100976788415E+01  0.100405369352E+01
  0.100192656835E+01  0.100045434508E+01  0.100058774183E+01  0.100109993754E+01  0.100176112495E+01
  0.143738415359E-18  0.726813366958E-18 -0.367452996453E-18  0.143923738134E-18  0.356252749203E-18  0.179940379717E-17  0.363961407114E-18
  0.352423399796E-18 -0.289086649647E-18  0.103280980200E-17  0.387800461721E-18  0.590181714447E-18  0.307880041006E-18  0.235642706115E-18
  0.168713498746E-18  0.131809035103E-18  0.101998521507E-18  0.113973878215E-18  0.191902711459E-18  0.988023700681E-19  0.140597078134E-18
  0.344451355464E-18  0.609675076374E-18  0.983685379037E-19  0.220080329893E-18  0.175906491434E-18  0.384407532851E-19  0.179091223059E-18
  0.124092657538E-17  0.154258264784E-18  0.570405602707E-18  0.107683742241E-17  0.138708335992E-17
 -0.957199943726E-19  0.276103287193E-19 -0.121574801893E-19  0.324275990248E-19  0.606818322984E-19  0.832085618442E-19  0.503080339260E-20
  0.423900470737E-19 -0.373073340528E-20  0.407915364427E-18 -0.844489245763E-19  0.190213768538E-19 -0.783581786920E-19 -0.617494664041E-19
 -0.452617989571E-19 -0.308808862555E-19 -0.380724174114E-19 -0.338851099897E-19 -0.308627121614E-19  0.239572708955E-20 -0.167279127113E-19
  0.162940486024E-18  0.191508769082E-18  0.341420562429E-19  0.235557265603E-19 -0.182421109995E-19  0.397622598561E-19  0.471423427040E-19
  0.226203638301E-18 -0.683158843971E-20  0.567622050677E-19  0.170913037318E-18  0.287174217807E-18
  0.189834264738E-19 -0.600820657412E-19  0.673930832057E-19  0.467738629077E-19 -0.300589857462E-19 -0.935349693741E-19 -0.730606718216E-20
 -0.178662322212E-19  0.241676047275E-19 -0.493967867204E-19  0.529965681240E-20 -0.718439780703E-20  0.251623030923E-20 -0.319082848169E-21
 -0.143256911606E-20  0.118311763903E-20 -0.110223608571E-20  0.219222938894E-20 -0.120096763933E-20 -0.658395805089E-21  0.772059448589E-22
 -0.835075711551E-21  0.106012506065E-19 -0.183937714985E-21 -0.119234559944E-20  0.568492398472E-21 -0.742899989046E-21  0.591101127154E-21
  0.495811141765E-21  0.473565927683E-21  0.418926119391E-21 -0.482826504209E-21  0.151299258439E-20
 -0.244305273324E-19 -0.160540772074E-18  0.835392581153E-19 -0.340981952438E-18 -0.922105798940E-19 -0.427547458061E-18 -0.124397940258E-18
 -0.252267599754E-18  0.203374746949E-19 -0.253981029289E-18 -0.166280425742E-20 -0.207704902273E-18 -0.538638534408E-19 -0.130765236163E-19
 -0.525219818016E-19 -0.102366383104E-19 -0.335755626529E-19 -0.579401796489E-19 -0.997826532236E-19 -0.134888004448E-18 -0.643831246654E-19
 -0.209379555665E-18 -0.723496610335E-19 -0.124667633308E-18 -0.682645515812E-19 -0.498820223760E-19 -0.138060780323E-18 -0.850625723777E-19
 -0.322619270413E-19 -0.158918700351E-19 -0.348668254530E-19 -0.375460326476E-19 -0.235541187197E-19
  0.189160798682E-19 -0.540517379692E-19  0.562360171997E-20 -0.104409894943E-18 -0.817718549540E-19 -0.549689334968E-18 -0.103584867291E-18
 -0.113324084869E-18  0.341265155482E-19 -0.476520096003E-18 -0.862476457787E-19 -0.202767421199E-18 -0.637407694595E-19 -0.453166124374E-19
 -0.326415988337E-19 -0.265329820654E-19 -0.143993351089E-19 -0.203898125703E-19 -0.453597551335E-19 -0.240798405090E-19 -0.359680313517E-19
 -0.156551665651E-18 -0.277379186871E-18 -0.340494703834E-19 -0.777270406073E-19 -0.475632909136E-19 -0.194197463001E-19 -0.700598356929E-19
 -0.504932962939E-18 -0.468705571887E-19 -0.213980983771E-18 -0.429294204762E-18 -0.575809976380E-18
        15         7        19        19
         8        20        19        19
        18        19        21        21
         7         4         8         8
         3         6         4         4
        19         7         8         8
        19        18        15        15
        14        13        15        15
         8        22        20        20
        27        24        22        22
        19        20        21        21
        32        26        21        21
        17        18        26        26
        17        16        15        15
        25        29        21        21
        12         7        13        13
        10         8         6         6
        25        20        24        24
         4         6         8         8
        12         2         4         4
        10        23        22        22
        26        31        17        17
        30        16        17        17
         4         7        12        12
        13        11        12        12
        21        20        25        25
        24        28        25        25
        22         8        10        10
         6         5        10        10
        31        26        32        32
         4         2         3         3
         5         6         3         3
        11        13        14        14
        22        23        27        27
        28        24        27        27
        15        13         7         7
         2        12         1         1
        29        25        33        33
        23        10         9         9
        21        26        18        18
        16        14        15        15
        18        17        15        15
        29        32        21        21
        22        24        20        20
        28        33        25        25
        11         1        12        12
        31        30        17        17
         5         9        10        10
zone t="boundary 3 bc-3", solutiontime= 0.2000000E+02, strandid=1003, i=33, j=48, f=feblock
  0.375000000000E+01  0.250000000000E+01  0.500000000000E+01  0.403552511878E+01  0.288078410721E+01  0.125000000000E+01  0.190974100652E+01
  0.500000000000E+01  0.326683758169E+01  0.423153924130E+01  0.201431602454E+01  0.000000000000E+00  0.963108083381E+00  0.500000000000E+01
  0.267000324704E+01  0.385533350601E+01  0.893127759452E+00  0.154774304040E+01  0.000000000000E+00  0.500000000000E+01  0.315249557942E+01
  0.218329375016E+01  0.398173246726E+01  0.000000000000E+00  0.698517061619E+00  0.964171764089E+00  0.125000000000E+01  0.000000000000E+00
  0.500000000000E+01  0.310324758057E+01  0.250000000000E+01  0.375000000000E+01  0.000000000000E+00
  0.250000000000E+01  0.250000000000E+01  0.250000000000E+01  0.250000000000E+01  0.250000000000E+01  0.250000000000E+01  0.250000000000E+01
  0.250000000000E+01  0.250000000000E+01  0.250000000000E+01  0.250000000000E+01  0.250000000000E+01  0.250000000000E+01  0.250000000000E+01
  0.250000000000E+01  0.250000000000E+01  0.250000000000E+01  0.250000000000E+01  0.250000000000E+01  0.250000000000E+01  0.250000000000E+01
  0.250000000000E+01  0.250000000000E+01  0.250000000000E+01  0.250000000000E+01  0.250000000000E+01  0.250000000000E+01  0.250000000000E+01
  0.250000000000E+01  0.250000000000E+01  0.250000000000E+01  0.250000000000E+01  0.250000000000E+01
  0.000000000000E+00  0.000000000000E+00  0.000000000000E+00  0.101201586758E+01  0.904659890645E+00  0.000000000000E+00  0.717002441913E+00
  0.125000000000E+01  0.188609243358E+01  0.191586535653E+01  0.176246431481E+01  0.000000000000E+00  0.961328577125E+00  0.250000000000E+01
  0.285047954584E+01  0.293121848150E+01  0.205246550326E+01  0.292817774674E+01  0.125000000000E+01  0.375000000000E+01  0.363585050272E+01
  0.395907379566E+01  0.406975391361E+01  0.250000000000E+01  0.306828197606E+01  0.397245519226E+01  0.500000000000E+01  0.375000000000E+01
  0.500000000000E+01  0.433168271247E+01  0.500000000000E+01  0.500000000000E+01  0.500000000000E+01
  0.000000000000E+00  0.000000000000E+00  0.000000000000E+00  0.443767745459E+00  0.402286944574E+00  0.000000000000E+00  0.377550369545E+00
  0.509232128688E+00  0.575832179754E+00  0.573707405285E+00  0.562554064412E+00  0.000000000000E+00  0.490563299840E+00  0.534527096543E+00
  0.556586982170E+00  0.564391577749E+00  0.522730517385E+00  0.522052000170E+00  0.441238348384E+00  0.517182331791E+00  0.524228630763E+00
  0.503687457534E+00  0.509488571178E+00  0.469814974359E+00  0.495614442414E+00  0.494483780212E+00  0.488562428343E+00  0.488961654628E+00
  0.492980744788E+00  0.499005552222E+00  0.486460936507E+00  0.484596927548E+00  0.495346592024E+00
  0.999989339439E+00  0.999989408764E+00  0.999989626853E+00  0.981541895460E+00  0.988773990194E+00  0.999989827144E+00  0.982469462434E+00
  0.984104309047E+00  0.990427545862E+00  0.990355285694E+00  0.994362997073E+00  0.999990295028E+00  0.988652071037E+00  0.100368369414E+01
  0.999769197113E+00  0.100118501219E+01  0.100834885320E+01  0.100252111043E+01  0.102982719499E+01  0.100443319461E+01  0.100199536635E+01
  0.100082056599E+01  0.100138192342E+01  0.100826277309E+01  0.100298787130E+01  0.100192389555E+01  0.100215267510E+01  0.100355660048E+01
  0.100047670023E+01  0.100056591053E+01  0.100126820231E+01  0.100066573360E+01  0.100179336279E+01
 -0.956243551804E-18 -0.414697713214E-18 -0.763863341800E-21  0.410452647033E-19  0.222408262375E-18  0.312573518366E-18  0.201644218942E-18
 -0.789448815919E-19  0.219764898777E-19 -0.167641578573E-19  0.166988139939E-18  0.168681660079E-18  0.216532040418E-18  0.356102123569E-19
  0.362930000730E-19  0.364074097892E-19  0.128372149092E-18  0.292277314847E-19 -0.248841636256E-19  0.506528014912E-19  0.439401962839E-19
  0.484294250912E-19  0.462246184993E-19  0.492361773090E-19  0.809804823183E-20  0.150109728556E-18  0.660683136122E-18  0.100249516956E-18
  0.636117592971E-19  0.783637690925E-19  0.577062179856E-18  0.284084163604E-18  0.978736515494E-18
  0.290652963869E-19 -0.749443837312E-19  0.638890395504E-19  0.894131559294E-19 -0.197214792456E-18 -0.840890641192E-19 -0.371689693202E-18
  0.261813503177E-19  0.351078631829E-19  0.524980518832E-19 -0.157764097365E-18  0.115770797423E-18 -0.102017158216E-19 -0.892519108075E-20
 -0.172415003940E-19  0.378241809258E-20 -0.518519035816E-19 -0.597744367432E-19  0.269669445101E-19 -0.127232317669E-19 -0.242912819477E-19
 -0.268516113176E-19 -0.199990350584E-19  0.982012784308E-20 -0.445334515407E-19  0.926467058613E-20  0.104417320940E-18  0.166376474697E-19
 -0.632975602865E-20 -0.214812808954E-19  0.735087355164E-19  0.252794818275E-19  0.199305155713E-18
 -0.137546108612E-18 -0.985396902736E-19 -0.153228506728E-19 -0.808344343869E-19 -0.120887017814E-18 -0.444290810950E-19 -0.331187520729E-19
 -0.569545335154E-20 -0.287976711247E-19 -0.938840669264E-20 -0.429773813762E-19 -0.157182074881E-19 -0.340616055679E-19 -0.130847527597E-20
 -0.662031180672E-20 -0.577299168122E-20 -0.215138738882E-19 -0.798939282401E-20  0.151835221028E-19  0.352906793398E-21  0.207088266639E-20
 -0.650154063100E-21 -0.380965743490E-22 -0.158713628669E-21 -0.428677553631E-20 -0.106373472433E-20  0.100406042806E-20  0.479366716985E-21
  0.354604519788E-21 -0.111002558759E-22  0.232877941734E-21 -0.245352883242E-22  0.129223457865E-20
  0.294289098241E-18  0.182413215827E-18  0.226824236685E-19  0.414478975914E-18  0.521686664790E-18 -0.862177346949E-19  0.398060268092E-18
 -0.133276329591E-19  0.222849515254E-18  0.329247426786E-19  0.263404458324E-18 -0.129028217003E-18 -0.664143576686E-19  0.163342347970E-21
  0.635881295317E-19  0.216853410727E-19  0.710024396552E-19  0.540075584648E-19 -0.868047758434E-19 -0.320374385745E-20  0.129925666440E-19
 -0.294543168424E-20 -0.417171456416E-20  0.205069427839E-19  0.323662891065E-19 -0.858254118810E-20 -0.209263245358E-19  0.161440203691E-20
 -0.763496355854E-20 -0.580242031758E-20 -0.218494651289E-19 -0.169374718691E-19 -0.154847859841E-19
  0.177233409030E-18  0.529721559224E-19  0.148342882643E-19 -0.891624217903E-19 -0.744560248757E-19  0.478137129517E-19  0.368524630467E-19
  0.253291703449E-19 -0.198351280485E-19 -0.102834480181E-19 -0.194644310360E-19 -0.638909876497E-19 -0.569533338055E-19 -0.673402431670E-20
 -0.533825830902E-21 -0.115515779345E-19 -0.209203377087E-19  0.141107238110E-19 -0.598360553653E-20 -0.969758915708E-20 -0.251372259250E-20
 -0.313939738330E-20 -0.646494438523E-20 -0.128296085402E-19  0.112438849902E-19 -0.512543631264E-19 -0.263301398179E-18 -0.366619476979E-19
 -0.178020098356E-19 -0.174084372410E-19 -0.224630875885E-18 -0.105309067707E-18 -0.405723870260E-18
        15         9        16        16
        15        18        11        11
        22        15        21        21
        11         5         9         9
         5         7         2         2
        11         9        15        15
        16        21        15        15
        16        10        14        14
        18        17        11        11
        17        25        24        24
        22        18        15        15
        22        30        31        31
        30        21        23        23
        16        20        23        23
        22        27        26        26
        10         9         4         4
         7        11        13        13
        25        18        26        26
        11         7         5         5
         5         1         4         4
        17        19        13        13
        23        32        30        30
        23        20        29        29
         4         9         5         5
         4         8        10        10
        26        18        22        22
        26        28        25        25
        13        11        17        17
        13         6         7         7
        31        30        32        32
         2         1         5         5
         2         7         6         6
        14        10         8         8
        24        19        17        17
        24        25        28        28
         9        10        16        16
         3         4         1         1
        33        26        27        27
        12        13        19        19
        21        30        22        22
        16        14        20        20
        16        23        21        21
        22        31        27        27
        18        25        17        17
        26        33        28        28
         4         3         8         8
        23        29        32        32
        13        12         6         6
zone t="boundary 4 bc-4", solutiontime= 0.2000000E+02, strandid=1004, i=32, j=46, f=feblock
  0.125000000000E+01  0.219251206392E+01  0.103724302461E+01  0.500000000000E+01  0.250000000000E+01  0.375000000000E+01  0.404200324774E+01
  0.500000000000E+01  0.000000000000E+00  0.310152362409E+01  0.202479342020E+01  0.324151231464E+01  0.922061490191E+00  0.000000000000E+00
  0.299062775774E+01  0.394624082883E+01  0.500000000000E+01  0.409252726285E+01  0.500000000000E+01  0.429310310915E+01  0.175434191980E+01
  0.284428995242E+01  0.000000000000E+00  0.000000000000E+00  0.715990576545E+00  0.930412228790E+00  0.125000000000E+01  0.187029682677E+01
  0.500000000000E+01  0.375000000000E+01  0.250000000000E+01  0.000000000000E+00
  0.250000000000E+01  0.157686156160E+01  0.146289271009E+01  0.250000000000E+01  0.250000000000E+01  0.250000000000E+01  0.155830813274E+01
  0.125000000000E+01  0.250000000000E+01  0.177790177481E+01  0.477386199275E+00  0.742988685424E+00  0.308372018325E+00  0.125000000000E+01
 -0.487811078581E+00 -0.144524380962E+01 -0.125000000000E+01 -0.345533899378E+00  0.000000000000E+00  0.627766083140E+00 -0.739814786992E+00
 -0.158811787973E+01  0.000000000000E+00 -0.125000000000E+01 -0.600232012419E+00 -0.154800130438E+01 -0.250000000000E+01 -0.178862290564E+01
 -0.250000000000E+01 -0.250000000000E+01 -0.250000000000E+01 -0.250000000000E+01
  0.500000000000E+01  0.500000000000E+01  0.500000000000E+01  0.500000000000E+01  0.500000000000E+01  0.500000000000E+01  0.500000000000E+01
  0.500000000000E+01  0.500000000000E+01  0.500000000000E+01  0.500000000000E+01  0.500000000000E+01  0.500000000000E+01  0.500000000000E+01
  0.500000000000E+01  0.500000000000E+01  0.500000000000E+01  0.500000000000E+01  0.500000000000E+01  0.500000000000E+01  0.500000000000E+01
  0.500000000000E+01  0.500000000000E+01  0.500000000000E+01  0.500000000000E+01  0.500000000000E+01  0.500000000000E+01  0.500000000000E+01
  0.500000000000E+01  0.500000000000E+01  0.500000000000E+01  0.500000000000E+01
  0.488562428343E+00  0.488873127044E+00  0.490562939264E+00  0.492980744788E+00  0.486460936507E+00  0.484596927548E+00  0.485347896276E+00
  0.494163542317E+00  0.495346592024E+00  0.486528232758E+00  0.487819998460E+00  0.487068916091E+00  0.494045904395E+00  0.496127394917E+00
  0.487612357629E+00  0.483219722850E+00  0.492395510969E+00  0.487214141159E+00  0.494738985333E+00  0.487958525499E+00  0.489677249447E+00
  0.488029107105E+00  0.497246279768E+00  0.496059270892E+00  0.494951052257E+00  0.492800373677E+00  0.490002767114E+00  0.490005124553E+00
  0.491352304715E+00  0.486075475228E+00  0.490036479234E+00  0.495098264817E+00
  0.100215267510E+01  0.100152652958E+01  0.100178347660E+01  0.100047670023E+01  0.100126820231E+01  0.100066573360E+01  0.100025357725E+01
  0.100050391679E+01  0.100179336279E+01  0.100112367258E+01  0.100133045248E+01  0.100072432973E+01  0.100164366725E+01  0.100168844809E+01
  0.100096274503E+01  0.100000874853E+01  0.100082864314E+01  0.100022269190E+01  0.100062146074E+01  0.100023497311E+01  0.100174635719E+01
  0.100098855496E+01  0.100118726928E+01  0.100134171022E+01  0.100132635956E+01  0.100179873777E+01  0.100192656835E+01  0.100163748619E+01
  0.100045434508E+01  0.100058774183E+01  0.100109993754E+01  0.100176112495E+01
  0.660683136122E-18  0.654538982464E-18  0.733044583345E-18  0.636117592971E-19  0.577062179856E-18  0.284084163604E-18  0.208514112450E-18
  0.658800213011E-19  0.978736515494E-18  0.470236366221E-18  0.859583622487E-18  0.543281530381E-18  0.108750897375E-17  0.109440664086E-17
  0.762841479260E-18  0.353511750832E-18  0.133556271424E-18  0.380339253798E-18  0.883846765128E-19  0.311803586729E-18  0.127634056826E-17
  0.832199078727E-18  0.140360786370E-17  0.142183578746E-17  0.139472124226E-17  0.121121224995E-17  0.124092657538E-17  0.129186168252E-17
  0.154258264784E-18  0.570405602707E-18  0.107683742241E-17  0.138708335992E-17