title="tecplot geometry and solution file"
variables = x y z mach temperature lambda1 lambda2 lambda3 lambda4 lambda5
zone t="boundary 1 bc-1", solutiontime= 0.5000000E+02, strandid=1001, i=32, j=46, f=feblock
  0.000000000000E+00  0.000000000000E+00  0.000000000000E+00  0.000000000000E+00  0.000000000000E+00  0.000000000000E+00  0.000000000000E+00
  0.000000000000E+00  0.000000000000E+00  0.000000000000E+00  0.000000000000E+00  0.000000000000E+00  0.000000000000E+00  0.000000000000E+00
  0.000000000000E+00  0.000000000000E+00  0.000000000000E+00  0.000000000000E+00  0.000000000000E+00  0.000000000000E+00  0.000000000000E+00
  0.000000000000E+00  0.000000000000E+00  0.000000000000E+00  0.000000000000E+00  0.000000000000E+00  0.000000000000E+00  0.000000000000E+00
  0.000000000000E+00  0.000000000000E+00  0.000000000000E+00  0.000000000000E+00
  0.250000000000E+01  0.250000000000E+01  0.125000000000E+01  0.146289271009E+01  0.157686156160E+01  0.308372018325E+00  0.000000000000E+00
 -0.125000000000E+01 -0.600232012419E+00  0.250000000000E+01  0.477386199275E+00  0.742988685424E+00 -0.739814786992E+00  0.177790177481E+01
  0.155830813274E+01  0.250000000000E+01 -0.250000000000E+01 -0.154800130438E+01 -0.487811078581E+00  0.250000000000E+01  0.627766083140E+00
 -0.345533899378E+00 -0.178862290564E+01 -0.158811787973E+01  0.125000000000E+01 -0.250000000000E+01 -0.144524380962E+01  0.000000000000E+00
 -0.125000000000E+01 -0.250000000000E+01 -0.250000000000E+01 -0.250000000000E+01
  0.000000000000E+00  0.125000000000E+01  0.000000000000E+00  0.103724302461E+01  0.219251206392E+01  0.922061490191E+00  0.000000000000E+00
  0.000000000000E+00  0.715990576545E+00  0.250000000000E+01  0.202479342020E+01  0.324151231464E+01  0.175434191980E+01  0.310152362409E+01
  0.404200324774E+01  0.375000000000E+01  0.000000000000E+00  0.930412228790E+00  0.299062775774E+01  0.500000000000E+01  0.429310310915E+01
  0.409252726285E+01  0.187029682677E+01  0.284428995242E+01  0.500000000000E+01  0.125000000000E+01  0.394624082883E+01  0.500000000000E+01
  0.500000000000E+01  0.250000000000E+01  0.375000000000E+01  0.500000000000E+01
  0.000000000000E+00  0.441238348384E+00  0.000000000000E+00  0.475214987021E+00  0.460123708856E+00  0.468827815405E+00  0.000000000000E+00
  0.000000000000E+00  0.402302516798E+00  0.469814974359E+00  0.464411128942E+00  0.478714034184E+00  0.489298241651E+00  0.483068557888E+00
  0.487930073118E+00  0.488961654628E+00  0.000000000000E+00  0.464775721414E+00  0.473795651891E+00  0.495346592024E+00  0.490266103446E+00
  0.486286083902E+00  0.445717618051E+00  0.464382274634E+00  0.496127394917E+00  0.443624103833E+00  0.486964461957E+00  0.497246279768E+00
  0.496059270892E+00  0.467732355362E+00  0.488212087362E+00  0.495098264817E+00
  0.999990295028E+00  0.102982719499E+01  0.999990757903E+00  0.104247294232E+01  0.101190080524E+01  0.102520618293E+01  0.999991416700E+00
  0.999992168096E+00  0.103891223624E+01  0.100826277309E+01  0.101252833877E+01  0.100300548289E+01  0.102702865700E+01  0.100605563290E+01
  0.100244400478E+01  0.100355660048E+01  0.999992721792E+00  0.103239739214E+01  0.100459524090E+01  0.100179336279E+01  0.100260305842E+01
  0.100234966417E+01  0.101657153079E+01  0.100617544692E+01  0.100168844809E+01  0.104043292670E+01  0.100303376377E+01  0.100118726928E+01
  0.100134171022E+01  0.100976788415E+01  0.100405369352E+01  0.100176112495E+01
  0.171323104546E-18 -0.274146277784E-19 -0.842544335267E-19 -0.390267172051E-19  0.652891425258E-19 -0.356381757709E-18 -0.348009721958E-18
 -0.125628402457E-18 -0.175272900518E-17  0.450248219329E-19  0.108470327571E-18  0.135841998318E-19  0.333126987457E-18  0.213269621762E-20
  0.157253707501E-18  0.110006637757E-18 -0.290243623562E-18  0.655430155521E-18  0.563522769762E-19  0.963505688973E-18  0.301516564822E-18
  0.193127466637E-18  0.219059970342E-18  0.486982843682E-19  0.108090062323E-17  0.601708965744E-18  0.203221974819E-18  0.138945710779E-17
  0.141233101635E-17  0.392851334250E-19  0.186972398794E-18  0.137972322105E-17
  0.115521088448E-18  0.275395257544E-19  0.138410736725E-18  0.843658307168E-19  0.137251497193E-19  0.115720546432E-18  0.175391260232E-19
  0.319927120296E-20 -0.116147266514E-18  0.108946831672E-19  0.539071460918E-19  0.112780614082E-19  0.113173144692E-18 -0.150908534061E-21
  0.295182044584E-19  0.190691797897E-19 -0.384003955698E-20  0.164604981265E-18  0.237913999004E-19  0.194787243474E-18  0.616700822875E-19
  0.416539237388E-19  0.963766734228E-19  0.399968942327E-19  0.222486918345E-18  0.190639138278E-18  0.459252833992E-19  0.287932052693E-18
  0.292694732854E-18  0.399576934988E-19  0.485007234249E-19  0.285220619408E-18
 -0.146345651118E-19  0.152832849143E-19  0.100066941260E-18  0.170142923055E-18 -0.247188020699E-19  0.159080194692E-18  0.181472109834E-19
 -0.261232478798E-19 -0.124835808170E-18 -0.779877474838E-22  0.231045619657E-20 -0.576695276259E-19 -0.995620506016E-19 -0.423345546590E-19
 -0.306759906334E-19  0.466304618616E-21  0.241028610184E-19 -0.930673339685E-19 -0.513393001028E-19  0.134855395577E-20 -0.447087640202E-19
 -0.500003626359E-19 -0.495633733489E-19 -0.537513996051E-19 -0.251157788987E-19  0.106103547493E-19 -0.330052280509E-19 -0.295527061002E-19
 -0.200070024744E-19 -0.700465168209E-21  0.647671911233E-21  0.150842769166E-20
 -0.129717433244E-18 -0.853172591142E-19 -0.149722051156E-18 -0.117558657612E-18 -0.278808072136E-19 -0.149981771869E-18  0.214599240460E-20
 -0.187976488272E-19 -0.129364377653E-18  0.219091447608E-19 -0.212679709512E-19 -0.443225067079E-19  0.318866272749E-19 -0.110937240984E-19
 -0.185966542407E-19  0.493352604835E-21  0.204727994214E-19  0.164069614959E-19 -0.690487732694E-19 -0.158140479089E-19 -0.344033465642E-19
 -0.525993341616E-19 -0.136852063320E-18 -0.110077310729E-18 -0.166457564588E-19 -0.720559235586E-19 -0.705380523636E-19 -0.160379097517E-19
 -0.238172604526E-19 -0.138744731241E-18 -0.851053195765E-19 -0.234657710170E-19
 -0.653633348252E-19 -0.531946409113E-20  0.523354955100E-19  0.101517430092E-20 -0.187273837326E-19  0.898486096536E-20  0.136628082612E-18
  0.127548948900E-19  0.552321965201E-18 -0.115313271063E-19 -0.378608189925E-19 -0.414261033423E-20 -0.138249849327E-18  0.481163697026E-20
 -0.591805853348E-19 -0.406552273287E-19  0.343731498220E-19 -0.278881600817E-18 -0.219083272270E-19 -0.398989803249E-18 -0.119531264061E-18
 -0.746200739859E-19 -0.100606741745E-18 -0.198923680147E-19 -0.448466777562E-18 -0.274058761946E-18 -0.777221983401E-19 -0.579212496525E-18
 -0.587290492245E-18 -0.198357343448E-19 -0.733333135738E-19 -0.572613956514E-18
        12        19        11        11
        11         5        12        12
        10        14         5         5
        19        13        11        11
        19        24        13        13
        30        23        24        24
        19        12        22        22
        28        22        21        21
        11        13         6         6
         7         6         9         9
        15        12        14        14
        18        13        23        23
        15        25        21        21
        27        19        22        22
        18         8         9         9
        27        31        24        24
         4        11         6         6
         5        14        12        12
         4         2         5         5
        21        12        15        15
        14        16        15        15
        24        19        27        27
        22        29        27        27
        23        26        18        18
        17         8        18        18
         5        11         4         4
         6         3         4         4
        26        23        30        30
         5         2        10        10
        16        14        10        10
         3         6         7         7
        21        25        28        28
        29        22        28        28
         6        13         9         9
         2         4         1         1
        31        27        32        32
        25        15        20        20
        24        23        13        13
         8         7         9         9
        13        18         9         9
        31        30        24        24
        12        21        22        22
        29        32        27        27
         3         1         4         4
        26        17        18        18
        16        20        15        15
zone t="boundary 2 bc-2", solutiontime= 0.5000000E+02, strandid=1002, i=33, j=48, f=feblock
  0.500000000000E+01  0.375000000000E+01  0.250000000000E+01  0.288078410721E+01  0.125000000000E+01  0.190974100652E+01  0.326683758169E+01
  0.201431602454E+01  0.000000000000E+00  0.963108083381E+00  0.500000000000E+01  0.403552511878E+01  0.423153924130E+01  0.500000000000E+01
  0.385533350601E+01  0.500000000000E+01  0.398173246726E+01  0.315249557942E+01  0.267000324704E+01  0.154774304040E+01  0.218329375016E+01
  0.893127759452E+00  0.000000000000E+00  0.698517061619E+00  0.964171764089E+00  0.310324758057E+01  0.000000000000E+00  0.000000000000E+00
  0.125000000000E+01  0.500000000000E+01  0.375000000000E+01  0.250000000000E+01  0.000000000000E+00
 -0.250000000000E+01 -0.250000000000E+01 -0.250000000000E+01 -0.250000000000E+01 -0.250000000000E+01 -0.250000000000E+01 -0.250000000000E+01
 -0.250000000000E+01 -0.250000000000E+01 -0.250000000000E+01 -0.250000000000E+01 -0.250000000000E+01 -0.250000000000E+01 -0.250000000000E+01
 -0.250000000000E+01 -0.250000000000E+01 -0.250000000000E+01 -0.250000000000E+01 -0.250000000000E+01 -0.250000000000E+01 -0.250000000000E+01
 -0.250000000000E+01 -0.250000000000E+01 -0.250000000000E+01 -0.250000000000E+01 -0.250000000000E+01 -0.250000000000E+01 -0.250000000000E+01
 -0.250000000000E+01 -0.250000000000E+01 -0.250000000000E+01 -0.250000000000E+01 -0.250000000000E+01
  0.000000000000E+00  0.000000000000E+00  0.000000000000E+00  0.904659890645E+00  0.000000000000E+00  0.717002441913E+00  0.188609243358E+01
  0.176246431481E+01  0.000000000000E+00  0.961328577125E+00  0.125000000000E+01  0.101201586758E+01  0.191586535653E+01  0.250000000000E+01
  0.293121848150E+01  0.375000000000E+01  0.406975391361E+01  0.363585050272E+01  0.285047954584E+01  0.292817774674E+01  0.395907379566E+01
  0.205246550326E+01  0.125000000000E+01  0.306828197606E+01  0.397245519226E+01  0.433168271247E+01  0.250000000000E+01  0.375000000000E+01
  0.500000000000E+01  0.500000000000E+01  0.500000000000E+01  0.500000000000E+01  0.500000000000E+01
  0.000000000000E+00  0.000000000000E+00  0.000000000000E+00  0.380991906500E+00  0.000000000000E+00  0.343629824950E+00  0.585286157424E+00
  0.579373264282E+00  0.000000000000E+00  0.501056069140E+00  0.508460362676E+00  0.435373026572E+00  0.572640041190E+00  0.537002098944E+00
  0.568922553871E+00  0.514994090651E+00  0.508247257160E+00  0.527252853130E+00  0.567446661127E+00  0.531657143909E+00  0.505981016593E+00
  0.520795579399E+00  0.443624103833E+00  0.490663730453E+00  0.492155873749E+00  0.501390784676E+00  0.467732355362E+00  0.488212087362E+00
  0.490002767114E+00  0.491352304715E+00  0.486075475228E+00  0.490036479234E+00  0.495098264817E+00
  0.999993487379E+00  0.999993690057E+00  0.999993543115E+00  0.989539055875E+00  0.999993137282E+00  0.985524707174E+00  0.989838908967E+00
  0.991798516580E+00  0.999992721792E+00  0.984411112416E+00  0.985091906406E+00  0.984689080896E+00  0.990058464829E+00  0.100289621837E+01
  0.999855369243E+00  0.100485306649E+01  0.100121554699E+01  0.100055642931E+01  0.997896793475E+00  0.100350029570E+01  0.100058068723E+01
  0.101093276247E+01  0.104043292670E+01  0.100326475367E+01  0.100254498742E+01  0.100045587387E+01  0.100976788415E+01  0.100405369352E+01
  0.100192656835E+01  0.100045434508E+01  0.100058774183E+01  0.100109993754E+01  0.100176112495E+01
  0.143842093055E-18  0.727123966295E-18 -0.367107865084E-18  0.144849075206E-18  0.356563850583E-18  0.179944575451E-17  0.365365735526E-18
  0.353141566554E-18 -0.290243623562E-18  0.103160096738E-17  0.388639939595E-18  0.591520437774E-18  0.308725170385E-18  0.236047965301E-18
  0.168881585386E-18  0.131899976967E-18  0.101763382019E-18  0.113041571256E-18  0.190636274150E-18  0.993909035314E-19  0.142444065448E-18
  0.342889946143E-18  0.601708965744E-18  0.979443056968E-19  0.226080975694E-18  0.176722844112E-18  0.392851334250E-19  0.186972398794E-18
  0.124244437933E-17  0.154263745393E-18  0.572421886435E-18  0.108123493504E-17  0.137972322105E-17
 -0.957337973368E-19  0.275961343061E-19 -0.121825633785E-19  0.325519967126E-19  0.608848145173E-19  0.839832108941E-19  0.493510130507E-20
  0.424267342049E-19 -0.384003955698E-20  0.408891430043E-18 -0.846053836612E-19  0.188912601690E-19 -0.784528629489E-19 -0.618194328391E-19
 -0.453804089324E-19 -0.309224022979E-19 -0.381390157362E-19 -0.341624656891E-19 -0.314032604808E-19  0.227975196638E-20 -0.163719915484E-19
  0.162404482385E-18  0.190639138278E-18  0.337986171562E-19  0.242412362543E-19 -0.180091831555E-19  0.399576934988E-19  0.485007234249E-19
  0.225866031663E-18 -0.684147430111E-20  0.570663991048E-19  0.171461436371E-18  0.285220619408E-18
  0.189641243692E-19 -0.600794842759E-19  0.674090741635E-19  0.467776583773E-19 -0.300560254570E-19 -0.935989462756E-19 -0.735571669660E-20
 -0.179690414028E-19  0.241028610184E-19 -0.496396974642E-19  0.530430832740E-20 -0.717675950683E-20  0.251616480641E-20 -0.318779403818E-21
 -0.143276301319E-20  0.118933225447E-20 -0.108827968543E-20  0.218165516376E-20 -0.123279410767E-20 -0.703080322704E-21  0.564245508089E-22
 -0.701416160081E-21  0.106103547493E-19 -0.104576817368E-21 -0.118910930257E-20  0.578255513491E-21 -0.700465168209E-21  0.647671911233E-21
  0.490439660114E-21  0.479053680008E-21  0.435081229666E-21 -0.472294124700E-21  0.150842769166E-20
 -0.244018885314E-19 -0.160553243043E-18  0.834987244349E-19 -0.341152341655E-18 -0.922156753785E-19 -0.427654054978E-18 -0.124491597895E-18
 -0.252448530486E-18  0.204727994214E-19 -0.253291941533E-18 -0.161058005902E-20 -0.207631620445E-18 -0.538830437553E-19 -0.130990565210E-19
 -0.526277443686E-19 -0.102299018187E-19 -0.336709806206E-19 -0.581203966067E-19 -0.999221016239E-19 -0.134900605237E-18 -0.643913134498E-19
 -0.209327333136E-18 -0.720559235586E-19 -0.124767938189E-18 -0.682169033267E-19 -0.499433910509E-19 -0.138744731241E-18 -0.851053195765E-19
 -0.321960918048E-19 -0.159160775050E-19 -0.349450420225E-19 -0.376602114602E-19 -0.234657710170E-19
  0.189333358867E-19 -0.540620455434E-19  0.559707995392E-20 -0.104751343689E-18 -0.818312846149E-19 -0.549775202769E-18 -0.104053207905E-18
 -0.113577474603E-18  0.343731498220E-19 -0.476186548754E-18 -0.864423956198E-19 -0.203168903827E-18 -0.639875843851E-19 -0.454039560147E-19
 -0.326364380574E-19 -0.265349783703E-19 -0.142613321011E-19 -0.199345151759E-19 -0.447181772451E-19 -0.242601109429E-19 -0.367253297961E-19
 -0.155787816352E-18 -0.274058761946E-18 -0.338000759558E-19 -0.801385862309E-19 -0.479035088111E-19 -0.198357343448E-19 -0.733333135738E-19
 -0.505405742270E-18 -0.468636300188E-19 -0.214787131869E-18 -0.431020935641E-18 -0.572613956514E-18
        15         7        19        19
         8        20        19        19
        18        19        21        21
         7         4         8         8
         3         6         4         4
        19         7         8         8
        19        18        15        15
        14        13        15        15
         8        22        20        20
        27        24        22        22
        19        20        21        21
        32        26        21        21
        17        18        26        26
        17        16        15        15
        25        29        21        21
        12         7        13        13
        10         8         6         6
        25        20        24        24
         4         6         8         8
        12         2         4         4
        10        23        22        22
        26        31        17        17
        30        16        17        17
         4         7        12        12
        13        11        12        12
        21        20        25        25
        24        28        25        25
        22         8        10        10
         6         5        10        10
        31        26        32        32
         4         2         3         3
         5         6         3         3
        11        13        14        14
        22        23        27        27
        28        24        27        27
        15        13         7         7
         2        12         1         1
        29        25        33        33
        23        10         9         9
        21        26        18        18
        16        14        15        15
        18        17        15        15
        29        32        21        21
        22        24        20        20
        28        33        25        25
        11         1        12        12
        31        30        17        17
         5         9        10        10
zone t="boundary 3 bc-3", solutiontime= 0.5000000E+02, strandid=1003, i=33, j=48, f=feblock
  0.375000000000E+01  0.250000000000E+01  0.500000000000E+01  0.403552511878E+01  0.288078410721E+01  0.125000000000E+01  0.190974100652E+01
  0.500000000000E+01  0.326683758169E+01  0.423153924130E+01  0.201431602454E+01  0.000000000000E+00  0.963108083381E+00  0.500000000000E+01
  0.267000324704E+01  0.385533350601E+01  0.893127759452E+00  0.154774304040E+01  0.000000000000E+00  0.500000000000E+01  0.315249557942E+01
  0.218329375016E+01  0.398173246726E+01  0.000000000000E+00  0.698517061619E+00  0.964171764089E+00  0.125000000000E+01  0.000000000000E+00
  0.500000000000E+01  0.310324758057E+01  0.250000000000E+01  0.375000000000E+01  0.000000000000E+00
  0.250000000000E+01  0.250000000000E+01  0.250000000000E+01  0.250000000000E+01  0.250000000000E+01  0.250000000000E+01  0.250000000000E+01
  0.250000000000E+01  0.250000000000E+01  0.250000000000E+01  0.250000000000E+01  0.250000000000E+01  0.250000000000E+01  0.250000000000E+01
  0.250000000000E+01  0.250000000000E+01  0.250000000000E+01  0.250000000000E+01  0.250000000000E+01  0.250000000000E+01  0.250000000000E+01
  0.250000000000E+01  0.250000000000E+01  0.250000000000E+01  0.250000000000E+01  0.250000000000E+01  0.250000000000E+01  0.250000000000E+01
  0.250000000000E+01  0.250000000000E+01  0.250000000000E+01  0.250000000000E+01  0.250000000000E+01
  0.000000000000E+00  0.000000000000E+00  0.000000000000E+00  0.101201586758E+01  0.904659890645E+00  0.000000000000E+00  0.717002441913E+00
  0.125000000000E+01  0.188609243358E+01  0.191586535653E+01  0.176246431481E+01  0.000000000000E+00  0.961328577125E+00  0.250000000000E+01
  0.285047954584E+01  0.293121848150E+01  0.205246550326E+01  0.292817774674E+01  0.125000000000E+01  0.375000000000E+01  0.363585050272E+01
  0.395907379566E+01  0.406975391361E+01  0.250000000000E+01  0.306828197606E+01  0.397245519226E+01  0.500000000000E+01  0.375000000000E+01
  0.500000000000E+01  0.433168271247E+01  0.500000000000E+01  0.500000000000E+01  0.500000000000E+01
  0.000000000000E+00  0.000000000000E+00  0.000000000000E+00  0.443767745459E+00  0.402286944574E+00  0.000000000000E+00  0.377550369545E+00
  0.509232128688E+00  0.575832179754E+00  0.573707405285E+00  0.562554064412E+00  0.000000000000E+00  0.490563299840E+00  0.534527096543E+00
  0.556586982170E+00  0.564391577749E+00  0.522730517385E+00  0.522052000170E+00  0.441238348384E+00  0.517182331791E+00  0.524228630763E+00
  0.503687457534E+00  0.509488571178E+00  0.469814974359E+00  0.495614442414E+00  0.494483780212E+00  0.488562428343E+00  0.488961654628E+00
  0.492980744788E+00  0.499005552222E+00  0.486460936507E+00  0.484596927548E+00  0.495346592024E+00
  0.999989339439E+00  0.999989408764E+00  0.999989626853E+00  0.981541895460E+00  0.988773990194E+00  0.999989827144E+00  0.982469462434E+00
  0.984104309047E+00  0.990427545862E+00  0.990355285694E+00  0.994362997073E+00  0.999990295028E+00  0.988652071037E+00  0.100368369414E+01
  0.999769197113E+00  0.100118501219E+01  0.100834885320E+01  0.100252111043E+01  0.102982719499E+01  0.100443319461E+01  0.100199536635E+01
  0.100082056599E+01  0.100138192342E+01  0.100826277309E+01  0.100298787130E+01  0.100192389555E+01  0.100215267510E+01  0.100355660048E+01
  0.100047670023E+01  0.100056591053E+01  0.100126820231E+01  0.100066573360E+01  0.100179336279E+01
 -0.956256655056E-18 -0.415727970327E-18 -0.844212650924E-21  0.405370506433E-19  0.222396595101E-18  0.310572860928E-18  0.201901313483E-18
 -0.784429203613E-19  0.234630471853E-19 -0.161072979146E-19  0.163448886260E-18  0.171323104546E-18  0.227139348929E-18  0.358084008946E-19
  0.366495485148E-19  0.366474755638E-19  0.130011402819E-18  0.265894038193E-19 -0.274146277784E-19  0.509453089044E-19  0.422383337524E-19
  0.500974957835E-19  0.458194816304E-19  0.450248219329E-19  0.938132073285E-20  0.156475832014E-18  0.665006816984E-18  0.110006637757E-18
  0.637079118161E-19  0.795928234796E-19  0.579116754174E-18  0.286732705017E-18  0.963505688973E-18
  0.291753062972E-19 -0.745993313748E-19  0.639154655287E-19  0.898473090279E-19 -0.195211121437E-18 -0.848737623205E-19 -0.365585346431E-18
  0.261674228898E-19  0.351529251803E-19  0.525461601188E-19 -0.156425575003E-18  0.115521088448E-18 -0.989223353339E-21 -0.896503711192E-20
 -0.176369522094E-19  0.369126890139E-20 -0.445898934894E-19 -0.604273168940E-19  0.275395257544E-19 -0.127389790583E-19 -0.248185923868E-19
 -0.268901530953E-19 -0.201715044685E-19  0.108946831672E-19 -0.407723331392E-19  0.916423290989E-20  0.104154767992E-18  0.190691797897E-19
 -0.637860723268E-20 -0.212343063980E-19  0.733255074672E-19  0.254436003623E-19  0.194787243474E-18
 -0.137461216748E-18 -0.983301429564E-19 -0.153093740042E-19 -0.809522721075E-19 -0.120876744877E-18 -0.442990907405E-19 -0.335314271612E-19
 -0.568540645979E-20 -0.286903265131E-19 -0.935652746427E-20 -0.429466149945E-19 -0.146345651118E-19 -0.345053150679E-19 -0.130532477951E-20
 -0.653480338415E-20 -0.575405313661E-20 -0.224077665519E-19 -0.803357901064E-20  0.152832849143E-19  0.351320915600E-21  0.211080192626E-20
 -0.578081284096E-21 -0.292659719231E-22 -0.779877474838E-22 -0.460180921958E-20 -0.997320726072E-21  0.104827047276E-20  0.466304618616E-21
  0.357156884148E-21  0.511484777527E-23  0.252037141784E-21 -0.229937778251E-22  0.134855395577E-20
  0.294255970864E-18  0.182617098728E-18  0.226146401743E-19  0.414759678209E-18  0.522590506999E-18 -0.863710106952E-19  0.397066245291E-18
 -0.132836332633E-19  0.223210079932E-18  0.330435750602E-19  0.263513344617E-18 -0.129717433244E-18 -0.691239549545E-19  0.168852867952E-21
  0.640216912668E-19  0.217089099553E-19  0.676581393297E-19  0.543025040177E-19 -0.853172591142E-19 -0.315391557496E-20  0.128679067322E-19
 -0.269080676029E-20 -0.425035595612E-20  0.219091447608E-19  0.296575189104E-19 -0.870498646973E-20 -0.209596722500E-19  0.493352604835E-21
 -0.766181038435E-20 -0.587665851641E-20 -0.219786539879E-19 -0.170052765305E-19 -0.158140479089E-19
  0.177261949030E-18  0.530665689208E-19  0.148491949857E-19 -0.890479415625E-19 -0.748037868390E-19  0.479828122019E-19  0.350597269432E-19
  0.251820822968E-19 -0.204150487795E-19 -0.105253205509E-19 -0.184614369483E-19 -0.653633348252E-19 -0.627517526872E-19 -0.677406223367E-20
 -0.602832715769E-21 -0.115997559775E-19 -0.230075303836E-19  0.152777927396E-19 -0.531946409113E-20 -0.978171312606E-20 -0.171514530936E-20
 -0.371746959099E-20 -0.624203780610E-20 -0.115313271063E-19  0.101897244091E-19 -0.535830572572E-19 -0.264817609853E-18 -0.406552273287E-19
 -0.178104900148E-19 -0.179050596632E-19 -0.225293276121E-18 -0.106308382149E-18 -0.398989803249E-18
        15         9        16        16
        15        18        11        11
        22        15        21        21
        11         5         9         9
         5         7         2         2
        11         9        15        15
        16        21        15        15
        16        10        14        14
        18        17        11        11
        17        25        24        24
        22        18        15        15
        22        30        31        31
        30        21        23        23
        16        20        23        23
        22        27        26        26
        10         9         4         4
         7        11        13        13
        25        18        26        26
        11         7         5         5
         5         1         4         4
        17        19        13        13
        23        32        30        30
        23        20        29        29
         4         9         5         5
         4         8        10        10
        26        18        22        22
        26        28        25        25
        13        11        17        17
        13         6         7         7
        31        30        32        32
         2         1         5         5
         2         7         6         6
        14        10         8         8
        24        19        17        17
        24        25        28        28
         9        10        16        16
         3         4         1         1
        33        26        27        27
        12        13        19        19
        21        30        22        22
        16        14        20        20
        16        23        21        21
        22        31        27        27
        18        25        17        17
        26        33        28        28
         4         3         8         8
        23        29        32        32
        13        12         6         6
zone t="boundary 4 bc-4", solutiontime= 0.5000000E+02, strandid=1004, i=32, j=46, f=feblock
  0.125000000000E+01  0.219251206392E+01  0.103724302461E+01  0.500000000000E+01  0.250000000000E+01  0.375000000000E+01  0.404200324774E+01
  0.500000000000E+01  0.000000000000E+00  0.310152362409E+01  0.202479342020E+01  0.324151231464E+01  0.922061490191E+00  0.000000000000E+00
  0.299062775774E+01  0.394624082883E+01  0.500000000000E+01  0.409252726285E+01  0.500000000000E+01  0.429310310915E+01  0.175434191980E+01
  0.284428995242E+01  0.000000000000E+00  0.000000000000E+00  0.715990576545E+00  0.930412228790E+00  0.125000000000E+01  0.187029682677E+01
  0.500000000000E+01  0.375000000000E+01  0.250000000000E+01  0.000000000000E+00
  0.250000000000E+01  0.157686156160E+01  0.146289271009E+01  0.250000000000E+01  0.250000000000E+01  0.250000000000E+01  0.155830813274E+01
  0.125000000000E+01  0.250000000000E+01  0.177790177481E+01  0.477386199275E+00  0.742988685424E+00  0.308372018325E+00  0.125000000000E+01
 -0.487811078581E+00 -0.144524380962E+01 -0.125000000000E+01 -0.345533899378E+00  0.000000000000E+00  0.627766083140E+00 -0.739814786992E+00
 -0.158811787973E+01  0.000000000000E+00 -0.125000000000E+01 -0.600232012419E+00 -0.154800130438E+01 -0.250000000000E+01 -0.178862290564E+01
 -0.250000000000E+01 -0.250000000000E+01 -0.250000000000E+01 -0.250000000000E+01
  0.500000000000E+01  0.500000000000E+01  0.500000000000E+01  0.500000000000E+01  0.500000000000E+01  0.500000000000E+01  0.500000000000E+01
  0.500000000000E+01  0.500000000000E+01  0.500000000000E+01  0.500000000000E+01  0.500000000000E+01  0.500000000000E+01  0.500000000000E+01
  0.500000000000E+01  0.500000000000E+01  0.500000000000E+01  0.500000000000E+01  0.500000000000E+01  0.500000000000E+01  0.500000000000E+01
  0.500000000000E+01  0.500000000000E+01  0.500000000000E+01  0.500000000000E+01  0.500000000000E+01  0.500000000000E+01  0.500000000000E+01
  0.500000000000E+01  0.500000000000E+01  0.500000000000E+01  0.500000000000E+01
  0.488562428343E+00  0.488873127044E+00  0.490562939264E+00  0.492980744788E+00  0.486460936507E+00  0.484596927548E+00  0.485347896276E+00
  0.494163542317E+00  0.495346592024E+00  0.486528232758E+00  0.487819998460E+00  0.487068916091E+00  0.494045904395E+00  0.496127394917E+00
  0.487612357629E+00  0.483219722850E+00  0.492395510969E+00  0.487214141159E+00  0.494738985333E+00  0.487958525499E+00  0.489677249447E+00
  0.488029107105E+00  0.497246279768E+00  0.496059270892E+00  0.494951052257E+00  0.492800373677E+00  0.490002767114E+00  0.490005124553E+00
  0.491352304715E+00  0.486075475228E+00  0.490036479234E+00  0.495098264817E+00
  0.100215267510E+01  0.100152652958E+01  0.100178347660E+01  0.100047670023E+01  0.100126820231E+01  0.100066573360E+01  0.100025357725E+01
  0.100050391679E+01  0.100179336279E+01  0.100112367258E+01  0.100133045248E+01  0.100072432973E+01  0.100164366725E+01  0.100168844809E+01
  0.100096274503E+01  0.100000874853E+01  0.100082864314E+01  0.100022269190E+01  0.100062146074E+01  0.100023497311E+01  0.100174635719E+01
  0.100098855496E+01  0.100118726928E+01  0.100134171022E+01  0.100132635956E+01  0.100179873777E+01  0.100192656835E+01  0.100163748619E+01
  0.100045434508E+01  0.100058774183E+01  0.100109993754E+01  0.100176112495E+01
  0.665006816984E-18  0.655953663033E-18  0.730597323490E-18  0.637079118161E-19  0.579116754174E-18  0.286732705017E-18  0.210263305542E-18
  0.656469959250E-19  0.963505688973E-18  0.470895717639E-18  0.858235716573E-18  0.546447054964E-18  0.107846345931E-17  0.108090062323E-17
  0.764514325008E-18  0.354154442529E-18  0.133290024614E-18  0.382503622888E-18  0.880696270277E-19  0.313994128049E-18  0.127385223679E-17
  0.832394965174E-18  0.138945710779E-17  0.141233101635E-17  0.138616827218E-17  0.120947030663E-17  0.124244437933E-17  0.129339614673E-17
  0.154263745393E-18  0.572421886435E-18  0.108123493504E-17  0.137972322105E-17