title="tecplot geometry and solution file"
variables = x y z mach temperature lambda1 lambda2 lambda3 lambda4 lambda5
zone t="boundary 1 bc-1", solutiontime= 0.4000000E+02, strandid=1001, i=32, j=46, f=feblock
  0.000000000000E+00  0.000000000000E+00  0.000000000000E+00  0.000000000000E+00  0.000000000000E+00  0.000000000000E+00  0.000000000000E+00
  0.000000000000E+00  0.000000000000E+00  0.000000000000E+00  0.000000000000E+00  0.000000000000E+00  0.000000000000E+00  0.000000000000E+00
  0.000000000000E+00  0.000000000000E+00  0.000000000000E+00  0.000000000000E+00  0.000000000000E+00  0.000000000000E+00  0.000000000000E+00
  0.000000000000E+00  0.000000000000E+00  0.000000000000E+00  0.000000000000E+00  0.000000000000E+00  0.000000000000E+00  0.000000000000E+00
  0.000000000000E+00  0.000000000000E+00  0.000000000000E+00  0.000000000000E+00
  0.250000000000E+01  0.250000000000E+01  0.125000000000E+01  0.146289271009E+01  0.157686156160E+01  0.308372018325E+00  0.000000000000E+00
 -0.125000000000E+01 -0.600232012419E+00  0.250000000000E+01  0.477386199275E+00  0.742988685424E+00 -0.739814786992E+00  0.177790177481E+01
  0.155830813274E+01  0.250000000000E+01 -0.250000000000E+01 -0.154800130438E+01 -0.487811078581E+00  0.250000000000E+01  0.627766083140E+00
 -0.345533899378E+00 -0.178862290564E+01 -0.158811787973E+01  0.125000000000E+01 -0.250000000000E+01 -0.144524380962E+01  0.000000000000E+00
 -0.125000000000E+01 -0.250000000000E+01 -0.250000000000E+01 -0.250000000000E+01
  0.000000000000E+00  0.125000000000E+01  0.000000000000E+00  0.103724302461E+01  0.219251206392E+01  0.922061490191E+00  0.000000000000E+00
  0.000000000000E+00  0.715990576545E+00  0.250000000000E+01  0.202479342020E+01  0.324151231464E+01  0.175434191980E+01  0.310152362409E+01
  0.404200324774E+01  0.375000000000E+01  0.000000000000E+00  0.930412228790E+00  0.299062775774E+01  0.500000000000E+01  0.429310310915E+01
  0.409252726285E+01  0.187029682677E+01  0.284428995242E+01  0.500000000000E+01  0.125000000000E+01  0.394624082883E+01  0.500000000000E+01
  0.500000000000E+01  0.250000000000E+01  0.375000000000E+01  0.500000000000E+01
  0.000000000000E+00  0.441238348384E+00  0.000000000000E+00  0.475214987021E+00  0.460123708856E+00  0.468827815405E+00  0.000000000000E+00
  0.000000000000E+00  0.402302516798E+00  0.469814974359E+00  0.464411128942E+00  0.478714034184E+00  0.489298241651E+00  0.483068557888E+00
  0.487930073118E+00  0.488961654628E+00  0.000000000000E+00  0.464775721414E+00  0.473795651891E+00  0.495346592024E+00  0.490266103446E+00
  0.486286083902E+00  0.445717618051E+00  0.464382274634E+00  0.496127394917E+00  0.443624103833E+00  0.486964461957E+00  0.497246279768E+00
  0.496059270892E+00  0.467732355362E+00  0.488212087362E+00  0.495098264817E+00
  0.999990295028E+00  0.102982719499E+01  0.999990757903E+00  0.104247294232E+01  0.101190080524E+01  0.102520618293E+01  0.999991416700E+00
  0.999992168096E+00  0.103891223624E+01  0.100826277309E+01  0.101252833877E+01  0.100300548289E+01  0.102702865700E+01  0.100605563290E+01
  0.100244400478E+01  0.100355660048E+01  0.999992721792E+00  0.103239739214E+01  0.100459524090E+01  0.100179336279E+01  0.100260305842E+01
  0.100234966417E+01  0.101657153079E+01  0.100617544692E+01  0.100168844809E+01  0.104043292670E+01  0.100303376377E+01  0.100118726928E+01
  0.100134171022E+01  0.100976788415E+01  0.100405369352E+01  0.100176112495E+01
  0.171322814039E-18 -0.274096696850E-19 -0.842542276824E-19 -0.390309065475E-19  0.652872979217E-19 -0.356390845756E-18 -0.348012364520E-18
 -0.125627947041E-18 -0.175274060078E-17  0.450255429927E-19  0.108468402827E-18  0.135890088927E-19  0.333129738694E-18  0.213216434327E-20
  0.157253813371E-18  0.110008470670E-18 -0.290243228165E-18  0.655450483174E-18  0.563521378121E-19  0.963504641533E-18  0.301519553748E-18
  0.193141220793E-18  0.219057492801E-18  0.486936319164E-19  0.108089280770E-17  0.601698436256E-18  0.203220559062E-18  0.138944201390E-17
  0.141232571335E-17  0.392864666133E-19  0.186971127684E-18  0.137972531095E-17
  0.115521060391E-18  0.275398955557E-19  0.138410651122E-18  0.843646980491E-19  0.137246162611E-19  0.115721064747E-18  0.175391810851E-19
  0.319921403616E-20 -0.116147834981E-18  0.108947394353E-19  0.539063572400E-19  0.112793555341E-19  0.113173326003E-18 -0.150805787914E-21
  0.295183383831E-19  0.190701561004E-19 -0.384018868715E-20  0.164608271333E-18  0.237913520826E-19  0.194785606003E-18  0.616702296442E-19
  0.416563799158E-19  0.963763028154E-19  0.399958713554E-19  0.222485048152E-18  0.190636991142E-18  0.459245891088E-19  0.287930583042E-18
  0.292694429987E-18  0.399579916993E-19  0.485003614326E-19  0.285221259461E-18
 -0.146346745503E-19  0.152832343919E-19  0.100067217770E-18  0.170141986842E-18 -0.247196752394E-19  0.159079993437E-18  0.181471819657E-19
 -0.261235489516E-19 -0.124837602608E-18 -0.779779028510E-22  0.231037478444E-20 -0.576698859246E-19 -0.995607616737E-19 -0.423351280547E-19
 -0.306763685781E-19  0.466269321918E-21  0.241028744297E-19 -0.930680139061E-19 -0.513395931882E-19  0.134853107502E-20 -0.447086768252E-19
 -0.500011765848E-19 -0.495630769545E-19 -0.537513564852E-19 -0.251139332879E-19  0.106103272411E-19 -0.330059650134E-19 -0.295505934391E-19
 -0.200062366493E-19 -0.700430604126E-21  0.647649820857E-21  0.150844941486E-20
 -0.129717316775E-18 -0.853162489747E-19 -0.149722112376E-18 -0.117558037221E-18 -0.278805114672E-19 -0.149984248935E-18  0.214620519205E-20
 -0.187976763772E-19 -0.129365251735E-18  0.219097369513E-19 -0.212683177070E-19 -0.443220212529E-19  0.318868642095E-19 -0.110934768930E-19
 -0.185970614603E-19  0.492457872970E-21  0.204728010421E-19  0.164090730563E-19 -0.690483904150E-19 -0.158140124818E-19 -0.344029937219E-19
 -0.525984117191E-19 -0.136851796421E-18 -0.110077869203E-18 -0.166458568887E-19 -0.720566540371E-19 -0.705380417796E-19 -0.160381264086E-19
 -0.238171752108E-19 -0.138745502646E-18 -0.851057737840E-19 -0.234656180686E-19
 -0.653629951848E-19 -0.532135440436E-20  0.523348925859E-19  0.101693379327E-20 -0.187266342565E-19  0.898836852632E-20  0.136629257538E-18
  0.127543085758E-19  0.552326538581E-18 -0.115315845610E-19 -0.378600166904E-19 -0.414467458290E-20 -0.138250980467E-18  0.481179142047E-20
 -0.591805225811E-19 -0.406560043297E-19  0.343730720009E-19 -0.278889961240E-18 -0.219082578240E-19 -0.398989197714E-18 -0.119532373559E-18
 -0.746259031802E-19 -0.100605718618E-18 -0.198903526487E-19 -0.448463480076E-18 -0.274054420471E-18 -0.777215577200E-19 -0.579206255199E-18
 -0.587288331225E-18 -0.198362379563E-19 -0.733328011750E-19 -0.572614949885E-18
        12        19        11        11
        11         5        12        12
        10        14         5         5
        19        13        11        11
        19        24        13        13
        30        23        24        24
        19        12        22        22
        28        22        21        21
        11        13         6         6
         7         6         9         9
        15        12        14        14
        18        13        23        23
        15        25        21        21
        27        19        22        22
        18         8         9         9
        27        31        24        24
         4        11         6         6
         5        14        12        12
         4         2         5         5
        21        12        15        15
        14        16        15        15
        24        19        27        27
        22        29        27        27
        23        26        18        18
        17         8        18        18
         5        11         4         4
         6         3         4         4
        26        23        30        30
         5         2        10        10
        16        14        10        10
         3         6         7         7
        21        25        28        28
        29        22        28        28
         6        13         9         9
         2         4         1         1
        31        27        32        32
        25        15        20        20
        24        23        13        13
         8         7         9         9
        13        18         9         9
        31        30        24        24
        12        21        22        22
        29        32        27        27
         3         1         4         4
        26        17        18        18
        16        20        15        15
zone t="boundary 2 bc-2", solutiontime= 0.4000000E+02, strandid=1002, i=33, j=48, f=feblock
  0.500000000000E+01  0.375000000000E+01  0.250000000000E+01  0.288078410721E+01  0.125000000000E+01  0.190974100652E+01  0.326683758169E+01
  0.201431602454E+01  0.000000000000E+00  0.963108083381E+00  0.500000000000E+01  0.403552511878E+01  0.423153924130E+01  0.500000000000E+01
  0.385533350601E+01  0.500000000000E+01  0.398173246726E+01  0.315249557942E+01  0.267000324704E+01  0.154774304040E+01  0.218329375016E+01
  0.893127759452E+00  0.000000000000E+00  0.698517061619E+00  0.964171764089E+00  0.310324758057E+01  0.000000000000E+00  0.000000000000E+00
  0.125000000000E+01  0.500000000000E+01  0.375000000000E+01  0.250000000000E+01  0.000000000000E+00
 -0.250000000000E+01 -0.250000000000E+01 -0.250000000000E+01 -0.250000000000E+01 -0.250000000000E+01 -0.250000000000E+01 -0.250000000000E+01
 -0.250000000000E+01 -0.250000000000E+01 -0.250000000000E+01 -0.250000000000E+01 -0.250000000000E+01 -0.250000000000E+01 -0.250000000000E+01
 -0.250000000000E+01 -0.250000000000E+01 -0.250000000000E+01 -0.250000000000E+01 -0.250000000000E+01 -0.250000000000E+01 -0.250000000000E+01
 -0.250000000000E+01 -0.250000000000E+01 -0.250000000000E+01 -0.250000000000E+01 -0.250000000000E+01 -0.250000000000E+01 -0.250000000000E+01
 -0.250000000000E+01 -0.250000000000E+01 -0.250000000000E+01 -0.250000000000E+01 -0.250000000000E+01
  0.000000000000E+00  0.000000000000E+00  0.000000000000E+00  0.904659890645E+00  0.000000000000E+00  0.717002441913E+00  0.188609243358E+01
  0.176246431481E+01  0.000000000000E+00  0.961328577125E+00  0.125000000000E+01  0.101201586758E+01  0.191586535653E+01  0.250000000000E+01
  0.293121848150E+01  0.375000000000E+01  0.406975391361E+01  0.363585050272E+01  0.285047954584E+01  0.292817774674E+01  0.395907379566E+01
  0.205246550326E+01  0.125000000000E+01  0.306828197606E+01  0.397245519226E+01  0.433168271247E+01  0.250000000000E+01  0.375000000000E+01
  0.500000000000E+01  0.500000000000E+01  0.500000000000E+01  0.500000000000E+01  0.500000000000E+01
  0.000000000000E+00  0.000000000000E+00  0.000000000000E+00  0.380991906500E+00  0.000000000000E+00  0.343629824950E+00  0.585286157424E+00
  0.579373264282E+00  0.000000000000E+00  0.501056069140E+00  0.508460362676E+00  0.435373026572E+00  0.572640041190E+00  0.537002098944E+00
  0.568922553871E+00  0.514994090651E+00  0.508247257160E+00  0.527252853130E+00  0.567446661127E+00  0.531657143909E+00  0.505981016593E+00
  0.520795579399E+00  0.443624103833E+00  0.490663730453E+00  0.492155873749E+00  0.501390784676E+00  0.467732355362E+00  0.488212087362E+00
  0.490002767114E+00  0.491352304715E+00  0.486075475228E+00  0.490036479234E+00  0.495098264817E+00
  0.999993487379E+00  0.999993690057E+00  0.999993543115E+00  0.989539055875E+00  0.999993137282E+00  0.985524707174E+00  0.989838908967E+00
  0.991798516580E+00  0.999992721792E+00  0.984411112416E+00  0.985091906406E+00  0.984689080896E+00  0.990058464829E+00  0.100289621837E+01
  0.999855369243E+00  0.100485306649E+01  0.100121554699E+01  0.100055642931E+01  0.997896793475E+00  0.100350029570E+01  0.100058068723E+01
  0.101093276247E+01  0.104043292670E+01  0.100326475367E+01  0.100254498742E+01  0.100045587387E+01  0.100976788415E+01  0.100405369352E+01
  0.100192656835E+01  0.100045434508E+01  0.100058774183E+01  0.100109993754E+01  0.100176112495E+01
  0.143842032952E-18  0.727123960565E-18 -0.367107740155E-18  0.144849551903E-18  0.356563537659E-18  0.179944053875E-17  0.365366243277E-18
  0.353139777250E-18 -0.290243228165E-18  0.103159618737E-17  0.388639964086E-18  0.591519982160E-18  0.308725194857E-18  0.236047988727E-18
  0.168881354222E-18  0.131900114935E-18  0.101763366060E-18  0.113040783832E-18  0.190636222621E-18  0.993920836562E-19  0.142445228248E-18
  0.342899955726E-18  0.601698436256E-18  0.979469176343E-19  0.226079610294E-18  0.176723176085E-18  0.392864666133E-19  0.186971127684E-18
  0.124243464785E-17  0.154263734730E-18  0.572421688757E-18  0.108123442387E-17  0.137972531095E-17
 -0.957337874711E-19  0.275961165303E-19 -0.121825385064E-19  0.325520029540E-19  0.608847726528E-19  0.839830003510E-19  0.493518418894E-20
  0.424263778413E-19 -0.384018868715E-20  0.408890847431E-18 -0.846053897813E-19  0.188911222408E-19 -0.784528387359E-19 -0.618194223837E-19
 -0.453804700580E-19 -0.309223894484E-19 -0.381390376335E-19 -0.341625730810E-19 -0.314030537874E-19  0.228036760028E-20 -0.163716768854E-19
  0.162407148002E-18  0.190636991142E-18  0.337991686808E-19  0.242411365579E-19 -0.180089841008E-19  0.399579916993E-19  0.485003614326E-19
  0.225864164384E-18 -0.684150599406E-20  0.570665778971E-19  0.171461781143E-18  0.285221259461E-18
  0.189641268386E-19 -0.600794755450E-19  0.674090736981E-19  0.467776451661E-19 -0.300561051251E-19 -0.935990067496E-19 -0.735573629451E-20
 -0.179690630346E-19  0.241028744297E-19 -0.496396932094E-19  0.530431091737E-20 -0.717676911411E-20  0.251615765729E-20 -0.318780954146E-21
 -0.143278233081E-20  0.118932947614E-20 -0.108829367724E-20  0.218164362546E-20 -0.123281487323E-20 -0.703082963942E-21  0.565046439673E-22
 -0.701342225983E-21  0.106103272411E-19 -0.104479990393E-21 -0.118901953475E-20  0.578275151531E-21 -0.700430604126E-21  0.647649820857E-21
  0.490429131220E-21  0.479045527268E-21  0.435092105372E-21 -0.472280541858E-21  0.150844941486E-20
 -0.244018668854E-19 -0.160553252861E-18  0.834987008570E-19 -0.341152436805E-18 -0.922156156256E-19 -0.427653816699E-18 -0.124491647971E-18
 -0.252448512567E-18  0.204728010421E-19 -0.253292054132E-18 -0.161054479640E-20 -0.207631560599E-18 -0.538830320103E-19 -0.130990272751E-19
 -0.526277675209E-19 -0.102298693449E-19 -0.336710003175E-19 -0.581204833234E-19 -0.999220706473E-19 -0.134900449309E-18 -0.643912810648E-19
 -0.209327250874E-18 -0.720566540371E-19 -0.124768224797E-18 -0.682172422774E-19 -0.499435445780E-19 -0.138745502646E-18 -0.851057737840E-19
 -0.321960366379E-19 -0.159160597473E-19 -0.349450253622E-19 -0.376601083851E-19 -0.234656180686E-19
  0.189334116420E-19 -0.540620514038E-19  0.559699863448E-20 -0.104751538981E-18 -0.818312161573E-19 -0.549773101764E-18 -0.104053422881E-18
 -0.113576729195E-18  0.343730720009E-19 -0.476184565295E-18 -0.864423968810E-19 -0.203168690562E-18 -0.639876014555E-19 -0.454039670101E-19
 -0.326363426790E-19 -0.265350344008E-19 -0.142613240414E-19 -0.199341937862E-19 -0.447182153633E-19 -0.242607186107E-19 -0.367258505984E-19
 -0.155792186321E-18 -0.274054420471E-18 -0.338011750949E-19 -0.801380405656E-19 -0.479036759329E-19 -0.198362379563E-19 -0.733328011750E-19
 -0.505401662163E-18 -0.468636210060E-19 -0.214787101311E-18 -0.431020822988E-18 -0.572614949885E-18
        15         7        19        19
         8        20        19        19
        18        19        21        21
         7         4         8         8
         3         6         4         4
        19         7         8         8
        19        18        15        15
        14        13        15        15
         8        22        20        20
        27        24        22        22
        19        20        21        21
        32        26        21        21
        17        18        26        26
        17        16        15        15
        25        29        21        21
        12         7        13        13
        10         8         6         6
        25        20        24        24
         4         6         8         8
        12         2         4         4
        10        23        22        22
        26        31        17        17
        30        16        17        17
         4         7        12        12
        13        11        12        12
        21        20        25        25
        24        28        25        25
        22         8        10        10
         6         5        10        10
        31        26        32        32
         4         2         3         3
         5         6         3         3
        11        13        14        14
        22        23        27        27
        28        24        27        27
        15        13         7         7
         2        12         1         1
        29        25        33        33
        23        10         9         9
        21        26        18        18
        16        14        15        15
        18        17        15        15
        29        32        21        21
        22        24        20        20
        28        33        25        25
        11         1        12        12
        31        30        17        17
         5         9        10        10
zone t="boundary 3 bc-3", solutiontime= 0.4000000E+02, strandid=1003, i=33, j=48, f=feblock
  0.375000000000E+01  0.250000000000E+01  0.500000000000E+01  0.403552511878E+01  0.288078410721E+01  0.125000000000E+01  0.190974100652E+01
  0.500000000000E+01  0.326683758169E+01  0.423153924130E+01  0.201431602454E+01  0.000000000000E+00  0.963108083381E+00  0.500000000000E+01
  0.267000324704E+01  0.385533350601E+01  0.893127759452E+00  0.154774304040E+01  0.000000000000E+00  0.500000000000E+01  0.315249557942E+01
  0.218329375016E+01  0.398173246726E+01  0.000000000000E+00  0.698517061619E+00  0.964171764089E+00  0.125000000000E+01  0.000000000000E+00
  0.500000000000E+01  0.310324758057E+01  0.250000000000E+01  0.375000000000E+01  0.000000000000E+00
  0.250000000000E+01  0.250000000000E+01  0.250000000000E+01  0.250000000000E+01  0.250000000000E+01  0.250000000000E+01  0.250000000000E+01
  0.250000000000E+01  0.250000000000E+01  0.250000000000E+01  0.250000000000E+01  0.250000000000E+01  0.250000000000E+01  0.250000000000E+01
  0.250000000000E+01  0.250000000000E+01  0.250000000000E+01  0.250000000000E+01  0.250000000000E+01  0.250000000000E+01  0.250000000000E+01
  0.250000000000E+01  0.250000000000E+01  0.250000000000E+01  0.250000000000E+01  0.250000000000E+01  0.250000000000E+01  0.250000000000E+01
  0.250000000000E+01  0.250000000000E+01  0.250000000000E+01  0.250000000000E+01  0.250000000000E+01
  0.000000000000E+00  0.000000000000E+00  0.000000000000E+00  0.101201586758E+01  0.904659890645E+00  0.000000000000E+00  0.717002441913E+00
  0.125000000000E+01  0.188609243358E+01  0.191586535653E+01  0.176246431481E+01  0.000000000000E+00  0.961328577125E+00  0.250000000000E+01
  0.285047954584E+01  0.293121848150E+01  0.205246550326E+01  0.292817774674E+01  0.125000000000E+01  0.375000000000E+01  0.363585050272E+01
  0.395907379566E+01  0.406975391361E+01  0.250000000000E+01  0.306828197606E+01  0.397245519226E+01  0.500000000000E+01  0.375000000000E+01
  0.500000000000E+01  0.433168271247E+01  0.500000000000E+01  0.500000000000E+01  0.500000000000E+01
  0.000000000000E+00  0.000000000000E+00  0.000000000000E+00  0.443767745459E+00  0.402286944574E+00  0.000000000000E+00  0.377550369545E+00
  0.509232128688E+00  0.575832179754E+00  0.573707405285E+00  0.562554064412E+00  0.000000000000E+00  0.490563299840E+00  0.534527096543E+00
  0.556586982170E+00  0.564391577749E+00  0.522730517385E+00  0.522052000170E+00  0.441238348384E+00  0.517182331791E+00  0.524228630763E+00
  0.503687457534E+00  0.509488571178E+00  0.469814974359E+00  0.495614442414E+00  0.494483780212E+00  0.488562428343E+00  0.488961654628E+00
  0.492980744788E+00  0.499005552222E+00  0.486460936507E+00  0.484596927548E+00  0.495346592024E+00
  0.999989339439E+00  0.999989408764E+00  0.999989626853E+00  0.981541895460E+00  0.988773990194E+00  0.999989827144E+00  0.982469462434E+00
  0.984104309047E+00  0.990427545862E+00  0.990355285694E+00  0.994362997073E+00  0.999990295028E+00  0.988652071037E+00  0.100368369414E+01
  0.999769197113E+00  0.100118501219E+01  0.100834885320E+01  0.100252111043E+01  0.102982719499E+01  0.100443319461E+01  0.100199536635E+01
  0.100082056599E+01  0.100138192342E+01  0.100826277309E+01  0.100298787130E+01  0.100192389555E+01  0.100215267510E+01  0.100355660048E+01
  0.100047670023E+01  0.100056591053E+01  0.100126820231E+01  0.100066573360E+01  0.100179336279E+01
 -0.956256245261E-18 -0.415727664683E-18 -0.844138432473E-21  0.405383186557E-19  0.222397248782E-18  0.310572592348E-18  0.201898663974E-18
 -0.784427737648E-19  0.234628468139E-19 -0.161068774916E-19  0.163449419728E-18  0.171322814039E-18  0.227142686482E-18  0.358084062629E-19
  0.366492005290E-19  0.366474597618E-19  0.130014519268E-18  0.265881328788E-19 -0.274096696850E-19  0.509454919592E-19  0.422380110265E-19
  0.500971736959E-19  0.458186272805E-19  0.450255429927E-19  0.938109167071E-20  0.156476808600E-18  0.665004157960E-18  0.110008470670E-18
  0.637078175459E-19  0.795946698465E-19  0.579115046613E-18  0.286733529310E-18  0.963504641533E-18
  0.291752950940E-19 -0.745992609833E-19  0.639154676788E-19  0.898466428459E-19 -0.195212358183E-18 -0.848736020334E-19 -0.365586757233E-18
  0.261673619922E-19  0.351529485851E-19  0.525461945142E-19 -0.156425751972E-18  0.115521060391E-18 -0.990074619527E-21 -0.896502637249E-20
 -0.176368231643E-19  0.369124351687E-20 -0.445899543367E-19 -0.604275066636E-19  0.275398955557E-19 -0.127389127685E-19 -0.248186358885E-19
 -0.268902571694E-19 -0.201716637323E-19  0.108947394353E-19 -0.407730151450E-19  0.916473754141E-20  0.104154733496E-18  0.190701561004E-19
 -0.637862759838E-20 -0.212339136638E-19  0.733256660025E-19  0.254437591736E-19  0.194785606003E-18
 -0.137461229300E-18 -0.983301704699E-19 -0.153093760938E-19 -0.809522077410E-19 -0.120876718258E-18 -0.442990946155E-19 -0.335314701791E-19
 -0.568540229124E-20 -0.286903662604E-19 -0.935653956013E-20 -0.429466147991E-19 -0.146346745503E-19 -0.345052956109E-19 -0.130532482012E-20
 -0.653480343290E-20 -0.575406565110E-20 -0.224075095636E-19 -0.803350795066E-20  0.152832343919E-19  0.351310732527E-21  0.211080892688E-20
 -0.578058839556E-21 -0.292689545011E-22 -0.779779028510E-22 -0.460165179464E-20 -0.997378407410E-21  0.104829503106E-20  0.466269321918E-21
  0.357155655018E-21  0.511253867883E-23  0.252034913519E-21 -0.229956020359E-22  0.134853107502E-20
  0.294255924029E-18  0.182617061602E-18  0.226146356881E-19  0.414759765303E-18  0.522590691577E-18 -0.863709950837E-19  0.397066497272E-18
 -0.132835925802E-19  0.223210071953E-18  0.330435372770E-19  0.263513534373E-18 -0.129717316775E-18 -0.691234130782E-19  0.168858483061E-21
  0.640216300937E-19  0.217088842965E-19  0.676585986096E-19  0.543026879231E-19 -0.853162489747E-19 -0.315390998271E-20  0.128678978174E-19
 -0.269090474176E-20 -0.425034022310E-20  0.219097369513E-19  0.296576431027E-19 -0.870506367982E-20 -0.209596302982E-19  0.492457872970E-21
 -0.766180935692E-20 -0.587671638821E-20 -0.219786288623E-19 -0.170052539173E-19 -0.158140124818E-19
  0.177261925695E-18  0.530664592102E-19  0.148492149865E-19 -0.890482587514E-19 -0.748038644755E-19  0.479828161957E-19  0.350609978856E-19
  0.251820713888E-19 -0.204149965248E-19 -0.105254843618E-19 -0.184616595610E-19 -0.653629951848E-19 -0.627529975893E-19 -0.677406441564E-20
 -0.602734658603E-21 -0.115997432726E-19 -0.230087448567E-19  0.152783181943E-19 -0.532135440436E-20 -0.978180235952E-20 -0.171502188757E-20
 -0.371732742324E-20 -0.624167955782E-20 -0.115315845610E-19  0.101899566358E-19 -0.535835042699E-19 -0.264816551766E-18 -0.406560043297E-19
 -0.178104521514E-19 -0.179058560295E-19 -0.225292676143E-18 -0.106308738949E-18 -0.398989197714E-18
        15         9        16        16
        15        18        11        11
        22        15        21        21
        11         5         9         9
         5         7         2         2
        11         9        15        15
        16        21        15        15
        16        10        14        14
        18        17        11        11
        17        25        24        24
        22        18        15        15
        22        30        31        31
        30        21        23        23
        16        20        23        23
        22        27        26        26
        10         9         4         4
         7        11        13        13
        25        18        26        26
        11         7         5         5
         5         1         4         4
        17        19        13        13
        23        32        30        30
        23        20        29        29
         4         9         5         5
         4         8        10        10
        26        18        22        22
        26        28        25        25
        13        11        17        17
        13         6         7         7
        31        30        32        32
         2         1         5         5
         2         7         6         6
        14        10         8         8
        24        19        17        17
        24        25        28        28
         9        10        16        16
         3         4         1         1
        33        26        27        27
        12        13        19        19
        21        30        22        22
        16        14        20        20
        16        23        21        21
        22        31        27        27
        18        25        17        17
        26        33        28        28
         4         3         8         8
        23        29        32        32
        13        12         6         6
zone t="boundary 4 bc-4", solutiontime= 0.4000000E+02, strandid=1004, i=32, j=46, f=feblock
  0.125000000000E+01  0.219251206392E+01  0.103724302461E+01  0.500000000000E+01  0.250000000000E+01  0.375000000000E+01  0.404200324774E+01
  0.500000000000E+01  0.000000000000E+00  0.310152362409E+01  0.202479342020E+01  0.324151231464E+01  0.922061490191E+00  0.000000000000E+00
  0.299062775774E+01  0.394624082883E+01  0.500000000000E+01  0.409252726285E+01  0.500000000000E+01  0.429310310915E+01  0.175434191980E+01
  0.284428995242E+01  0.000000000000E+00  0.000000000000E+00  0.715990576545E+00  0.930412228790E+00  0.125000000000E+01  0.187029682677E+01
  0.500000000000E+01  0.375000000000E+01  0.250000000000E+01  0.000000000000E+00
  0.250000000000E+01  0.157686156160E+01  0.146289271009E+01  0.250000000000E+01  0.250000000000E+01  0.250000000000E+01  0.155830813274E+01
  0.125000000000E+01  0.250000000000E+01  0.177790177481E+01  0.477386199275E+00  0.742988685424E+00  0.308372018325E+00  0.125000000000E+01
 -0.487811078581E+00 -0.144524380962E+01 -0.125000000000E+01 -0.345533899378E+00  0.000000000000E+00  0.627766083140E+00 -0.739814786992E+00
 -0.158811787973E+01  0.000000000000E+00 -0.125000000000E+01 -0.600232012419E+00 -0.154800130438E+01 -0.250000000000E+01 -0.178862290564E+01
 -0.250000000000E+01 -0.250000000000E+01 -0.250000000000E+01 -0.250000000000E+01
  0.500000000000E+01  0.500000000000E+01  0.500000000000E+01  0.500000000000E+01  0.500000000000E+01  0.500000000000E+01  0.500000000000E+01
  0.500000000000E+01  0.500000000000E+01  0.500000000000E+01  0.500000000000E+01  0.500000000000E+01  0.500000000000E+01  0.500000000000E+01
  0.500000000000E+01  0.500000000000E+01  0.500000000000E+01  0.500000000000E+01  0.500000000000E+01  0.500000000000E+01  0.500000000000E+01
  0.500000000000E+01  0.500000000000E+01  0.500000000000E+01  0.500000000000E+01  0.500000000000E+01  0.500000000000E+01  0.500000000000E+01
  0.500000000000E+01  0.500000000000E+01  0.500000000000E+01  0.500000000000E+01
  0.488562428343E+00  0.488873127044E+00  0.490562939264E+00  0.492980744788E+00  0.486460936507E+00  0.484596927548E+00  0.485347896276E+00
  0.494163542317E+00  0.495346592024E+00  0.486528232758E+00  0.487819998460E+00  0.487068916091E+00  0.494045904395E+00  0.496127394917E+00
  0.487612357629E+00  0.483219722850E+00  0.492395510969E+00  0.487214141159E+00  0.494738985333E+00  0.487958525499E+00  0.489677249447E+00
  0.488029107105E+00  0.497246279768E+00  0.496059270892E+00  0.494951052257E+00  0.492800373677E+00  0.490002767114E+00  0.490005124553E+00
  0.491352304715E+00  0.486075475228E+00  0.490036479234E+00  0.495098264817E+00
  0.100215267510E+01  0.100152652958E+01  0.100178347660E+01  0.100047670023E+01  0.100126820231E+01  0.100066573360E+01  0.100025357725E+01
  0.100050391679E+01  0.100179336279E+01  0.100112367258E+01  0.100133045248E+01  0.100072432973E+01  0.100164366725E+01  0.100168844809E+01
  0.100096274503E+01  0.100000874853E+01  0.100082864314E+01  0.100022269190E+01  0.100062146074E+01  0.100023497311E+01  0.100174635719E+01
  0.100098855496E+01  0.100118726928E+01  0.100134171022E+01  0.100132635956E+01  0.100179873777E+01  0.100192656835E+01  0.100163748619E+01
  0.100045434508E+01  0.100058774183E+01  0.100109993754E+01  0.100176112495E+01
  0.665004157960E-18  0.655954282982E-18  0.730595522817E-18  0.637078175459E-19  0.579115046613E-18  0.286733529310E-18  0.210264023993E-18
  0.656467372987E-19  0.963504641533E-18  0.470893709825E-18  0.858235502053E-18  0.546448568688E-18  0.107845096232E-17  0.108089280770E-17
  0.764514970220E-18  0.354154290881E-18  0.133290131815E-18  0.382503967862E-18  0.880696049151E-19  0.313994425549E-18  0.127385809315E-17
  0.832393889895E-18  0.138944201390E-17  0.141232571335E-17  0.138615712384E-17  0.120947117462E-17  0.124243464785E-17  0.129339238034E-17
  0.154263734730E-18  0.572421688757E-18  0.108123442387E-17  0.137972531095E-17