title="tecplot geometry and solution file"
variables = x y z mach temperature lambda1 lambda2 lambda3 lambda4 lambda5
zone t="boundary 1 bc-1", solutiontime= 0.3000000E+02, strandid=1001, i=32, j=46, f=feblock
  0.000000000000E+00  0.000000000000E+00  0.000000000000E+00  0.000000000000E+00  0.000000000000E+00  0.000000000000E+00  0.000000000000E+00
  0.000000000000E+00  0.000000000000E+00  0.000000000000E+00  0.000000000000E+00  0.000000000000E+00  0.000000000000E+00  0.000000000000E+00
  0.000000000000E+00  0.000000000000E+00  0.000000000000E+00  0.000000000000E+00  0.000000000000E+00  0.000000000000E+00  0.000000000000E+00
  0.000000000000E+00  0.000000000000E+00  0.000000000000E+00  0.000000000000E+00  0.000000000000E+00  0.000000000000E+00  0.000000000000E+00
  0.000000000000E+00  0.000000000000E+00  0.000000000000E+00  0.000000000000E+00
  0.250000000000E+01  0.250000000000E+01  0.125000000000E+01  0.146289271009E+01  0.157686156160E+01  0.308372018325E+00  0.000000000000E+00
 -0.125000000000E+01 -0.600232012419E+00  0.250000000000E+01  0.477386199275E+00  0.742988685424E+00 -0.739814786992E+00  0.177790177481E+01
  0.155830813274E+01  0.250000000000E+01 -0.250000000000E+01 -0.154800130438E+01 -0.487811078581E+00  0.250000000000E+01  0.627766083140E+00
 -0.345533899378E+00 -0.178862290564E+01 -0.158811787973E+01  0.125000000000E+01 -0.250000000000E+01 -0.144524380962E+01  0.000000000000E+00
 -0.125000000000E+01 -0.250000000000E+01 -0.250000000000E+01 -0.250000000000E+01
  0.000000000000E+00  0.125000000000E+01  0.000000000000E+00  0.103724302461E+01  0.219251206392E+01  0.922061490191E+00  0.000000000000E+00
  0.000000000000E+00  0.715990576545E+00  0.250000000000E+01  0.202479342020E+01  0.324151231464E+01  0.175434191980E+01  0.310152362409E+01
  0.404200324774E+01  0.375000000000E+01  0.000000000000E+00  0.930412228790E+00  0.299062775774E+01  0.500000000000E+01  0.429310310915E+01
  0.409252726285E+01  0.187029682677E+01  0.284428995242E+01  0.500000000000E+01  0.125000000000E+01  0.394624082883E+01  0.500000000000E+01
  0.500000000000E+01  0.250000000000E+01  0.375000000000E+01  0.500000000000E+01
  0.000000000000E+00  0.441238348384E+00  0.000000000000E+00  0.475214987021E+00  0.460123708856E+00  0.468827815405E+00  0.000000000000E+00
  0.000000000000E+00  0.402302516798E+00  0.469814974359E+00  0.464411128942E+00  0.478714034184E+00  0.489298241651E+00  0.483068557888E+00
  0.487930073118E+00  0.488961654628E+00  0.000000000000E+00  0.464775721414E+00  0.473795651891E+00  0.495346592024E+00  0.490266103446E+00
  0.486286083902E+00  0.445717618051E+00  0.464382274634E+00  0.496127394917E+00  0.443624103833E+00  0.486964461957E+00  0.497246279768E+00
  0.496059270892E+00  0.467732355362E+00  0.488212087362E+00  0.495098264817E+00
  0.999990295028E+00  0.102982719499E+01  0.999990757903E+00  0.104247294232E+01  0.101190080524E+01  0.102520618293E+01  0.999991416700E+00
  0.999992168096E+00  0.103891223624E+01  0.100826277309E+01  0.101252833877E+01  0.100300548289E+01  0.102702865700E+01  0.100605563290E+01
  0.100244400478E+01  0.100355660048E+01  0.999992721792E+00  0.103239739214E+01  0.100459524090E+01  0.100179336279E+01  0.100260305842E+01
  0.100234966417E+01  0.101657153079E+01  0.100617544692E+01  0.100168844809E+01  0.104043292670E+01  0.100303376377E+01  0.100118726928E+01
  0.100134171022E+01  0.100976788415E+01  0.100405369352E+01  0.100176112495E+01
  0.171322233048E-18 -0.275545479590E-19 -0.842492648978E-19 -0.393701481196E-19  0.654553461823E-19 -0.356965512237E-18 -0.348183602559E-18
 -0.125636741703E-18 -0.175353476664E-17  0.452804210584E-19  0.108538549862E-18  0.138370830649E-19  0.333203560217E-18  0.242226498692E-20
  0.156939582050E-18  0.110272983962E-18 -0.290222089602E-18  0.655538484700E-18  0.566396964251E-19  0.963651649660E-18  0.301067534901E-18
  0.193066430638E-18  0.218906097990E-18  0.488553592175E-19  0.108101409055E-17  0.601409591626E-18  0.203227346125E-18  0.138973472575E-17
  0.141220670622E-17  0.394922617388E-19  0.187127175088E-18  0.137950348422E-17
  0.115524436164E-18  0.274897071719E-19  0.138412050725E-18  0.842951684331E-19  0.137500567703E-19  0.115753064012E-18  0.175413896285E-19
  0.320887728527E-20 -0.116199654100E-18  0.109436568802E-19  0.539092831399E-19  0.113303165140E-19  0.113179445971E-18 -0.848547116918E-22
  0.294340399046E-19  0.191245439834E-19 -0.383662182947E-20  0.164616041853E-18  0.238455549318E-19  0.194808150538E-18  0.615492933002E-19
  0.416163506486E-19  0.963572106185E-19  0.400283170164E-19  0.222506898163E-18  0.190579951514E-18  0.459092650378E-19  0.288010145343E-18
  0.292690186271E-18  0.399984579533E-19  0.485238744845E-19  0.285199151089E-18
 -0.146356218574E-19  0.152832547483E-19  0.100083405310E-18  0.170061585500E-18 -0.247380359053E-19  0.158998918323E-18  0.181430947299E-19
 -0.261425147791E-19 -0.124981519404E-18 -0.773617797646E-22  0.233727055329E-20 -0.576599309915E-19 -0.995080819297E-19 -0.423403261796E-19
 -0.307064601222E-19  0.464244651417E-21  0.241029304264E-19 -0.930907145451E-19 -0.513108757381E-19  0.134864654262E-20 -0.447345378057E-19
 -0.500140800353E-19 -0.495701210956E-19 -0.537495182454E-19 -0.251368101893E-19  0.106113262145E-19 -0.330062982752E-19 -0.295719142488E-19
 -0.199958116907E-19 -0.699382612970E-21  0.648020776883E-21  0.150807023920E-20
 -0.129710004054E-18 -0.852508451910E-19 -0.149725659486E-18 -0.117554725129E-18 -0.278975264345E-19 -0.150157394837E-18  0.216147367618E-20
 -0.187965691640E-19 -0.129402273124E-18  0.219462675191E-19 -0.213474795785E-19 -0.443139563212E-19  0.318981891284E-19 -0.110542382813E-19
 -0.185868720323E-19  0.518769309216E-21  0.204707738353E-19  0.164694366407E-19 -0.690580578846E-19 -0.158359496531E-19 -0.344244897284E-19
 -0.526235990043E-19 -0.136831794798E-18 -0.110077197288E-18 -0.166636772226E-19 -0.721071112278E-19 -0.705310086712E-19 -0.160505224909E-19
 -0.238218431938E-19 -0.138746598616E-18 -0.850877103211E-19 -0.234605485883E-19
 -0.653553835260E-19 -0.525186068047E-20  0.523152705950E-19  0.115856557933E-20 -0.187973659289E-19  0.920966941192E-20  0.136694399889E-18
  0.127471209131E-19  0.552629478715E-18 -0.116364304378E-19 -0.378890089375E-19 -0.424835773889E-20 -0.138280789055E-18  0.469462409086E-20
 -0.590390025267E-19 -0.407621139247E-19  0.343671235131E-19 -0.278929809099E-18 -0.220306631310E-19 -0.399053322681E-18 -0.119332358520E-18
 -0.745859615067E-19 -0.100542644306E-18 -0.199582106232E-19 -0.448515408504E-18 -0.273939924956E-18 -0.777195567914E-19 -0.579332728883E-18
 -0.587240397557E-18 -0.199211226561E-19 -0.733980619726E-19 -0.572522699814E-18
        12        19        11        11
        11         5        12        12
        10        14         5         5
        19        13        11        11
        19        24        13        13
        30        23        24        24
        19        12        22        22
        28        22        21        21
        11        13         6         6
         7         6         9         9
        15        12        14        14
        18        13        23        23
        15        25        21        21
        27        19        22        22
        18         8         9         9
        27        31        24        24
         4        11         6         6
         5        14        12        12
         4         2         5         5
        21        12        15        15
        14        16        15        15
        24        19        27        27
        22        29        27        27
        23        26        18        18
        17         8        18        18
         5        11         4         4
         6         3         4         4
        26        23        30        30
         5         2        10        10
        16        14        10        10
         3         6         7         7
        21        25        28        28
        29        22        28        28
         6        13         9         9
         2         4         1         1
        31        27        32        32
        25        15        20        20
        24        23        13        13
         8         7         9         9
        13        18         9         9
        31        30        24        24
        12        21        22        22
        29        32        27        27
         3         1         4         4
        26        17        18        18
        16        20        15        15
zone t="boundary 2 bc-2", solutiontime= 0.3000000E+02, strandid=1002, i=33, j=48, f=feblock
  0.500000000000E+01  0.375000000000E+01  0.250000000000E+01  0.288078410721E+01  0.125000000000E+01  0.190974100652E+01  0.326683758169E+01
  0.201431602454E+01  0.000000000000E+00  0.963108083381E+00  0.500000000000E+01  0.403552511878E+01  0.423153924130E+01  0.500000000000E+01
  0.385533350601E+01  0.500000000000E+01  0.398173246726E+01  0.315249557942E+01  0.267000324704E+01  0.154774304040E+01  0.218329375016E+01
  0.893127759452E+00  0.000000000000E+00  0.698517061619E+00  0.964171764089E+00  0.310324758057E+01  0.000000000000E+00  0.000000000000E+00
  0.125000000000E+01  0.500000000000E+01  0.375000000000E+01  0.250000000000E+01  0.000000000000E+00
 -0.250000000000E+01 -0.250000000000E+01 -0.250000000000E+01 -0.250000000000E+01 -0.250000000000E+01 -0.250000000000E+01 -0.250000000000E+01
 -0.250000000000E+01 -0.250000000000E+01 -0.250000000000E+01 -0.250000000000E+01 -0.250000000000E+01 -0.250000000000E+01 -0.250000000000E+01
 -0.250000000000E+01 -0.250000000000E+01 -0.250000000000E+01 -0.250000000000E+01 -0.250000000000E+01 -0.250000000000E+01 -0.250000000000E+01
 -0.250000000000E+01 -0.250000000000E+01 -0.250000000000E+01 -0.250000000000E+01 -0.250000000000E+01 -0.250000000000E+01 -0.250000000000E+01
 -0.250000000000E+01 -0.250000000000E+01 -0.250000000000E+01 -0.250000000000E+01 -0.250000000000E+01
  0.000000000000E+00  0.000000000000E+00  0.000000000000E+00  0.904659890645E+00  0.000000000000E+00  0.717002441913E+00  0.188609243358E+01
  0.176246431481E+01  0.000000000000E+00  0.961328577125E+00  0.125000000000E+01  0.101201586758E+01  0.191586535653E+01  0.250000000000E+01
  0.293121848150E+01  0.375000000000E+01  0.406975391361E+01  0.363585050272E+01  0.285047954584E+01  0.292817774674E+01  0.395907379566E+01
  0.205246550326E+01  0.125000000000E+01  0.306828197606E+01  0.397245519226E+01  0.433168271247E+01  0.250000000000E+01  0.375000000000E+01
  0.500000000000E+01  0.500000000000E+01  0.500000000000E+01  0.500000000000E+01  0.500000000000E+01
  0.000000000000E+00  0.000000000000E+00  0.000000000000E+00  0.380991906500E+00  0.000000000000E+00  0.343629824950E+00  0.585286157424E+00
  0.579373264282E+00  0.000000000000E+00  0.501056069140E+00  0.508460362676E+00  0.435373026572E+00  0.572640041190E+00  0.537002098944E+00
  0.568922553871E+00  0.514994090651E+00  0.508247257160E+00  0.527252853130E+00  0.567446661127E+00  0.531657143909E+00  0.505981016593E+00
  0.520795579399E+00  0.443624103833E+00  0.490663730453E+00  0.492155873749E+00  0.501390784676E+00  0.467732355362E+00  0.488212087362E+00
  0.490002767114E+00  0.491352304715E+00  0.486075475228E+00  0.490036479234E+00  0.495098264817E+00
  0.999993487379E+00  0.999993690057E+00  0.999993543115E+00  0.989539055875E+00  0.999993137282E+00  0.985524707174E+00  0.989838908967E+00
  0.991798516580E+00  0.999992721792E+00  0.984411112416E+00  0.985091906406E+00  0.984689080896E+00  0.990058464829E+00  0.100289621837E+01
  0.999855369243E+00  0.100485306649E+01  0.100121554699E+01  0.100055642931E+01  0.997896793475E+00  0.100350029570E+01  0.100058068723E+01
  0.101093276247E+01  0.104043292670E+01  0.100326475367E+01  0.100254498742E+01  0.100045587387E+01  0.100976788415E+01  0.100405369352E+01
  0.100192656835E+01  0.100045434508E+01  0.100058774183E+01  0.100109993754E+01  0.100176112495E+01
  0.143843271651E-18  0.727124671555E-18 -0.367111051341E-18  0.144825966125E-18  0.356563263907E-18  0.179944966544E-17  0.365384032675E-18
  0.353153087458E-18 -0.290222089602E-18  0.103159112968E-17  0.388644079619E-18  0.591513622933E-18  0.308730350999E-18  0.236050397010E-18
  0.168888411449E-18  0.131904858814E-18  0.101769092007E-18  0.113036473172E-18  0.190631215047E-18  0.993737130175E-19  0.142425809723E-18
  0.342785200613E-18  0.601409591626E-18  0.980334518338E-19  0.226329852221E-18  0.176701582836E-18  0.394922617388E-19  0.187127175088E-18
  0.124244185463E-17  0.154259172493E-18  0.572401055106E-18  0.108124525658E-17  0.137950348422E-17
 -0.957343877798E-19  0.275964585149E-19 -0.121821716081E-19  0.325514378525E-19  0.608817743542E-19  0.839925912471E-19  0.493961001391E-20
  0.424272347993E-19 -0.383662182947E-20  0.408887795949E-18 -0.846065307836E-19  0.188904499063E-19 -0.784530922905E-19 -0.618205989972E-19
 -0.453834522545E-19 -0.309227869881E-19 -0.381429322142E-19 -0.341700652366E-19 -0.314052723885E-19  0.226973745162E-20 -0.163731080824E-19
  0.162383438433E-18  0.190579951514E-18  0.338138514392E-19  0.242932327456E-19 -0.180210137074E-19  0.399984579533E-19  0.485238744845E-19
  0.225889034744E-18 -0.684362937766E-20  0.570602088127E-19  0.171479121931E-18  0.285199151089E-18
  0.189641520569E-19 -0.600794865656E-19  0.674092520147E-19  0.467781028382E-19 -0.300546452914E-19 -0.935970274398E-19 -0.735519493966E-20
 -0.179681497270E-19  0.241029304264E-19 -0.496344849577E-19  0.530417847859E-20 -0.717682750123E-20  0.251574132084E-20 -0.318785329408E-21
 -0.143358315310E-20  0.118937683231E-20 -0.108915651030E-20  0.218049743715E-20 -0.123333050631E-20 -0.702122074735E-21  0.543183127182E-22
 -0.699481015793E-21  0.106113262145E-19 -0.103098211506E-21 -0.118643235051E-20  0.577715303468E-21 -0.699382612970E-21  0.648020776883E-21
  0.488534591368E-21  0.478865574438E-21  0.434697408097E-21 -0.472425052961E-21  0.150807023920E-20
 -0.244017055238E-19 -0.160553171408E-18  0.834990495477E-19 -0.341152457367E-18 -0.922161124239E-19 -0.427653992677E-18 -0.124492934729E-18
 -0.252441379888E-18  0.204707738353E-19 -0.253321872563E-18 -0.160980843275E-20 -0.207628904113E-18 -0.538801885962E-19 -0.130984308948E-19
 -0.526260900139E-19 -0.102285934234E-19 -0.336706916828E-19 -0.581288610130E-19 -0.999369447653E-19 -0.134901696525E-18 -0.644085241279E-19
 -0.209334792412E-18 -0.721071112278E-19 -0.124753562099E-18 -0.682006037652E-19 -0.499544839851E-19 -0.138746598616E-18 -0.850877103211E-19
 -0.322002547367E-19 -0.159151656568E-19 -0.349436683710E-19 -0.376634198731E-19 -0.234605485883E-19
  0.189331348592E-19 -0.540622156373E-19  0.559718213614E-20 -0.104741415619E-18 -0.818325625848E-19 -0.549779238778E-18 -0.104060908281E-18
 -0.113581494283E-18  0.343671235131E-19 -0.476181542841E-18 -0.864432474778E-19 -0.203165309756E-18 -0.639888523370E-19 -0.454041133439E-19
 -0.326377435857E-19 -0.265363739014E-19 -0.142620952402E-19 -0.199301917249E-19 -0.447152483475E-19 -0.242511545911E-19 -0.367174668431E-19
 -0.155741577946E-18 -0.273939924956E-18 -0.338380991682E-19 -0.802447023961E-19 -0.478920569874E-19 -0.199211226561E-19 -0.733980619726E-19
 -0.505405761918E-18 -0.468615151377E-19 -0.214778477284E-18 -0.431029057767E-18 -0.572522699814E-18
        15         7        19        19
         8        20        19        19
        18        19        21        21
         7         4         8         8
         3         6         4         4
        19         7         8         8
        19        18        15        15
        14        13        15        15
         8        22        20        20
        27        24        22        22
        19        20        21        21
        32        26        21        21
        17        18        26        26
        17        16        15        15
        25        29        21        21
        12         7        13        13
        10         8         6         6
        25        20        24        24
         4         6         8         8
        12         2         4         4
        10        23        22        22
        26        31        17        17
        30        16        17        17
         4         7        12        12
        13        11        12        12
        21        20        25        25
        24        28        25        25
        22         8        10        10
         6         5        10        10
        31        26        32        32
         4         2         3         3
         5         6         3         3
        11        13        14        14
        22        23        27        27
        28        24        27        27
        15        13         7         7
         2        12         1         1
        29        25        33        33
        23        10         9         9
        21        26        18        18
        16        14        15        15
        18        17        15        15
        29        32        21        21
        22        24        20        20
        28        33        25        25
        11         1        12        12
        31        30        17        17
         5         9        10        10
zone t="boundary 3 bc-3", solutiontime= 0.3000000E+02, strandid=1003, i=33, j=48, f=feblock
  0.375000000000E+01  0.250000000000E+01  0.500000000000E+01  0.403552511878E+01  0.288078410721E+01  0.125000000000E+01  0.190974100652E+01
  0.500000000000E+01  0.326683758169E+01  0.423153924130E+01  0.201431602454E+01  0.000000000000E+00  0.963108083381E+00  0.500000000000E+01
  0.267000324704E+01  0.385533350601E+01  0.893127759452E+00  0.154774304040E+01  0.000000000000E+00  0.500000000000E+01  0.315249557942E+01
  0.218329375016E+01  0.398173246726E+01  0.000000000000E+00  0.698517061619E+00  0.964171764089E+00  0.125000000000E+01  0.000000000000E+00
  0.500000000000E+01  0.310324758057E+01  0.250000000000E+01  0.375000000000E+01  0.000000000000E+00
  0.250000000000E+01  0.250000000000E+01  0.250000000000E+01  0.250000000000E+01  0.250000000000E+01  0.250000000000E+01  0.250000000000E+01
  0.250000000000E+01  0.250000000000E+01  0.250000000000E+01  0.250000000000E+01  0.250000000000E+01  0.250000000000E+01  0.250000000000E+01
  0.250000000000E+01  0.250000000000E+01  0.250000000000E+01  0.250000000000E+01  0.250000000000E+01  0.250000000000E+01  0.250000000000E+01
  0.250000000000E+01  0.250000000000E+01  0.250000000000E+01  0.250000000000E+01  0.250000000000E+01  0.250000000000E+01  0.250000000000E+01
  0.250000000000E+01  0.250000000000E+01  0.250000000000E+01  0.250000000000E+01  0.250000000000E+01
  0.000000000000E+00  0.000000000000E+00  0.000000000000E+00  0.101201586758E+01  0.904659890645E+00  0.000000000000E+00  0.717002441913E+00
  0.125000000000E+01  0.188609243358E+01  0.191586535653E+01  0.176246431481E+01  0.000000000000E+00  0.961328577125E+00  0.250000000000E+01
  0.285047954584E+01  0.293121848150E+01  0.205246550326E+01  0.292817774674E+01  0.125000000000E+01  0.375000000000E+01  0.363585050272E+01
  0.395907379566E+01  0.406975391361E+01  0.250000000000E+01  0.306828197606E+01  0.397245519226E+01  0.500000000000E+01  0.375000000000E+01
  0.500000000000E+01  0.433168271247E+01  0.500000000000E+01  0.500000000000E+01  0.500000000000E+01
  0.000000000000E+00  0.000000000000E+00  0.000000000000E+00  0.443767745459E+00  0.402286944574E+00  0.000000000000E+00  0.377550369545E+00
  0.509232128688E+00  0.575832179754E+00  0.573707405285E+00  0.562554064412E+00  0.000000000000E+00  0.490563299840E+00  0.534527096543E+00
  0.556586982170E+00  0.564391577749E+00  0.522730517385E+00  0.522052000170E+00  0.441238348384E+00  0.517182331791E+00  0.524228630763E+00
  0.503687457534E+00  0.509488571178E+00  0.469814974359E+00  0.495614442414E+00  0.494483780212E+00  0.488562428343E+00  0.488961654628E+00
  0.492980744788E+00  0.499005552222E+00  0.486460936507E+00  0.484596927548E+00  0.495346592024E+00
  0.999989339439E+00  0.999989408764E+00  0.999989626853E+00  0.981541895460E+00  0.988773990194E+00  0.999989827144E+00  0.982469462434E+00
  0.984104309047E+00  0.990427545862E+00  0.990355285694E+00  0.994362997073E+00  0.999990295028E+00  0.988652071037E+00  0.100368369414E+01
  0.999769197113E+00  0.100118501219E+01  0.100834885320E+01  0.100252111043E+01  0.102982719499E+01  0.100443319461E+01  0.100199536635E+01
  0.100082056599E+01  0.100138192342E+01  0.100826277309E+01  0.100298787130E+01  0.100192389555E+01  0.100215267510E+01  0.100355660048E+01
  0.100047670023E+01  0.100056591053E+01  0.100126820231E+01  0.100066573360E+01  0.100179336279E+01
 -0.956245225528E-18 -0.415715886882E-18 -0.841774319709E-21  0.405685506165E-19  0.222431015024E-18  0.310582732019E-18  0.202033394392E-18
 -0.784402122957E-19  0.234718896459E-19 -0.161006189151E-19  0.163553846215E-18  0.171322233048E-18  0.227284830257E-18  0.358059338999E-19
  0.366015082473E-19  0.366716039873E-19  0.129964748482E-18  0.264954304940E-19 -0.275545479590E-19  0.509482027387E-19  0.422178713977E-19
  0.500959704096E-19  0.458302483963E-19  0.452804210584E-19  0.936335639334E-20  0.156706763513E-18  0.664778523868E-18  0.110272983962E-18
  0.637140916059E-19  0.795374941382E-19  0.579277340731E-18  0.286678054575E-18  0.963651649660E-18
  0.291747844278E-19 -0.746004642751E-19  0.639152720427E-19  0.898251538674E-19 -0.195253369160E-18 -0.848641032993E-19 -0.365631299112E-18
  0.261645191973E-19  0.351575816610E-19  0.525430670162E-19 -0.156406360509E-18  0.115524436164E-18 -0.108532695612E-20 -0.896534502481E-20
 -0.176457411738E-19  0.369049906232E-20 -0.446458978662E-19 -0.604144459326E-19  0.274897071719E-19 -0.127380523186E-19 -0.248270192687E-19
 -0.268777205441E-19 -0.201684723607E-19  0.109436568802E-19 -0.407831488871E-19  0.920774697364E-20  0.104054375072E-18  0.191245439834E-19
 -0.637743188009E-20 -0.212403501364E-19  0.733599420930E-19  0.254361772372E-19  0.194808150538E-18
 -0.137461975532E-18 -0.983326342019E-19 -0.153094209345E-19 -0.809498519915E-19 -0.120877008315E-18 -0.442990365541E-19 -0.335342442466E-19
 -0.568518709313E-20 -0.286910129006E-19 -0.935633307395E-20 -0.429488118826E-19 -0.146356218574E-19 -0.344964275378E-19 -0.130524199582E-20
 -0.653452100215E-20 -0.575387123599E-20 -0.223898891093E-19 -0.803201454024E-20  0.152832547483E-19  0.351002638534E-21  0.211199456046E-20
 -0.577940482910E-21 -0.297663766743E-22 -0.773617797646E-22 -0.459687092924E-20 -0.992585184454E-21  0.105342016904E-20  0.464244651417E-21
  0.357143242008E-21  0.469540949553E-23  0.251497851137E-21 -0.237492749996E-22  0.134864654262E-20
  0.294255942372E-18  0.182614075937E-18  0.226149498534E-19  0.414763092907E-18  0.522590991657E-18 -0.863739474583E-19  0.397073896428E-18
 -0.132803940539E-19  0.223208459837E-18  0.330443724691E-19  0.263509707958E-18 -0.129710004054E-18 -0.690839233312E-19  0.170008615678E-21
  0.640144307876E-19  0.217088065993E-19  0.676747170126E-19  0.543007446448E-19 -0.852508451910E-19 -0.315182121089E-20  0.128588133538E-19
 -0.268825303304E-20 -0.425091865719E-20  0.219462675191E-19  0.296656644292E-19 -0.871257204524E-20 -0.209580332888E-19  0.518769309216E-21
 -0.766089890388E-20 -0.588118280099E-20 -0.219832802946E-19 -0.170032291678E-19 -0.158359496531E-19
  0.177262048315E-18  0.530653073977E-19  0.148493792511E-19 -0.890538882342E-19 -0.748106342019E-19  0.479717599733E-19  0.350165478135E-19
  0.251826677467E-19 -0.204194328780E-19 -0.105264341706E-19 -0.185078296949E-19 -0.653553835260E-19 -0.627907771322E-19 -0.677278594871E-20
 -0.582281553052E-21 -0.116084730299E-19 -0.229787627483E-19  0.153106070351E-19 -0.525186068047E-20 -0.978292991759E-20 -0.170509489293E-20
 -0.372052502028E-20 -0.624647258360E-20 -0.116364304378E-19  0.102021881377E-19 -0.536801136140E-19 -0.264708271897E-18 -0.407621139247E-19
 -0.178130332437E-19 -0.178831873518E-19 -0.225360471996E-18 -0.106286583693E-18 -0.399053322681E-18
        15         9        16        16
        15        18        11        11
        22        15        21        21
        11         5         9         9
         5         7         2         2
        11         9        15        15
        16        21        15        15
        16        10        14        14
        18        17        11        11
        17        25        24        24
        22        18        15        15
        22        30        31        31
        30        21        23        23
        16        20        23        23
        22        27        26        26
        10         9         4         4
         7        11        13        13
        25        18        26        26
        11         7         5         5
         5         1         4         4
        17        19        13        13
        23        32        30        30
        23        20        29        29
         4         9         5         5
         4         8        10        10
        26        18        22        22
        26        28        25        25
        13        11        17        17
        13         6         7         7
        31        30        32        32
         2         1         5         5
         2         7         6         6
        14        10         8         8
        24        19        17        17
        24        25        28        28
         9        10        16        16
         3         4         1         1
        33        26        27        27
        12        13        19        19
        21        30        22        22
        16        14        20        20
        16        23        21        21
        22        31        27        27
        18        25        17        17
        26        33        28        28
         4         3         8         8
        23        29        32        32
        13        12         6         6
zone t="boundary 4 bc-4", solutiontime= 0.3000000E+02, strandid=1004, i=32, j=46, f=feblock
  0.125000000000E+01  0.219251206392E+01  0.103724302461E+01  0.500000000000E+01  0.250000000000E+01  0.375000000000E+01  0.404200324774E+01
  0.500000000000E+01  0.000000000000E+00  0.310152362409E+01  0.202479342020E+01  0.324151231464E+01  0.922061490191E+00  0.000000000000E+00
  0.299062775774E+01  0.394624082883E+01  0.500000000000E+01  0.409252726285E+01  0.500000000000E+01  0.429310310915E+01  0.175434191980E+01
  0.284428995242E+01  0.000000000000E+00  0.000000000000E+00  0.715990576545E+00  0.930412228790E+00  0.125000000000E+01  0.187029682677E+01
  0.500000000000E+01  0.375000000000E+01  0.250000000000E+01  0.000000000000E+00
  0.250000000000E+01  0.157686156160E+01  0.146289271009E+01  0.250000000000E+01  0.250000000000E+01  0.250000000000E+01  0.155830813274E+01
  0.125000000000E+01  0.250000000000E+01  0.177790177481E+01  0.477386199275E+00  0.742988685424E+00  0.308372018325E+00  0.125000000000E+01
 -0.487811078581E+00 -0.144524380962E+01 -0.125000000000E+01 -0.345533899378E+00  0.000000000000E+00  0.627766083140E+00 -0.739814786992E+00
 -0.158811787973E+01  0.000000000000E+00 -0.125000000000E+01 -0.600232012419E+00 -0.154800130438E+01 -0.250000000000E+01 -0.178862290564E+01
 -0.250000000000E+01 -0.250000000000E+01 -0.250000000000E+01 -0.250000000000E+01
  0.500000000000E+01  0.500000000000E+01  0.500000000000E+01  0.500000000000E+01  0.500000000000E+01  0.500000000000E+01  0.500000000000E+01
  0.500000000000E+01  0.500000000000E+01  0.500000000000E+01  0.500000000000E+01  0.500000000000E+01  0.500000000000E+01  0.500000000000E+01
  0.500000000000E+01  0.500000000000E+01  0.500000000000E+01  0.500000000000E+01  0.500000000000E+01  0.500000000000E+01  0.500000000000E+01
  0.500000000000E+01  0.500000000000E+01  0.500000000000E+01  0.500000000000E+01  0.500000000000E+01  0.500000000000E+01  0.500000000000E+01
  0.500000000000E+01  0.500000000000E+01  0.500000000000E+01  0.500000000000E+01
  0.488562428343E+00  0.488873127044E+00  0.490562939264E+00  0.492980744788E+00  0.486460936507E+00  0.484596927548E+00  0.485347896276E+00
  0.494163542317E+00  0.495346592024E+00  0.486528232758E+00  0.487819998460E+00  0.487068916091E+00  0.494045904395E+00  0.496127394917E+00
  0.487612357629E+00  0.483219722850E+00  0.492395510969E+00  0.487214141159E+00  0.494738985333E+00  0.487958525499E+00  0.489677249447E+00
  0.488029107105E+00  0.497246279768E+00  0.496059270892E+00  0.494951052257E+00  0.492800373677E+00  0.490002767114E+00  0.490005124553E+00
  0.491352304715E+00  0.486075475228E+00  0.490036479234E+00  0.495098264817E+00
  0.100215267510E+01  0.100152652958E+01  0.100178347660E+01  0.100047670023E+01  0.100126820231E+01  0.100066573360E+01  0.100025357725E+01
  0.100050391679E+01  0.100179336279E+01  0.100112367258E+01  0.100133045248E+01  0.100072432973E+01  0.100164366725E+01  0.100168844809E+01
  0.100096274503E+01  0.100000874853E+01  0.100082864314E+01  0.100022269190E+01  0.100062146074E+01  0.100023497311E+01  0.100174635719E+01
  0.100098855496E+01  0.100118726928E+01  0.100134171022E+01  0.100132635956E+01  0.100179873777E+01  0.100192656835E+01  0.100163748619E+01
  0.100045434508E+01  0.100058774183E+01  0.100109993754E+01  0.100176112495E+01
  0.664778523868E-18  0.656136779425E-18  0.730415628107E-18  0.637140916059E-19  0.579277340731E-18  0.286678054575E-18  0.210264702552E-18
  0.656463707591E-19  0.963651649660E-18  0.470816074022E-18  0.858061206391E-18  0.546453363136E-18  0.107833021321E-17  0.108101409055E-17
  0.764507051138E-18  0.354149314728E-18  0.133280138021E-18  0.382509353756E-18  0.880711304311E-19  0.314013769265E-18  0.127378048913E-17
  0.832364247420E-18  0.138973472575E-17  0.141220670622E-17  0.138570616530E-17  0.120942578869E-17  0.124244185463E-17  0.129349436455E-17
  0.154259172493E-18  0.572401055106E-18  0.108124525658E-17  0.137950348422E-17