title="tecplot geometry and solution file"
variables = x y z rho u v w p mach temperature
zone t="boundary 1 bc-1", solutiontime= 0.8000000E+02, strandid=1001, i=32, j=46, f=feblock
  0.000000000000E+00  0.000000000000E+00  0.000000000000E+00  0.000000000000E+00  0.000000000000E+00  0.000000000000E+00  0.000000000000E+00
  0.000000000000E+00  0.000000000000E+00  0.000000000000E+00  0.000000000000E+00  0.000000000000E+00  0.000000000000E+00  0.000000000000E+00
  0.000000000000E+00  0.000000000000E+00  0.000000000000E+00  0.000000000000E+00  0.000000000000E+00  0.000000000000E+00  0.000000000000E+00
  0.000000000000E+00  0.000000000000E+00  0.000000000000E+00  0.000000000000E+00  0.000000000000E+00  0.000000000000E+00  0.000000000000E+00
  0.000000000000E+00  0.000000000000E+00  0.000000000000E+00  0.000000000000E+00
  0.250000000000E+01  0.250000000000E+01  0.125000000000E+01  0.146289271009E+01  0.157686156160E+01  0.308372018325E+00  0.000000000000E+00
 -0.125000000000E+01 -0.600232012419E+00  0.250000000000E+01  0.477386199275E+00  0.742988685424E+00 -0.739814786992E+00  0.177790177481E+01
  0.155830813274E+01  0.250000000000E+01 -0.250000000000E+01 -0.154800130438E+01 -0.487811078581E+00  0.250000000000E+01  0.627766083140E+00
 -0.345533899378E+00 -0.178862290564E+01 -0.158811787973E+01  0.125000000000E+01 -0.250000000000E+01 -0.144524380962E+01  0.000000000000E+00
 -0.125000000000E+01 -0.250000000000E+01 -0.250000000000E+01 -0.250000000000E+01
  0.000000000000E+00  0.125000000000E+01  0.000000000000E+00  0.103724302461E+01  0.219251206392E+01  0.922061490191E+00  0.000000000000E+00
  0.000000000000E+00  0.715990576545E+00  0.250000000000E+01  0.202479342020E+01  0.324151231464E+01  0.175434191980E+01  0.310152362409E+01
  0.404200324774E+01  0.375000000000E+01  0.000000000000E+00  0.930412228790E+00  0.299062775774E+01  0.500000000000E+01  0.429310310915E+01
  0.409252726285E+01  0.187029682677E+01  0.284428995242E+01  0.500000000000E+01  0.125000000000E+01  0.394624082883E+01  0.500000000000E+01
  0.500000000000E+01  0.250000000000E+01  0.375000000000E+01  0.500000000000E+01
  0.134424279790E+01  0.106355293247E+01  0.142580186810E+01  0.108608734967E+01  0.103228930313E+01  0.120094646443E+01  0.164462890932E+01
  0.149406330244E+01  0.123519473524E+01  0.102389155825E+01  0.102809301650E+01  0.101301689000E+01  0.103252873919E+01  0.101471786897E+01
  0.100663813446E+01  0.100830744213E+01  0.144943175493E+01  0.116393098518E+01  0.101462722754E+01  0.100425991077E+01  0.100679741644E+01
  0.100724480776E+01  0.104667900986E+01  0.101938321439E+01  0.100424750075E+01  0.106442195963E+01  0.100789267145E+01  0.100288797991E+01
  0.100334497775E+01  0.102847207865E+01  0.100958589053E+01  0.100399227117E+01
  0.000000000000E+00  0.445482792165E+00  0.000000000000E+00  0.468738875270E+00  0.462183937477E+00  0.443617471670E+00  0.000000000000E+00
  0.000000000000E+00  0.379277328261E+00  0.471740382999E+00  0.466576516554E+00  0.479356471123E+00  0.490160037075E+00  0.484515796593E+00
  0.488525579442E+00  0.489830996070E+00  0.000000000000E+00  0.450656170850E+00  0.474815427739E+00  0.495785421536E+00  0.490900146377E+00
  0.486836190166E+00  0.448670461161E+00  0.465808592614E+00  0.496536963134E+00  0.444687795451E+00  0.487701851649E+00  0.497534531575E+00
  0.496384736642E+00  0.470004311463E+00  0.489200691951E+00  0.495522529522E+00
  0.000000000000E+00  0.000000000000E+00  0.000000000000E+00  0.186080574503E-01 -0.276719824685E-02  0.332944784674E-01  0.000000000000E+00
  0.000000000000E+00 -0.594627627227E-02  0.000000000000E+00  0.356628553314E-02 -0.566632312408E-02 -0.416024205119E-02  0.305035118707E-04
 -0.106177661242E-02  0.000000000000E+00  0.000000000000E+00 -0.764096747304E-02  0.359725950598E-03  0.000000000000E+00 -0.203505331344E-02
 -0.138306484311E-02  0.156572500994E-02 -0.158513977379E-02 -0.638072401249E-04  0.000000000000E+00 -0.282951814235E-04 -0.196334920615E-03
  0.807082933959E-03  0.000000000000E+00  0.000000000000E+00  0.000000000000E+00
  0.000000000000E+00  0.452168025878E-01  0.000000000000E+00  0.123929207506E+00  0.247642710003E-01  0.165638703444E+00  0.000000000000E+00
  0.000000000000E+00  0.155757987342E+00  0.351822668368E-02  0.259773434926E-01 -0.651237131477E-02  0.748974310868E-01  0.371823301809E-02
 -0.149435097173E-03  0.459016714819E-03  0.000000000000E+00  0.140949862124E+00 -0.808569515751E-02  0.237148898742E-02 -0.304408026487E-03
 -0.438194975358E-02  0.255010976017E-01 -0.194972746134E-02  0.308333830132E-02  0.837435302088E-01 -0.121920656362E-02  0.268489707325E-02
  0.264016921732E-02  0.279378055520E-02 -0.834708460201E-03  0.344990485542E-02
  0.960173432265E+00  0.782339004669E+00  0.101842991772E+01  0.808724952036E+00  0.746124151671E+00  0.879441879909E+00  0.117473495744E+01
  0.106718809936E+01  0.916614146992E+00  0.737393763184E+00  0.743551854319E+00  0.725758021208E+00  0.757453478312E+00  0.729187270593E+00
  0.720784346597E+00  0.722780895403E+00  0.103530842564E+01  0.858313755579E+00  0.728063848219E+00  0.718614795372E+00  0.721012784329E+00
  0.721150890561E+00  0.760016766015E+00  0.732627152480E+00  0.718530666637E+00  0.791041533183E+00  0.722107206547E+00  0.717198931995E+00
  0.717636424578E+00  0.741798266405E+00  0.724055793218E+00  0.718400165166E+00
  0.000000000000E+00  0.441239788451E+00  0.000000000000E+00  0.475215275351E+00  0.460125472076E+00  0.468829035662E+00  0.000000000000E+00
  0.000000000000E+00  0.402304824576E+00  0.469816609402E+00  0.464412784801E+00  0.478715408959E+00  0.489298661592E+00  0.483069732147E+00
  0.487930934450E+00  0.488962541855E+00  0.000000000000E+00  0.464777181480E+00  0.473797116064E+00  0.495347172822E+00  0.490266842913E+00
  0.486286964426E+00  0.445719484368E+00  0.464383767392E+00  0.496127920162E+00  0.443625027682E+00  0.486965336990E+00  0.497246762229E+00
  0.496059786128E+00  0.467733894356E+00  0.488212952082E+00  0.495098813334E+00
  0.100000000541E+01  0.102982613568E+01  0.100000001171E+01  0.104247133823E+01  0.101190025817E+01  0.102520692499E+01  0.100000001891E+01
  0.100000002454E+01  0.103891294966E+01  0.100826231073E+01  0.101252764034E+01  0.100300522106E+01  0.102702697696E+01  0.100605519036E+01
  0.100244372897E+01  0.100355626794E+01  0.100000002826E+01  0.103239734409E+01  0.100459494861E+01  0.100179316403E+01  0.100260278937E+01
  0.100234941795E+01  0.101657094716E+01  0.100617510569E+01  0.100168826165E+01  0.104043150974E+01  0.100303347550E+01  0.100118709657E+01
  0.100134152927E+01  0.100976739625E+01  0.100405336487E+01  0.100176092995E+01
        12        19        11        11
        11         5        12        12
        10        14         5         5
        19        13        11        11
        19        24        13        13
        30        23        24        24
        19        12        22        22
        28        22        21        21
        11        13         6         6
         7         6         9         9
        15        12        14        14
        18        13        23        23
        15        25        21        21
        27        19        22        22
        18         8         9         9
        27        31        24        24
         4        11         6         6
         5        14        12        12
         4         2         5         5
        21        12        15        15
        14        16        15        15
        24        19        27        27
        22        29        27        27
        23        26        18        18
        17         8        18        18
         5        11         4         4
         6         3         4         4
        26        23        30        30
         5         2        10        10
        16        14        10        10
         3         6         7         7
        21        25        28        28
        29        22        28        28
         6        13         9         9
         2         4         1         1
        31        27        32        32
        25        15        20        20
        24        23        13        13
         8         7         9         9
        13        18         9         9
        31        30        24        24
        12        21        22        22
        29        32        27        27
         3         1         4         4
        26        17        18        18
        16        20        15        15
zone t="boundary 2 bc-2", solutiontime= 0.8000000E+02, strandid=1002, i=33, j=48, f=feblock
  0.500000000000E+01  0.375000000000E+01  0.250000000000E+01  0.288078410721E+01  0.125000000000E+01  0.190974100652E+01  0.326683758169E+01
  0.201431602454E+01  0.000000000000E+00  0.963108083381E+00  0.500000000000E+01  0.403552511878E+01  0.423153924130E+01  0.500000000000E+01
  0.385533350601E+01  0.500000000000E+01  0.398173246726E+01  0.315249557942E+01  0.267000324704E+01  0.154774304040E+01  0.218329375016E+01
  0.893127759452E+00  0.000000000000E+00  0.698517061619E+00  0.964171764089E+00  0.310324758057E+01  0.000000000000E+00  0.000000000000E+00
  0.125000000000E+01  0.500000000000E+01  0.375000000000E+01  0.250000000000E+01  0.000000000000E+00
 -0.250000000000E+01 -0.250000000000E+01 -0.250000000000E+01 -0.250000000000E+01 -0.250000000000E+01 -0.250000000000E+01 -0.250000000000E+01
 -0.250000000000E+01 -0.250000000000E+01 -0.250000000000E+01 -0.250000000000E+01 -0.250000000000E+01 -0.250000000000E+01 -0.250000000000E+01
 -0.250000000000E+01 -0.250000000000E+01 -0.250000000000E+01 -0.250000000000E+01 -0.250000000000E+01 -0.250000000000E+01 -0.250000000000E+01
 -0.250000000000E+01 -0.250000000000E+01 -0.250000000000E+01 -0.250000000000E+01 -0.250000000000E+01 -0.250000000000E+01 -0.250000000000E+01
 -0.250000000000E+01 -0.250000000000E+01 -0.250000000000E+01 -0.250000000000E+01 -0.250000000000E+01
  0.000000000000E+00  0.000000000000E+00  0.000000000000E+00  0.904659890645E+00  0.000000000000E+00  0.717002441913E+00  0.188609243358E+01
  0.176246431481E+01  0.000000000000E+00  0.961328577125E+00  0.125000000000E+01  0.101201586758E+01  0.191586535653E+01  0.250000000000E+01
  0.293121848150E+01  0.375000000000E+01  0.406975391361E+01  0.363585050272E+01  0.285047954584E+01  0.292817774674E+01  0.395907379566E+01
  0.205246550326E+01  0.125000000000E+01  0.306828197606E+01  0.397245519226E+01  0.433168271247E+01  0.250000000000E+01  0.375000000000E+01
  0.500000000000E+01  0.500000000000E+01  0.500000000000E+01  0.500000000000E+01  0.500000000000E+01
  0.830776624324E+00  0.935289608342E+00  0.934216001519E+00  0.968084284883E+00  0.961713188852E+00  0.964844895910E+00  0.984135333371E+00
  0.991411541826E+00  0.144943175493E+01  0.102921387146E+01  0.955876368035E+00  0.960689704026E+00  0.981487082327E+00  0.100642908247E+01
  0.997911966861E+00  0.100977860105E+01  0.100199439933E+01  0.998062800009E+00  0.991085491930E+00  0.100132663698E+01  0.100094536209E+01
  0.101224540298E+01  0.106442195963E+01  0.101082099710E+01  0.100685186955E+01  0.100118356687E+01  0.102847207865E+01  0.100958589053E+01
  0.100510110960E+01  0.100179435333E+01  0.100266260380E+01  0.100321099480E+01  0.100399227117E+01
  0.000000000000E+00  0.000000000000E+00  0.000000000000E+00  0.378988333912E+00  0.000000000000E+00  0.340639831622E+00  0.582179485359E+00
  0.575195408030E+00  0.000000000000E+00  0.489448248384E+00  0.494743348488E+00  0.431509893411E+00  0.568962551259E+00  0.536179118700E+00
  0.568879361900E+00  0.516234966909E+00  0.508555678798E+00  0.527399257802E+00  0.566648254311E+00  0.531828925497E+00  0.506096923785E+00
  0.520702283877E+00  0.444687795451E+00  0.491340681270E+00  0.492735658015E+00  0.501504944371E+00  0.470004311463E+00  0.489200691951E+00
  0.490459071646E+00  0.491426968190E+00  0.486218961499E+00  0.490305376905E+00  0.495522529522E+00
  0.000000000000E+00  0.000000000000E+00  0.000000000000E+00  0.000000000000E+00  0.000000000000E+00  0.000000000000E+00  0.000000000000E+00
  0.000000000000E+00  0.000000000000E+00  0.000000000000E+00  0.000000000000E+00  0.000000000000E+00  0.000000000000E+00  0.000000000000E+00
  0.000000000000E+00  0.000000000000E+00  0.000000000000E+00  0.000000000000E+00  0.000000000000E+00  0.000000000000E+00  0.000000000000E+00
  0.000000000000E+00  0.000000000000E+00  0.000000000000E+00  0.000000000000E+00  0.000000000000E+00  0.000000000000E+00  0.000000000000E+00
  0.000000000000E+00  0.000000000000E+00  0.000000000000E+00  0.000000000000E+00  0.000000000000E+00
  0.000000000000E+00  0.000000000000E+00  0.000000000000E+00 -0.229657284860E-02  0.000000000000E+00  0.183563548745E-01  0.121115408883E-01
  0.454977877207E-01  0.000000000000E+00  0.870767656824E-01 -0.995450999206E-01 -0.211874634539E-01 -0.306454427117E-01 -0.414458014276E-01
 -0.137981435308E-02  0.259849653304E-02  0.608855287900E-03  0.502760227034E-03  0.150958304674E-01  0.284016461828E-01  0.564093189534E-02
  0.553407771101E-01  0.837435302088E-01  0.110436471157E-01  0.679120487127E-02 -0.758762463303E-03  0.279378055520E-02 -0.834708460201E-03
  0.400652979983E-02  0.602700066590E-02 -0.144324739174E-03  0.120062460302E-02  0.344990485542E-02
  0.593411888577E+00  0.668064024080E+00  0.667297148522E+00  0.684256849022E+00  0.686938004944E+00  0.679201441538E+00  0.695810967040E+00
  0.702343287957E+00  0.103530842564E+01  0.723694310698E+00  0.672590445280E+00  0.675701740090E+00  0.694092519680E+00  0.720959692977E+00
  0.712690806864E+00  0.724770596157E+00  0.716580140169E+00  0.713298439252E+00  0.706428981927E+00  0.717736452629E+00  0.715375955306E+00
  0.730936606892E+00  0.791041533183E+00  0.724372019258E+00  0.721010018215E+00  0.715456973263E+00  0.741798266405E+00  0.724055793218E+00
  0.719312328352E+00  0.715892465835E+00  0.716608387043E+00  0.717367300492E+00  0.718400165166E+00
  0.000000000000E+00  0.000000000000E+00  0.000000000000E+00  0.380992832878E+00  0.000000000000E+00  0.343629566775E+00  0.585286649638E+00
  0.579372751154E+00  0.000000000000E+00  0.501053907946E+00  0.508462695627E+00  0.435375188928E+00  0.572640859512E+00  0.537001599347E+00
  0.568922323543E+00  0.514993444028E+00  0.508247282048E+00  0.527252917195E+00  0.567446473794E+00  0.531657240257E+00  0.505981538310E+00
  0.520795935550E+00  0.443625027682E+00  0.490664541403E+00  0.492156653668E+00  0.501391300295E+00  0.467733894356E+00  0.488212952082E+00
  0.490003710103E+00  0.491352331225E+00  0.486076201122E+00  0.490037475116E+00  0.495098813334E+00
  0.100000002369E+01  0.100000002713E+01  0.100000000686E+01  0.989541513678E+00  0.100000001879E+01  0.985528370605E+00  0.989838816700E+00
  0.991798624141E+00  0.100000002826E+01  0.984413505373E+00  0.985092481497E+00  0.984690927946E+00  0.990058397149E+00  0.100289586991E+01
  0.999854859690E+00  0.100485278017E+01  0.100121537297E+01  0.100055609221E+01  0.997896329580E+00  0.100349975380E+01  0.100058042662E+01
  0.101093198017E+01  0.104043150974E+01  0.100326450466E+01  0.100254471986E+01  0.100045565640E+01  0.100976739625E+01  0.100405336487E+01
  0.100192632371E+01  0.100045428370E+01  0.100058757358E+01  0.100109969477E+01  0.100176092995E+01
        15         7        19        19
         8        20        19        19
        18        19        21        21
         7         4         8         8
         3         6         4         4
        19         7         8         8
        19        18        15        15
        14        13        15        15
         8        22        20        20
        27        24        22        22
        19        20        21        21
        32        26        21        21
        17        18        26        26
        17        16        15        15
        25        29        21        21
        12         7        13        13
        10         8         6         6
        25        20        24        24
         4         6         8         8
        12         2         4         4
        10        23        22        22
        26        31        17        17
        30        16        17        17
         4         7        12        12
        13        11        12        12
        21        20        25        25
        24        28        25        25
        22         8        10        10
         6         5        10        10
        31        26        32        32
         4         2         3         3
         5         6         3         3
        11        13        14        14
        22        23        27        27
        28        24        27        27
        15        13         7         7
         2        12         1         1
        29        25        33        33
        23        10         9         9
        21        26        18        18
        16        14        15        15
        18        17        15        15
        29        32        21        21
        22        24        20        20
        28        33        25        25
        11         1        12        12
        31        30        17        17
         5         9        10        10
zone t="boundary 3 bc-3", solutiontime= 0.8000000E+02, strandid=1003, i=33, j=48, f=feblock
  0.375000000000E+01  0.250000000000E+01  0.500000000000E+01  0.403552511878E+01  0.288078410721E+01  0.125000000000E+01  0.190974100652E+01
  0.500000000000E+01  0.326683758169E+01  0.423153924130E+01  0.201431602454E+01  0.000000000000E+00  0.963108083381E+00  0.500000000000E+01
  0.267000324704E+01  0.385533350601E+01  0.893127759452E+00  0.154774304040E+01  0.000000000000E+00  0.500000000000E+01  0.315249557942E+01
  0.218329375016E+01  0.398173246726E+01  0.000000000000E+00  0.698517061619E+00  0.964171764089E+00  0.125000000000E+01  0.000000000000E+00
  0.500000000000E+01  0.310324758057E+01  0.250000000000E+01  0.375000000000E+01  0.000000000000E+00
  0.250000000000E+01  0.250000000000E+01  0.250000000000E+01  0.250000000000E+01  0.250000000000E+01  0.250000000000E+01  0.250000000000E+01
  0.250000000000E+01  0.250000000000E+01  0.250000000000E+01  0.250000000000E+01  0.250000000000E+01  0.250000000000E+01  0.250000000000E+01
  0.250000000000E+01  0.250000000000E+01  0.250000000000E+01  0.250000000000E+01  0.250000000000E+01  0.250000000000E+01  0.250000000000E+01
  0.250000000000E+01  0.250000000000E+01  0.250000000000E+01  0.250000000000E+01  0.250000000000E+01  0.250000000000E+01  0.250000000000E+01
  0.250000000000E+01  0.250000000000E+01  0.250000000000E+01  0.250000000000E+01  0.250000000000E+01
  0.000000000000E+00  0.000000000000E+00  0.000000000000E+00  0.101201586758E+01  0.904659890645E+00  0.000000000000E+00  0.717002441913E+00
  0.125000000000E+01  0.188609243358E+01  0.191586535653E+01  0.176246431481E+01  0.000000000000E+00  0.961328577125E+00  0.250000000000E+01
  0.285047954584E+01  0.293121848150E+01  0.205246550326E+01  0.292817774674E+01  0.125000000000E+01  0.375000000000E+01  0.363585050272E+01
  0.395907379566E+01  0.406975391361E+01  0.250000000000E+01  0.306828197606E+01  0.397245519226E+01  0.500000000000E+01  0.375000000000E+01
  0.500000000000E+01  0.433168271247E+01  0.500000000000E+01  0.500000000000E+01  0.500000000000E+01
  0.941849254149E+00  0.946286833147E+00  0.843713924705E+00  0.964326020946E+00  0.978815803951E+00  0.956966909347E+00  0.983326337324E+00
  0.963496790116E+00  0.982688019903E+00  0.984242648324E+00  0.990262830792E+00  0.134424279790E+01  0.101917896133E+01  0.100829903365E+01
  0.993455854806E+00  0.997998632481E+00  0.100807748926E+01  0.100072062639E+01  0.106355293247E+01  0.100673541063E+01  0.100058317658E+01
  0.100234913020E+01  0.100178038313E+01  0.102389155825E+01  0.100874114394E+01  0.100528298907E+01  0.100522798655E+01  0.100830744213E+01
  0.100196420678E+01  0.100161948710E+01  0.100413134554E+01  0.100321894869E+01  0.100425991077E+01
  0.000000000000E+00  0.000000000000E+00  0.000000000000E+00  0.439074431142E+00  0.399866788693E+00  0.000000000000E+00  0.373793282289E+00
  0.495020616039E+00  0.573056442082E+00  0.569605832054E+00  0.559932018976E+00  0.000000000000E+00  0.483388945332E+00  0.533821225414E+00
  0.556458616843E+00  0.564687986515E+00  0.522615903813E+00  0.522533296254E+00  0.445482792165E+00  0.518326031785E+00  0.524750981180E+00
  0.503888726548E+00  0.509839761892E+00  0.471740382999E+00  0.496246189787E+00  0.494941099528E+00  0.489077259969E+00  0.489830996070E+00
  0.493064993510E+00  0.499147138841E+00  0.486767618383E+00  0.484758605870E+00  0.495785421536E+00
  0.000000000000E+00  0.000000000000E+00  0.000000000000E+00  0.000000000000E+00  0.000000000000E+00  0.000000000000E+00  0.000000000000E+00
  0.000000000000E+00  0.000000000000E+00  0.000000000000E+00  0.000000000000E+00  0.000000000000E+00  0.000000000000E+00  0.000000000000E+00
  0.000000000000E+00  0.000000000000E+00  0.000000000000E+00  0.000000000000E+00  0.000000000000E+00  0.000000000000E+00  0.000000000000E+00
  0.000000000000E+00  0.000000000000E+00  0.000000000000E+00  0.000000000000E+00  0.000000000000E+00  0.000000000000E+00  0.000000000000E+00
  0.000000000000E+00  0.000000000000E+00  0.000000000000E+00  0.000000000000E+00  0.000000000000E+00
  0.000000000000E+00  0.000000000000E+00  0.000000000000E+00 -0.226129375434E-01  0.111966319674E-01  0.000000000000E+00  0.179812551647E-01
 -0.100764897317E+00  0.390321464854E-02 -0.389344541154E-01  0.340368018671E-01  0.000000000000E+00  0.652268581679E-01 -0.424950641447E-01
  0.843797847270E-02 -0.651102227422E-02  0.490044398550E-01  0.135866794078E-01  0.452168025878E-01  0.736403556725E-03 -0.701970365756E-03
  0.243679356149E-02  0.868322466817E-03  0.351822668368E-02  0.103940327809E-01  0.431606847377E-02  0.337446579530E-02  0.459016714819E-03
  0.572562984926E-02  0.340501904483E-03  0.160919702695E-02  0.569515208383E-03  0.237148898742E-02
  0.672749472584E+00  0.675919188397E+00  0.602652819446E+00  0.676092317830E+00  0.691308049537E+00  0.683547799555E+00  0.690066443474E+00
  0.677273102602E+00  0.695200950746E+00  0.696249901015E+00  0.703343418918E+00  0.960173432265E+00  0.719725783081E+00  0.722866327661E+00
  0.709447094309E+00  0.713700387362E+00  0.726066344952E+00  0.716602165431E+00  0.782339004669E+00  0.722284318381E+00  0.716128040106E+00
  0.716550973707E+00  0.716546083632E+00  0.737393763184E+00  0.722682014148E+00  0.719440555861E+00  0.719565468415E+00  0.722780895403E+00
  0.716029842139E+00  0.715847216590E+00  0.718146105863E+00  0.717061912274E+00  0.718614795372E+00
  0.000000000000E+00  0.000000000000E+00  0.000000000000E+00  0.443770336533E+00  0.402287172153E+00  0.000000000000E+00  0.377548517646E+00
  0.509235494250E+00  0.575832412895E+00  0.573708274547E+00  0.562553347349E+00  0.000000000000E+00  0.490560548595E+00  0.534526478424E+00
  0.556586999938E+00  0.564391422439E+00  0.522731055003E+00  0.522052378205E+00  0.441239788451E+00  0.517181546765E+00  0.524228814951E+00
  0.503688071830E+00  0.509488649196E+00  0.469816609402E+00  0.495615242700E+00  0.494484544702E+00  0.488563387857E+00  0.488962541855E+00
  0.492980764125E+00  0.499006131057E+00  0.486461967788E+00  0.484597696519E+00  0.495347172822E+00
  0.100000000793E+01  0.100000003235E+01  0.100000002669E+01  0.981544855580E+00  0.988777730647E+00  0.100000001048E+01  0.982474468744E+00
  0.984105347698E+00  0.990427593836E+00  0.990355237178E+00  0.994363067932E+00  0.100000000541E+01  0.988654725567E+00  0.100368325760E+01
  0.999768562667E+00  0.100118428001E+01  0.100834796309E+01  0.100252058881E+01  0.102982613568E+01  0.100443277852E+01  0.100199491618E+01
  0.100082030598E+01  0.100138167405E+01  0.100826231073E+01  0.100298756116E+01  0.100192362663E+01  0.100215241643E+01  0.100355626794E+01
  0.100047663601E+01  0.100056569998E+01  0.100126796427E+01  0.100066558601E+01  0.100179316403E+01
        15         9        16        16
        15        18        11        11
        22        15        21        21
        11         5         9         9
         5         7         2         2
        11         9        15        15
        16        21        15        15
        16        10        14        14
        18        17        11        11
        17        25        24        24
        22        18        15        15
        22        30        31        31
        30        21        23        23
        16        20        23        23
        22        27        26        26
        10         9         4         4
         7        11        13        13
        25        18        26        26
        11         7         5         5
         5         1         4         4
        17        19        13        13
        23        32        30        30
        23        20        29        29
         4         9         5         5
         4         8        10        10
        26        18        22        22
        26        28        25        25
        13        11        17        17
        13         6         7         7
        31        30        32        32
         2         1         5         5
         2         7         6         6
        14        10         8         8
        24        19        17        17
        24        25        28        28
         9        10        16        16
         3         4         1         1
        33        26        27        27
        12        13        19        19
        21        30        22        22
        16        14        20        20
        16        23        21        21
        22        31        27        27
        18        25        17        17
        26        33        28        28
         4         3         8         8
        23        29        32        32
        13        12         6         6
zone t="boundary 4 bc-4", solutiontime= 0.8000000E+02, strandid=1004, i=32, j=46, f=feblock
  0.125000000000E+01  0.219251206392E+01  0.103724302461E+01  0.500000000000E+01  0.250000000000E+01  0.375000000000E+01  0.404200324774E+01
  0.500000000000E+01  0.000000000000E+00  0.310152362409E+01  0.202479342020E+01  0.324151231464E+01  0.922061490191E+00  0.000000000000E+00
  0.299062775774E+01  0.394624082883E+01  0.500000000000E+01  0.409252726285E+01  0.500000000000E+01  0.429310310915E+01  0.175434191980E+01
  0.284428995242E+01  0.000000000000E+00  0.000000000000E+00  0.715990576545E+00  0.930412228790E+00  0.125000000000E+01  0.187029682677E+01
  0.500000000000E+01  0.375000000000E+01  0.250000000000E+01  0.000000000000E+00
  0.250000000000E+01  0.157686156160E+01  0.146289271009E+01  0.250000000000E+01  0.250000000000E+01  0.250000000000E+01  0.155830813274E+01
  0.125000000000E+01  0.250000000000E+01  0.177790177481E+01  0.477386199275E+00  0.742988685424E+00  0.308372018325E+00  0.125000000000E+01
 -0.487811078581E+00 -0.144524380962E+01 -0.125000000000E+01 -0.345533899378E+00  0.000000000000E+00  0.627766083140E+00 -0.739814786992E+00
 -0.158811787973E+01  0.000000000000E+00 -0.125000000000E+01 -0.600232012419E+00 -0.154800130438E+01 -0.250000000000E+01 -0.178862290564E+01
 -0.250000000000E+01 -0.250000000000E+01 -0.250000000000E+01 -0.250000000000E+01
  0.500000000000E+01  0.500000000000E+01  0.500000000000E+01  0.500000000000E+01  0.500000000000E+01  0.500000000000E+01  0.500000000000E+01
  0.500000000000E+01  0.500000000000E+01  0.500000000000E+01  0.500000000000E+01  0.500000000000E+01  0.500000000000E+01  0.500000000000E+01
  0.500000000000E+01  0.500000000000E+01  0.500000000000E+01  0.500000000000E+01  0.500000000000E+01  0.500000000000E+01  0.500000000000E+01
  0.500000000000E+01  0.500000000000E+01  0.500000000000E+01  0.500000000000E+01  0.500000000000E+01  0.500000000000E+01  0.500000000000E+01
  0.500000000000E+01  0.500000000000E+01  0.500000000000E+01  0.500000000000E+01
  0.100522798655E+01  0.100432905462E+01  0.100431980706E+01  0.100196420678E+01  0.100413134554E+01  0.100321894869E+01  0.100258557874E+01
  0.100201138792E+01  0.100425991077E+01  0.100372245110E+01  0.100446427212E+01  0.100346879050E+01  0.100365938046E+01  0.100424750075E+01
  0.100362269294E+01  0.100164127289E+01  0.100227600047E+01  0.100227250210E+01  0.100213412549E+01  0.100254288341E+01  0.100442321140E+01
  0.100337199796E+01  0.100288797991E+01  0.100334497775E+01  0.100323175509E+01  0.100406036325E+01  0.100510110960E+01  0.100431241449E+01
  0.100179435333E+01  0.100266260380E+01  0.100321099480E+01  0.100399227117E+01
  0.489077259969E+00  0.489239558206E+00  0.490984140947E+00  0.493064993510E+00  0.486767618383E+00  0.484758605870E+00  0.485405567465E+00
  0.494262677173E+00  0.495785421536E+00  0.486801125771E+00  0.488140348849E+00  0.487245456991E+00  0.494424003484E+00  0.496536963134E+00
  0.487846693266E+00  0.483220065975E+00  0.492573467137E+00  0.487262789408E+00  0.494865849936E+00  0.488012921949E+00  0.490097703285E+00
  0.488270594046E+00  0.497534531575E+00  0.496384736642E+00  0.495260398054E+00  0.493217174615E+00  0.490459071646E+00  0.490400975406E+00
  0.491426968190E+00  0.486218961499E+00  0.490305376905E+00  0.495522529522E+00
  0.000000000000E+00 -0.894041312300E-04 -0.129751279953E-02  0.000000000000E+00  0.000000000000E+00  0.000000000000E+00  0.425645521833E-03
  0.797011304071E-03  0.000000000000E+00  0.274676068515E-03 -0.942410862338E-03 -0.820013013517E-03 -0.174520258265E-02 -0.638072401249E-04
 -0.110016303370E-02 -0.102273414743E-02 -0.133258595716E-02 -0.213431333233E-02 -0.132929070309E-02 -0.106402809643E-02 -0.624384270489E-03
 -0.761675497275E-03 -0.196334920615E-03  0.807082933959E-03  0.520061147863E-04  0.161626766581E-02  0.000000000000E+00  0.791641289095E-03
  0.000000000000E+00  0.000000000000E+00  0.000000000000E+00  0.000000000000E+00