# vtk DataFile Version 2.0
FUN3D:global_image_vtk
ASCII
DATASET UNSTRUCTURED_GRID
POINTS 213 double
    0.0000000000000000E+00    0.2500000000000000E+01    0.0000000000000000E+00
    0.1250000000000000E+01    0.2500000000000000E+01    0.0000000000000000E+00
    0.2500000000000000E+01    0.2500000000000000E+01    0.0000000000000000E+00
    0.3750000000000000E+01    0.2500000000000000E+01    0.0000000000000000E+00
    0.5000000000000000E+01    0.2500000000000000E+01    0.0000000000000000E+00
    0.5000000000000000E+01    0.1250000000000000E+01    0.0000000000000000E+00
    0.5000000000000000E+01    0.0000000000000000E+00    0.0000000000000000E+00
    0.5000000000000000E+01   -0.1250000000000000E+01    0.0000000000000000E+00
    0.5000000000000000E+01   -0.2500000000000000E+01    0.0000000000000000E+00
    0.3750000000000000E+01   -0.2500000000000000E+01    0.0000000000000000E+00
    0.2500000000000000E+01   -0.2500000000000000E+01    0.0000000000000000E+00
    0.1250000000000000E+01   -0.2500000000000000E+01    0.0000000000000000E+00
    0.0000000000000000E+00   -0.2500000000000000E+01    0.0000000000000000E+00
    0.0000000000000000E+00   -0.1250000000000000E+01    0.0000000000000000E+00
    0.0000000000000000E+00    0.0000000000000000E+00    0.0000000000000000E+00
    0.0000000000000000E+00    0.1250000000000000E+01    0.0000000000000000E+00
    0.9058375365086910E+00    0.1578994732800803E+01    0.0000000000000000E+00
    0.3982050490726493E+01   -0.1583989954232354E+01    0.0000000000000000E+00
    0.4033849428301197E+01    0.1453322699199022E+01    0.0000000000000000E+00
    0.1040505887381675E+01   -0.1479596339503735E+01    0.0000000000000000E+00
    0.1099454400140349E+01   -0.3227322616384110E+00    0.0000000000000000E+00
    0.7354504170366591E+00    0.6593508822075582E+00    0.0000000000000000E+00
    0.1622302608453282E+01    0.8256214013940779E+00    0.0000000000000000E+00
    0.2145871574390382E+01   -0.1650070333782557E+01    0.0000000000000000E+00
    0.4086422318222992E+01   -0.4612828702537229E+00    0.0000000000000000E+00
    0.2979540174134984E+01   -0.8579242121530853E+00    0.0000000000000000E+00
    0.3045064261640043E+01   -0.1836846154397680E+01    0.0000000000000000E+00
    0.3428197553792836E+01    0.3508002863614053E+00    0.0000000000000000E+00
    0.4309693860063405E+01    0.5185680230613409E+00    0.0000000000000000E+00
    0.1827272193562204E+01    0.1738996113203182E+01    0.0000000000000000E+00
    0.2808563282768077E+01    0.1325493893339706E+01    0.0000000000000000E+00
    0.1895995683864404E+01   -0.8731419609589618E+00    0.0000000000000000E+00
    0.2273179336307740E+01    0.4906150219227333E-01    0.0000000000000000E+00
    0.5000000000000000E+01    0.2500000000000000E+01    0.1250000000000000E+01
    0.5000000000000000E+01    0.2500000000000000E+01    0.2500000000000000E+01
    0.5000000000000000E+01    0.2500000000000000E+01    0.3750000000000000E+01
    0.5000000000000000E+01    0.2500000000000000E+01    0.5000000000000000E+01
    0.3750000000000000E+01    0.2500000000000000E+01    0.5000000000000000E+01
    0.2500000000000000E+01    0.2500000000000000E+01    0.5000000000000000E+01
    0.1250000000000000E+01    0.2500000000000000E+01    0.5000000000000000E+01
    0.0000000000000000E+00    0.2500000000000000E+01    0.5000000000000000E+01
    0.0000000000000000E+00    0.2500000000000000E+01    0.3750000000000000E+01
    0.0000000000000000E+00    0.2500000000000000E+01    0.2500000000000000E+01
    0.0000000000000000E+00    0.2500000000000000E+01    0.1250000000000000E+01
    0.9631080833812172E+00    0.2500000000000000E+01    0.9613285771248219E+00
    0.3981732467264904E+01    0.2500000000000000E+01    0.4069753913607991E+01
    0.4035525118777670E+01    0.2500000000000000E+01    0.1012015867579395E+01
    0.9641717640894248E+00    0.2500000000000000E+01    0.3972455192261839E+01
    0.1547743040396780E+01    0.2500000000000000E+01    0.2928177746738678E+01
    0.6985170616192014E+00    0.2500000000000000E+01    0.3068281976055466E+01
    0.8931277594515110E+00    0.2500000000000000E+01    0.2052465503257726E+01
    0.2183293750162785E+01    0.2500000000000000E+01    0.3959073795658649E+01
    0.3855333506014705E+01    0.2500000000000000E+01    0.2931218481500625E+01
    0.3152495579421047E+01    0.2500000000000000E+01    0.3635850502723324E+01
    0.3103247580566054E+01    0.2500000000000000E+01    0.4331682712472464E+01
    0.3266837581688852E+01    0.2500000000000000E+01    0.1886092433583972E+01
    0.4231539241296245E+01    0.2500000000000000E+01    0.1915865356532799E+01
    0.1909741006522088E+01    0.2500000000000000E+01    0.7170024419130505E+00
    0.2880784107213163E+01    0.2500000000000000E+01    0.9046598906449592E+00
    0.2014316024535771E+01    0.2500000000000000E+01    0.1762464314805728E+01
    0.2670003247036656E+01    0.2500000000000000E+01    0.2850479545835163E+01
    0.5000000000000000E+01    0.1250000000000000E+01    0.5000000000000000E+01
    0.5000000000000000E+01    0.0000000000000000E+00    0.5000000000000000E+01
    0.5000000000000000E+01   -0.1250000000000000E+01    0.5000000000000000E+01
    0.5000000000000000E+01   -0.2500000000000000E+01    0.5000000000000000E+01
    0.5000000000000000E+01   -0.2500000000000000E+01    0.3750000000000000E+01
    0.5000000000000000E+01   -0.2500000000000000E+01    0.2500000000000000E+01
    0.5000000000000000E+01   -0.2500000000000000E+01    0.1250000000000000E+01
    0.5000000000000000E+01    0.1578994732800803E+01    0.9058375365086910E+00
    0.5000000000000000E+01   -0.1583989954232354E+01    0.3982050490726493E+01
    0.5000000000000000E+01    0.1453322699199022E+01    0.4033849428301197E+01
    0.5000000000000000E+01   -0.1479596339503735E+01    0.1040505887381675E+01
    0.5000000000000000E+01   -0.3227322616384110E+00    0.1099454400140349E+01
    0.5000000000000000E+01    0.6593508822075582E+00    0.7354504170366591E+00
    0.5000000000000000E+01    0.8256214013940779E+00    0.1622302608453282E+01
    0.5000000000000000E+01   -0.1650070333782557E+01    0.2145871574390382E+01
    0.5000000000000000E+01   -0.4612828702537229E+00    0.4086422318222992E+01
    0.5000000000000000E+01   -0.8579242121530853E+00    0.2979540174134984E+01
    0.5000000000000000E+01   -0.1836846154397680E+01    0.3045064261640043E+01
    0.5000000000000000E+01    0.3508002863614053E+00    0.3428197553792836E+01
    0.5000000000000000E+01    0.5185680230613409E+00    0.4309693860063405E+01
    0.5000000000000000E+01    0.1738996113203182E+01    0.1827272193562204E+01
    0.5000000000000000E+01    0.1325493893339706E+01    0.2808563282768077E+01
    0.5000000000000000E+01   -0.8731419609589618E+00    0.1895995683864404E+01
    0.5000000000000000E+01    0.4906150219227333E-01    0.2273179336307740E+01
    0.0000000000000000E+00    0.1250000000000000E+01    0.5000000000000000E+01
    0.0000000000000000E+00    0.0000000000000000E+00    0.5000000000000000E+01
    0.0000000000000000E+00   -0.1250000000000000E+01    0.5000000000000000E+01
    0.0000000000000000E+00   -0.2500000000000000E+01    0.5000000000000000E+01
    0.1250000000000000E+01   -0.2500000000000000E+01    0.5000000000000000E+01
    0.2500000000000000E+01   -0.2500000000000000E+01    0.5000000000000000E+01
    0.3750000000000000E+01   -0.2500000000000000E+01    0.5000000000000000E+01
    0.4042003247744892E+01    0.1558308132739014E+01    0.5000000000000000E+01
    0.9304122287900499E+00   -0.1548001304379777E+01    0.5000000000000000E+01
    0.1037243024609388E+01    0.1462892710085612E+01    0.5000000000000000E+01
    0.3946240828834967E+01   -0.1445243809615570E+01    0.5000000000000000E+01
    0.4092527262848217E+01   -0.3455338993778935E+00    0.5000000000000000E+01
    0.4293103109154542E+01    0.6277660831404320E+00    0.5000000000000000E+01
    0.3241512314643519E+01    0.7429886854239611E+00    0.5000000000000000E+01
    0.2844289952419609E+01   -0.1588117879734118E+01    0.5000000000000000E+01
    0.7159905765450471E+00   -0.6002320124191652E+00    0.5000000000000000E+01
    0.1754341919796891E+01   -0.7398147869923652E+00    0.5000000000000000E+01
    0.1870296826774691E+01   -0.1788622905643739E+01    0.5000000000000000E+01
    0.9220614901912976E+00    0.3083720183248586E+00    0.5000000000000000E+01
    0.3101523624086016E+01    0.1777901774806180E+01    0.5000000000000000E+01
    0.2192512063922564E+01    0.1576861561598471E+01    0.5000000000000000E+01
    0.2024793420196460E+01    0.4773861992750707E+00    0.5000000000000000E+01
    0.2990627757741975E+01   -0.4878110785814084E+00    0.5000000000000000E+01
    0.0000000000000000E+00   -0.2500000000000000E+01    0.1250000000000000E+01
    0.0000000000000000E+00   -0.2500000000000000E+01    0.2500000000000000E+01
    0.0000000000000000E+00   -0.2500000000000000E+01    0.3750000000000000E+01
    0.0000000000000000E+00    0.1558308132739014E+01    0.4042003247744892E+01
    0.0000000000000000E+00   -0.1548001304379777E+01    0.9304122287900499E+00
    0.0000000000000000E+00    0.1462892710085612E+01    0.1037243024609388E+01
    0.0000000000000000E+00   -0.1445243809615570E+01    0.3946240828834967E+01
    0.0000000000000000E+00   -0.3455338993778935E+00    0.4092527262848217E+01
    0.0000000000000000E+00    0.6277660831404320E+00    0.4293103109154542E+01
    0.0000000000000000E+00    0.7429886854239611E+00    0.3241512314643519E+01
    0.0000000000000000E+00   -0.1588117879734118E+01    0.2844289952419609E+01
    0.0000000000000000E+00   -0.6002320124191652E+00    0.7159905765450471E+00
    0.0000000000000000E+00   -0.7398147869923652E+00    0.1754341919796891E+01
    0.0000000000000000E+00   -0.1788622905643739E+01    0.1870296826774691E+01
    0.0000000000000000E+00    0.3083720183248586E+00    0.9220614901912976E+00
    0.0000000000000000E+00    0.1777901774806180E+01    0.3101523624086016E+01
    0.0000000000000000E+00    0.1576861561598471E+01    0.2192512063922564E+01
[...]
POINT_DATA 213
SCALARS rho double 1
LOOKUP_TABLE default
   0.1344242797902535E+01
   0.9569669093472084E+00
   0.9462868331473405E+00
   0.9418492541491291E+00
   0.8437139247045660E+00
   0.7737844470299254E+00
   0.7629675709547430E+00
   0.7664457515783351E+00
   0.8307766243237448E+00
   0.9352896083417606E+00
   0.9342160015193268E+00
   0.9617131888522924E+00
   0.1449431754933872E+01
   0.1494063302438183E+01
   0.1644628909321648E+01
   0.1425801868102798E+01
   0.1009003203588551E+01
   0.9508731339821956E+00
   0.9436387927955132E+00
   0.9581500295755134E+00
   0.9415792564637475E+00
   0.1036366150625952E+01
   0.9256091512798561E+00
   0.9322292905986264E+00
   0.9537385129606671E+00
   0.9518692520994725E+00
   0.9348513177804109E+00
   0.9563924381301522E+00
   0.9375986719441843E+00
   0.9300585447145906E+00
   0.9445057955384103E+00
   0.8863458402655457E+00
   0.9423502397875669E+00
   0.9634967901156904E+00
   0.1008299033649136E+01
   0.1006735410630380E+01
   0.1001964206776034E+01
   0.1003218948690653E+01
   0.1004131345538967E+01
   0.1005227986546633E+01
   0.1004259910770188E+01
   0.1008307442133893E+01
   0.1023891558252920E+01
   0.1063552932470347E+01
   0.1019178961326973E+01
   0.1001780383126574E+01
   0.9643260209456394E+00
   0.1005282989073131E+01
   0.1000720626389802E+01
   0.1008741143941472E+01
   0.1008077489263729E+01
   0.1002349130199046E+01
   0.9979986324806706E+00
   0.1000583176579242E+01
   0.1001619487102411E+01
   0.9826880199031648E+00
   0.9842426483236902E+00
   0.9833263373238871E+00
   0.9788158039507556E+00
   0.9902628307919626E+00
   0.9934558548063440E+00
   0.1002011387923373E+01
   0.1002134125489700E+01
   0.1002276000472989E+01
   0.1001794353328716E+01
   0.1009778601046482E+01
   0.1006429082467095E+01
   0.9558763680346567E+00
   0.9249340063062300E+00
   0.1007036733583738E+01
   0.1004504888239908E+01
   0.9143606711600792E+00
   0.9089629936590061E+00
   0.8751619070057215E+00
   0.9767255059744681E+00
   0.1000452363636414E+01
   0.1005831152548248E+01
   0.1012883292397307E+01
   0.1011619124187287E+01
   0.1010439188799644E+01
   0.1005468230564651E+01
   0.9907599727075569E+00
   0.1005140627449399E+01
   0.9860562983564239E+00
   0.1005610160298740E+01
   0.1004247500747519E+01
   0.1002887979913510E+01
   0.1003344977748998E+01
   0.1003992271167590E+01
   0.1005101109596246E+01
   0.1003210994803543E+01
   0.1002662603804810E+01
   0.1002585578737446E+01
   0.1004060363247913E+01
   0.1004319807056321E+01
   0.1001641272893954E+01
   0.1002272502102267E+01
   0.1002542883405443E+01
   0.1003468790496695E+01
   0.1003371997963406E+01
   0.1003231755090940E+01
   0.1004423211397632E+01
   0.1004312414486291E+01
   0.1003659380463608E+01
   0.1003722451096613E+01
   0.1004329054624721E+01
   0.1004464272120702E+01
   0.1003622692936017E+01
   0.1064421959631819E+01
   0.1028472078646679E+01
   0.1009585890525623E+01
   0.1006638134464191E+01
   0.1163930985182775E+01
   0.1086087349669588E+01
   0.1007892671445223E+01
   0.1007244807757131E+01
   0.1006797416443806E+01
   0.1013016890000009E+01
   0.1019383214387672E+01
   0.1235194735235048E+01
   0.1032528739187750E+01
   0.1046679009856106E+01
   0.1200946464431192E+01
   0.1014717868971571E+01
   0.1032289303129961E+01
   0.1028093016500627E+01
   0.1014627227542340E+01
   0.1029213871455559E+01
   0.1001994399326255E+01
   0.9606897040262632E+00
   0.1006851869551109E+01
   0.1001326636976230E+01
   0.1010820997104171E+01
   0.1012245402979130E+01
   0.1000945362092689E+01
   0.9979119668609893E+00
   0.9980628000093259E+00
   0.1001183566865730E+01
   0.9841353333713296E+00
   0.9814870823270766E+00
   0.9648448959100762E+00
   0.9680842848827619E+00
   0.9914115418259677E+00
   0.9910854919301053E+00
   0.9925544484710166E+00
   0.1001727099869850E+01
   0.9993407924820691E+00
   0.9941410668524631E+00
   0.1007038765434973E+01
   0.1022538999822532E+01
   0.1001087187987129E+01
   0.1008797640415089E+01
   0.1004773104912748E+01
   0.1009049331715343E+01
   0.9966466268095868E+00
   0.1004983574032173E+01
   0.1003324866198487E+01
   0.9949428519941281E+00
   0.9832675834212876E+00
   0.9943956700498341E+00
   0.9973419482358655E+00
   0.9932190059166586E+00
   0.1001305913805287E+01
   0.1003000989001520E+01
   0.1002183027238126E+01
   0.9947080134983304E+00
   0.9937963966439446E+00
   0.1004867098169156E+01
   0.1020077195644041E+01
   0.1005363934221192E+01
   0.9816993505237291E+00
   0.1004972357503352E+01
   0.1012381459294961E+01
   0.9871382104764506E+00
   0.9551484702528038E+00
   0.9865069320598769E+00
   0.9864526639682784E+00
   0.9918904710628098E+00
   0.9933500273352086E+00
   0.9954361784273678E+00
   0.1037335988301479E+01
   0.1033534212436008E+01
   0.1001443010154083E+01
   0.1001929897308720E+01
   0.9912478162261085E+00
   0.9910918110359532E+00
   0.9648473301105228E+00
   0.9933280293960675E+00
   0.1006058606859914E+01
   0.1001953997440112E+01
   0.9908732368405969E+00
   0.9740921255850651E+00
   0.9418745694996349E+00
   0.9819354003394568E+00
   0.9794798887241087E+00
   0.9704139424240130E+00
   0.9720456855564436E+00
   0.9557335063754955E+00
   0.9496702887068895E+00
   0.9528627249804608E+00
   0.1002658828597180E+01
   0.1002470975273255E+01
   0.1000508943068461E+01
   0.1001677403669513E+01
   0.9607876384554305E+00
   0.9491566531745604E+00
   0.9584460390436446E+00
   0.1001120616283028E+01
   0.1000495665067722E+01
   0.1001156498484730E+01
   0.9807371585326119E+00
   0.9805979978255155E+00
   0.9628434529904349E+00
SCALARS u double 1
LOOKUP_TABLE default
   0.0000000000000000E+00
   0.0000000000000000E+00
   0.0000000000000000E+00
   0.0000000000000000E+00
   0.0000000000000000E+00
   0.0000000000000000E+00
   0.0000000000000000E+00
   0.0000000000000000E+00
   0.0000000000000000E+00
   0.0000000000000000E+00
   0.0000000000000000E+00
   0.0000000000000000E+00
   0.0000000000000000E+00
   0.0000000000000000E+00
   0.0000000000000000E+00
   0.0000000000000000E+00
   0.0000000000000000E+00
   0.0000000000000000E+00
   0.0000000000000000E+00
   0.0000000000000000E+00
   0.0000000000000000E+00
   0.0000000000000000E+00
   0.0000000000000000E+00
   0.0000000000000000E+00
   0.0000000000000000E+00
   0.0000000000000000E+00
   0.0000000000000000E+00
   0.0000000000000000E+00
   0.0000000000000000E+00
   0.0000000000000000E+00
   0.0000000000000000E+00
   0.0000000000000000E+00
   0.0000000000000000E+00
   0.4950206160389685E+00
   0.5338212254137140E+00
   0.5183260317852119E+00
   0.4930649935101157E+00
   0.4847586058705199E+00
   0.4867676183831037E+00
   0.4890772599687051E+00
   0.4957854215364713E+00
   0.4898309960702808E+00
   0.4717403829991191E+00
   0.4454827921648878E+00
   0.4833889453318584E+00
   0.5098397618923383E+00
   0.4390744311414734E+00
   0.4949410995275238E+00
   0.5225332962536998E+00
   0.4962461897872751E+00
   0.5226159038133471E+00
   0.5038887265482654E+00
   0.5646879865148752E+00
   0.5247509811802499E+00
   0.4991471388406001E+00
   0.5730564420816757E+00
   0.5696058320535092E+00
   0.3737932822892506E+00
   0.3998667886930423E+00
   0.5599320189762333E+00
   0.5564586168429008E+00
   0.4942626771732930E+00
   0.4948658499363988E+00
   0.4925734671371846E+00
   0.4914269681895382E+00
   0.5162349669090375E+00
   0.5361791187004600E+00
   0.4947433484882338E+00
   0.4524161241905438E+00
   0.5128770771567682E+00
   0.5117935543250858E+00
   0.4783549929113516E+00
   0.4931733387433662E+00
   0.4603237504624903E+00
   0.5244908223556790E+00
   0.5297431436184832E+00
   0.5129571877266978E+00
   0.5328346144795986E+00
   0.5308931096202670E+00
   0.5309843361221825E+00
   0.5063651059915799E+00
   0.5282467087128309E+00
   0.5410301390234702E+00
   0.5361264997685691E+00
   0.5374096483234069E+00
   0.4965369631343258E+00
   0.4975345315745191E+00
   0.4963847366422625E+00
   0.4955225295215865E+00
   0.4904590716458797E+00
   0.4903053769049289E+00
   0.4862189614985994E+00
   0.4854055674649638E+00
   0.4932171746145691E+00
   0.4909841409470991E+00
   0.4832200659754415E+00
   0.4872627894079013E+00
   0.4880129219488504E+00
   0.4872454569912638E+00
   0.4882705940464618E+00
   0.4952603980544897E+00
   0.4900977032847136E+00
   0.4904009754061531E+00
   0.4944240034838990E+00
   0.4868011257709469E+00
   0.4892395582060589E+00
   0.4881403488486404E+00
   0.4878466932657192E+00
   0.4446877954515216E+00
   0.4700043114631442E+00
   0.4892006919511620E+00
   0.4885255794419621E+00
   0.4506561708499411E+00
   0.4687388752702621E+00
   0.4877018516494576E+00
   0.4868361901661068E+00
   0.4909001463769812E+00
   0.4793564711231703E+00
   0.4658085926144588E+00
   0.3792773282614209E+00
   0.4901600370749283E+00
   0.4486704611614427E+00
   0.4436174716701984E+00
   0.4845157965928676E+00
   0.4621839374772554E+00
   0.4665765165538800E+00
   0.4748154277387927E+00
   0.4894482483841614E+00
   0.5085556787978610E+00
   0.4315098934105077E+00
   0.4927356580145592E+00
   0.5318289254973405E+00
   0.4913406812696097E+00
   0.5207022838774973E+00
   0.5060969237850151E+00
   0.5688793618995945E+00
   0.5273992578024145E+00
   0.5015049443712348E+00
   0.5821794853594340E+00
   0.5689625512585483E+00
   0.3406398316221281E+00
   0.3789883339121799E+00
   0.5751954080297661E+00
   0.5666482543108101E+00
   0.5704107536669014E+00
   0.5291057297595156E+00
   0.5451903588109646E+00
   0.5718802977495658E+00
   0.5389083652496124E+00
   0.5475511931396163E+00
   0.5821710357724507E+00
   0.4925608222155588E+00
   0.5042162988069346E+00
   0.4961742824849543E+00
   0.5565203174668477E+00
   0.4758815628808832E+00
   0.4950275696424633E+00
   0.5498525142705372E+00
   0.5891206312209195E+00
   0.5841955654236340E+00
   0.5469096235688542E+00
   0.5805415787661619E+00
   0.5106255288383726E+00
   0.5030206292810406E+00
   0.5033628370783640E+00
   0.5676441093418542E+00
   0.5563941970311731E+00
   0.4947262744316467E+00
   0.5505241770876331E+00
   0.5510853909110959E+00
   0.5657350925596344E+00
   0.4920077649293233E+00
   0.4927305733159211E+00
   0.3865152513954439E+00
   0.3687765076840283E+00
   0.5574926944403050E+00
   0.5763753064974858E+00
   0.4194303955298056E+00
   0.5824844207739336E+00
   0.4265196481365341E+00
   0.5392800184222291E+00
   0.5012031446941919E+00
   0.5119512304684913E+00
   0.5049124401272016E+00
   0.5751973030723712E+00
   0.5876369306823445E+00
   0.5379922330383911E+00
   0.5677469832474048E+00
   0.5351243136203454E+00
   0.5338051330145960E+00
   0.5580311345572071E+00
   0.5512721803175953E+00
   0.4261891378803969E+00
   0.5273362217678640E+00
   0.5795717087950953E+00
   0.3318704992561408E+00
   0.4760295305526334E+00
   0.5446212699976317E+00
   0.4798358430212331E+00
   0.3005315306045035E+00
   0.5031055758166749E+00
   0.5017121903803199E+00
   0.5129033784176100E+00
   0.5414834519550241E+00
   0.3437625798195535E+00
   0.3397748690328598E+00
   0.3189950934069959E+00
   0.5065940430224936E+00
   0.5123484853324275E+00
   0.5330310737220144E+00
   0.5879307864630170E+00
   0.4644182862973422E+00
   0.3531293187274613E+00
SCALARS v double 1
LOOKUP_TABLE default
   0.0000000000000000E+00
   0.0000000000000000E+00
   0.0000000000000000E+00
   0.0000000000000000E+00
   0.0000000000000000E+00
   0.0000000000000000E+00
   0.0000000000000000E+00
   0.0000000000000000E+00
   0.0000000000000000E+00
   0.0000000000000000E+00
   0.0000000000000000E+00
   0.0000000000000000E+00
   0.0000000000000000E+00
   0.0000000000000000E+00
   0.0000000000000000E+00
   0.0000000000000000E+00
   0.0000000000000000E+00
   0.0000000000000000E+00
   0.0000000000000000E+00
   0.0000000000000000E+00
   0.0000000000000000E+00
   0.0000000000000000E+00
   0.0000000000000000E+00
   0.0000000000000000E+00
   0.0000000000000000E+00
   0.0000000000000000E+00
   0.0000000000000000E+00
   0.0000000000000000E+00
   0.0000000000000000E+00
   0.0000000000000000E+00
   0.0000000000000000E+00
   0.0000000000000000E+00
   0.0000000000000000E+00
   0.0000000000000000E+00
   0.0000000000000000E+00
   0.0000000000000000E+00
   0.0000000000000000E+00
   0.0000000000000000E+00
   0.0000000000000000E+00
   0.0000000000000000E+00
   0.0000000000000000E+00
   0.0000000000000000E+00
   0.0000000000000000E+00
   0.0000000000000000E+00
   0.0000000000000000E+00
   0.0000000000000000E+00
   0.0000000000000000E+00
   0.0000000000000000E+00
   0.0000000000000000E+00
   0.0000000000000000E+00
   0.0000000000000000E+00
   0.0000000000000000E+00
   0.0000000000000000E+00
   0.0000000000000000E+00
   0.0000000000000000E+00
   0.0000000000000000E+00
   0.0000000000000000E+00
   0.0000000000000000E+00
   0.0000000000000000E+00
   0.0000000000000000E+00
   0.0000000000000000E+00
   0.7970113039947725E-03
  -0.1329290703087943E-02
  -0.1332585957130398E-02
   0.0000000000000000E+00
   0.0000000000000000E+00
   0.0000000000000000E+00
   0.0000000000000000E+00
  -0.1922531000541754E-01
   0.4770460860025822E-03
   0.2183390483450237E-02
   0.1427371544823664E-01
  -0.6487544755532869E-02
  -0.7820864057463416E-02
  -0.1327661150559432E-01
   0.4914531592438431E-02
   0.6907141291537217E-03
   0.3434440174386006E-02
   0.1920798961897191E-02
   0.3148094486940382E-02
   0.1704812034058171E-02
  -0.7315911253987495E-02
  -0.7677215591777660E-04
   0.4469039964665401E-02
  -0.4383163193550645E-03
  -0.6380724012469650E-04
  -0.1963349206158401E-03
   0.8070829339594377E-03
   0.0000000000000000E+00
   0.0000000000000000E+00
   0.0000000000000000E+00
   0.0000000000000000E+00
   0.4256455217639751E-03
   0.1616267665814465E-02
  -0.1297512799535180E-02
  -0.1022734147429560E-02
  -0.2134313332321157E-02
  -0.1064028096471199E-02
  -0.8200130135383112E-03
  -0.7616754972703123E-03
   0.5200611478769409E-04
  -0.6243842704884622E-03
   0.7916412891054258E-03
  -0.1745202582652765E-02
   0.2746760685013130E-03
  -0.8940413123801472E-04
  -0.9424108623473721E-03
  -0.1100163033707615E-02
   0.0000000000000000E+00
   0.0000000000000000E+00
   0.0000000000000000E+00
  -0.1061776612417591E-02
  -0.7640967473045762E-02
   0.1860805745028054E-01
  -0.2829518142530374E-04
  -0.1383064843109115E-02
  -0.2035053313438217E-02
  -0.5666323124081378E-02
  -0.1585139773786709E-02
  -0.5946276272265848E-02
  -0.4160242051187341E-02
   0.1565725009938170E-02
   0.3329447846738456E-01
   0.3050351187005435E-04
  -0.2767198246844379E-02
   0.3566285533135585E-02
   0.3597259505968119E-03
   0.0000000000000000E+00
   0.0000000000000000E+00
   0.0000000000000000E+00
   0.0000000000000000E+00
   0.0000000000000000E+00
   0.0000000000000000E+00
   0.0000000000000000E+00
   0.0000000000000000E+00
   0.0000000000000000E+00
   0.0000000000000000E+00
   0.0000000000000000E+00
   0.0000000000000000E+00
   0.0000000000000000E+00
   0.0000000000000000E+00
   0.0000000000000000E+00
   0.0000000000000000E+00
   0.0000000000000000E+00
   0.5047042216782901E-02
   0.3230754810083006E-02
   0.8148946836839768E-02
   0.6168370455368407E-02
   0.1122885236294479E-01
   0.1429254726593586E-01
  -0.2036562704627344E-03
   0.5118090479146975E-02
   0.2914858522853945E-02
   0.3373410051430606E-02
   0.3728267008842330E-02
  -0.1465634444990037E-01
  -0.6159306783214461E-03
   0.6651548317060382E-02
   0.1542345139697404E-02
   0.1969756355695019E-02
   0.4266244346372983E-02
  -0.2790692424756508E-02
   0.1226855347466028E-02
   0.2819099224902281E-02
   0.1497392036792523E-02
   0.2575462951100323E-02
   0.2030660650441798E-02
   0.2117993263973278E-02
   0.8700408359856582E-02
  -0.3733271711131197E-02
   0.6241144004727866E-02
   0.2517955494849583E-04
  -0.3853063177971323E-03
  -0.1674611552734771E-01
  -0.4881647177200643E-02
  -0.4719683427833457E-02
   0.3445317695176128E-02
  -0.6135292257874013E-02
   0.9957900501093831E-04
  -0.3291236891385433E-01
  -0.3046069486359647E-02
   0.4722814906587348E-02
   0.9228252731465354E-03
   0.2112120574419874E-02
   0.4518858926364800E-02
   0.2720430518699847E-02
   0.3212693046318814E-02
   0.5200823895707639E-02
   0.1941853953323080E-02
   0.7316059143958979E-03
  -0.2556114932583977E-04
  -0.5374447826324021E-02
  -0.6959092808521090E-02
  -0.9440657264773097E-03
   0.1105331261479576E-02
  -0.2080298693222996E-02
  -0.3200130086820849E-02
  -0.2527341254502533E-02
  -0.4114846502899680E-02
  -0.7593695774682319E-02
  -0.1985607223911801E-02
   0.6240487108474176E-03
  -0.2238989804446036E-03
   0.1216976142108395E-02
  -0.3483530689320472E-02
   0.5229835878558834E-02
  -0.8487758840931524E-02
   0.2317482335950568E-04
  -0.3395115454856058E-03
   0.2542660262644270E-02
   0.1663406998421377E-02
   0.2021333398180451E-02
  -0.5620355242107004E-02
SCALARS w double 1
LOOKUP_TABLE default
   0.0000000000000000E+00
   0.0000000000000000E+00
   0.0000000000000000E+00
   0.0000000000000000E+00
   0.0000000000000000E+00
   0.0000000000000000E+00
   0.0000000000000000E+00
   0.0000000000000000E+00
   0.0000000000000000E+00
   0.0000000000000000E+00
   0.0000000000000000E+00
   0.0000000000000000E+00
   0.0000000000000000E+00
   0.0000000000000000E+00
   0.0000000000000000E+00
   0.0000000000000000E+00
   0.0000000000000000E+00
   0.0000000000000000E+00
   0.0000000000000000E+00
   0.0000000000000000E+00
   0.0000000000000000E+00
   0.0000000000000000E+00
   0.0000000000000000E+00
   0.0000000000000000E+00
   0.0000000000000000E+00
   0.0000000000000000E+00
   0.0000000000000000E+00
   0.0000000000000000E+00
   0.0000000000000000E+00
   0.0000000000000000E+00
   0.0000000000000000E+00
   0.0000000000000000E+00
   0.0000000000000000E+00
  -0.1007648973166625E+00
  -0.4249506414470041E-01
   0.7364035567214416E-03
   0.5725629849268208E-02
   0.5695152083427564E-03
   0.1609197026934608E-02
   0.3374465795292171E-02
   0.2371488987422482E-02
   0.4590167148179296E-03
   0.3518226683680951E-02
   0.4521680258783375E-01
   0.6522685816794033E-01
   0.8683224668184188E-03
  -0.2261293754332640E-01
   0.4316068473766550E-02
   0.1358667940781632E-01
   0.1039403278089208E-01
   0.4900443985497170E-01
   0.2436793561490978E-02
  -0.6511022274217080E-02
  -0.7019703657506337E-03
   0.3405019044894798E-03
   0.3903214648566450E-02
  -0.3893445411544393E-01
   0.1798125516474095E-01
   0.1119663196746097E-01
   0.3403680186709274E-01
   0.8437978472701706E-02
   0.4937150712352048E-02
   0.4970188376815616E-02
   0.4871289619147701E-02
   0.6027000665899357E-02
   0.2598496533040515E-02
  -0.4144580142759396E-01
  -0.9954509992061303E-01
  -0.1121719867746476E+00
   0.5070302919296104E-02
   0.4230173909025237E-02
  -0.1004760726190989E+00
  -0.9895570534317191E-01
  -0.9875812989503018E-01
  -0.9462831135180144E-01
  -0.6807333100701429E-01
   0.5154379793853414E-02
  -0.1935453315287303E-01
  -0.1575909287319457E-01
  -0.6003863990434742E-02
   0.6818648041624953E-02
  -0.8010348008172558E-01
  -0.2781256972164916E-01
  -0.8096693760500381E-01
  -0.5873495340237199E-01
   0.3083338301313519E-02
   0.2684897073248007E-02
   0.2640169217319771E-02
   0.3449904855411319E-02
   0.4006529799818676E-02
   0.1200624603008072E-02
  -0.1443247391808491E-03
   0.2039650158796100E-02
   0.4895124193475191E-02
   0.3856805478113482E-02
   0.1113947533557561E-02
   0.1182458006125669E-02
   0.1465127323145783E-02
  -0.1694023845073596E-04
   0.8942336946519273E-04
   0.4386141457584564E-02
   0.2715124037796902E-02
   0.2322162859298753E-02
   0.5009993760686875E-02
   0.1071137865501868E-02
   0.2711583048501482E-02
   0.2013420517504257E-02
   0.2830956831946017E-04
   0.8374353020880390E-01
   0.2793780555201191E-02
  -0.8347084602029493E-03
  -0.1494350971740480E-03
   0.1409498621241438E+00
   0.1239292075058207E+00
  -0.1219206563623020E-02
  -0.4381949753572510E-02
  -0.3044080264845017E-03
  -0.6512371314768388E-02
  -0.1949727461347863E-02
   0.1557579873419045E+00
   0.7489743108681551E-01
   0.2550109760172167E-01
   0.1656387034440960E+00