title="tecplot geometry and solution file"
variables = x y z mach temperature lambda1 lambda2 lambda3 lambda4 lambda5
zone t="boundary 1 bc-1", solutiontime= 0.6000000E+02, strandid=1001, i=32, j=46, f=feblock
  0.000000000000E+00  0.000000000000E+00  0.000000000000E+00  0.000000000000E+00  0.000000000000E+00  0.000000000000E+00  0.000000000000E+00
  0.000000000000E+00  0.000000000000E+00  0.000000000000E+00  0.000000000000E+00  0.000000000000E+00  0.000000000000E+00  0.000000000000E+00
  0.000000000000E+00  0.000000000000E+00  0.000000000000E+00  0.000000000000E+00  0.000000000000E+00  0.000000000000E+00  0.000000000000E+00
  0.000000000000E+00  0.000000000000E+00  0.000000000000E+00  0.000000000000E+00  0.000000000000E+00  0.000000000000E+00  0.000000000000E+00
  0.000000000000E+00  0.000000000000E+00  0.000000000000E+00  0.000000000000E+00
  0.250000000000E+01  0.250000000000E+01  0.125000000000E+01  0.146289271009E+01  0.157686156160E+01  0.308372018325E+00  0.000000000000E+00
 -0.125000000000E+01 -0.600232012419E+00  0.250000000000E+01  0.477386199275E+00  0.742988685424E+00 -0.739814786992E+00  0.177790177481E+01
  0.155830813274E+01  0.250000000000E+01 -0.250000000000E+01 -0.154800130438E+01 -0.487811078581E+00  0.250000000000E+01  0.627766083140E+00
 -0.345533899378E+00 -0.178862290564E+01 -0.158811787973E+01  0.125000000000E+01 -0.250000000000E+01 -0.144524380962E+01  0.000000000000E+00
 -0.125000000000E+01 -0.250000000000E+01 -0.250000000000E+01 -0.250000000000E+01
  0.000000000000E+00  0.125000000000E+01  0.000000000000E+00  0.103724302461E+01  0.219251206392E+01  0.922061490191E+00  0.000000000000E+00
  0.000000000000E+00  0.715990576545E+00  0.250000000000E+01  0.202479342020E+01  0.324151231464E+01  0.175434191980E+01  0.310152362409E+01
  0.404200324774E+01  0.375000000000E+01  0.000000000000E+00  0.930412228790E+00  0.299062775774E+01  0.500000000000E+01  0.429310310915E+01
  0.409252726285E+01  0.187029682677E+01  0.284428995242E+01  0.500000000000E+01  0.125000000000E+01  0.394624082883E+01  0.500000000000E+01
  0.500000000000E+01  0.250000000000E+01  0.375000000000E+01  0.500000000000E+01
  0.000000000000E+00  0.441238348384E+00  0.000000000000E+00  0.475214987021E+00  0.460123708856E+00  0.468827815405E+00  0.000000000000E+00
  0.000000000000E+00  0.402302516798E+00  0.469814974359E+00  0.464411128942E+00  0.478714034184E+00  0.489298241651E+00  0.483068557888E+00
  0.487930073118E+00  0.488961654628E+00  0.000000000000E+00  0.464775721414E+00  0.473795651891E+00  0.495346592024E+00  0.490266103446E+00
  0.486286083902E+00  0.445717618051E+00  0.464382274634E+00  0.496127394917E+00  0.443624103833E+00  0.486964461957E+00  0.497246279768E+00
  0.496059270892E+00  0.467732355362E+00  0.488212087362E+00  0.495098264817E+00
  0.999990295028E+00  0.102982719499E+01  0.999990757903E+00  0.104247294232E+01  0.101190080524E+01  0.102520618293E+01  0.999991416700E+00
  0.999992168096E+00  0.103891223624E+01  0.100826277309E+01  0.101252833877E+01  0.100300548289E+01  0.102702865700E+01  0.100605563290E+01
  0.100244400478E+01  0.100355660048E+01  0.999992721792E+00  0.103239739214E+01  0.100459524090E+01  0.100179336279E+01  0.100260305842E+01
  0.100234966417E+01  0.101657153079E+01  0.100617544692E+01  0.100168844809E+01  0.104043292670E+01  0.100303376377E+01  0.100118726928E+01
  0.100134171022E+01  0.100976788415E+01  0.100405369352E+01  0.100176112495E+01
  0.896177431640E-03  0.429455181256E-02  0.114859439772E-02  0.738935528245E-02  0.342892774707E-03  0.104267053028E-01  0.978199915409E-03
  0.419747023042E-03  0.114709107025E-01 -0.334061644516E-03  0.371799861288E-03 -0.117452593491E-02  0.957886748325E-03 -0.593415019278E-03
 -0.154048591494E-02 -0.147251521686E-02  0.644481409804E-03  0.760665252793E-02 -0.981958185167E-03 -0.605196558267E-02 -0.208985503376E-02
 -0.143751897406E-02  0.633666668342E-03 -0.862120701091E-03 -0.624896067894E-02  0.528453441297E-02 -0.117208248909E-02 -0.691378243135E-02
 -0.612199876951E-02 -0.656029407154E-03 -0.131094163346E-02 -0.575041320846E-02
  0.237253366279E-04  0.606160914256E-03  0.483598389776E-04  0.916841276262E-03 -0.960481927294E-05  0.157345454137E-02  0.730825022928E-04
  0.729743507124E-04  0.170539610821E-02 -0.138911860129E-03  0.114630588762E-04 -0.245881847053E-03  0.357397532479E-04 -0.176919921058E-03
 -0.304378331684E-03 -0.327303045577E-03  0.649885922447E-04  0.116128442906E-02 -0.189785391688E-03 -0.124552182284E-02 -0.416919717630E-03
 -0.274878726804E-03  0.553001478081E-05 -0.162504349624E-03 -0.131014547323E-02  0.667136873245E-03 -0.229539867999E-03 -0.145433975038E-02
 -0.128389212679E-02 -0.163237973114E-03 -0.276257215698E-03 -0.119957758432E-02
  0.514749416604E-04  0.181727823132E-04  0.676190512608E-04  0.205330119613E-03  0.364317870315E-04  0.108725240110E-03  0.699283045599E-04
 -0.434721070937E-04 -0.123778521582E-04 -0.246699610695E-05  0.379770976887E-04  0.392476995648E-04 -0.311162189062E-04  0.130738437594E-04
 -0.364876682456E-05 -0.113359869142E-05 -0.394486474392E-04 -0.172950786159E-03  0.196491246295E-04  0.253812621475E-06  0.174983456023E-05
  0.444792731814E-05 -0.420846888134E-05 -0.225361963059E-04  0.178569326724E-04 -0.150649590320E-04 -0.614684180405E-05  0.126092736316E-05
 -0.960412281308E-05 -0.509045227602E-05 -0.138530468548E-05  0.950058061440E-06
 -0.224894257165E-03 -0.182826283229E-03 -0.267173044879E-03  0.223864453091E-04  0.243989777026E-03  0.296837393998E-03 -0.169089656130E-03
 -0.167282249195E-03  0.200003167537E-03  0.262930575422E-03  0.517313737937E-03  0.275950102762E-03  0.605991055731E-03  0.251029733263E-03
  0.189540416053E-03  0.219561299087E-03 -0.119923629983E-03  0.105490428274E-03  0.329547652131E-03  0.826653274088E-04  0.178188408995E-03
  0.215201816227E-03  0.387667952889E-03  0.274837442460E-03  0.790867288264E-04  0.168544647306E-03  0.201320340585E-03  0.742077484756E-04
  0.886426383232E-04  0.306838691994E-03  0.207842399727E-03  0.864782250640E-04
 -0.724998150520E-03 -0.177246086563E-02 -0.109671018243E-02 -0.295288564313E-02 -0.145460814594E-03 -0.432323851913E-02  0.638287056191E-04
  0.793489063689E-04 -0.474717426305E-02  0.132994363867E-03 -0.170908328441E-03  0.457993087431E-03 -0.398911451204E-03  0.231108520303E-03
  0.613457072394E-03  0.591444596570E-03 -0.248568212560E-03 -0.314633502316E-02  0.366247756266E-03  0.251282880013E-02  0.843470858378E-03
  0.568657535541E-03 -0.279235072064E-03  0.311234803112E-03  0.259909244737E-02 -0.214643590910E-02  0.458634521685E-03  0.288405644120E-02
  0.254817059748E-02  0.240492048584E-03  0.522851091854E-03  0.238746538790E-02
        12        19        11        11
        11         5        12        12
        10        14         5         5
        19        13        11        11
        19        24        13        13
        30        23        24        24
        19        12        22        22
        28        22        21        21
        11        13         6         6
         7         6         9         9
        15        12        14        14
        18        13        23        23
        15        25        21        21
        27        19        22        22
        18         8         9         9
        27        31        24        24
         4        11         6         6
         5        14        12        12
         4         2         5         5
        21        12        15        15
        14        16        15        15
        24        19        27        27
        22        29        27        27
        23        26        18        18
        17         8        18        18
         5        11         4         4
         6         3         4         4
        26        23        30        30
         5         2        10        10
        16        14        10        10
         3         6         7         7
        21        25        28        28
        29        22        28        28
         6        13         9         9
         2         4         1         1
        31        27        32        32
        25        15        20        20
        24        23        13        13
         8         7         9         9
        13        18         9         9
        31        30        24        24
        12        21        22        22
        29        32        27        27
         3         1         4         4
        26        17        18        18
        16        20        15        15
zone t="boundary 2 bc-2", solutiontime= 0.6000000E+02, strandid=1002, i=33, j=48, f=feblock
  0.500000000000E+01  0.375000000000E+01  0.250000000000E+01  0.288078410721E+01  0.125000000000E+01  0.190974100652E+01  0.326683758169E+01
  0.201431602454E+01  0.000000000000E+00  0.963108083381E+00  0.500000000000E+01  0.403552511878E+01  0.423153924130E+01  0.500000000000E+01
  0.385533350601E+01  0.500000000000E+01  0.398173246726E+01  0.315249557942E+01  0.267000324704E+01  0.154774304040E+01  0.218329375016E+01
  0.893127759452E+00  0.000000000000E+00  0.698517061619E+00  0.964171764089E+00  0.310324758057E+01  0.000000000000E+00  0.000000000000E+00
  0.125000000000E+01  0.500000000000E+01  0.375000000000E+01  0.250000000000E+01  0.000000000000E+00
 -0.250000000000E+01 -0.250000000000E+01 -0.250000000000E+01 -0.250000000000E+01 -0.250000000000E+01 -0.250000000000E+01 -0.250000000000E+01
 -0.250000000000E+01 -0.250000000000E+01 -0.250000000000E+01 -0.250000000000E+01 -0.250000000000E+01 -0.250000000000E+01 -0.250000000000E+01
 -0.250000000000E+01 -0.250000000000E+01 -0.250000000000E+01 -0.250000000000E+01 -0.250000000000E+01 -0.250000000000E+01 -0.250000000000E+01
 -0.250000000000E+01 -0.250000000000E+01 -0.250000000000E+01 -0.250000000000E+01 -0.250000000000E+01 -0.250000000000E+01 -0.250000000000E+01
 -0.250000000000E+01 -0.250000000000E+01 -0.250000000000E+01 -0.250000000000E+01 -0.250000000000E+01
  0.000000000000E+00  0.000000000000E+00  0.000000000000E+00  0.904659890645E+00  0.000000000000E+00  0.717002441913E+00  0.188609243358E+01
  0.176246431481E+01  0.000000000000E+00  0.961328577125E+00  0.125000000000E+01  0.101201586758E+01  0.191586535653E+01  0.250000000000E+01
  0.293121848150E+01  0.375000000000E+01  0.406975391361E+01  0.363585050272E+01  0.285047954584E+01  0.292817774674E+01  0.395907379566E+01
  0.205246550326E+01  0.125000000000E+01  0.306828197606E+01  0.397245519226E+01  0.433168271247E+01  0.250000000000E+01  0.375000000000E+01
  0.500000000000E+01  0.500000000000E+01  0.500000000000E+01  0.500000000000E+01  0.500000000000E+01
  0.000000000000E+00  0.000000000000E+00  0.000000000000E+00  0.380991906500E+00  0.000000000000E+00  0.343629824950E+00  0.585286157424E+00
  0.579373264282E+00  0.000000000000E+00  0.501056069140E+00  0.508460362676E+00  0.435373026572E+00  0.572640041190E+00  0.537002098944E+00
  0.568922553870E+00  0.514994090651E+00  0.508247257160E+00  0.527252853130E+00  0.567446661127E+00  0.531657143909E+00  0.505981016593E+00
  0.520795579399E+00  0.443624103833E+00  0.490663730453E+00  0.492155873749E+00  0.501390784676E+00  0.467732355362E+00  0.488212087362E+00
  0.490002767114E+00  0.491352304715E+00  0.486075475228E+00  0.490036479234E+00  0.495098264817E+00
  0.999993487379E+00  0.999993690057E+00  0.999993543115E+00  0.989539055875E+00  0.999993137282E+00  0.985524707174E+00  0.989838908967E+00
  0.991798516580E+00  0.999992721792E+00  0.984411112416E+00  0.985091906406E+00  0.984689080896E+00  0.990058464829E+00  0.100289621837E+01
  0.999855369243E+00  0.100485306649E+01  0.100121554699E+01  0.100055642931E+01  0.997896793475E+00  0.100350029570E+01  0.100058068723E+01
  0.101093276247E+01  0.104043292670E+01  0.100326475367E+01  0.100254498742E+01  0.100045587387E+01  0.100976788415E+01  0.100405369352E+01
  0.100192656835E+01  0.100045434508E+01  0.100058774183E+01  0.100109993754E+01  0.100176112495E+01
 -0.507217786081E-03 -0.394319833888E-03 -0.204703596422E-03  0.555144865899E-02  0.566439365253E-03  0.167674009242E-01 -0.974782374668E-03
  0.436792341968E-03  0.644481409804E-03  0.763116148713E-02 -0.120439038430E-02 -0.161258200850E-02 -0.937541504419E-03 -0.807061970749E-03
 -0.593165165031E-03 -0.535150972796E-03 -0.396496719003E-03 -0.449602769176E-03 -0.797055560968E-03 -0.993142875504E-03 -0.583967552949E-03
  0.389656707420E-03  0.528453441297E-02 -0.655909020054E-03 -0.110650303074E-02 -0.713528705612E-03 -0.656029407154E-03 -0.131094163346E-02
 -0.520522433785E-02 -0.623093689626E-03 -0.238789044375E-02 -0.458057884933E-02 -0.575041320846E-02
  0.145800530818E-03 -0.411451962996E-04  0.745755794251E-06  0.941958823894E-03 -0.888966736878E-04  0.204174646317E-02  0.553051801078E-05
 -0.454732081885E-04  0.649885922447E-04  0.851963962916E-03  0.279009354269E-03  0.267878154965E-04  0.155818855130E-03  0.205832801243E-03
  0.143093574784E-03  0.125373940277E-03  0.151287237973E-03  0.126229303997E-03  0.454464665895E-04 -0.920476804167E-04  0.534438057933E-04
 -0.599516061822E-04  0.667136873245E-03 -0.467926507451E-04 -0.129846724357E-03  0.729815904718E-04 -0.163237973114E-03 -0.276257215698E-03
 -0.941899846663E-03  0.313724308525E-04 -0.240302260321E-03 -0.715621290655E-03 -0.119957758432E-02
 -0.336824532939E-04  0.382507374143E-05  0.492702477300E-04  0.112571734665E-03  0.285085601377E-04  0.193956264434E-03 -0.207438875326E-04
 -0.545526510317E-05 -0.394486474392E-04  0.550590824050E-04 -0.133796730992E-04 -0.566612395077E-04  0.234325530488E-05  0.129066032625E-05
  0.225819290654E-05 -0.256444271770E-05  0.659766368427E-06 -0.177568099560E-05  0.368065250391E-05  0.653591208504E-05 -0.290722404911E-05
  0.444008739429E-05 -0.150649590320E-04  0.112735391746E-05 -0.438737287453E-06 -0.123795690326E-05 -0.509045227602E-05 -0.138530468548E-05
 -0.726661966496E-06 -0.502686603848E-06 -0.804925793224E-07  0.394788086601E-06  0.950058061440E-06
 -0.304719263943E-04 -0.471287579812E-04 -0.667565674641E-04  0.214292996589E-03 -0.146978532776E-03  0.287704067382E-04  0.332404696273E-03
  0.430793464298E-03 -0.119923629983E-03  0.182482938499E-03  0.610359225466E-04  0.247983500178E-03  0.121488770279E-03  0.505432549593E-04
  0.124036597343E-03  0.420417143098E-04  0.115639225901E-03  0.168310659452E-03  0.208249846601E-03  0.211697745459E-03  0.191063200444E-03
  0.320955966905E-03  0.168544647306E-03  0.218068242228E-03  0.187499257409E-03  0.164224591768E-03  0.306838691994E-03  0.207842399727E-03
  0.124495875020E-03  0.662689591679E-04  0.144747355605E-03  0.156676230331E-03  0.864782250640E-04
  0.111412911678E-03  0.469748645785E-03  0.676575348849E-03 -0.249742724463E-02  0.758515823912E-03 -0.714888027375E-02  0.291059317835E-03
 -0.187568094951E-03 -0.248568212560E-03 -0.312540510628E-02  0.259015535533E-03  0.498984229821E-03  0.223383879924E-03  0.155134856930E-03
  0.113979426561E-03  0.108302498422E-03  0.545754317010E-04  0.805017952979E-04  0.222579059563E-03  0.345187814886E-03  0.155381881874E-03
 -0.163073374089E-03 -0.214643590910E-02  0.215426302756E-03  0.405184156219E-03  0.194651010189E-03  0.240492048584E-03  0.522851091854E-03
  0.211620334304E-02  0.188310010183E-03  0.896191779324E-03  0.182219257800E-02  0.238746538790E-02
        15         7        19        19
         8        20        19        19
        18        19        21        21
         7         4         8         8
         3         6         4         4
        19         7         8         8
        19        18        15        15
        14        13        15        15
         8        22        20        20
        27        24        22        22
        19        20        21        21
        32        26        21        21
        17        18        26        26
        17        16        15        15
        25        29        21        21
        12         7        13        13
        10         8         6         6
        25        20        24        24
         4         6         8         8
        12         2         4         4
        10        23        22        22
        26        31        17        17
        30        16        17        17
         4         7        12        12
        13        11        12        12
        21        20        25        25
        24        28        25        25
        22         8        10        10
         6         5        10        10
        31        26        32        32
         4         2         3         3
         5         6         3         3
        11        13        14        14
        22        23        27        27
        28        24        27        27
        15        13         7         7
         2        12         1         1
        29        25        33        33
        23        10         9         9
        21        26        18        18
        16        14        15        15
        18        17        15        15
        29        32        21        21
        22        24        20        20
        28        33        25        25
        11         1        12        12
        31        30        17        17
         5         9        10        10
zone t="boundary 3 bc-3", solutiontime= 0.6000000E+02, strandid=1003, i=33, j=48, f=feblock
  0.375000000000E+01  0.250000000000E+01  0.500000000000E+01  0.403552511878E+01  0.288078410721E+01  0.125000000000E+01  0.190974100652E+01
  0.500000000000E+01  0.326683758169E+01  0.423153924130E+01  0.201431602454E+01  0.000000000000E+00  0.963108083381E+00  0.500000000000E+01
  0.267000324704E+01  0.385533350601E+01  0.893127759452E+00  0.154774304040E+01  0.000000000000E+00  0.500000000000E+01  0.315249557942E+01
  0.218329375016E+01  0.398173246726E+01  0.000000000000E+00  0.698517061619E+00  0.964171764089E+00  0.125000000000E+01  0.000000000000E+00
  0.500000000000E+01  0.310324758057E+01  0.250000000000E+01  0.375000000000E+01  0.000000000000E+00
  0.250000000000E+01  0.250000000000E+01  0.250000000000E+01  0.250000000000E+01  0.250000000000E+01  0.250000000000E+01  0.250000000000E+01
  0.250000000000E+01  0.250000000000E+01  0.250000000000E+01  0.250000000000E+01  0.250000000000E+01  0.250000000000E+01  0.250000000000E+01
  0.250000000000E+01  0.250000000000E+01  0.250000000000E+01  0.250000000000E+01  0.250000000000E+01  0.250000000000E+01  0.250000000000E+01
  0.250000000000E+01  0.250000000000E+01  0.250000000000E+01  0.250000000000E+01  0.250000000000E+01  0.250000000000E+01  0.250000000000E+01
  0.250000000000E+01  0.250000000000E+01  0.250000000000E+01  0.250000000000E+01  0.250000000000E+01
  0.000000000000E+00  0.000000000000E+00  0.000000000000E+00  0.101201586758E+01  0.904659890645E+00  0.000000000000E+00  0.717002441913E+00
  0.125000000000E+01  0.188609243358E+01  0.191586535653E+01  0.176246431481E+01  0.000000000000E+00  0.961328577125E+00  0.250000000000E+01
  0.285047954584E+01  0.293121848150E+01  0.205246550326E+01  0.292817774674E+01  0.125000000000E+01  0.375000000000E+01  0.363585050272E+01
  0.395907379566E+01  0.406975391361E+01  0.250000000000E+01  0.306828197606E+01  0.397245519226E+01  0.500000000000E+01  0.375000000000E+01
  0.500000000000E+01  0.433168271247E+01  0.500000000000E+01  0.500000000000E+01  0.500000000000E+01
  0.000000000000E+00  0.000000000000E+00  0.000000000000E+00  0.443767745459E+00  0.402286944574E+00  0.000000000000E+00  0.377550369545E+00
  0.509232128688E+00  0.575832179754E+00  0.573707405285E+00  0.562554064412E+00  0.000000000000E+00  0.490563299840E+00  0.534527096543E+00
  0.556586982170E+00  0.564391577749E+00  0.522730517385E+00  0.522052000170E+00  0.441238348384E+00  0.517182331791E+00  0.524228630763E+00
  0.503687457534E+00  0.509488571178E+00  0.469814974359E+00  0.495614442414E+00  0.494483780212E+00  0.488562428343E+00  0.488961654628E+00
  0.492980744788E+00  0.499005552222E+00  0.486460936507E+00  0.484596927548E+00  0.495346592024E+00
  0.999989339439E+00  0.999989408764E+00  0.999989626853E+00  0.981541895460E+00  0.988773990194E+00  0.999989827144E+00  0.982469462434E+00
  0.984104309047E+00  0.990427545862E+00  0.990355285694E+00  0.994362997073E+00  0.999990295028E+00  0.988652071037E+00  0.100368369414E+01
  0.999769197113E+00  0.100118501219E+01  0.100834885320E+01  0.100252111043E+01  0.102982719499E+01  0.100443319461E+01  0.100199536635E+01
  0.100082056599E+01  0.100138192342E+01  0.100826277309E+01  0.100298787130E+01  0.100192389555E+01  0.100215267510E+01  0.100355660048E+01
  0.100047670023E+01  0.100056591053E+01  0.100126820231E+01  0.100066573360E+01  0.100179336279E+01
 -0.317005283476E-03  0.156012908061E-03 -0.448454138550E-03  0.225380023031E-02  0.892421428153E-02  0.522165015308E-03  0.807894978556E-02
 -0.153740985562E-02 -0.799853127404E-03 -0.100595093190E-02  0.138844089234E-02  0.896177431640E-03  0.558331507630E-02 -0.771732885873E-03
 -0.853674921109E-03 -0.655423005346E-03 -0.129837477563E-04 -0.791867778212E-03  0.429455181256E-02 -0.539849539531E-03 -0.408941402205E-03
 -0.535341393696E-03 -0.415324396884E-03 -0.334061644516E-03 -0.679271950213E-03 -0.141876393891E-02 -0.452809487261E-02 -0.147251521686E-02
 -0.517634047029E-03 -0.642498118513E-03 -0.421864392879E-02 -0.227491393242E-02 -0.605196558267E-02
 -0.540290642912E-04 -0.712858698437E-04  0.115066149633E-03  0.691119713734E-03  0.125998477158E-02 -0.121088971328E-03  0.919343356075E-03
  0.255307247448E-03  0.372528996062E-04  0.154651777313E-03  0.477017040182E-04  0.237253366279E-04  0.360919362368E-03  0.202521053194E-03
  0.208000229799E-04  0.121393942085E-03 -0.194173048952E-03 -0.570401366295E-04  0.606160914256E-03  0.132990467063E-03  0.124389058564E-03
  0.714044106098E-04  0.140788645422E-03 -0.138911860129E-03 -0.148904317713E-03 -0.178055462359E-03 -0.801765347526E-03 -0.327303045577E-03
  0.480826101376E-04  0.817127787797E-04 -0.648572941914E-03 -0.222724345375E-03 -0.124552182284E-02
 -0.772942084516E-05  0.134782639720E-04  0.137370902948E-04 -0.445707033940E-04 -0.122020262491E-03  0.479688962531E-04  0.286752334504E-04
 -0.404177647441E-06 -0.142289811756E-04  0.147647068288E-05 -0.408145332207E-05  0.514749416604E-04  0.763659591300E-04  0.496660352840E-05
  0.237368679263E-06  0.106799546442E-05 -0.215021135160E-04 -0.879674317197E-05  0.181727823132E-04  0.289312920164E-05  0.106226825502E-05
  0.616354120292E-05  0.153903405720E-06 -0.246699610695E-05 -0.630728784236E-05  0.113621496424E-05  0.249299889794E-05 -0.113359869142E-05
  0.112215991671E-05  0.118484102037E-07  0.635787666344E-06 -0.971472148390E-07  0.253812621475E-06
 -0.681189640649E-04 -0.127027811515E-03 -0.392641684535E-04  0.881386755420E-04  0.158292167201E-03 -0.120986247257E-03  0.562989983304E-04
  0.497107436382E-04  0.287823741684E-03  0.136199236523E-03  0.426716620067E-03 -0.224894257165E-03  0.144746953451E-03  0.560876314655E-04
  0.170333687966E-03  0.131386066792E-03  0.375616232080E-03  0.189705440156E-03 -0.182826283229E-03  0.533619126061E-04  0.162043411101E-03
  0.174922689763E-03  0.120291143155E-03  0.262930575422E-03  0.258242683663E-03  0.179878862859E-03  0.129843003137E-03  0.219561299087E-03
  0.605308436157E-04  0.159599064368E-03  0.156042964067E-03  0.141097448739E-03  0.826653274088E-04
  0.101808903023E-02  0.412760541760E-03  0.211186085982E-03 -0.120330589633E-02 -0.388815472602E-02  0.158034430469E-04 -0.337231299575E-02
  0.389129617732E-03  0.227036327410E-03  0.251992480288E-03 -0.560870430346E-03 -0.724998150520E-03 -0.219327518709E-02  0.145188273995E-03
  0.254970788680E-03  0.144415697008E-03  0.162735746566E-04  0.261363278684E-03 -0.177246086563E-02  0.105732289441E-03  0.662958804729E-04
  0.133301315716E-03  0.656314052558E-04  0.132994363867E-03  0.242076802690E-03  0.532059247955E-03  0.183002459081E-02  0.591444596570E-03
  0.146261892255E-03  0.167827335622E-03  0.167252330835E-02  0.850605379480E-03  0.251282880013E-02
        15         9        16        16
        15        18        11        11
        22        15        21        21
        11         5         9         9
         5         7         2         2
        11         9        15        15
        16        21        15        15
        16        10        14        14
        18        17        11        11
        17        25        24        24
        22        18        15        15
        22        30        31        31
        30        21        23        23
        16        20        23        23
        22        27        26        26
        10         9         4         4
         7        11        13        13
        25        18        26        26
        11         7         5         5
         5         1         4         4
        17        19        13        13
        23        32        30        30
        23        20        29        29
         4         9         5         5
         4         8        10        10
        26        18        22        22
        26        28        25        25
        13        11        17        17
        13         6         7         7
        31        30        32        32
         2         1         5         5
         2         7         6         6
        14        10         8         8
        24        19        17        17
        24        25        28        28
         9        10        16        16
         3         4         1         1
        33        26        27        27
        12        13        19        19
        21        30        22        22
        16        14        20        20
        16        23        21        21
        22        31        27        27
        18        25        17        17
        26        33        28        28
         4         3         8         8
        23        29        32        32
        13        12         6         6
zone t="boundary 4 bc-4", solutiontime= 0.6000000E+02, strandid=1004, i=32, j=46, f=feblock
  0.125000000000E+01  0.219251206392E+01  0.103724302461E+01  0.500000000000E+01  0.250000000000E+01  0.375000000000E+01  0.404200324774E+01
  0.500000000000E+01  0.000000000000E+00  0.310152362409E+01  0.202479342020E+01  0.324151231464E+01  0.922061490191E+00  0.000000000000E+00
  0.299062775774E+01  0.394624082883E+01  0.500000000000E+01  0.409252726285E+01  0.500000000000E+01  0.429310310915E+01  0.175434191980E+01
  0.284428995242E+01  0.000000000000E+00  0.000000000000E+00  0.715990576545E+00  0.930412228790E+00  0.125000000000E+01  0.187029682677E+01
  0.500000000000E+01  0.375000000000E+01  0.250000000000E+01  0.000000000000E+00
  0.250000000000E+01  0.157686156160E+01  0.146289271009E+01  0.250000000000E+01  0.250000000000E+01  0.250000000000E+01  0.155830813274E+01
  0.125000000000E+01  0.250000000000E+01  0.177790177481E+01  0.477386199275E+00  0.742988685424E+00  0.308372018325E+00  0.125000000000E+01
 -0.487811078581E+00 -0.144524380962E+01 -0.125000000000E+01 -0.345533899378E+00  0.000000000000E+00  0.627766083140E+00 -0.739814786992E+00
 -0.158811787973E+01  0.000000000000E+00 -0.125000000000E+01 -0.600232012419E+00 -0.154800130438E+01 -0.250000000000E+01 -0.178862290564E+01
 -0.250000000000E+01 -0.250000000000E+01 -0.250000000000E+01 -0.250000000000E+01
  0.500000000000E+01  0.500000000000E+01  0.500000000000E+01  0.500000000000E+01  0.500000000000E+01  0.500000000000E+01  0.500000000000E+01
  0.500000000000E+01  0.500000000000E+01  0.500000000000E+01  0.500000000000E+01  0.500000000000E+01  0.500000000000E+01  0.500000000000E+01
  0.500000000000E+01  0.500000000000E+01  0.500000000000E+01  0.500000000000E+01  0.500000000000E+01  0.500000000000E+01  0.500000000000E+01
  0.500000000000E+01  0.500000000000E+01  0.500000000000E+01  0.500000000000E+01  0.500000000000E+01  0.500000000000E+01  0.500000000000E+01
  0.500000000000E+01  0.500000000000E+01  0.500000000000E+01  0.500000000000E+01
  0.488562428343E+00  0.488873127044E+00  0.490562939264E+00  0.492980744788E+00  0.486460936507E+00  0.484596927548E+00  0.485347896276E+00
  0.494163542317E+00  0.495346592024E+00  0.486528232758E+00  0.487819998460E+00  0.487068916091E+00  0.494045904395E+00  0.496127394917E+00
  0.487612357629E+00  0.483219722850E+00  0.492395510969E+00  0.487214141159E+00  0.494738985333E+00  0.487958525499E+00  0.489677249447E+00
  0.488029107105E+00  0.497246279768E+00  0.496059270892E+00  0.494951052257E+00  0.492800373677E+00  0.490002767114E+00  0.490005124553E+00
  0.491352304715E+00  0.486075475228E+00  0.490036479234E+00  0.495098264817E+00
  0.100215267510E+01  0.100152652958E+01  0.100178347660E+01  0.100047670023E+01  0.100126820231E+01  0.100066573360E+01  0.100025357725E+01
  0.100050391679E+01  0.100179336279E+01  0.100112367258E+01  0.100133045248E+01  0.100072432973E+01  0.100164366725E+01  0.100168844809E+01
  0.100096274503E+01  0.100000874853E+01  0.100082864314E+01  0.100022269190E+01  0.100062146074E+01  0.100023497311E+01  0.100174635719E+01
  0.100098855496E+01  0.100118726928E+01  0.100134171022E+01  0.100132635956E+01  0.100179873777E+01  0.100192656835E+01  0.100163748619E+01
  0.100045434508E+01  0.100058774183E+01  0.100109993754E+01  0.100176112495E+01
 -0.452809487261E-02 -0.439454324332E-02 -0.453468936491E-02 -0.517634047029E-03 -0.421864392879E-02 -0.227491393242E-02 -0.158257598901E-02
 -0.515690440625E-03 -0.605196558267E-02 -0.349921869179E-02 -0.474670215523E-02 -0.331509290739E-02 -0.555274498998E-02 -0.624896067894E-02
 -0.376696605225E-02 -0.156208814289E-02 -0.601909726119E-03 -0.197240476576E-02 -0.485499998794E-03 -0.195261041900E-02 -0.588046973052E-02
 -0.357312780488E-02 -0.691378243135E-02 -0.612199876951E-02 -0.644922281299E-02 -0.517834314256E-02 -0.520522433785E-02 -0.550258554168E-02
 -0.623093689626E-03 -0.238789044375E-02 -0.458057884933E-02 -0.575041320846E-02