title="tecplot geometry and solution file"
variables = x y z mach temperature lambda1 lambda2 lambda3 lambda4 lambda5
zone t="boundary 1 bc-1", solutiontime= 0.2000000E+02, strandid=1001, i=32, j=46, f=feblock
  0.000000000000E+00  0.000000000000E+00  0.000000000000E+00  0.000000000000E+00  0.000000000000E+00  0.000000000000E+00  0.000000000000E+00
  0.000000000000E+00  0.000000000000E+00  0.000000000000E+00  0.000000000000E+00  0.000000000000E+00  0.000000000000E+00  0.000000000000E+00
  0.000000000000E+00  0.000000000000E+00  0.000000000000E+00  0.000000000000E+00  0.000000000000E+00  0.000000000000E+00  0.000000000000E+00
  0.000000000000E+00  0.000000000000E+00  0.000000000000E+00  0.000000000000E+00  0.000000000000E+00  0.000000000000E+00  0.000000000000E+00
  0.000000000000E+00  0.000000000000E+00  0.000000000000E+00  0.000000000000E+00
  0.250000000000E+01  0.250000000000E+01  0.125000000000E+01  0.146289271009E+01  0.157686156160E+01  0.308372018325E+00  0.000000000000E+00
 -0.125000000000E+01 -0.600232012419E+00  0.250000000000E+01  0.477386199275E+00  0.742988685424E+00 -0.739814786992E+00  0.177790177481E+01
  0.155830813274E+01  0.250000000000E+01 -0.250000000000E+01 -0.154800130438E+01 -0.487811078581E+00  0.250000000000E+01  0.627766083140E+00
 -0.345533899378E+00 -0.178862290564E+01 -0.158811787973E+01  0.125000000000E+01 -0.250000000000E+01 -0.144524380962E+01  0.000000000000E+00
 -0.125000000000E+01 -0.250000000000E+01 -0.250000000000E+01 -0.250000000000E+01
  0.000000000000E+00  0.125000000000E+01  0.000000000000E+00  0.103724302461E+01  0.219251206392E+01  0.922061490191E+00  0.000000000000E+00
  0.000000000000E+00  0.715990576545E+00  0.250000000000E+01  0.202479342020E+01  0.324151231464E+01  0.175434191980E+01  0.310152362409E+01
  0.404200324774E+01  0.375000000000E+01  0.000000000000E+00  0.930412228790E+00  0.299062775774E+01  0.500000000000E+01  0.429310310915E+01
  0.409252726285E+01  0.187029682677E+01  0.284428995242E+01  0.500000000000E+01  0.125000000000E+01  0.394624082883E+01  0.500000000000E+01
  0.500000000000E+01  0.250000000000E+01  0.375000000000E+01  0.500000000000E+01
  0.000000000000E+00  0.441238348384E+00  0.000000000000E+00  0.475214987021E+00  0.460123708856E+00  0.468827815405E+00  0.000000000000E+00
  0.000000000000E+00  0.402302516798E+00  0.469814974359E+00  0.464411128942E+00  0.478714034184E+00  0.489298241651E+00  0.483068557888E+00
  0.487930073118E+00  0.488961654628E+00  0.000000000000E+00  0.464775721414E+00  0.473795651891E+00  0.495346592024E+00  0.490266103446E+00
  0.486286083902E+00  0.445717618051E+00  0.464382274634E+00  0.496127394917E+00  0.443624103833E+00  0.486964461957E+00  0.497246279768E+00
  0.496059270892E+00  0.467732355362E+00  0.488212087362E+00  0.495098264817E+00
  0.999990295028E+00  0.102982719499E+01  0.999990757903E+00  0.104247294232E+01  0.101190080524E+01  0.102520618293E+01  0.999991416700E+00
  0.999992168096E+00  0.103891223624E+01  0.100826277309E+01  0.101252833877E+01  0.100300548289E+01  0.102702865700E+01  0.100605563290E+01
  0.100244400478E+01  0.100355660048E+01  0.999992721792E+00  0.103239739214E+01  0.100459524090E+01  0.100179336279E+01  0.100260305842E+01
  0.100234966417E+01  0.101657153079E+01  0.100617544692E+01  0.100168844809E+01  0.104043292670E+01  0.100303376377E+01  0.100118726928E+01
  0.100134171022E+01  0.100976788415E+01  0.100405369352E+01  0.100176112495E+01
  0.896259759464E-03  0.428402652993E-02  0.114951167873E-02  0.738273293283E-02  0.347291079209E-03  0.104298111877E-01  0.978596123754E-03
  0.419558262684E-03  0.114688135088E-01 -0.327250346451E-03  0.374533475842E-03 -0.116922917947E-02  0.957450616889E-03 -0.588269494550E-03
 -0.155692918278E-02 -0.146843151798E-02  0.644428094575E-03  0.759829488000E-02 -0.976385703072E-03 -0.603678715258E-02 -0.210928679720E-02
 -0.144461387046E-02  0.636168154809E-03 -0.858894776382E-03 -0.623158809254E-02  0.528072873334E-02 -0.117998087409E-02 -0.688465827063E-02
 -0.611337190559E-02 -0.648319834394E-03 -0.131193900212E-02 -0.574807907027E-02
  0.237891802771E-04  0.604326388404E-03  0.484471538075E-04  0.915642358644E-03 -0.863848624307E-05  0.157370622104E-02  0.731373391496E-04
  0.730337820331E-04  0.170481564463E-02 -0.137687600062E-03  0.124114039202E-04 -0.245195630943E-03  0.359680316313E-04 -0.176347670391E-03
 -0.308985100036E-03 -0.327288291264E-03  0.650353570345E-04  0.115975629631E-02 -0.188731852959E-03 -0.124027569799E-02 -0.422039908090E-03
 -0.277486620273E-03  0.611108936015E-05 -0.162123044808E-03 -0.130518271644E-02  0.666531290610E-03 -0.232055880484E-03 -0.144693336788E-02
 -0.128115002368E-02 -0.161755219396E-03 -0.276868393345E-03 -0.119819940234E-02
  0.514062933908E-04  0.181579885848E-04  0.675290417819E-04  0.204870941689E-03  0.365930259665E-04  0.108928623808E-03  0.700652963318E-04
 -0.434375127846E-04 -0.123681998409E-04 -0.247174811942E-05  0.378572915071E-04  0.394976682327E-04 -0.311697605614E-04  0.132105053037E-04
 -0.378762975593E-05 -0.121018039593E-05 -0.394678331206E-04 -0.173033276541E-03  0.196372842276E-04  0.173382322051E-06  0.183715595510E-05
  0.471367950241E-05 -0.417598132327E-05 -0.224070067770E-04  0.172605830105E-04 -0.150523604201E-04 -0.584539707740E-05  0.927309191813E-06
 -0.982384708226E-05 -0.507489046055E-05 -0.133739630757E-05  0.959219988995E-06
 -0.224884904316E-03 -0.183810481590E-03 -0.267385918401E-03  0.216670059505E-04  0.243348852492E-03  0.296622339989E-03 -0.169140882979E-03
 -0.167199498982E-03  0.199770319209E-03  0.262194721690E-03  0.517629919593E-03  0.276338095700E-03  0.605979466226E-03  0.251148268542E-03
  0.189534676180E-03  0.220058581160E-03 -0.119896721720E-03  0.105335894369E-03  0.329962084233E-03  0.823896453161E-04  0.177673455777E-03
  0.215138245617E-03  0.387494339476E-03  0.275048584318E-03  0.783833305708E-04  0.168563896652E-03  0.201141040532E-03  0.734461497379E-04
  0.880883880728E-04  0.306777234387E-03  0.207862924424E-03  0.861335058664E-04
 -0.724896466344E-03 -0.176811474711E-02 -0.109758317387E-02 -0.295010541933E-02 -0.147273406628E-03 -0.432447380914E-02  0.637062089528E-04
  0.796366251654E-04 -0.474628158158E-02  0.130172400548E-03 -0.172073047622E-03  0.455816043659E-03 -0.398790999643E-03  0.229046328848E-03
  0.620759857383E-03  0.589866125951E-03 -0.248539638233E-03 -0.314285692108E-02  0.363911532340E-03  0.250604060719E-02  0.852076266560E-03
  0.572016983669E-03 -0.280264216396E-03  0.309932521519E-03  0.259166577886E-02 -0.214485400932E-02  0.462196998957E-03  0.287162184234E-02
  0.254436741041E-02  0.237289064158E-03  0.523338634996E-03  0.238635534417E-02
        12        19        11        11
        11         5        12        12
        10        14         5         5
        19        13        11        11
        19        24        13        13
        30        23        24        24
        19        12        22        22
        28        22        21        21
        11        13         6         6
         7         6         9         9
        15        12        14        14
        18        13        23        23
        15        25        21        21
        27        19        22        22
        18         8         9         9
        27        31        24        24
         4        11         6         6
         5        14        12        12
         4         2         5         5
        21        12        15        15
        14        16        15        15
        24        19        27        27
        22        29        27        27
        23        26        18        18
        17         8        18        18
         5        11         4         4
         6         3         4         4
        26        23        30        30
         5         2        10        10
        16        14        10        10
         3         6         7         7
        21        25        28        28
        29        22        28        28
         6        13         9         9
         2         4         1         1
        31        27        32        32
        25        15        20        20
        24        23        13        13
         8         7         9         9
        13        18         9         9
        31        30        24        24
        12        21        22        22
        29        32        27        27
         3         1         4         4
        26        17        18        18
        16        20        15        15
zone t="boundary 2 bc-2", solutiontime= 0.2000000E+02, strandid=1002, i=33, j=48, f=feblock
  0.500000000000E+01  0.375000000000E+01  0.250000000000E+01  0.288078410721E+01  0.125000000000E+01  0.190974100652E+01  0.326683758169E+01
  0.201431602454E+01  0.000000000000E+00  0.963108083381E+00  0.500000000000E+01  0.403552511878E+01  0.423153924130E+01  0.500000000000E+01
  0.385533350601E+01  0.500000000000E+01  0.398173246726E+01  0.315249557942E+01  0.267000324704E+01  0.154774304040E+01  0.218329375016E+01
  0.893127759452E+00  0.000000000000E+00  0.698517061619E+00  0.964171764089E+00  0.310324758057E+01  0.000000000000E+00  0.000000000000E+00
  0.125000000000E+01  0.500000000000E+01  0.375000000000E+01  0.250000000000E+01  0.000000000000E+00
 -0.250000000000E+01 -0.250000000000E+01 -0.250000000000E+01 -0.250000000000E+01 -0.250000000000E+01 -0.250000000000E+01 -0.250000000000E+01
 -0.250000000000E+01 -0.250000000000E+01 -0.250000000000E+01 -0.250000000000E+01 -0.250000000000E+01 -0.250000000000E+01 -0.250000000000E+01
 -0.250000000000E+01 -0.250000000000E+01 -0.250000000000E+01 -0.250000000000E+01 -0.250000000000E+01 -0.250000000000E+01 -0.250000000000E+01
 -0.250000000000E+01 -0.250000000000E+01 -0.250000000000E+01 -0.250000000000E+01 -0.250000000000E+01 -0.250000000000E+01 -0.250000000000E+01
 -0.250000000000E+01 -0.250000000000E+01 -0.250000000000E+01 -0.250000000000E+01 -0.250000000000E+01
  0.000000000000E+00  0.000000000000E+00  0.000000000000E+00  0.904659890645E+00  0.000000000000E+00  0.717002441913E+00  0.188609243358E+01
  0.176246431481E+01  0.000000000000E+00  0.961328577125E+00  0.125000000000E+01  0.101201586758E+01  0.191586535653E+01  0.250000000000E+01
  0.293121848150E+01  0.375000000000E+01  0.406975391361E+01  0.363585050272E+01  0.285047954584E+01  0.292817774674E+01  0.395907379566E+01
  0.205246550326E+01  0.125000000000E+01  0.306828197606E+01  0.397245519226E+01  0.433168271247E+01  0.250000000000E+01  0.375000000000E+01
  0.500000000000E+01  0.500000000000E+01  0.500000000000E+01  0.500000000000E+01  0.500000000000E+01
  0.000000000000E+00  0.000000000000E+00  0.000000000000E+00  0.380991906500E+00  0.000000000000E+00  0.343629824950E+00  0.585286157424E+00
  0.579373264282E+00  0.000000000000E+00  0.501056069140E+00  0.508460362676E+00  0.435373026572E+00  0.572640041190E+00  0.537002098944E+00
  0.568922553870E+00  0.514994090651E+00  0.508247257160E+00  0.527252853130E+00  0.567446661127E+00  0.531657143909E+00  0.505981016593E+00
  0.520795579399E+00  0.443624103833E+00  0.490663730453E+00  0.492155873749E+00  0.501390784676E+00  0.467732355362E+00  0.488212087362E+00
  0.490002767114E+00  0.491352304715E+00  0.486075475228E+00  0.490036479234E+00  0.495098264817E+00
  0.999993487379E+00  0.999993690057E+00  0.999993543115E+00  0.989539055875E+00  0.999993137282E+00  0.985524707174E+00  0.989838908967E+00
  0.991798516580E+00  0.999992721792E+00  0.984411112416E+00  0.985091906406E+00  0.984689080896E+00  0.990058464829E+00  0.100289621837E+01
  0.999855369243E+00  0.100485306649E+01  0.100121554699E+01  0.100055642931E+01  0.997896793475E+00  0.100350029570E+01  0.100058068723E+01
  0.101093276247E+01  0.104043292670E+01  0.100326475367E+01  0.100254498742E+01  0.100045587387E+01  0.100976788415E+01  0.100405369352E+01
  0.100192656835E+01  0.100045434508E+01  0.100058774183E+01  0.100109993754E+01  0.100176112495E+01
 -0.506967075973E-03 -0.394249391146E-03 -0.204519223078E-03  0.555380017935E-02  0.566193885666E-03  0.167562021502E-01 -0.973480126022E-03
  0.439527838398E-03  0.644428094575E-03  0.763053191134E-02 -0.120507124275E-02 -0.160528135371E-02 -0.938955681224E-03 -0.806722144660E-03
 -0.593353021650E-03 -0.535013932456E-03 -0.396228667933E-03 -0.449309036247E-03 -0.795591144121E-03 -0.993404062095E-03 -0.585404230464E-03
  0.390093310467E-03  0.528072873334E-02 -0.652428476592E-03 -0.110379409361E-02 -0.713946200541E-03 -0.648319834394E-03 -0.131193900212E-02
 -0.520944886351E-02 -0.623152799127E-03 -0.238825051359E-02 -0.458168731698E-02 -0.574807907027E-02
  0.145752774781E-03 -0.410974929570E-04  0.753962526790E-06  0.942209722491E-03 -0.888273309492E-04  0.204006887745E-02  0.573858636821E-05
 -0.448680299000E-04  0.650353570345E-04  0.851996136115E-03  0.278755388444E-03  0.282739929569E-04  0.155380786960E-03  0.205848855603E-03
  0.143059160845E-03  0.125354853514E-03  0.151257255161E-03  0.126250671541E-03  0.458938696685E-04 -0.922331637234E-04  0.528806289354E-04
 -0.596859636055E-04  0.666531290610E-03 -0.461438021964E-04 -0.129755054658E-03  0.726241088790E-04 -0.161755219396E-03 -0.276868393345E-03
 -0.942114527411E-03  0.313626783568E-04 -0.240299391575E-03 -0.715228240432E-03 -0.119819940234E-02
 -0.336960491205E-04  0.380316185958E-05  0.492424235657E-04  0.112581668424E-03  0.285092374826E-04  0.193911643314E-03 -0.207166993229E-04
 -0.545102491258E-05 -0.394678331206E-04  0.550952240036E-04 -0.133797899991E-04 -0.565952280116E-04  0.233024322696E-05  0.129138922101E-05
  0.225624197458E-05 -0.256195918327E-05  0.659410374500E-06 -0.175768949140E-05  0.370348211469E-05  0.654214001213E-05 -0.292088790879E-05
  0.441230413726E-05 -0.150523604201E-04  0.113158701375E-05 -0.455576995156E-06 -0.124105407840E-05 -0.507489046055E-05 -0.133739630757E-05
 -0.762989583566E-06 -0.501813664642E-06 -0.837546415254E-07  0.382879467590E-06  0.959219988995E-06
 -0.304761263526E-04 -0.471270974719E-04 -0.667700500230E-04  0.214090351872E-03 -0.146919535798E-03  0.285358253581E-04  0.332303617925E-03
  0.430773970503E-03 -0.119896721720E-03  0.182261468891E-03  0.610138040631E-04  0.247508334430E-03  0.121464329603E-03  0.505222784326E-04
  0.124031386585E-03  0.420372695709E-04  0.115614261182E-03  0.168371347028E-03  0.208281815937E-03  0.211808744293E-03  0.190837322421E-03
  0.320643400163E-03  0.168563896652E-03  0.218039302929E-03  0.187322219226E-03  0.164020790288E-03  0.306777234387E-03  0.207862924424E-03
  0.124495687277E-03  0.662796832863E-04  0.144735871393E-03  0.156726659664E-03  0.861335058664E-04
  0.111260114877E-03  0.469696926615E-03  0.676417708112E-03 -0.249839122634E-02  0.758541379785E-03 -0.714415276438E-02  0.290531099480E-03
 -0.188750665592E-03 -0.248539638233E-03 -0.312518060397E-02  0.259357073525E-03  0.495821385072E-03  0.224045975129E-03  0.155017037494E-03
  0.114061929357E-03  0.108268117026E-03  0.544908047790E-04  0.803776018848E-04  0.221919225375E-03  0.345316948014E-03  0.156067863298E-03
 -0.163259920452E-03 -0.214485400932E-02  0.213955516553E-03  0.404133967924E-03  0.194916495280E-03  0.237289064158E-03  0.523338634996E-03
  0.211786242300E-02  0.188332918559E-03  0.896324404768E-03  0.182249136650E-02  0.238635534417E-02
        15         7        19        19
         8        20        19        19
        18        19        21        21
         7         4         8         8
         3         6         4         4
        19         7         8         8
        19        18        15        15
        14        13        15        15
         8        22        20        20
        27        24        22        22
        19        20        21        21
        32        26        21        21
        17        18        26        26
        17        16        15        15
        25        29        21        21
        12         7        13        13
        10         8         6         6
        25        20        24        24
         4         6         8         8
        12         2         4         4
        10        23        22        22
        26        31        17        17
        30        16        17        17
         4         7        12        12
        13        11        12        12
        21        20        25        25
        24        28        25        25
        22         8        10        10
         6         5        10        10
        31        26        32        32
         4         2         3         3
         5         6         3         3
        11        13        14        14
        22        23        27        27
        28        24        27        27
        15        13         7         7
         2        12         1         1
        29        25        33        33
        23        10         9         9
        21        26        18        18
        16        14        15        15
        18        17        15        15
        29        32        21        21
        22        24        20        20
        28        33        25        25
        11         1        12        12
        31        30        17        17
         5         9        10        10
zone t="boundary 3 bc-3", solutiontime= 0.2000000E+02, strandid=1003, i=33, j=48, f=feblock
  0.375000000000E+01  0.250000000000E+01  0.500000000000E+01  0.403552511878E+01  0.288078410721E+01  0.125000000000E+01  0.190974100652E+01
  0.500000000000E+01  0.326683758169E+01  0.423153924130E+01  0.201431602454E+01  0.000000000000E+00  0.963108083381E+00  0.500000000000E+01
  0.267000324704E+01  0.385533350601E+01  0.893127759452E+00  0.154774304040E+01  0.000000000000E+00  0.500000000000E+01  0.315249557942E+01
  0.218329375016E+01  0.398173246726E+01  0.000000000000E+00  0.698517061619E+00  0.964171764089E+00  0.125000000000E+01  0.000000000000E+00
  0.500000000000E+01  0.310324758057E+01  0.250000000000E+01  0.375000000000E+01  0.000000000000E+00
  0.250000000000E+01  0.250000000000E+01  0.250000000000E+01  0.250000000000E+01  0.250000000000E+01  0.250000000000E+01  0.250000000000E+01
  0.250000000000E+01  0.250000000000E+01  0.250000000000E+01  0.250000000000E+01  0.250000000000E+01  0.250000000000E+01  0.250000000000E+01
  0.250000000000E+01  0.250000000000E+01  0.250000000000E+01  0.250000000000E+01  0.250000000000E+01  0.250000000000E+01  0.250000000000E+01
  0.250000000000E+01  0.250000000000E+01  0.250000000000E+01  0.250000000000E+01  0.250000000000E+01  0.250000000000E+01  0.250000000000E+01
  0.250000000000E+01  0.250000000000E+01  0.250000000000E+01  0.250000000000E+01  0.250000000000E+01
  0.000000000000E+00  0.000000000000E+00  0.000000000000E+00  0.101201586758E+01  0.904659890645E+00  0.000000000000E+00  0.717002441913E+00
  0.125000000000E+01  0.188609243358E+01  0.191586535653E+01  0.176246431481E+01  0.000000000000E+00  0.961328577125E+00  0.250000000000E+01
  0.285047954584E+01  0.293121848150E+01  0.205246550326E+01  0.292817774674E+01  0.125000000000E+01  0.375000000000E+01  0.363585050272E+01
  0.395907379566E+01  0.406975391361E+01  0.250000000000E+01  0.306828197606E+01  0.397245519226E+01  0.500000000000E+01  0.375000000000E+01
  0.500000000000E+01  0.433168271247E+01  0.500000000000E+01  0.500000000000E+01  0.500000000000E+01
  0.000000000000E+00  0.000000000000E+00  0.000000000000E+00  0.443767745459E+00  0.402286944574E+00  0.000000000000E+00  0.377550369545E+00
  0.509232128688E+00  0.575832179754E+00  0.573707405285E+00  0.562554064412E+00  0.000000000000E+00  0.490563299840E+00  0.534527096543E+00
  0.556586982170E+00  0.564391577749E+00  0.522730517385E+00  0.522052000170E+00  0.441238348384E+00  0.517182331791E+00  0.524228630763E+00
  0.503687457534E+00  0.509488571178E+00  0.469814974359E+00  0.495614442414E+00  0.494483780212E+00  0.488562428343E+00  0.488961654628E+00
  0.492980744788E+00  0.499005552222E+00  0.486460936507E+00  0.484596927548E+00  0.495346592024E+00
  0.999989339439E+00  0.999989408764E+00  0.999989626853E+00  0.981541895460E+00  0.988773990194E+00  0.999989827144E+00  0.982469462434E+00
  0.984104309047E+00  0.990427545862E+00  0.990355285694E+00  0.994362997073E+00  0.999990295028E+00  0.988652071037E+00  0.100368369414E+01
  0.999769197113E+00  0.100118501219E+01  0.100834885320E+01  0.100252111043E+01  0.102982719499E+01  0.100443319461E+01  0.100199536635E+01
  0.100082056599E+01  0.100138192342E+01  0.100826277309E+01  0.100298787130E+01  0.100192389555E+01  0.100215267510E+01  0.100355660048E+01
  0.100047670023E+01  0.100056591053E+01  0.100126820231E+01  0.100066573360E+01  0.100179336279E+01
 -0.316519805944E-03  0.155590714309E-03 -0.448447752403E-03  0.225963116470E-02  0.890740494838E-02  0.521952670367E-03  0.806426146395E-02
 -0.153869920417E-02 -0.796721006241E-03 -0.100736773300E-02  0.138816597294E-02  0.896259759464E-03  0.557400850214E-02 -0.771435347167E-03
 -0.853980590383E-03 -0.655456368449E-03 -0.151818066832E-04 -0.791973776110E-03  0.428402652993E-02 -0.539842039497E-03 -0.408931968694E-03
 -0.535214827755E-03 -0.414968414777E-03 -0.327250346451E-03 -0.675768561576E-03 -0.141668117201E-02 -0.453987445626E-02 -0.146843151798E-02
 -0.517623306725E-03 -0.643025864396E-03 -0.421560632949E-02 -0.227573893684E-02 -0.603678715258E-02
 -0.539354217870E-04 -0.711112376582E-04  0.114952168321E-03  0.691801543371E-03  0.125690033034E-02 -0.121076709027E-03  0.916306554288E-03
  0.254904920371E-03  0.378602795819E-04  0.154205328424E-03  0.475176562702E-04  0.237891802771E-04  0.358891552184E-03  0.202537833455E-03
  0.206356228887E-04  0.121357879987E-03 -0.194889386378E-03 -0.573884064987E-04  0.604326388404E-03  0.132951347291E-03  0.124405059531E-03
  0.711918436832E-04  0.140802517136E-03 -0.137687600062E-03 -0.148832797951E-03 -0.178181657704E-03 -0.803778030880E-03 -0.327288291264E-03
  0.481065555151E-04  0.813644263488E-04 -0.647320810095E-03 -0.222906112916E-03 -0.124027569799E-02
 -0.771766757309E-05  0.134667924685E-04  0.137025940801E-04 -0.445660459614E-04 -0.121830340342E-03  0.479662658399E-04  0.287485336447E-04
 -0.401030387554E-06 -0.142494940905E-04  0.149383016236E-05 -0.406442171278E-05  0.514062933908E-04  0.764645517393E-04  0.496655000734E-05
  0.220846129610E-06  0.106142709923E-05 -0.214742516341E-04 -0.877490259557E-05  0.181579885848E-04  0.289224791193E-05  0.105337780012E-05
  0.617621914029E-05  0.153250336874E-06 -0.247174811942E-05 -0.631088757833E-05  0.112432749634E-05  0.255852086341E-05 -0.121018039593E-05
  0.112054518634E-05  0.230653153557E-07  0.640694492728E-06 -0.889988943246E-07  0.173382322051E-06
 -0.681721952636E-04 -0.126818529161E-03 -0.392168161065E-04  0.876713399699E-04  0.158188911803E-03 -0.120884296526E-03  0.565713399430E-04
  0.498240819461E-04  0.287772794381E-03  0.136207791189E-03  0.426465633547E-03 -0.224884904316E-03  0.144507581244E-03  0.560477836142E-04
  0.170362021418E-03  0.131343899749E-03  0.375216676790E-03  0.189731194540E-03 -0.183810481590E-03  0.533582709569E-04  0.162019496680E-03
  0.174676656845E-03  0.120298672541E-03  0.262194721690E-03  0.258122443738E-03  0.179815918763E-03  0.129752940737E-03  0.220058581160E-03
  0.605389363040E-04  0.159407910442E-03  0.156068310905E-03  0.141077752841E-03  0.823896453161E-04
  0.101776209446E-02  0.413036972897E-03  0.211339478475E-03 -0.120570066892E-02 -0.388094364452E-02  0.159830574073E-04 -0.336593252662E-02
  0.389757828193E-03  0.225694005677E-03  0.252662259646E-03 -0.560739452152E-03 -0.724896466344E-03 -0.218923618338E-02  0.145084503447E-03
  0.255136328732E-03  0.144450818843E-03  0.172555627928E-04  0.261482760614E-03 -0.176811474711E-02  0.105749906992E-03  0.662910989880E-04
  0.133303086477E-03  0.655026016379E-04  0.130172400548E-03  0.240745679713E-03  0.531319497245E-03  0.183495633287E-02  0.589866125951E-03
  0.146252274822E-03  0.168124908488E-03  0.167107657921E-02  0.850952521363E-03  0.250604060719E-02
        15         9        16        16
        15        18        11        11
        22        15        21        21
        11         5         9         9
         5         7         2         2
        11         9        15        15
        16        21        15        15
        16        10        14        14
        18        17        11        11
        17        25        24        24
        22        18        15        15
        22        30        31        31
        30        21        23        23
        16        20        23        23
        22        27        26        26
        10         9         4         4
         7        11        13        13
        25        18        26        26
        11         7         5         5
         5         1         4         4
        17        19        13        13
        23        32        30        30
        23        20        29        29
         4         9         5         5
         4         8        10        10
        26        18        22        22
        26        28        25        25
        13        11        17        17
        13         6         7         7
        31        30        32        32
         2         1         5         5
         2         7         6         6
        14        10         8         8
        24        19        17        17
        24        25        28        28
         9        10        16        16
         3         4         1         1
        33        26        27        27
        12        13        19        19
        21        30        22        22
        16        14        20        20
        16        23        21        21
        22        31        27        27
        18        25        17        17
        26        33        28        28
         4         3         8         8
        23        29        32        32
        13        12         6         6
zone t="boundary 4 bc-4", solutiontime= 0.2000000E+02, strandid=1004, i=32, j=46, f=feblock
  0.125000000000E+01  0.219251206392E+01  0.103724302461E+01  0.500000000000E+01  0.250000000000E+01  0.375000000000E+01  0.404200324774E+01
  0.500000000000E+01  0.000000000000E+00  0.310152362409E+01  0.202479342020E+01  0.324151231464E+01  0.922061490191E+00  0.000000000000E+00
  0.299062775774E+01  0.394624082883E+01  0.500000000000E+01  0.409252726285E+01  0.500000000000E+01  0.429310310915E+01  0.175434191980E+01
  0.284428995242E+01  0.000000000000E+00  0.000000000000E+00  0.715990576545E+00  0.930412228790E+00  0.125000000000E+01  0.187029682677E+01
  0.500000000000E+01  0.375000000000E+01  0.250000000000E+01  0.000000000000E+00
  0.250000000000E+01  0.157686156160E+01  0.146289271009E+01  0.250000000000E+01  0.250000000000E+01  0.250000000000E+01  0.155830813274E+01
  0.125000000000E+01  0.250000000000E+01  0.177790177481E+01  0.477386199275E+00  0.742988685424E+00  0.308372018325E+00  0.125000000000E+01
 -0.487811078581E+00 -0.144524380962E+01 -0.125000000000E+01 -0.345533899378E+00  0.000000000000E+00  0.627766083140E+00 -0.739814786992E+00
 -0.158811787973E+01  0.000000000000E+00 -0.125000000000E+01 -0.600232012419E+00 -0.154800130438E+01 -0.250000000000E+01 -0.178862290564E+01
 -0.250000000000E+01 -0.250000000000E+01 -0.250000000000E+01 -0.250000000000E+01
  0.500000000000E+01  0.500000000000E+01  0.500000000000E+01  0.500000000000E+01  0.500000000000E+01  0.500000000000E+01  0.500000000000E+01
  0.500000000000E+01  0.500000000000E+01  0.500000000000E+01  0.500000000000E+01  0.500000000000E+01  0.500000000000E+01  0.500000000000E+01
  0.500000000000E+01  0.500000000000E+01  0.500000000000E+01  0.500000000000E+01  0.500000000000E+01  0.500000000000E+01  0.500000000000E+01
  0.500000000000E+01  0.500000000000E+01  0.500000000000E+01  0.500000000000E+01  0.500000000000E+01  0.500000000000E+01  0.500000000000E+01
  0.500000000000E+01  0.500000000000E+01  0.500000000000E+01  0.500000000000E+01
  0.488562428343E+00  0.488873127044E+00  0.490562939264E+00  0.492980744788E+00  0.486460936507E+00  0.484596927548E+00  0.485347896276E+00
  0.494163542317E+00  0.495346592024E+00  0.486528232758E+00  0.487819998460E+00  0.487068916091E+00  0.494045904395E+00  0.496127394917E+00
  0.487612357629E+00  0.483219722850E+00  0.492395510969E+00  0.487214141159E+00  0.494738985333E+00  0.487958525499E+00  0.489677249447E+00
  0.488029107105E+00  0.497246279768E+00  0.496059270892E+00  0.494951052257E+00  0.492800373677E+00  0.490002767114E+00  0.490005124553E+00
  0.491352304715E+00  0.486075475228E+00  0.490036479234E+00  0.495098264817E+00
  0.100215267510E+01  0.100152652958E+01  0.100178347660E+01  0.100047670023E+01  0.100126820231E+01  0.100066573360E+01  0.100025357725E+01
  0.100050391679E+01  0.100179336279E+01  0.100112367258E+01  0.100133045248E+01  0.100072432973E+01  0.100164366725E+01  0.100168844809E+01
  0.100096274503E+01  0.100000874853E+01  0.100082864314E+01  0.100022269190E+01  0.100062146074E+01  0.100023497311E+01  0.100174635719E+01
  0.100098855496E+01  0.100118726928E+01  0.100134171022E+01  0.100132635956E+01  0.100179873777E+01  0.100192656835E+01  0.100163748619E+01
  0.100045434508E+01  0.100058774183E+01  0.100109993754E+01  0.100176112495E+01
 -0.453987445626E-02 -0.439166750758E-02 -0.453934450140E-02 -0.517623306725E-03 -0.421560632949E-02 -0.227573893684E-02 -0.158240936709E-02
 -0.515674330348E-03 -0.603678715258E-02 -0.350018952735E-02 -0.475141328090E-02 -0.331610562158E-02 -0.554850098935E-02 -0.623158809254E-02
 -0.376723766293E-02 -0.156199574945E-02 -0.601913165687E-03 -0.197300980955E-02 -0.485316868225E-03 -0.195222538981E-02 -0.588226728377E-02
 -0.357306074403E-02 -0.688465827063E-02 -0.611337190559E-02 -0.645516196909E-02 -0.518085980576E-02 -0.520944886351E-02 -0.550051942828E-02
 -0.623152799127E-03 -0.238825051359E-02 -0.458168731698E-02 -0.574807907027E-02