title="tecplot geometry and solution file"
variables = x y z mach temperature lambda1 lambda2 lambda3 lambda4 lambda5
zone t="boundary 1 bc-1", solutiontime= 0.7000000E+02, strandid=1001, i=32, j=46, f=feblock
  0.000000000000E+00  0.000000000000E+00  0.000000000000E+00  0.000000000000E+00  0.000000000000E+00  0.000000000000E+00  0.000000000000E+00
  0.000000000000E+00  0.000000000000E+00  0.000000000000E+00  0.000000000000E+00  0.000000000000E+00  0.000000000000E+00  0.000000000000E+00
  0.000000000000E+00  0.000000000000E+00  0.000000000000E+00  0.000000000000E+00  0.000000000000E+00  0.000000000000E+00  0.000000000000E+00
  0.000000000000E+00  0.000000000000E+00  0.000000000000E+00  0.000000000000E+00  0.000000000000E+00  0.000000000000E+00  0.000000000000E+00
  0.000000000000E+00  0.000000000000E+00  0.000000000000E+00  0.000000000000E+00
  0.250000000000E+01  0.250000000000E+01  0.125000000000E+01  0.146289271009E+01  0.157686156160E+01  0.308372018325E+00  0.000000000000E+00
 -0.125000000000E+01 -0.600232012419E+00  0.250000000000E+01  0.477386199275E+00  0.742988685424E+00 -0.739814786992E+00  0.177790177481E+01
  0.155830813274E+01  0.250000000000E+01 -0.250000000000E+01 -0.154800130438E+01 -0.487811078581E+00  0.250000000000E+01  0.627766083140E+00
 -0.345533899378E+00 -0.178862290564E+01 -0.158811787973E+01  0.125000000000E+01 -0.250000000000E+01 -0.144524380962E+01  0.000000000000E+00
 -0.125000000000E+01 -0.250000000000E+01 -0.250000000000E+01 -0.250000000000E+01
  0.000000000000E+00  0.125000000000E+01  0.000000000000E+00  0.103724302461E+01  0.219251206392E+01  0.922061490191E+00  0.000000000000E+00
  0.000000000000E+00  0.715990576545E+00  0.250000000000E+01  0.202479342020E+01  0.324151231464E+01  0.175434191980E+01  0.310152362409E+01
  0.404200324774E+01  0.375000000000E+01  0.000000000000E+00  0.930412228790E+00  0.299062775774E+01  0.500000000000E+01  0.429310310915E+01
  0.409252726285E+01  0.187029682677E+01  0.284428995242E+01  0.500000000000E+01  0.125000000000E+01  0.394624082883E+01  0.500000000000E+01
  0.500000000000E+01  0.250000000000E+01  0.375000000000E+01  0.500000000000E+01
  0.000000000000E+00  0.441238348384E+00  0.000000000000E+00  0.475214987021E+00  0.460123708856E+00  0.468827815405E+00  0.000000000000E+00
  0.000000000000E+00  0.402302516798E+00  0.469814974359E+00  0.464411128942E+00  0.478714034184E+00  0.489298241651E+00  0.483068557888E+00
  0.487930073118E+00  0.488961654628E+00  0.000000000000E+00  0.464775721414E+00  0.473795651891E+00  0.495346592024E+00  0.490266103446E+00
  0.486286083902E+00  0.445717618051E+00  0.464382274634E+00  0.496127394917E+00  0.443624103833E+00  0.486964461957E+00  0.497246279768E+00
  0.496059270892E+00  0.467732355362E+00  0.488212087362E+00  0.495098264817E+00
  0.999990295028E+00  0.102982719499E+01  0.999990757903E+00  0.104247294232E+01  0.101190080524E+01  0.102520618293E+01  0.999991416700E+00
  0.999992168096E+00  0.103891223624E+01  0.100826277309E+01  0.101252833877E+01  0.100300548289E+01  0.102702865700E+01  0.100605563290E+01
  0.100244400478E+01  0.100355660048E+01  0.999992721792E+00  0.103239739214E+01  0.100459524090E+01  0.100179336279E+01  0.100260305842E+01
  0.100234966417E+01  0.101657153079E+01  0.100617544692E+01  0.100168844809E+01  0.104043292670E+01  0.100303376377E+01  0.100118726928E+01
  0.100134171022E+01  0.100976788415E+01  0.100405369352E+01  0.100176112495E+01
  0.896177432160E-03  0.429455181498E-02  0.114859439756E-02  0.738935528498E-02  0.342892771146E-03  0.104267052947E-01  0.978199914957E-03
  0.419747024539E-03  0.114709107017E-01 -0.334061645875E-03  0.371799862516E-03 -0.117452592918E-02  0.957886741487E-03 -0.593415019419E-03
 -0.154048592371E-02 -0.147251521500E-02  0.644481410755E-03  0.760665256321E-02 -0.981958181204E-03 -0.605196557024E-02 -0.208985505495E-02
 -0.143751898218E-02  0.633666665354E-03 -0.862120701789E-03 -0.624896065891E-02  0.528453437701E-02 -0.117208249623E-02 -0.691378239849E-02
 -0.612199876084E-02 -0.656029401808E-03 -0.131094163739E-02 -0.575041320073E-02
  0.237253366657E-04  0.606160915290E-03  0.483598390903E-04  0.916841277108E-03 -0.960482010779E-05  0.157345453917E-02  0.730825023712E-04
  0.729743506569E-04  0.170539610843E-02 -0.138911860454E-03  0.114630590003E-04 -0.245881845887E-03  0.357397519819E-04 -0.176919921407E-03
 -0.304378333791E-03 -0.327303045685E-03  0.649885920923E-04  0.116128443488E-02 -0.189785390707E-03 -0.124552181942E-02 -0.416919722797E-03
 -0.274878729162E-03  0.553001414060E-05 -0.162504350009E-03 -0.131014546869E-02  0.667136866592E-03 -0.229539869285E-03 -0.145433974358E-02
 -0.128389212545E-02 -0.163237972393E-03 -0.276257216569E-03 -0.119957758277E-02
  0.514749416684E-04  0.181727823390E-04  0.676190513389E-04  0.205330120787E-03  0.364317870864E-04  0.108725241292E-03  0.699283044738E-04
 -0.434721071984E-04 -0.123778512113E-04 -0.246699611737E-05  0.379770971689E-04  0.392476995743E-04 -0.311162190345E-04  0.130738437709E-04
 -0.364876669159E-05 -0.113359873455E-05 -0.394486474899E-04 -0.172950786953E-03  0.196491240692E-04  0.253812576109E-06  0.174983455270E-05
  0.444792775061E-05 -0.420846851676E-05 -0.225361959422E-04  0.178569323927E-04 -0.150649591584E-04 -0.614684135576E-05  0.126092643948E-05
 -0.960412353980E-05 -0.509045223655E-05 -0.138530464883E-05  0.950058083443E-06
 -0.224894257319E-03 -0.182826284071E-03 -0.267173044861E-03  0.223864452858E-04  0.243989776912E-03  0.296837394393E-03 -0.169089656017E-03
 -0.167282249429E-03  0.200003166725E-03  0.262930574757E-03  0.517313738268E-03  0.275950103351E-03  0.605991054581E-03  0.251029733115E-03
  0.189540416163E-03  0.219561298828E-03 -0.119923629991E-03  0.105490429616E-03  0.329547652258E-03  0.826653272659E-04  0.178188408459E-03
  0.215201815857E-03  0.387667952852E-03  0.274837442446E-03  0.790867283183E-04  0.168544647408E-03  0.201320340171E-03  0.742077476960E-04
  0.886426380350E-04  0.306838691985E-03  0.207842399309E-03  0.864782248689E-04
 -0.724998150977E-03 -0.177246086677E-02 -0.109671018216E-02 -0.295288564423E-02 -0.145460813034E-03 -0.432323851576E-02  0.638287061405E-04
  0.793489052504E-04 -0.474717426259E-02  0.132994364472E-03 -0.170908328892E-03  0.457993084988E-03 -0.398911448320E-03  0.231108520403E-03
  0.613457076247E-03  0.591444595865E-03 -0.248568212907E-03 -0.314633503755E-02  0.366247754562E-03  0.251282879471E-02  0.843470867722E-03
  0.568657539287E-03 -0.279235070772E-03  0.311234803471E-03  0.259909243887E-02 -0.214643589419E-02  0.458634524740E-03  0.288405642724E-02
  0.254817059384E-02  0.240492046414E-03  0.522851093610E-03  0.238746538460E-02
        12        19        11        11
        11         5        12        12
        10        14         5         5
        19        13        11        11
        19        24        13        13
        30        23        24        24
        19        12        22        22
        28        22        21        21
        11        13         6         6
         7         6         9         9
        15        12        14        14
        18        13        23        23
        15        25        21        21
        27        19        22        22
        18         8         9         9
        27        31        24        24
         4        11         6         6
         5        14        12        12
         4         2         5         5
        21        12        15        15
        14        16        15        15
        24        19        27        27
        22        29        27        27
        23        26        18        18
        17         8        18        18
         5        11         4         4
         6         3         4         4
        26        23        30        30
         5         2        10        10
        16        14        10        10
         3         6         7         7
        21        25        28        28
        29        22        28        28
         6        13         9         9
         2         4         1         1
        31        27        32        32
        25        15        20        20
        24        23        13        13
         8         7         9         9
        13        18         9         9
        31        30        24        24
        12        21        22        22
        29        32        27        27
         3         1         4         4
        26        17        18        18
        16        20        15        15
zone t="boundary 2 bc-2", solutiontime= 0.7000000E+02, strandid=1002, i=33, j=48, f=feblock
  0.500000000000E+01  0.375000000000E+01  0.250000000000E+01  0.288078410721E+01  0.125000000000E+01  0.190974100652E+01  0.326683758169E+01
  0.201431602454E+01  0.000000000000E+00  0.963108083381E+00  0.500000000000E+01  0.403552511878E+01  0.423153924130E+01  0.500000000000E+01
  0.385533350601E+01  0.500000000000E+01  0.398173246726E+01  0.315249557942E+01  0.267000324704E+01  0.154774304040E+01  0.218329375016E+01
  0.893127759452E+00  0.000000000000E+00  0.698517061619E+00  0.964171764089E+00  0.310324758057E+01  0.000000000000E+00  0.000000000000E+00
  0.125000000000E+01  0.500000000000E+01  0.375000000000E+01  0.250000000000E+01  0.000000000000E+00
 -0.250000000000E+01 -0.250000000000E+01 -0.250000000000E+01 -0.250000000000E+01 -0.250000000000E+01 -0.250000000000E+01 -0.250000000000E+01
 -0.250000000000E+01 -0.250000000000E+01 -0.250000000000E+01 -0.250000000000E+01 -0.250000000000E+01 -0.250000000000E+01 -0.250000000000E+01
 -0.250000000000E+01 -0.250000000000E+01 -0.250000000000E+01 -0.250000000000E+01 -0.250000000000E+01 -0.250000000000E+01 -0.250000000000E+01
 -0.250000000000E+01 -0.250000000000E+01 -0.250000000000E+01 -0.250000000000E+01 -0.250000000000E+01 -0.250000000000E+01 -0.250000000000E+01
 -0.250000000000E+01 -0.250000000000E+01 -0.250000000000E+01 -0.250000000000E+01 -0.250000000000E+01
  0.000000000000E+00  0.000000000000E+00  0.000000000000E+00  0.904659890645E+00  0.000000000000E+00  0.717002441913E+00  0.188609243358E+01
  0.176246431481E+01  0.000000000000E+00  0.961328577125E+00  0.125000000000E+01  0.101201586758E+01  0.191586535653E+01  0.250000000000E+01
  0.293121848150E+01  0.375000000000E+01  0.406975391361E+01  0.363585050272E+01  0.285047954584E+01  0.292817774674E+01  0.395907379566E+01
  0.205246550326E+01  0.125000000000E+01  0.306828197606E+01  0.397245519226E+01  0.433168271247E+01  0.250000000000E+01  0.375000000000E+01
  0.500000000000E+01  0.500000000000E+01  0.500000000000E+01  0.500000000000E+01  0.500000000000E+01
  0.000000000000E+00  0.000000000000E+00  0.000000000000E+00  0.380991906500E+00  0.000000000000E+00  0.343629824950E+00  0.585286157424E+00
  0.579373264282E+00  0.000000000000E+00  0.501056069140E+00  0.508460362676E+00  0.435373026572E+00  0.572640041190E+00  0.537002098944E+00
  0.568922553870E+00  0.514994090651E+00  0.508247257160E+00  0.527252853130E+00  0.567446661127E+00  0.531657143909E+00  0.505981016593E+00
  0.520795579399E+00  0.443624103833E+00  0.490663730453E+00  0.492155873749E+00  0.501390784676E+00  0.467732355362E+00  0.488212087362E+00
  0.490002767114E+00  0.491352304715E+00  0.486075475228E+00  0.490036479234E+00  0.495098264817E+00
  0.999993487379E+00  0.999993690057E+00  0.999993543115E+00  0.989539055875E+00  0.999993137282E+00  0.985524707174E+00  0.989838908967E+00
  0.991798516580E+00  0.999992721792E+00  0.984411112416E+00  0.985091906406E+00  0.984689080896E+00  0.990058464829E+00  0.100289621837E+01
  0.999855369243E+00  0.100485306649E+01  0.100121554699E+01  0.100055642931E+01  0.997896793475E+00  0.100350029570E+01  0.100058068723E+01
  0.101093276247E+01  0.104043292670E+01  0.100326475367E+01  0.100254498742E+01  0.100045587387E+01  0.100976788415E+01  0.100405369352E+01
  0.100192656835E+01  0.100045434508E+01  0.100058774183E+01  0.100109993754E+01  0.100176112495E+01
 -0.507217786808E-03 -0.394319834012E-03 -0.204703595740E-03  0.555144865839E-02  0.566439365145E-03  0.167674009210E-01 -0.974782379749E-03
  0.436792339044E-03  0.644481410755E-03  0.763116148234E-02 -0.120439038176E-02 -0.161258203372E-02 -0.937541499059E-03 -0.807061971707E-03
 -0.593165164376E-03 -0.535150973036E-03 -0.396496718732E-03 -0.449602768700E-03 -0.797055560392E-03 -0.993142879136E-03 -0.583967553242E-03
  0.389656717110E-03  0.528453437701E-02 -0.655909019890E-03 -0.110650303205E-02 -0.713528706027E-03 -0.656029401808E-03 -0.131094163739E-02
 -0.520522434140E-02 -0.623093689480E-03 -0.238789044373E-02 -0.458057884994E-02 -0.575041320073E-02
  0.145800530971E-03 -0.411451965622E-04  0.745755854311E-06  0.941958823496E-03 -0.888966736940E-04  0.204174646321E-02  0.553051671246E-05
 -0.454732090557E-04  0.649885920923E-04  0.851963961877E-03  0.279009355051E-03  0.267878100376E-04  0.155818856717E-03  0.205832801088E-03
  0.143093574901E-03  0.125373940236E-03  0.151287238078E-03  0.126229304077E-03  0.454464665621E-04 -0.920476819417E-04  0.534438056837E-04
 -0.599516038728E-04  0.667136866592E-03 -0.467926513720E-04 -0.129846724865E-03  0.729815903826E-04 -0.163237972393E-03 -0.276257216569E-03
 -0.941899846951E-03  0.313724308653E-04 -0.240302260352E-03 -0.715621290903E-03 -0.119957758277E-02
 -0.336824532270E-04  0.382507384217E-05  0.492702478076E-04  0.112571734585E-03  0.285085599982E-04  0.193956264301E-03 -0.207438876286E-04
 -0.545526516350E-05 -0.394486474899E-04  0.550590821828E-04 -0.133796730898E-04 -0.566612397379E-04  0.234325536022E-05  0.129066032627E-05
  0.225819292492E-05 -0.256444272523E-05  0.659766378291E-06 -0.177568098497E-05  0.368065253517E-05  0.653591205743E-05 -0.290722406256E-05
  0.444008739895E-05 -0.150649591584E-04  0.112735385502E-05 -0.438737305627E-06 -0.123795689614E-05 -0.509045223655E-05 -0.138530464883E-05
 -0.726661969833E-06 -0.502686601983E-06 -0.804925729446E-07  0.394788076174E-06  0.950058083443E-06
 -0.304719263819E-04 -0.471287579671E-04 -0.667565675496E-04  0.214292996663E-03 -0.146978532744E-03  0.287704068736E-04  0.332404696789E-03
  0.430793464566E-03 -0.119923629991E-03  0.182482938640E-03  0.610359225649E-04  0.247983502088E-03  0.121488770332E-03  0.505432549950E-04
  0.124036597431E-03  0.420417142876E-04  0.115639225923E-03  0.168310659507E-03  0.208249846748E-03  0.211697745477E-03  0.191063200371E-03
  0.320955966609E-03  0.168544647408E-03  0.218068242273E-03  0.187499257221E-03  0.164224591754E-03  0.306838691985E-03  0.207842399309E-03
  0.124495875029E-03  0.662689591689E-04  0.144747355596E-03  0.156676230343E-03  0.864782248689E-04
  0.111412912180E-03  0.469748646083E-03  0.676575348773E-03 -0.249742724430E-02  0.758515823898E-03 -0.714888027239E-02  0.291059320080E-03
 -0.187568093601E-03 -0.248568212907E-03 -0.312540510412E-02  0.259015534339E-03  0.498984240867E-03  0.223383877466E-03  0.155134857313E-03
  0.113979426295E-03  0.108302498519E-03  0.545754315735E-04  0.805017951105E-04  0.222579059358E-03  0.345187816629E-03  0.155381882030E-03
 -0.163073378250E-03 -0.214643589419E-02  0.215426302836E-03  0.405184156839E-03  0.194651010374E-03  0.240492046414E-03  0.522851093610E-03
  0.211620334443E-02  0.188310010129E-03  0.896191779322E-03  0.182219257827E-02  0.238746538460E-02
        15         7        19        19
         8        20        19        19
        18        19        21        21
         7         4         8         8
         3         6         4         4
        19         7         8         8
        19        18        15        15
        14        13        15        15
         8        22        20        20
        27        24        22        22
        19        20        21        21
        32        26        21        21
        17        18        26        26
        17        16        15        15
        25        29        21        21
        12         7        13        13
        10         8         6         6
        25        20        24        24
         4         6         8         8
        12         2         4         4
        10        23        22        22
        26        31        17        17
        30        16        17        17
         4         7        12        12
        13        11        12        12
        21        20        25        25
        24        28        25        25
        22         8        10        10
         6         5        10        10
        31        26        32        32
         4         2         3         3
         5         6         3         3
        11        13        14        14
        22        23        27        27
        28        24        27        27
        15        13         7         7
         2        12         1         1
        29        25        33        33
        23        10         9         9
        21        26        18        18
        16        14        15        15
        18        17        15        15
        29        32        21        21
        22        24        20        20
        28        33        25        25
        11         1        12        12
        31        30        17        17
         5         9        10        10
zone t="boundary 3 bc-3", solutiontime= 0.7000000E+02, strandid=1003, i=33, j=48, f=feblock
  0.375000000000E+01  0.250000000000E+01  0.500000000000E+01  0.403552511878E+01  0.288078410721E+01  0.125000000000E+01  0.190974100652E+01
  0.500000000000E+01  0.326683758169E+01  0.423153924130E+01  0.201431602454E+01  0.000000000000E+00  0.963108083381E+00  0.500000000000E+01
  0.267000324704E+01  0.385533350601E+01  0.893127759452E+00  0.154774304040E+01  0.000000000000E+00  0.500000000000E+01  0.315249557942E+01
  0.218329375016E+01  0.398173246726E+01  0.000000000000E+00  0.698517061619E+00  0.964171764089E+00  0.125000000000E+01  0.000000000000E+00
  0.500000000000E+01  0.310324758057E+01  0.250000000000E+01  0.375000000000E+01  0.000000000000E+00
  0.250000000000E+01  0.250000000000E+01  0.250000000000E+01  0.250000000000E+01  0.250000000000E+01  0.250000000000E+01  0.250000000000E+01
  0.250000000000E+01  0.250000000000E+01  0.250000000000E+01  0.250000000000E+01  0.250000000000E+01  0.250000000000E+01  0.250000000000E+01
  0.250000000000E+01  0.250000000000E+01  0.250000000000E+01  0.250000000000E+01  0.250000000000E+01  0.250000000000E+01  0.250000000000E+01
  0.250000000000E+01  0.250000000000E+01  0.250000000000E+01  0.250000000000E+01  0.250000000000E+01  0.250000000000E+01  0.250000000000E+01
  0.250000000000E+01  0.250000000000E+01  0.250000000000E+01  0.250000000000E+01  0.250000000000E+01
  0.000000000000E+00  0.000000000000E+00  0.000000000000E+00  0.101201586758E+01  0.904659890645E+00  0.000000000000E+00  0.717002441913E+00
  0.125000000000E+01  0.188609243358E+01  0.191586535653E+01  0.176246431481E+01  0.000000000000E+00  0.961328577125E+00  0.250000000000E+01
  0.285047954584E+01  0.293121848150E+01  0.205246550326E+01  0.292817774674E+01  0.125000000000E+01  0.375000000000E+01  0.363585050272E+01
  0.395907379566E+01  0.406975391361E+01  0.250000000000E+01  0.306828197606E+01  0.397245519226E+01  0.500000000000E+01  0.375000000000E+01
  0.500000000000E+01  0.433168271247E+01  0.500000000000E+01  0.500000000000E+01  0.500000000000E+01
  0.000000000000E+00  0.000000000000E+00  0.000000000000E+00  0.443767745459E+00  0.402286944574E+00  0.000000000000E+00  0.377550369545E+00
  0.509232128688E+00  0.575832179754E+00  0.573707405285E+00  0.562554064412E+00  0.000000000000E+00  0.490563299840E+00  0.534527096543E+00
  0.556586982170E+00  0.564391577749E+00  0.522730517385E+00  0.522052000170E+00  0.441238348384E+00  0.517182331791E+00  0.524228630763E+00
  0.503687457534E+00  0.509488571178E+00  0.469814974359E+00  0.495614442414E+00  0.494483780212E+00  0.488562428343E+00  0.488961654628E+00
  0.492980744788E+00  0.499005552222E+00  0.486460936507E+00  0.484596927548E+00  0.495346592024E+00
  0.999989339439E+00  0.999989408764E+00  0.999989626853E+00  0.981541895460E+00  0.988773990194E+00  0.999989827144E+00  0.982469462434E+00
  0.984104309047E+00  0.990427545862E+00  0.990355285694E+00  0.994362997073E+00  0.999990295028E+00  0.988652071037E+00  0.100368369414E+01
  0.999769197113E+00  0.100118501219E+01  0.100834885320E+01  0.100252111043E+01  0.102982719499E+01  0.100443319461E+01  0.100199536635E+01
  0.100082056599E+01  0.100138192342E+01  0.100826277309E+01  0.100298787130E+01  0.100192389555E+01  0.100215267510E+01  0.100355660048E+01
  0.100047670023E+01  0.100056591053E+01  0.100126820231E+01  0.100066573360E+01  0.100179336279E+01
 -0.317005284342E-03  0.156012907622E-03 -0.448454138541E-03  0.225380021914E-02  0.892421428193E-02  0.522165015374E-03  0.807894978716E-02
 -0.153740985416E-02 -0.799853129352E-03 -0.100595093008E-02  0.138844088944E-02  0.896177432160E-03  0.558331507973E-02 -0.771732886066E-03
 -0.853674920195E-03 -0.655423005194E-03 -0.129837485074E-04 -0.791867778956E-03  0.429455181498E-02 -0.539849539559E-03 -0.408941402133E-03
 -0.535341393398E-03 -0.415324396057E-03 -0.334061645875E-03 -0.679271946594E-03 -0.141876393914E-02 -0.452809487450E-02 -0.147251521500E-02
 -0.517634046819E-03 -0.642498118374E-03 -0.421864392907E-02 -0.227491393334E-02 -0.605196557024E-02
 -0.540290642849E-04 -0.712858698201E-04  0.115066149726E-03  0.691119713516E-03  0.125998477442E-02 -0.121088971537E-03  0.919343358483E-03
  0.255307247924E-03  0.372528989593E-04  0.154651777892E-03  0.477017043035E-04  0.237253366657E-04  0.360919365163E-03  0.202521053097E-03
  0.208000229402E-04  0.121393942074E-03 -0.194173048351E-03 -0.570401372454E-04  0.606160915290E-03  0.132990467052E-03  0.124389058592E-03
  0.714044101815E-04  0.140788645606E-03 -0.138911860454E-03 -0.148904317241E-03 -0.178055462973E-03 -0.801765347172E-03 -0.327303045685E-03
  0.480826101685E-04  0.817127786442E-04 -0.648572942043E-03 -0.222724345662E-03 -0.124552181942E-02
 -0.772942086513E-05  0.134782639468E-04  0.137370903283E-04 -0.445707034581E-04 -0.122020262654E-03  0.479688962256E-04  0.286752334271E-04
 -0.404177649762E-06 -0.142289811165E-04  0.147647065940E-05 -0.408145327033E-05  0.514749416684E-04  0.763659589760E-04  0.496660352618E-05
  0.237368689224E-06  0.106799546232E-05 -0.215021136900E-04 -0.879674320045E-05  0.181727823390E-04  0.289312920621E-05  0.106226824776E-05
  0.616354122143E-05  0.153903397021E-06 -0.246699611737E-05 -0.630728786743E-05  0.113621495334E-05  0.249299891522E-05 -0.113359873455E-05
  0.112215991596E-05  0.118484121926E-07  0.635787694916E-06 -0.971472147917E-07  0.253812576109E-06
 -0.681189639351E-04 -0.127027811573E-03 -0.392641685059E-04  0.881386758270E-04  0.158292166397E-03 -0.120986247308E-03  0.562989976728E-04
  0.497107434413E-04  0.287823741648E-03  0.136199236550E-03  0.426716619515E-03 -0.224894257319E-03  0.144746952709E-03  0.560876314725E-04
  0.170333688030E-03  0.131386066837E-03  0.375616231679E-03  0.189705439931E-03 -0.182826284071E-03  0.533619125838E-04  0.162043411155E-03
  0.174922689628E-03  0.120291143175E-03  0.262930574757E-03  0.258242683020E-03  0.179878862538E-03  0.129843002958E-03  0.219561298828E-03
  0.605308436255E-04  0.159599064283E-03  0.156042964059E-03  0.141097448707E-03  0.826653272659E-04
  0.101808903037E-02  0.412760541765E-03  0.211186085720E-03 -0.120330589197E-02 -0.388815472664E-02  0.158034431290E-04 -0.337231299684E-02
  0.389129617006E-03  0.227036328365E-03  0.251992479448E-03 -0.560870429217E-03 -0.724998150977E-03 -0.219327518892E-02  0.145188274099E-03
  0.254970788350E-03  0.144415696963E-03  0.162735748652E-04  0.261363279102E-03 -0.177246086677E-02  0.105732289454E-03  0.662958804454E-04
  0.133301315714E-03  0.656314049047E-04  0.132994364472E-03  0.242076801179E-03  0.532059248197E-03  0.183002459148E-02  0.591444595865E-03
  0.146261892173E-03  0.167827335621E-03  0.167252330846E-02  0.850605379898E-03  0.251282879471E-02
        15         9        16        16
        15        18        11        11
        22        15        21        21
        11         5         9         9
         5         7         2         2
        11         9        15        15
        16        21        15        15
        16        10        14        14
        18        17        11        11
        17        25        24        24
        22        18        15        15
        22        30        31        31
        30        21        23        23
        16        20        23        23
        22        27        26        26
        10         9         4         4
         7        11        13        13
        25        18        26        26
        11         7         5         5
         5         1         4         4
        17        19        13        13
        23        32        30        30
        23        20        29        29
         4         9         5         5
         4         8        10        10
        26        18        22        22
        26        28        25        25
        13        11        17        17
        13         6         7         7
        31        30        32        32
         2         1         5         5
         2         7         6         6
        14        10         8         8
        24        19        17        17
        24        25        28        28
         9        10        16        16
         3         4         1         1
        33        26        27        27
        12        13        19        19
        21        30        22        22
        16        14        20        20
        16        23        21        21
        22        31        27        27
        18        25        17        17
        26        33        28        28
         4         3         8         8
        23        29        32        32
        13        12         6         6
zone t="boundary 4 bc-4", solutiontime= 0.7000000E+02, strandid=1004, i=32, j=46, f=feblock
  0.125000000000E+01  0.219251206392E+01  0.103724302461E+01  0.500000000000E+01  0.250000000000E+01  0.375000000000E+01  0.404200324774E+01
  0.500000000000E+01  0.000000000000E+00  0.310152362409E+01  0.202479342020E+01  0.324151231464E+01  0.922061490191E+00  0.000000000000E+00
  0.299062775774E+01  0.394624082883E+01  0.500000000000E+01  0.409252726285E+01  0.500000000000E+01  0.429310310915E+01  0.175434191980E+01
  0.284428995242E+01  0.000000000000E+00  0.000000000000E+00  0.715990576545E+00  0.930412228790E+00  0.125000000000E+01  0.187029682677E+01
  0.500000000000E+01  0.375000000000E+01  0.250000000000E+01  0.000000000000E+00
  0.250000000000E+01  0.157686156160E+01  0.146289271009E+01  0.250000000000E+01  0.250000000000E+01  0.250000000000E+01  0.155830813274E+01
  0.125000000000E+01  0.250000000000E+01  0.177790177481E+01  0.477386199275E+00  0.742988685424E+00  0.308372018325E+00  0.125000000000E+01
 -0.487811078581E+00 -0.144524380962E+01 -0.125000000000E+01 -0.345533899378E+00  0.000000000000E+00  0.627766083140E+00 -0.739814786992E+00
 -0.158811787973E+01  0.000000000000E+00 -0.125000000000E+01 -0.600232012419E+00 -0.154800130438E+01 -0.250000000000E+01 -0.178862290564E+01
 -0.250000000000E+01 -0.250000000000E+01 -0.250000000000E+01 -0.250000000000E+01
  0.500000000000E+01  0.500000000000E+01  0.500000000000E+01  0.500000000000E+01  0.500000000000E+01  0.500000000000E+01  0.500000000000E+01
  0.500000000000E+01  0.500000000000E+01  0.500000000000E+01  0.500000000000E+01  0.500000000000E+01  0.500000000000E+01  0.500000000000E+01
  0.500000000000E+01  0.500000000000E+01  0.500000000000E+01  0.500000000000E+01  0.500000000000E+01  0.500000000000E+01  0.500000000000E+01
  0.500000000000E+01  0.500000000000E+01  0.500000000000E+01  0.500000000000E+01  0.500000000000E+01  0.500000000000E+01  0.500000000000E+01
  0.500000000000E+01  0.500000000000E+01  0.500000000000E+01  0.500000000000E+01
  0.488562428343E+00  0.488873127044E+00  0.490562939264E+00  0.492980744788E+00  0.486460936507E+00  0.484596927548E+00  0.485347896276E+00
  0.494163542317E+00  0.495346592024E+00  0.486528232758E+00  0.487819998460E+00  0.487068916091E+00  0.494045904395E+00  0.496127394917E+00
  0.487612357629E+00  0.483219722850E+00  0.492395510969E+00  0.487214141159E+00  0.494738985333E+00  0.487958525499E+00  0.489677249447E+00
  0.488029107105E+00  0.497246279768E+00  0.496059270892E+00  0.494951052257E+00  0.492800373677E+00  0.490002767114E+00  0.490005124553E+00
  0.491352304715E+00  0.486075475228E+00  0.490036479234E+00  0.495098264817E+00
  0.100215267510E+01  0.100152652958E+01  0.100178347660E+01  0.100047670023E+01  0.100126820231E+01  0.100066573360E+01  0.100025357725E+01
  0.100050391679E+01  0.100179336279E+01  0.100112367258E+01  0.100133045248E+01  0.100072432973E+01  0.100164366725E+01  0.100168844809E+01
  0.100096274503E+01  0.100000874853E+01  0.100082864314E+01  0.100022269190E+01  0.100062146074E+01  0.100023497311E+01  0.100174635719E+01
  0.100098855496E+01  0.100118726928E+01  0.100134171022E+01  0.100132635956E+01  0.100179873777E+01  0.100192656835E+01  0.100163748619E+01
  0.100045434508E+01  0.100058774183E+01  0.100109993754E+01  0.100176112495E+01
 -0.452809487450E-02 -0.439454324131E-02 -0.453468936451E-02 -0.517634046819E-03 -0.421864392907E-02 -0.227491393334E-02 -0.158257598965E-02
 -0.515690440420E-03 -0.605196557024E-02 -0.349921869087E-02 -0.474670215710E-02 -0.331509290567E-02 -0.555274498236E-02 -0.624896065891E-02
 -0.376696604955E-02 -0.156208814306E-02 -0.601909726023E-03 -0.197240476655E-02 -0.485499998572E-03 -0.195261041855E-02 -0.588046971994E-02
 -0.357312780400E-02 -0.691378239849E-02 -0.612199876084E-02 -0.644922281141E-02 -0.517834314115E-02 -0.520522434140E-02 -0.550258554016E-02
 -0.623093689480E-03 -0.238789044373E-02 -0.458057884994E-02 -0.575041320073E-02