title="tecplot geometry and solution file"
variables = x y z mach temperature lambda1 lambda2 lambda3 lambda4 lambda5
zone t="boundary 1 bc-1", solutiontime= 0.5000000E+02, strandid=1001, i=32, j=46, f=feblock
  0.000000000000E+00  0.000000000000E+00  0.000000000000E+00  0.000000000000E+00  0.000000000000E+00  0.000000000000E+00  0.000000000000E+00
  0.000000000000E+00  0.000000000000E+00  0.000000000000E+00  0.000000000000E+00  0.000000000000E+00  0.000000000000E+00  0.000000000000E+00
  0.000000000000E+00  0.000000000000E+00  0.000000000000E+00  0.000000000000E+00  0.000000000000E+00  0.000000000000E+00  0.000000000000E+00
  0.000000000000E+00  0.000000000000E+00  0.000000000000E+00  0.000000000000E+00  0.000000000000E+00  0.000000000000E+00  0.000000000000E+00
  0.000000000000E+00  0.000000000000E+00  0.000000000000E+00  0.000000000000E+00
  0.250000000000E+01  0.250000000000E+01  0.125000000000E+01  0.146289271009E+01  0.157686156160E+01  0.308372018325E+00  0.000000000000E+00
 -0.125000000000E+01 -0.600232012419E+00  0.250000000000E+01  0.477386199275E+00  0.742988685424E+00 -0.739814786992E+00  0.177790177481E+01
  0.155830813274E+01  0.250000000000E+01 -0.250000000000E+01 -0.154800130438E+01 -0.487811078581E+00  0.250000000000E+01  0.627766083140E+00
 -0.345533899378E+00 -0.178862290564E+01 -0.158811787973E+01  0.125000000000E+01 -0.250000000000E+01 -0.144524380962E+01  0.000000000000E+00
 -0.125000000000E+01 -0.250000000000E+01 -0.250000000000E+01 -0.250000000000E+01
  0.000000000000E+00  0.125000000000E+01  0.000000000000E+00  0.103724302461E+01  0.219251206392E+01  0.922061490191E+00  0.000000000000E+00
  0.000000000000E+00  0.715990576545E+00  0.250000000000E+01  0.202479342020E+01  0.324151231464E+01  0.175434191980E+01  0.310152362409E+01
  0.404200324774E+01  0.375000000000E+01  0.000000000000E+00  0.930412228790E+00  0.299062775774E+01  0.500000000000E+01  0.429310310915E+01
  0.409252726285E+01  0.187029682677E+01  0.284428995242E+01  0.500000000000E+01  0.125000000000E+01  0.394624082883E+01  0.500000000000E+01
  0.500000000000E+01  0.250000000000E+01  0.375000000000E+01  0.500000000000E+01
  0.000000000000E+00  0.441238348384E+00  0.000000000000E+00  0.475214987021E+00  0.460123708856E+00  0.468827815405E+00  0.000000000000E+00
  0.000000000000E+00  0.402302516798E+00  0.469814974359E+00  0.464411128942E+00  0.478714034184E+00  0.489298241651E+00  0.483068557888E+00
  0.487930073118E+00  0.488961654628E+00  0.000000000000E+00  0.464775721414E+00  0.473795651891E+00  0.495346592024E+00  0.490266103446E+00
  0.486286083902E+00  0.445717618051E+00  0.464382274634E+00  0.496127394917E+00  0.443624103833E+00  0.486964461957E+00  0.497246279768E+00
  0.496059270892E+00  0.467732355362E+00  0.488212087362E+00  0.495098264817E+00
  0.999990295028E+00  0.102982719499E+01  0.999990757903E+00  0.104247294232E+01  0.101190080524E+01  0.102520618293E+01  0.999991416700E+00
  0.999992168096E+00  0.103891223624E+01  0.100826277309E+01  0.101252833877E+01  0.100300548289E+01  0.102702865700E+01  0.100605563290E+01
  0.100244400478E+01  0.100355660048E+01  0.999992721792E+00  0.103239739214E+01  0.100459524090E+01  0.100179336279E+01  0.100260305842E+01
  0.100234966417E+01  0.101657153079E+01  0.100617544692E+01  0.100168844809E+01  0.104043292670E+01  0.100303376377E+01  0.100118726928E+01
  0.100134171022E+01  0.100976788415E+01  0.100405369352E+01  0.100176112495E+01
  0.989689909069E-03  0.446045198484E-02  0.113118497349E-02  0.754855662933E-02  0.313540771139E-03  0.921403722612E-02  0.836129124929E-03
  0.415971809216E-03  0.106316127609E-01 -0.344320360403E-03  0.418526851226E-03 -0.117761456858E-02  0.754871646475E-03 -0.602846384643E-03
 -0.153398425490E-02 -0.145585169550E-02  0.801374916843E-03  0.890362532657E-02 -0.930695016759E-03 -0.602829456881E-02 -0.209077911328E-02
 -0.143681984967E-02  0.718437200170E-03 -0.912406759300E-03 -0.623202997934E-02  0.658140711594E-02 -0.117508376556E-02 -0.690699222504E-02
 -0.613545328591E-02 -0.715668525172E-03 -0.134582547968E-02 -0.577394719889E-02
  0.199005636728E-04  0.633170478653E-03  0.355785142879E-04  0.927817607803E-03 -0.149584599590E-04  0.136197145556E-02  0.632699541854E-04
  0.815005172589E-04  0.161869239262E-02 -0.139733487444E-03  0.154038115267E-04 -0.247294970757E-03  0.838998330716E-05 -0.178777268026E-03
 -0.302592836633E-03 -0.324664409413E-03  0.710477145507E-04  0.139684409159E-02 -0.180782342126E-03 -0.124022550213E-02 -0.415925195194E-03
 -0.273671643795E-03  0.139502524413E-04 -0.170222038077E-03 -0.130610703334E-02  0.847678343821E-03 -0.229035478105E-03 -0.145186005556E-02
 -0.128501744820E-02 -0.175530348921E-03 -0.283185331439E-03 -0.120252887023E-02
  0.709233110559E-04  0.196994343996E-04  0.868540945800E-04  0.210432725812E-03  0.352141336304E-04  0.119970918651E-03  0.717720876502E-04
 -0.667934223979E-04  0.436516111521E-04 -0.259365789699E-05  0.402892378241E-04  0.371774062733E-04  0.108725048312E-04  0.103584030762E-04
 -0.537812615853E-05 -0.115255655759E-05 -0.590732726952E-04 -0.157757041071E-03  0.292896184030E-04  0.292077815274E-06  0.164574785618E-05
  0.669820689489E-05  0.242118640259E-04 -0.596236099681E-05  0.173794754059E-04 -0.209888659209E-04 -0.320008394380E-05  0.187755476832E-05
 -0.736214018117E-05 -0.407995510579E-05 -0.199208451598E-05  0.796886414795E-06
 -0.230515592961E-03 -0.198615765192E-03 -0.253483840679E-03  0.241697495313E-04  0.254032861509E-03  0.263664828480E-03 -0.147124618049E-03
 -0.171211520439E-03  0.202634336090E-03  0.269776630895E-03  0.490415881055E-03  0.273534166703E-03  0.585194217777E-03  0.254802154539E-03
  0.190965337593E-03  0.222554238904E-03 -0.146259506999E-03  0.133863713490E-03  0.328098061421E-03  0.826365159356E-04  0.178303398031E-03
  0.215050305823E-03  0.444925734442E-03  0.284832443594E-03  0.791482645180E-04  0.227734094152E-03  0.206495120952E-03  0.740800164745E-04
  0.896928567866E-04  0.339391024428E-03  0.216988358374E-03  0.881847149127E-04
 -0.805044901274E-03 -0.183760397981E-02 -0.109949322721E-02 -0.301189593150E-02 -0.131497503779E-03 -0.381313249049E-02  0.567866025814E-04
  0.166895613347E-03 -0.442715236106E-02  0.138780185705E-03 -0.190070952989E-03  0.459707690155E-03 -0.321413439439E-03  0.235137443605E-03
  0.610640817507E-03  0.584814525270E-03 -0.278441867199E-03 -0.370126812417E-02  0.344788367789E-03  0.250285414953E-02  0.843595489851E-03
  0.568135790774E-03 -0.314470877511E-03  0.330121854119E-03  0.259183454884E-02 -0.266739928231E-02  0.459249388693E-03  0.288108539185E-02
  0.255342008499E-02  0.263378546960E-03  0.537000800871E-03  0.239680086319E-02
        12        19        11        11
        11         5        12        12
        10        14         5         5
        19        13        11        11
        19        24        13        13
        30        23        24        24
        19        12        22        22
        28        22        21        21
        11        13         6         6
         7         6         9         9
        15        12        14        14
        18        13        23        23
        15        25        21        21
        27        19        22        22
        18         8         9         9
        27        31        24        24
         4        11         6         6
         5        14        12        12
         4         2         5         5
        21        12        15        15
        14        16        15        15
        24        19        27        27
        22        29        27        27
        23        26        18        18
        17         8        18        18
         5        11         4         4
         6         3         4         4
        26        23        30        30
         5         2        10        10
        16        14        10        10
         3         6         7         7
        21        25        28        28
        29        22        28        28
         6        13         9         9
         2         4         1         1
        31        27        32        32
        25        15        20        20
        24        23        13        13
         8         7         9         9
        13        18         9         9
        31        30        24        24
        12        21        22        22
        29        32        27        27
         3         1         4         4
        26        17        18        18
        16        20        15        15
zone t="boundary 2 bc-2", solutiontime= 0.5000000E+02, strandid=1002, i=33, j=48, f=feblock
  0.500000000000E+01  0.375000000000E+01  0.250000000000E+01  0.288078410721E+01  0.125000000000E+01  0.190974100652E+01  0.326683758169E+01
  0.201431602454E+01  0.000000000000E+00  0.963108083381E+00  0.500000000000E+01  0.403552511878E+01  0.423153924130E+01  0.500000000000E+01
  0.385533350601E+01  0.500000000000E+01  0.398173246726E+01  0.315249557942E+01  0.267000324704E+01  0.154774304040E+01  0.218329375016E+01
  0.893127759452E+00  0.000000000000E+00  0.698517061619E+00  0.964171764089E+00  0.310324758057E+01  0.000000000000E+00  0.000000000000E+00
  0.125000000000E+01  0.500000000000E+01  0.375000000000E+01  0.250000000000E+01  0.000000000000E+00
 -0.250000000000E+01 -0.250000000000E+01 -0.250000000000E+01 -0.250000000000E+01 -0.250000000000E+01 -0.250000000000E+01 -0.250000000000E+01
 -0.250000000000E+01 -0.250000000000E+01 -0.250000000000E+01 -0.250000000000E+01 -0.250000000000E+01 -0.250000000000E+01 -0.250000000000E+01
 -0.250000000000E+01 -0.250000000000E+01 -0.250000000000E+01 -0.250000000000E+01 -0.250000000000E+01 -0.250000000000E+01 -0.250000000000E+01
 -0.250000000000E+01 -0.250000000000E+01 -0.250000000000E+01 -0.250000000000E+01 -0.250000000000E+01 -0.250000000000E+01 -0.250000000000E+01
 -0.250000000000E+01 -0.250000000000E+01 -0.250000000000E+01 -0.250000000000E+01 -0.250000000000E+01
  0.000000000000E+00  0.000000000000E+00  0.000000000000E+00  0.904659890645E+00  0.000000000000E+00  0.717002441913E+00  0.188609243358E+01
  0.176246431481E+01  0.000000000000E+00  0.961328577125E+00  0.125000000000E+01  0.101201586758E+01  0.191586535653E+01  0.250000000000E+01
  0.293121848150E+01  0.375000000000E+01  0.406975391361E+01  0.363585050272E+01  0.285047954584E+01  0.292817774674E+01  0.395907379566E+01
  0.205246550326E+01  0.125000000000E+01  0.306828197606E+01  0.397245519226E+01  0.433168271247E+01  0.250000000000E+01  0.375000000000E+01
  0.500000000000E+01  0.500000000000E+01  0.500000000000E+01  0.500000000000E+01  0.500000000000E+01
  0.000000000000E+00  0.000000000000E+00  0.000000000000E+00  0.380991906500E+00  0.000000000000E+00  0.343629824950E+00  0.585286157424E+00
  0.579373264282E+00  0.000000000000E+00  0.501056069140E+00  0.508460362676E+00  0.435373026572E+00  0.572640041190E+00  0.537002098944E+00
  0.568922553870E+00  0.514994090651E+00  0.508247257160E+00  0.527252853130E+00  0.567446661127E+00  0.531657143909E+00  0.505981016593E+00
  0.520795579399E+00  0.443624103833E+00  0.490663730453E+00  0.492155873749E+00  0.501390784676E+00  0.467732355362E+00  0.488212087362E+00
  0.490002767114E+00  0.491352304715E+00  0.486075475228E+00  0.490036479234E+00  0.495098264817E+00
  0.999993487379E+00  0.999993690057E+00  0.999993543115E+00  0.989539055875E+00  0.999993137282E+00  0.985524707174E+00  0.989838908967E+00
  0.991798516580E+00  0.999992721792E+00  0.984411112416E+00  0.985091906406E+00  0.984689080896E+00  0.990058464829E+00  0.100289621837E+01
  0.999855369243E+00  0.100485306649E+01  0.100121554699E+01  0.100055642931E+01  0.997896793475E+00  0.100350029570E+01  0.100058068723E+01
  0.101093276247E+01  0.104043292670E+01  0.100326475367E+01  0.100254498742E+01  0.100045587387E+01  0.100976788415E+01  0.100405369352E+01
  0.100192656835E+01  0.100045434508E+01  0.100058774183E+01  0.100109993754E+01  0.100176112495E+01
 -0.565619428849E-03 -0.349069597191E-03 -0.251908439938E-03  0.507531629150E-02  0.606548357431E-03  0.191654482398E-01 -0.919521413007E-03
  0.401876679371E-03  0.801374916843E-03  0.918433793911E-02 -0.126450402505E-02 -0.157149794245E-02 -0.964751266490E-03 -0.837742149227E-03
 -0.609060087966E-03 -0.540784343963E-03 -0.397384450164E-03 -0.470372946979E-03 -0.832926793005E-03 -0.105700806903E-02 -0.598315867627E-03
  0.470743143377E-03  0.658140711594E-02 -0.696157685155E-03 -0.112984578994E-02 -0.718281710758E-03 -0.715668525172E-03 -0.134582547968E-02
 -0.520700997149E-02 -0.627663017403E-03 -0.238835689916E-02 -0.457606091996E-02 -0.577394719889E-02
  0.152599361267E-03 -0.616129992670E-04  0.202485080307E-04  0.821710968696E-03 -0.109015523599E-03  0.249605134638E-02 -0.345571823282E-04
 -0.608884824541E-04  0.710477145507E-04  0.113536332458E-02  0.292975590148E-03 -0.499377428095E-04  0.130680615339E-03  0.213192364372E-03
  0.130648958970E-03  0.126880147771E-03  0.149699227724E-03  0.119565641790E-03  0.264663634939E-04 -0.108579191306E-03  0.527700887650E-04
 -0.684213353474E-04  0.847678343821E-03 -0.517059127630E-04 -0.131063826975E-03  0.714872143839E-04 -0.175530348921E-03 -0.283185331439E-03
 -0.939321529818E-03  0.311039708810E-04 -0.240866897490E-03 -0.714522544630E-03 -0.120252887023E-02
 -0.385663288788E-04  0.152252577168E-05  0.579720113164E-04  0.894047967244E-04  0.296286745066E-04  0.245073232660E-03 -0.216526981925E-04
  0.167001911133E-05 -0.590732726952E-04  0.102946638008E-03 -0.215663848121E-04 -0.756518713400E-04  0.290983558929E-05  0.142076238608E-05
  0.222448812099E-05 -0.267269641862E-05  0.507069409888E-06 -0.171426792778E-05  0.549549677868E-05  0.749587034302E-05 -0.295556962511E-05
  0.870268049537E-05 -0.209888659209E-04  0.191295781104E-05 -0.207318652653E-06 -0.125005112491E-05 -0.407995510579E-05 -0.199208451598E-05
 -0.769952869119E-06 -0.534756911135E-06 -0.975399905260E-07  0.364315829652E-06  0.796886414795E-06
 -0.373183164484E-04 -0.507705907199E-04 -0.693163319645E-04  0.227154871867E-03 -0.177735205514E-03  0.621313125794E-04  0.365339811976E-03
  0.453068959428E-03 -0.146259506999E-03  0.245287605467E-03  0.897837423827E-04  0.308100866768E-03  0.141219429370E-03  0.584999593530E-04
  0.129410063425E-03  0.444024826851E-04  0.116389988673E-03  0.166647049892E-03  0.214231146267E-03  0.215663831347E-03  0.190483212959E-03
  0.369659308726E-03  0.227734094152E-03  0.227713782437E-03  0.191347136241E-03  0.163103702101E-03  0.339391024428E-03  0.216988358374E-03
  0.125202954500E-03  0.666478551902E-04  0.144726390608E-03  0.156432451281E-03  0.881847149127E-04
  0.159162253152E-03  0.516030476993E-03  0.658196808502E-03 -0.226516434687E-02  0.106023665045E-02 -0.822995142271E-02  0.280493731659E-03
 -0.171987865970E-03 -0.278441867199E-03 -0.380347715557E-02  0.271193835819E-03  0.504662903424E-03  0.240836735391E-03  0.161015135713E-03
  0.123544509964E-03  0.109398792312E-03  0.552681322356E-04  0.899298176789E-04  0.238955166105E-03  0.370751041265E-03  0.160730441190E-03
 -0.192454040530E-03 -0.266739928231E-02  0.229411536979E-03  0.413610178359E-03  0.196775357604E-03  0.263378546960E-03  0.537000800871E-03
  0.211617556257E-02  0.189907420004E-03  0.896490101460E-03  0.182026360122E-02  0.239680086319E-02
        15         7        19        19
         8        20        19        19
        18        19        21        21
         7         4         8         8
         3         6         4         4
        19         7         8         8
        19        18        15        15
        14        13        15        15
         8        22        20        20
        27        24        22        22
        19        20        21        21
        32        26        21        21
        17        18        26        26
        17        16        15        15
        25        29        21        21
        12         7        13        13
        10         8         6         6
        25        20        24        24
         4         6         8         8
        12         2         4         4
        10        23        22        22
        26        31        17        17
        30        16        17        17
         4         7        12        12
        13        11        12        12
        21        20        25        25
        24        28        25        25
        22         8        10        10
         6         5        10        10
        31        26        32        32
         4         2         3         3
         5         6         3         3
        11        13        14        14
        22        23        27        27
        28        24        27        27
        15        13         7         7
         2        12         1         1
        29        25        33        33
        23        10         9         9
        21        26        18        18
        16        14        15        15
        18        17        15        15
        29        32        21        21
        22        24        20        20
        28        33        25        25
        11         1        12        12
        31        30        17        17
         5         9        10        10
zone t="boundary 3 bc-3", solutiontime= 0.5000000E+02, strandid=1003, i=33, j=48, f=feblock
  0.375000000000E+01  0.250000000000E+01  0.500000000000E+01  0.403552511878E+01  0.288078410721E+01  0.125000000000E+01  0.190974100652E+01
  0.500000000000E+01  0.326683758169E+01  0.423153924130E+01  0.201431602454E+01  0.000000000000E+00  0.963108083381E+00  0.500000000000E+01
  0.267000324704E+01  0.385533350601E+01  0.893127759452E+00  0.154774304040E+01  0.000000000000E+00  0.500000000000E+01  0.315249557942E+01
  0.218329375016E+01  0.398173246726E+01  0.000000000000E+00  0.698517061619E+00  0.964171764089E+00  0.125000000000E+01  0.000000000000E+00
  0.500000000000E+01  0.310324758057E+01  0.250000000000E+01  0.375000000000E+01  0.000000000000E+00
  0.250000000000E+01  0.250000000000E+01  0.250000000000E+01  0.250000000000E+01  0.250000000000E+01  0.250000000000E+01  0.250000000000E+01
  0.250000000000E+01  0.250000000000E+01  0.250000000000E+01  0.250000000000E+01  0.250000000000E+01  0.250000000000E+01  0.250000000000E+01
  0.250000000000E+01  0.250000000000E+01  0.250000000000E+01  0.250000000000E+01  0.250000000000E+01  0.250000000000E+01  0.250000000000E+01
  0.250000000000E+01  0.250000000000E+01  0.250000000000E+01  0.250000000000E+01  0.250000000000E+01  0.250000000000E+01  0.250000000000E+01
  0.250000000000E+01  0.250000000000E+01  0.250000000000E+01  0.250000000000E+01  0.250000000000E+01
  0.000000000000E+00  0.000000000000E+00  0.000000000000E+00  0.101201586758E+01  0.904659890645E+00  0.000000000000E+00  0.717002441913E+00
  0.125000000000E+01  0.188609243358E+01  0.191586535653E+01  0.176246431481E+01  0.000000000000E+00  0.961328577125E+00  0.250000000000E+01
  0.285047954584E+01  0.293121848150E+01  0.205246550326E+01  0.292817774674E+01  0.125000000000E+01  0.375000000000E+01  0.363585050272E+01
  0.395907379566E+01  0.406975391361E+01  0.250000000000E+01  0.306828197606E+01  0.397245519226E+01  0.500000000000E+01  0.375000000000E+01
  0.500000000000E+01  0.433168271247E+01  0.500000000000E+01  0.500000000000E+01  0.500000000000E+01
  0.000000000000E+00  0.000000000000E+00  0.000000000000E+00  0.443767745459E+00  0.402286944574E+00  0.000000000000E+00  0.377550369545E+00
  0.509232128688E+00  0.575832179754E+00  0.573707405285E+00  0.562554064412E+00  0.000000000000E+00  0.490563299840E+00  0.534527096543E+00
  0.556586982170E+00  0.564391577749E+00  0.522730517385E+00  0.522052000170E+00  0.441238348384E+00  0.517182331791E+00  0.524228630763E+00
  0.503687457534E+00  0.509488571178E+00  0.469814974359E+00  0.495614442414E+00  0.494483780212E+00  0.488562428343E+00  0.488961654628E+00
  0.492980744788E+00  0.499005552222E+00  0.486460936507E+00  0.484596927548E+00  0.495346592024E+00
  0.999989339439E+00  0.999989408764E+00  0.999989626853E+00  0.981541895460E+00  0.988773990194E+00  0.999989827144E+00  0.982469462434E+00
  0.984104309047E+00  0.990427545862E+00  0.990355285694E+00  0.994362997073E+00  0.999990295028E+00  0.988652071037E+00  0.100368369414E+01
  0.999769197113E+00  0.100118501219E+01  0.100834885320E+01  0.100252111043E+01  0.102982719499E+01  0.100443319461E+01  0.100199536635E+01
  0.100082056599E+01  0.100138192342E+01  0.100826277309E+01  0.100298787130E+01  0.100192389555E+01  0.100215267510E+01  0.100355660048E+01
  0.100047670023E+01  0.100056591053E+01  0.100126820231E+01  0.100066573360E+01  0.100179336279E+01
 -0.324448754149E-03  0.154119215665E-03 -0.438737095524E-03  0.281477755571E-02  0.901945656185E-02  0.528785864759E-03  0.819698843939E-02
 -0.155039048573E-02 -0.720541986074E-03 -0.100419429743E-02  0.147311453348E-02  0.989689909069E-03  0.579148346491E-02 -0.759540520421E-03
 -0.844319515253E-03 -0.654353512039E-03 -0.244012031695E-04 -0.764746071408E-03  0.446045198484E-02 -0.534630547477E-03 -0.404496453800E-03
 -0.533450587172E-03 -0.412528652966E-03 -0.344320360403E-03 -0.671139301179E-03 -0.140723720810E-02 -0.451286104748E-02 -0.145585169550E-02
 -0.514416503905E-03 -0.638829768163E-03 -0.420475002687E-02 -0.226436762750E-02 -0.602829456881E-02
 -0.579020063247E-04 -0.591956479148E-04  0.119772191484E-03  0.816626077275E-03  0.128900483074E-02 -0.137301531659E-03  0.102933355217E-02
  0.244498761437E-03  0.618041915747E-04  0.157989165809E-03  0.846803671740E-04  0.199005636728E-04  0.383268828160E-03  0.199670791039E-03
  0.266306511817E-04  0.123275491029E-03 -0.189502590891E-03 -0.428624473000E-04  0.633170478653E-03  0.131902126820E-03  0.125048689384E-03
  0.737784847578E-04  0.140736604072E-03 -0.139733487444E-03 -0.143541112714E-03 -0.173622958453E-03 -0.798654731167E-03 -0.324664409413E-03
  0.479619418650E-04  0.821371555794E-04 -0.646711668614E-03 -0.221222327846E-03 -0.124022550213E-02
 -0.536710544031E-05  0.112782116032E-04  0.884596515788E-05 -0.615520023381E-04 -0.125699143594E-03  0.636664083761E-04  0.225481179055E-04
 -0.249009780865E-05 -0.151742549648E-04 -0.437685688435E-06 -0.971556979869E-05  0.709233110559E-04  0.958772882166E-04  0.465111132316E-05
  0.419933174602E-06  0.949523524834E-06 -0.231057672816E-04 -0.836227306862E-05  0.196994343996E-04  0.269420059040E-05  0.128400248254E-05
  0.593860648901E-05  0.205352716550E-06 -0.259365789699E-05 -0.667299287744E-05  0.112359058863E-05  0.271835927051E-05 -0.115255655759E-05
  0.110570470644E-05  0.354347935098E-07  0.640886704219E-06 -0.889347196981E-07  0.292077815274E-06
 -0.748366654767E-04 -0.125616872042E-03 -0.369211877063E-04  0.853745066446E-04  0.163619083804E-03 -0.126892791082E-03  0.744157747095E-04
  0.498213903405E-04  0.289594379263E-03  0.132414400527E-03  0.429953656692E-03 -0.230515592961E-03  0.176683748718E-03  0.534047073811E-04
  0.167933366917E-03  0.128712643543E-03  0.395510210165E-03  0.189885091393E-03 -0.198615765192E-03  0.522258330843E-04  0.160608234349E-03
  0.173722474665E-03  0.119241878765E-03  0.269776630895E-03  0.264381367991E-03  0.180816978263E-03  0.129623600177E-03  0.222554238904E-03
  0.600916347456E-04  0.158893522064E-03  0.155769223687E-03  0.140505495016E-03  0.826365159356E-04
  0.113400084192E-02  0.378797598512E-03  0.226702966293E-03 -0.145570898110E-02 -0.393089398569E-02  0.205328707893E-04 -0.345461511147E-02
  0.400577089783E-03  0.192147092450E-03  0.251028581962E-03 -0.601813466397E-03 -0.805044901274E-03 -0.227581410319E-02  0.142739077583E-03
  0.250496801813E-03  0.143561063407E-03  0.199468907186E-04  0.247340170086E-03 -0.183760397981E-02  0.104640963601E-03  0.647272302478E-04
  0.132196462279E-03  0.648595152715E-04  0.138780185705E-03  0.237380237260E-03  0.526802888089E-03  0.182369521156E-02  0.584814525270E-03
  0.145280271128E-03  0.166539793619E-03  0.166699867110E-02  0.846524928126E-03  0.250285414953E-02
        15         9        16        16
        15        18        11        11
        22        15        21        21
        11         5         9         9
         5         7         2         2
        11         9        15        15
        16        21        15        15
        16        10        14        14
        18        17        11        11
        17        25        24        24
        22        18        15        15
        22        30        31        31
        30        21        23        23
        16        20        23        23
        22        27        26        26
        10         9         4         4
         7        11        13        13
        25        18        26        26
        11         7         5         5
         5         1         4         4
        17        19        13        13
        23        32        30        30
        23        20        29        29
         4         9         5         5
         4         8        10        10
        26        18        22        22
        26        28        25        25
        13        11        17        17
        13         6         7         7
        31        30        32        32
         2         1         5         5
         2         7         6         6
        14        10         8         8
        24        19        17        17
        24        25        28        28
         9        10        16        16
         3         4         1         1
        33        26        27        27
        12        13        19        19
        21        30        22        22
        16        14        20        20
        16        23        21        21
        22        31        27        27
        18        25        17        17
        26        33        28        28
         4         3         8         8
        23        29        32        32
        13        12         6         6
zone t="boundary 4 bc-4", solutiontime= 0.5000000E+02, strandid=1004, i=32, j=46, f=feblock
  0.125000000000E+01  0.219251206392E+01  0.103724302461E+01  0.500000000000E+01  0.250000000000E+01  0.375000000000E+01  0.404200324774E+01
  0.500000000000E+01  0.000000000000E+00  0.310152362409E+01  0.202479342020E+01  0.324151231464E+01  0.922061490191E+00  0.000000000000E+00
  0.299062775774E+01  0.394624082883E+01  0.500000000000E+01  0.409252726285E+01  0.500000000000E+01  0.429310310915E+01  0.175434191980E+01
  0.284428995242E+01  0.000000000000E+00  0.000000000000E+00  0.715990576545E+00  0.930412228790E+00  0.125000000000E+01  0.187029682677E+01
  0.500000000000E+01  0.375000000000E+01  0.250000000000E+01  0.000000000000E+00
  0.250000000000E+01  0.157686156160E+01  0.146289271009E+01  0.250000000000E+01  0.250000000000E+01  0.250000000000E+01  0.155830813274E+01
  0.125000000000E+01  0.250000000000E+01  0.177790177481E+01  0.477386199275E+00  0.742988685424E+00  0.308372018325E+00  0.125000000000E+01
 -0.487811078581E+00 -0.144524380962E+01 -0.125000000000E+01 -0.345533899378E+00  0.000000000000E+00  0.627766083140E+00 -0.739814786992E+00
 -0.158811787973E+01  0.000000000000E+00 -0.125000000000E+01 -0.600232012419E+00 -0.154800130438E+01 -0.250000000000E+01 -0.178862290564E+01
 -0.250000000000E+01 -0.250000000000E+01 -0.250000000000E+01 -0.250000000000E+01
  0.500000000000E+01  0.500000000000E+01  0.500000000000E+01  0.500000000000E+01  0.500000000000E+01  0.500000000000E+01  0.500000000000E+01
  0.500000000000E+01  0.500000000000E+01  0.500000000000E+01  0.500000000000E+01  0.500000000000E+01  0.500000000000E+01  0.500000000000E+01
  0.500000000000E+01  0.500000000000E+01  0.500000000000E+01  0.500000000000E+01  0.500000000000E+01  0.500000000000E+01  0.500000000000E+01
  0.500000000000E+01  0.500000000000E+01  0.500000000000E+01  0.500000000000E+01  0.500000000000E+01  0.500000000000E+01  0.500000000000E+01
  0.500000000000E+01  0.500000000000E+01  0.500000000000E+01  0.500000000000E+01
  0.488562428343E+00  0.488873127044E+00  0.490562939264E+00  0.492980744788E+00  0.486460936507E+00  0.484596927548E+00  0.485347896276E+00
  0.494163542317E+00  0.495346592024E+00  0.486528232758E+00  0.487819998460E+00  0.487068916091E+00  0.494045904395E+00  0.496127394917E+00
  0.487612357629E+00  0.483219722850E+00  0.492395510969E+00  0.487214141159E+00  0.494738985333E+00  0.487958525499E+00  0.489677249447E+00
  0.488029107105E+00  0.497246279768E+00  0.496059270892E+00  0.494951052257E+00  0.492800373677E+00  0.490002767114E+00  0.490005124553E+00
  0.491352304715E+00  0.486075475228E+00  0.490036479234E+00  0.495098264817E+00
  0.100215267510E+01  0.100152652958E+01  0.100178347660E+01  0.100047670023E+01  0.100126820231E+01  0.100066573360E+01  0.100025357725E+01
  0.100050391679E+01  0.100179336279E+01  0.100112367258E+01  0.100133045248E+01  0.100072432973E+01  0.100164366725E+01  0.100168844809E+01
  0.100096274503E+01  0.100000874853E+01  0.100082864314E+01  0.100022269190E+01  0.100062146074E+01  0.100023497311E+01  0.100174635719E+01
  0.100098855496E+01  0.100118726928E+01  0.100134171022E+01  0.100132635956E+01  0.100179873777E+01  0.100192656835E+01  0.100163748619E+01
  0.100045434508E+01  0.100058774183E+01  0.100109993754E+01  0.100176112495E+01
 -0.451286104748E-02 -0.437762318291E-02 -0.451660375512E-02 -0.514416503905E-03 -0.420475002687E-02 -0.226436762750E-02 -0.157544505018E-02
 -0.512969251799E-03 -0.602829456881E-02 -0.348647576324E-02 -0.473385887767E-02 -0.330393058540E-02 -0.554122718630E-02 -0.623202997934E-02
 -0.376039520894E-02 -0.156201764549E-02 -0.605310086233E-03 -0.196789772121E-02 -0.484587667273E-03 -0.194633776680E-02 -0.587967887677E-02
 -0.356780248493E-02 -0.690699222504E-02 -0.613545328591E-02 -0.644538432048E-02 -0.518200210702E-02 -0.520700997149E-02 -0.549913145535E-02
 -0.627663017403E-03 -0.238835689916E-02 -0.457606091996E-02 -0.577394719889E-02