title="tecplot geometry and solution file"
variables = x y z rho u v w p mach temperature
zone t="boundary 1 bc-1", solutiontime= 0.4000000E+02, strandid=1001, i=32, j=46, f=feblock
  0.000000000000E+00  0.000000000000E+00  0.000000000000E+00  0.000000000000E+00  0.000000000000E+00  0.000000000000E+00  0.000000000000E+00
  0.000000000000E+00  0.000000000000E+00  0.000000000000E+00  0.000000000000E+00  0.000000000000E+00  0.000000000000E+00  0.000000000000E+00
  0.000000000000E+00  0.000000000000E+00  0.000000000000E+00  0.000000000000E+00  0.000000000000E+00  0.000000000000E+00  0.000000000000E+00
  0.000000000000E+00  0.000000000000E+00  0.000000000000E+00  0.000000000000E+00  0.000000000000E+00  0.000000000000E+00  0.000000000000E+00
  0.000000000000E+00  0.000000000000E+00  0.000000000000E+00  0.000000000000E+00
  0.250000000000E+01  0.250000000000E+01  0.125000000000E+01  0.146289271009E+01  0.157686156160E+01  0.308372018325E+00  0.000000000000E+00
 -0.125000000000E+01 -0.600232012419E+00  0.250000000000E+01  0.477386199275E+00  0.742988685424E+00 -0.739814786992E+00  0.177790177481E+01
  0.155830813274E+01  0.250000000000E+01 -0.250000000000E+01 -0.154800130438E+01 -0.487811078581E+00  0.250000000000E+01  0.627766083140E+00
 -0.345533899378E+00 -0.178862290564E+01 -0.158811787973E+01  0.125000000000E+01 -0.250000000000E+01 -0.144524380962E+01  0.000000000000E+00
 -0.125000000000E+01 -0.250000000000E+01 -0.250000000000E+01 -0.250000000000E+01
  0.000000000000E+00  0.125000000000E+01  0.000000000000E+00  0.103724302461E+01  0.219251206392E+01  0.922061490191E+00  0.000000000000E+00
  0.000000000000E+00  0.715990576545E+00  0.250000000000E+01  0.202479342020E+01  0.324151231464E+01  0.175434191980E+01  0.310152362409E+01
  0.404200324774E+01  0.375000000000E+01  0.000000000000E+00  0.930412228790E+00  0.299062775774E+01  0.500000000000E+01  0.429310310915E+01
  0.409252726285E+01  0.187029682677E+01  0.284428995242E+01  0.500000000000E+01  0.125000000000E+01  0.394624082883E+01  0.500000000000E+01
  0.500000000000E+01  0.250000000000E+01  0.375000000000E+01  0.500000000000E+01
  0.134427144660E+01  0.106355395268E+01  0.142583204195E+01  0.108608796620E+01  0.103229114985E+01  0.120095364438E+01  0.164466727085E+01
  0.149409063731E+01  0.123520366885E+01  0.102389313706E+01  0.102809523316E+01  0.101301828552E+01  0.103252946727E+01  0.101471891369E+01
  0.100663883719E+01  0.100830818649E+01  0.144945745297E+01  0.116393551735E+01  0.101462863628E+01  0.100426040723E+01  0.100679807563E+01
  0.100724553365E+01  0.104668118729E+01  0.101938460417E+01  0.100424800536E+01  0.106442281097E+01  0.100789341654E+01  0.100288844236E+01
  0.100334542182E+01  0.102847361788E+01  0.100958665591E+01  0.100399273858E+01
  0.000000000000E+00  0.445481420113E+00  0.000000000000E+00  0.468737854441E+00  0.462182267552E+00  0.443613740058E+00  0.000000000000E+00
  0.000000000000E+00  0.379272524374E+00  0.471738849042E+00  0.466574961544E+00  0.479355161319E+00  0.490159648359E+00  0.484514726345E+00
  0.488524773493E+00  0.489830200131E+00  0.000000000000E+00  0.450653321845E+00  0.474814037229E+00  0.495784876130E+00  0.490899460293E+00
  0.486835364583E+00  0.448668673151E+00  0.465807186767E+00  0.496536483315E+00  0.444686633836E+00  0.487701037219E+00  0.497534086506E+00
  0.496384260380E+00  0.470002882882E+00  0.489199908207E+00  0.495522029738E+00
  0.000000000000E+00  0.000000000000E+00  0.000000000000E+00  0.186085528687E-01 -0.276688297379E-02  0.332952469092E-01  0.000000000000E+00
  0.000000000000E+00 -0.594701792801E-02  0.000000000000E+00  0.356648597809E-02 -0.566637990154E-02 -0.416060347732E-02  0.305534741274E-04
 -0.106176517179E-02  0.000000000000E+00  0.000000000000E+00 -0.764112745161E-02  0.359619739033E-03  0.000000000000E+00 -0.203512850139E-02
 -0.138313243089E-02  0.156561560563E-02 -0.158521317912E-02 -0.638395918031E-04  0.000000000000E+00 -0.283450967958E-04 -0.196341515471E-03
  0.807127116780E-03  0.000000000000E+00  0.000000000000E+00  0.000000000000E+00
  0.000000000000E+00  0.452181795845E-01  0.000000000000E+00  0.123933293141E+00  0.247647189635E-01  0.165644511295E+00  0.000000000000E+00
  0.000000000000E+00  0.155763096402E+00  0.351822664099E-02  0.259783163324E-01 -0.651224843434E-02  0.748997895578E-01  0.371839403881E-02
 -0.149292024932E-03  0.459058864823E-03  0.000000000000E+00  0.140954083428E+00 -0.808565726158E-02  0.237176894113E-02 -0.304298829620E-03
 -0.438193699376E-02  0.255017506235E-01 -0.194957187830E-02  0.308362257955E-02  0.837461353261E-01 -0.121909288601E-02  0.268513920188E-02
  0.264043132543E-02  0.279386969081E-02 -0.834665071360E-03  0.345018555020E-02
  0.960184574050E+00  0.782340561481E+00  0.101844204847E+01  0.808726655742E+00  0.746125889626E+00  0.879446498703E+00  0.117475225421E+01
  0.106719924127E+01  0.916620146006E+00  0.737395237529E+00  0.743553970070E+00  0.725759209447E+00  0.757455248796E+00  0.729188341354E+00
  0.720785045971E+00  0.722781669228E+00  0.103531921730E+01  0.858317140012E+00  0.728065069997E+00  0.718615291790E+00  0.721013448088E+00
  0.721151586827E+00  0.760018783537E+00  0.732628400234E+00  0.718531161288E+00  0.791043236174E+00  0.722107947255E+00  0.717199386536E+00
  0.717636872595E+00  0.741799733874E+00  0.724056578412E+00  0.718400640054E+00
  0.000000000000E+00  0.441238352959E+00  0.000000000000E+00  0.475214984474E+00  0.460123712045E+00  0.468827816620E+00  0.000000000000E+00
  0.000000000000E+00  0.402302518202E+00  0.469814974332E+00  0.464411137063E+00  0.478714038187E+00  0.489298237616E+00  0.483068560391E+00
  0.487930063009E+00  0.488961666102E+00  0.000000000000E+00  0.464775736836E+00  0.473795659588E+00  0.495346580594E+00  0.490266092800E+00
  0.486286080398E+00  0.445717622258E+00  0.464382286594E+00  0.496127396399E+00  0.443624081083E+00  0.486964453756E+00  0.497246275813E+00
  0.496059266588E+00  0.467732360616E+00  0.488212090191E+00  0.495098267563E+00
  0.999990297395E+00  0.102982719712E+01  0.999990760417E+00  0.104247294259E+01  0.101190080495E+01  0.102520618006E+01  0.999991417744E+00
  0.999992169465E+00  0.103891223510E+01  0.100826277193E+01  0.101252833835E+01  0.100300548148E+01  0.102702865335E+01  0.100605563188E+01
  0.100244400184E+01  0.100355660152E+01  0.999992722271E+00  0.103239739497E+01  0.100459523963E+01  0.100179336083E+01  0.100260305592E+01
  0.100234966335E+01  0.101657153092E+01  0.100617544755E+01  0.100168844790E+01  0.104043291747E+01  0.100303376286E+01  0.100118726943E+01
  0.100134171123E+01  0.100976788259E+01  0.100405369252E+01  0.100176112578E+01
        12        19        11        11
        11         5        12        12
        10        14         5         5
        19        13        11        11
        19        24        13        13
        30        23        24        24
        19        12        22        22
        28        22        21        21
        11        13         6         6
         7         6         9         9
        15        12        14        14
        18        13        23        23
        15        25        21        21
        27        19        22        22
        18         8         9         9
        27        31        24        24
         4        11         6         6
         5        14        12        12
         4         2         5         5
        21        12        15        15
        14        16        15        15
        24        19        27        27
        22        29        27        27
        23        26        18        18
        17         8        18        18
         5        11         4         4
         6         3         4         4
        26        23        30        30
         5         2        10        10
        16        14        10        10
         3         6         7         7
        21        25        28        28
        29        22        28        28
         6        13         9         9
         2         4         1         1
        31        27        32        32
        25        15        20        20
        24        23        13        13
         8         7         9         9
        13        18         9         9
        31        30        24        24
        12        21        22        22
        29        32        27        27
         3         1         4         4
        26        17        18        18
        16        20        15        15
zone t="boundary 2 bc-2", solutiontime= 0.4000000E+02, strandid=1002, i=33, j=48, f=feblock
  0.500000000000E+01  0.375000000000E+01  0.250000000000E+01  0.288078410721E+01  0.125000000000E+01  0.190974100652E+01  0.326683758169E+01
  0.201431602454E+01  0.000000000000E+00  0.963108083381E+00  0.500000000000E+01  0.403552511878E+01  0.423153924130E+01  0.500000000000E+01
  0.385533350601E+01  0.500000000000E+01  0.398173246726E+01  0.315249557942E+01  0.267000324704E+01  0.154774304040E+01  0.218329375016E+01
  0.893127759452E+00  0.000000000000E+00  0.698517061619E+00  0.964171764089E+00  0.310324758057E+01  0.000000000000E+00  0.000000000000E+00
  0.125000000000E+01  0.500000000000E+01  0.375000000000E+01  0.250000000000E+01  0.000000000000E+00
 -0.250000000000E+01 -0.250000000000E+01 -0.250000000000E+01 -0.250000000000E+01 -0.250000000000E+01 -0.250000000000E+01 -0.250000000000E+01
 -0.250000000000E+01 -0.250000000000E+01 -0.250000000000E+01 -0.250000000000E+01 -0.250000000000E+01 -0.250000000000E+01 -0.250000000000E+01
 -0.250000000000E+01 -0.250000000000E+01 -0.250000000000E+01 -0.250000000000E+01 -0.250000000000E+01 -0.250000000000E+01 -0.250000000000E+01
 -0.250000000000E+01 -0.250000000000E+01 -0.250000000000E+01 -0.250000000000E+01 -0.250000000000E+01 -0.250000000000E+01 -0.250000000000E+01
 -0.250000000000E+01 -0.250000000000E+01 -0.250000000000E+01 -0.250000000000E+01 -0.250000000000E+01
  0.000000000000E+00  0.000000000000E+00  0.000000000000E+00  0.904659890645E+00  0.000000000000E+00  0.717002441913E+00  0.188609243358E+01
  0.176246431481E+01  0.000000000000E+00  0.961328577125E+00  0.125000000000E+01  0.101201586758E+01  0.191586535653E+01  0.250000000000E+01
  0.293121848150E+01  0.375000000000E+01  0.406975391361E+01  0.363585050272E+01  0.285047954584E+01  0.292817774674E+01  0.395907379566E+01
  0.205246550326E+01  0.125000000000E+01  0.306828197606E+01  0.397245519226E+01  0.433168271247E+01  0.250000000000E+01  0.375000000000E+01
  0.500000000000E+01  0.500000000000E+01  0.500000000000E+01  0.500000000000E+01  0.500000000000E+01
  0.830787408870E+00  0.935297258274E+00  0.934221978030E+00  0.968087714286E+00  0.961719524607E+00  0.964848338730E+00  0.984136205522E+00
  0.991412447215E+00  0.144945745297E+01  0.102921689071E+01  0.955878716171E+00  0.960692948003E+00  0.981487966212E+00  0.100642908938E+01
  0.997912114803E+00  0.100977868831E+01  0.100199484813E+01  0.998063219031E+00  0.991085841007E+00  0.100132719286E+01  0.100094599984E+01
  0.101224609732E+01  0.106442281097E+01  0.101082189975E+01  0.100685257800E+01  0.100118412833E+01  0.102847361788E+01  0.100958665591E+01
  0.100510171179E+01  0.100179475081E+01  0.100266311891E+01  0.100321164480E+01  0.100399273858E+01
  0.000000000000E+00  0.000000000000E+00  0.000000000000E+00  0.378986938666E+00  0.000000000000E+00  0.340639446382E+00  0.582179008202E+00
  0.575195822475E+00  0.000000000000E+00  0.489449422066E+00  0.494741308037E+00  0.431507394530E+00  0.568961809637E+00  0.536179840772E+00
  0.568879734223E+00  0.516235691351E+00  0.508555819202E+00  0.527399314400E+00  0.566648556834E+00  0.531828935177E+00  0.506096475935E+00
  0.520701996982E+00  0.444686633836E+00  0.491339928847E+00  0.492734940200E+00  0.501504526448E+00  0.470002882882E+00  0.489199908207E+00
  0.490458154961E+00  0.491426965709E+00  0.486218274499E+00  0.490304430029E+00  0.495522029738E+00
  0.000000000000E+00  0.000000000000E+00  0.000000000000E+00  0.000000000000E+00  0.000000000000E+00  0.000000000000E+00  0.000000000000E+00
  0.000000000000E+00  0.000000000000E+00  0.000000000000E+00  0.000000000000E+00  0.000000000000E+00  0.000000000000E+00  0.000000000000E+00
  0.000000000000E+00  0.000000000000E+00  0.000000000000E+00  0.000000000000E+00  0.000000000000E+00  0.000000000000E+00  0.000000000000E+00
  0.000000000000E+00  0.000000000000E+00  0.000000000000E+00  0.000000000000E+00  0.000000000000E+00  0.000000000000E+00  0.000000000000E+00
  0.000000000000E+00  0.000000000000E+00  0.000000000000E+00  0.000000000000E+00  0.000000000000E+00
  0.000000000000E+00  0.000000000000E+00  0.000000000000E+00 -0.229668913929E-02  0.000000000000E+00  0.183565265093E-01  0.121122199398E-01
  0.454986556231E-01  0.000000000000E+00  0.870789631107E-01 -0.995426037340E-01 -0.211865034934E-01 -0.306441332690E-01 -0.414442969265E-01
 -0.137879739643E-02  0.259922299243E-02  0.609520969588E-03  0.503605171067E-03  0.150967389424E-01  0.284025712743E-01  0.564165141686E-02
  0.553419852526E-01  0.837461353261E-01  0.110441033887E-01  0.679168605813E-02 -0.758102093045E-03  0.279386969081E-02 -0.834665071360E-03
  0.400707428265E-02  0.602725412515E-02 -0.143896482684E-03  0.120117120022E-02  0.345018555020E-02
  0.593415713257E+00  0.668065256782E+00  0.667297105373E+00  0.684257572193E+00  0.686937804732E+00  0.679201333592E+00  0.695811644745E+00
  0.702343850513E+00  0.103531921730E+01  0.723694675014E+00  0.672591699712E+00  0.675702735277E+00  0.694093187755E+00  0.720959953189E+00
  0.712691285903E+00  0.724770860563E+00  0.716580556598E+00  0.713298977899E+00  0.706429553879E+00  0.717737236718E+00  0.715376597395E+00
  0.730937672593E+00  0.791043236174E+00  0.724372845180E+00  0.721010715872E+00  0.715457525740E+00  0.741799733874E+00  0.724056578412E+00
  0.719312936919E+00  0.715892793379E+00  0.716608872390E+00  0.717367928979E+00  0.718400640054E+00
  0.000000000000E+00  0.000000000000E+00  0.000000000000E+00  0.380991904506E+00  0.000000000000E+00  0.343629828968E+00  0.585286158653E+00
  0.579373267254E+00  0.000000000000E+00  0.501056069347E+00  0.508460334463E+00  0.435373040737E+00  0.572640026736E+00  0.537002107385E+00
  0.568922544396E+00  0.514994098670E+00  0.508247389308E+00  0.527252886184E+00  0.567446670967E+00  0.531657156324E+00  0.505981032755E+00
  0.520795577761E+00  0.443624081083E+00  0.490663739985E+00  0.492155878496E+00  0.501390828471E+00  0.467732360616E+00  0.488212090191E+00
  0.490002738283E+00  0.491352316924E+00  0.486075474449E+00  0.490036474192E+00  0.495098267563E+00
  0.999993487732E+00  0.999993693151E+00  0.999993544887E+00  0.989539054090E+00  0.999993139390E+00  0.985524697364E+00  0.989838903576E+00
  0.991798512800E+00  0.999992722271E+00  0.984411113117E+00  0.985091898864E+00  0.984689053203E+00  0.990058458493E+00  0.100289622500E+01
  0.999855383519E+00  0.100485305992E+01  0.100121550636E+01  0.100055642771E+01  0.997896786040E+00  0.100350029298E+01  0.100058068718E+01
  0.101093276066E+01  0.104043291747E+01  0.100326475267E+01  0.100254498452E+01  0.100045586790E+01  0.100976788259E+01  0.100405369252E+01
  0.100192657108E+01  0.100045434449E+01  0.100058773723E+01  0.100109992320E+01  0.100176112578E+01
        15         7        19        19
         8        20        19        19
        18        19        21        21
         7         4         8         8
         3         6         4         4
        19         7         8         8
        19        18        15        15
        14        13        15        15
         8        22        20        20
        27        24        22        22
        19        20        21        21
        32        26        21        21
        17        18        26        26
        17        16        15        15
        25        29        21        21
        12         7        13        13
        10         8         6         6
        25        20        24        24
         4         6         8         8
        12         2         4         4
        10        23        22        22
        26        31        17        17
        30        16        17        17
         4         7        12        12
        13        11        12        12
        21        20        25        25
        24        28        25        25
        22         8        10        10
         6         5        10        10
        31        26        32        32
         4         2         3         3
         5         6         3         3
        11        13        14        14
        22        23        27        27
        28        24        27        27
        15        13         7         7
         2        12         1         1
        29        25        33        33
        23        10         9         9
        21        26        18        18
        16        14        15        15
        18        17        15        15
        29        32        21        21
        22        24        20        20
        28        33        25        25
        11         1        12        12
        31        30        17        17
         5         9        10        10
zone t="boundary 3 bc-3", solutiontime= 0.4000000E+02, strandid=1003, i=33, j=48, f=feblock
  0.375000000000E+01  0.250000000000E+01  0.500000000000E+01  0.403552511878E+01  0.288078410721E+01  0.125000000000E+01  0.190974100652E+01
  0.500000000000E+01  0.326683758169E+01  0.423153924130E+01  0.201431602454E+01  0.000000000000E+00  0.963108083381E+00  0.500000000000E+01
  0.267000324704E+01  0.385533350601E+01  0.893127759452E+00  0.154774304040E+01  0.000000000000E+00  0.500000000000E+01  0.315249557942E+01
  0.218329375016E+01  0.398173246726E+01  0.000000000000E+00  0.698517061619E+00  0.964171764089E+00  0.125000000000E+01  0.000000000000E+00
  0.500000000000E+01  0.310324758057E+01  0.250000000000E+01  0.375000000000E+01  0.000000000000E+00
  0.250000000000E+01  0.250000000000E+01  0.250000000000E+01  0.250000000000E+01  0.250000000000E+01  0.250000000000E+01  0.250000000000E+01
  0.250000000000E+01  0.250000000000E+01  0.250000000000E+01  0.250000000000E+01  0.250000000000E+01  0.250000000000E+01  0.250000000000E+01
  0.250000000000E+01  0.250000000000E+01  0.250000000000E+01  0.250000000000E+01  0.250000000000E+01  0.250000000000E+01  0.250000000000E+01
  0.250000000000E+01  0.250000000000E+01  0.250000000000E+01  0.250000000000E+01  0.250000000000E+01  0.250000000000E+01  0.250000000000E+01
  0.250000000000E+01  0.250000000000E+01  0.250000000000E+01  0.250000000000E+01  0.250000000000E+01
  0.000000000000E+00  0.000000000000E+00  0.000000000000E+00  0.101201586758E+01  0.904659890645E+00  0.000000000000E+00  0.717002441913E+00
  0.125000000000E+01  0.188609243358E+01  0.191586535653E+01  0.176246431481E+01  0.000000000000E+00  0.961328577125E+00  0.250000000000E+01
  0.285047954584E+01  0.293121848150E+01  0.205246550326E+01  0.292817774674E+01  0.125000000000E+01  0.375000000000E+01  0.363585050272E+01
  0.395907379566E+01  0.406975391361E+01  0.250000000000E+01  0.306828197606E+01  0.397245519226E+01  0.500000000000E+01  0.375000000000E+01
  0.500000000000E+01  0.433168271247E+01  0.500000000000E+01  0.500000000000E+01  0.500000000000E+01
  0.941861278820E+00  0.946296414766E+00  0.843730530709E+00  0.964331300558E+00  0.978820820122E+00  0.956975887352E+00  0.983331395931E+00
  0.963500546360E+00  0.982689288654E+00  0.984244007072E+00  0.990263805194E+00  0.134427144660E+01  0.101918251558E+01  0.100829901683E+01
  0.993456152120E+00  0.997998675016E+00  0.100807808273E+01  0.100072116070E+01  0.106355395268E+01  0.100673528647E+01  0.100058356033E+01
  0.100234980413E+01  0.100178078380E+01  0.102389313706E+01  0.100874208192E+01  0.100528370710E+01  0.100522859493E+01  0.100830818649E+01
  0.100196466888E+01  0.100162011127E+01  0.100413203150E+01  0.100321958502E+01  0.100426040723E+01
  0.000000000000E+00  0.000000000000E+00  0.000000000000E+00  0.439071219631E+00  0.399865796474E+00  0.000000000000E+00  0.373794139180E+00
  0.495017409093E+00  0.573056194258E+00  0.569605084745E+00  0.559932666782E+00  0.000000000000E+00  0.483390702665E+00  0.533822151460E+00
  0.556458768826E+00  0.564688347685E+00  0.522615499193E+00  0.522533043578E+00  0.445481420113E+00  0.518326868808E+00  0.524750893848E+00
  0.503888155863E+00  0.509839691037E+00  0.471738849042E+00  0.496245460672E+00  0.494940393109E+00  0.489076365357E+00  0.489830200131E+00
  0.493065117388E+00  0.499146578399E+00  0.486766687252E+00  0.484758134357E+00  0.495784876130E+00
  0.000000000000E+00  0.000000000000E+00  0.000000000000E+00  0.000000000000E+00  0.000000000000E+00  0.000000000000E+00  0.000000000000E+00
  0.000000000000E+00  0.000000000000E+00  0.000000000000E+00  0.000000000000E+00  0.000000000000E+00  0.000000000000E+00  0.000000000000E+00
  0.000000000000E+00  0.000000000000E+00  0.000000000000E+00  0.000000000000E+00  0.000000000000E+00  0.000000000000E+00  0.000000000000E+00
  0.000000000000E+00  0.000000000000E+00  0.000000000000E+00  0.000000000000E+00  0.000000000000E+00  0.000000000000E+00  0.000000000000E+00
  0.000000000000E+00  0.000000000000E+00  0.000000000000E+00  0.000000000000E+00  0.000000000000E+00
  0.000000000000E+00  0.000000000000E+00  0.000000000000E+00 -0.226115390471E-01  0.111963783776E-01  0.000000000000E+00  0.179816811082E-01
 -0.100761166507E+00  0.390410953381E-02 -0.389325101215E-01  0.340377347229E-01  0.000000000000E+00  0.652293804861E-01 -0.424929265049E-01
  0.843880697650E-02 -0.650992523927E-02  0.490054862561E-01  0.135873401370E-01  0.452181795845E-01  0.737187833568E-03 -0.701209423127E-03
  0.243744173673E-02  0.868952801969E-03  0.351822664099E-02  0.103945232070E-01  0.431655182079E-02  0.337507093493E-02  0.459058864823E-03
  0.572581290296E-02  0.341134794375E-03  0.160978872776E-02  0.569844337584E-03  0.237176894113E-02
  0.672750886029E+00  0.675918851683E+00  0.602658414149E+00  0.676093764121E+00  0.691308917190E+00  0.683547252945E+00  0.690066484438E+00
  0.677274957314E+00  0.695201830520E+00  0.696250879952E+00  0.703344069704E+00  0.960184574050E+00  0.719726359163E+00  0.722866634508E+00
  0.709447754537E+00  0.713700947642E+00  0.726067413049E+00  0.716602920109E+00  0.782340561481E+00  0.722284526532E+00  0.716128633725E+00
  0.716551643134E+00  0.716546536876E+00  0.737395237529E+00  0.722682909376E+00  0.719441261343E+00  0.719566087605E+00  0.722781669228E+00
  0.716030233785E+00  0.715847819503E+00  0.718146761306E+00  0.717062457404E+00  0.718615291790E+00
  0.000000000000E+00  0.000000000000E+00  0.000000000000E+00  0.443767766803E+00  0.402286945923E+00  0.000000000000E+00  0.377550361717E+00
  0.509231871693E+00  0.575832177380E+00  0.573707384829E+00  0.562554069068E+00  0.000000000000E+00  0.490563298397E+00  0.534527112630E+00
  0.556586988784E+00  0.564391561225E+00  0.522730520487E+00  0.522052007558E+00  0.441238352959E+00  0.517182276636E+00  0.524228609944E+00
  0.503687438565E+00  0.509488520214E+00  0.469814974332E+00  0.495614448535E+00  0.494483777349E+00  0.488562436038E+00  0.488961666102E+00
  0.492980868949E+00  0.499005516545E+00  0.486460983374E+00  0.484597195035E+00  0.495346580594E+00
  0.999989341977E+00  0.999989408805E+00  0.999989628323E+00  0.981541581427E+00  0.988773904447E+00  0.999989829179E+00  0.982469472866E+00
  0.984104206086E+00  0.990427568475E+00  0.990355262444E+00  0.994363009555E+00  0.999990297395E+00  0.988652069113E+00  0.100368370039E+01
  0.999769193872E+00  0.100118502330E+01  0.100834885282E+01  0.100252110933E+01  0.102982719712E+01  0.100443319186E+01  0.100199536247E+01
  0.100082056809E+01  0.100138190695E+01  0.100826277193E+01  0.100298787100E+01  0.100192389349E+01  0.100215267226E+01  0.100355660152E+01
  0.100047672181E+01  0.100056591919E+01  0.100126819411E+01  0.100066571203E+01  0.100179336083E+01
        15         9        16        16
        15        18        11        11
        22        15        21        21
        11         5         9         9
         5         7         2         2
        11         9        15        15
        16        21        15        15
        16        10        14        14
        18        17        11        11
        17        25        24        24
        22        18        15        15
        22        30        31        31
        30        21        23        23
        16        20        23        23
        22        27        26        26
        10         9         4         4
         7        11        13        13
        25        18        26        26
        11         7         5         5
         5         1         4         4
        17        19        13        13
        23        32        30        30
        23        20        29        29
         4         9         5         5
         4         8        10        10
        26        18        22        22
        26        28        25        25
        13        11        17        17
        13         6         7         7
        31        30        32        32
         2         1         5         5
         2         7         6         6
        14        10         8         8
        24        19        17        17
        24        25        28        28
         9        10        16        16
         3         4         1         1
        33        26        27        27
        12        13        19        19
        21        30        22        22
        16        14        20        20
        16        23        21        21
        22        31        27        27
        18        25        17        17
        26        33        28        28
         4         3         8         8
        23        29        32        32
        13        12         6         6
zone t="boundary 4 bc-4", solutiontime= 0.4000000E+02, strandid=1004, i=32, j=46, f=feblock
  0.125000000000E+01  0.219251206392E+01  0.103724302461E+01  0.500000000000E+01  0.250000000000E+01  0.375000000000E+01  0.404200324774E+01
  0.500000000000E+01  0.000000000000E+00  0.310152362409E+01  0.202479342020E+01  0.324151231464E+01  0.922061490191E+00  0.000000000000E+00
  0.299062775774E+01  0.394624082883E+01  0.500000000000E+01  0.409252726285E+01  0.500000000000E+01  0.429310310915E+01  0.175434191980E+01
  0.284428995242E+01  0.000000000000E+00  0.000000000000E+00  0.715990576545E+00  0.930412228790E+00  0.125000000000E+01  0.187029682677E+01
  0.500000000000E+01  0.375000000000E+01  0.250000000000E+01  0.000000000000E+00
  0.250000000000E+01  0.157686156160E+01  0.146289271009E+01  0.250000000000E+01  0.250000000000E+01  0.250000000000E+01  0.155830813274E+01
  0.125000000000E+01  0.250000000000E+01  0.177790177481E+01  0.477386199275E+00  0.742988685424E+00  0.308372018325E+00  0.125000000000E+01
 -0.487811078581E+00 -0.144524380962E+01 -0.125000000000E+01 -0.345533899378E+00  0.000000000000E+00  0.627766083140E+00 -0.739814786992E+00
 -0.158811787973E+01  0.000000000000E+00 -0.125000000000E+01 -0.600232012419E+00 -0.154800130438E+01 -0.250000000000E+01 -0.178862290564E+01
 -0.250000000000E+01 -0.250000000000E+01 -0.250000000000E+01 -0.250000000000E+01
  0.500000000000E+01  0.500000000000E+01  0.500000000000E+01  0.500000000000E+01  0.500000000000E+01  0.500000000000E+01  0.500000000000E+01
  0.500000000000E+01  0.500000000000E+01  0.500000000000E+01  0.500000000000E+01  0.500000000000E+01  0.500000000000E+01  0.500000000000E+01
  0.500000000000E+01  0.500000000000E+01  0.500000000000E+01  0.500000000000E+01  0.500000000000E+01  0.500000000000E+01  0.500000000000E+01
  0.500000000000E+01  0.500000000000E+01  0.500000000000E+01  0.500000000000E+01  0.500000000000E+01  0.500000000000E+01  0.500000000000E+01
  0.500000000000E+01  0.500000000000E+01  0.500000000000E+01  0.500000000000E+01
  0.100522859493E+01  0.100432970609E+01  0.100432033559E+01  0.100196466888E+01  0.100413203150E+01  0.100321958502E+01  0.100258621561E+01
  0.100201176939E+01  0.100426040723E+01  0.100372311441E+01  0.100446501473E+01  0.100346948550E+01  0.100365984151E+01  0.100424800536E+01
  0.100362337150E+01  0.100164187635E+01  0.100227629276E+01  0.100227307811E+01  0.100213446096E+01  0.100254342929E+01  0.100442384596E+01
  0.100337262210E+01  0.100288844236E+01  0.100334542182E+01  0.100323222662E+01  0.100406087324E+01  0.100510171179E+01  0.100431306249E+01
  0.100179475081E+01  0.100266311891E+01  0.100321164480E+01  0.100399273858E+01
  0.489076365357E+00  0.489238645704E+00  0.490983350831E+00  0.493065117388E+00  0.486766687252E+00  0.484758134357E+00  0.485405274057E+00
  0.494262909359E+00  0.495784876130E+00  0.486800373495E+00  0.488139374647E+00  0.487244732872E+00  0.494423309828E+00  0.496536483315E+00
  0.487845849207E+00  0.483219501433E+00  0.492573615367E+00  0.487262431077E+00  0.494866055969E+00  0.488012747724E+00  0.490096725472E+00
  0.488269664062E+00  0.497534086506E+00  0.496384260380E+00  0.495259765867E+00  0.493216444671E+00  0.490458154961E+00  0.490399993952E+00
  0.491426965709E+00  0.486218274499E+00  0.490304430029E+00  0.495522029738E+00
  0.000000000000E+00 -0.893844016495E-04 -0.129754349250E-02  0.000000000000E+00  0.000000000000E+00  0.000000000000E+00  0.425650473082E-03
  0.796987659532E-03  0.000000000000E+00  0.274721881477E-03 -0.942409146411E-03 -0.819935561985E-03 -0.174524228021E-02 -0.638395918031E-04
 -0.110015118705E-02 -0.102270856943E-02 -0.133249458571E-02 -0.213420494048E-02 -0.132921257360E-02 -0.106395896593E-02 -0.624383263436E-03
 -0.761653747393E-03 -0.196341515471E-03  0.807127116780E-03  0.520228343350E-04  0.161631425136E-02  0.000000000000E+00  0.791664151234E-03
  0.000000000000E+00  0.000000000000E+00  0.000000000000E+00  0.000000000000E+00