title="tecplot geometry and solution file"
variables = x y z rho u v w p mach temperature
zone t="boundary 1 bc-1", solutiontime= 0.6000000E+02, strandid=1001, i=32, j=46, f=feblock
  0.000000000000E+00  0.000000000000E+00  0.000000000000E+00  0.000000000000E+00  0.000000000000E+00  0.000000000000E+00  0.000000000000E+00
  0.000000000000E+00  0.000000000000E+00  0.000000000000E+00  0.000000000000E+00  0.000000000000E+00  0.000000000000E+00  0.000000000000E+00
  0.000000000000E+00  0.000000000000E+00  0.000000000000E+00  0.000000000000E+00  0.000000000000E+00  0.000000000000E+00  0.000000000000E+00
  0.000000000000E+00  0.000000000000E+00  0.000000000000E+00  0.000000000000E+00  0.000000000000E+00  0.000000000000E+00  0.000000000000E+00
  0.000000000000E+00  0.000000000000E+00  0.000000000000E+00  0.000000000000E+00
  0.250000000000E+01  0.250000000000E+01  0.125000000000E+01  0.146289271009E+01  0.157686156160E+01  0.308372018325E+00  0.000000000000E+00
 -0.125000000000E+01 -0.600232012419E+00  0.250000000000E+01  0.477386199275E+00  0.742988685424E+00 -0.739814786992E+00  0.177790177481E+01
  0.155830813274E+01  0.250000000000E+01 -0.250000000000E+01 -0.154800130438E+01 -0.487811078581E+00  0.250000000000E+01  0.627766083140E+00
 -0.345533899378E+00 -0.178862290564E+01 -0.158811787973E+01  0.125000000000E+01 -0.250000000000E+01 -0.144524380962E+01  0.000000000000E+00
 -0.125000000000E+01 -0.250000000000E+01 -0.250000000000E+01 -0.250000000000E+01
  0.000000000000E+00  0.125000000000E+01  0.000000000000E+00  0.103724302461E+01  0.219251206392E+01  0.922061490191E+00  0.000000000000E+00
  0.000000000000E+00  0.715990576545E+00  0.250000000000E+01  0.202479342020E+01  0.324151231464E+01  0.175434191980E+01  0.310152362409E+01
  0.404200324774E+01  0.375000000000E+01  0.000000000000E+00  0.930412228790E+00  0.299062775774E+01  0.500000000000E+01  0.429310310915E+01
  0.409252726285E+01  0.187029682677E+01  0.284428995242E+01  0.500000000000E+01  0.125000000000E+01  0.394624082883E+01  0.500000000000E+01
  0.500000000000E+01  0.250000000000E+01  0.375000000000E+01  0.500000000000E+01
  0.134427144948E+01  0.106355395607E+01  0.142583204909E+01  0.108608796982E+01  0.103229115328E+01  0.120095364241E+01  0.164466727615E+01
  0.149409064370E+01  0.123520366974E+01  0.102389313798E+01  0.102809523676E+01  0.101301828699E+01  0.103252946677E+01  0.101471891606E+01
  0.100663883750E+01  0.100830818999E+01  0.144945745167E+01  0.116393552234E+01  0.101462863986E+01  0.100426040826E+01  0.100679807417E+01
  0.100724553333E+01  0.104668119164E+01  0.101938460955E+01  0.100424800573E+01  0.106442280103E+01  0.100789341930E+01  0.100288843771E+01
  0.100334542047E+01  0.102847362144E+01  0.100958665735E+01  0.100399273190E+01
  0.000000000000E+00  0.445481415382E+00  0.000000000000E+00  0.468737856559E+00  0.462182264511E+00  0.443613738997E+00  0.000000000000E+00
  0.000000000000E+00  0.379272522712E+00  0.471738849367E+00  0.466574953418E+00  0.479355157649E+00  0.490159652994E+00  0.484514724104E+00
  0.488524784362E+00  0.489830188394E+00  0.000000000000E+00  0.450653304343E+00  0.474814029912E+00  0.495784888027E+00  0.490899471589E+00
  0.486835368322E+00  0.448668668991E+00  0.465807174672E+00  0.496536481862E+00  0.444686657924E+00  0.487701045661E+00  0.497534090389E+00
  0.496384264443E+00  0.470002877990E+00  0.489199905633E+00  0.495522026746E+00
  0.000000000000E+00  0.000000000000E+00  0.000000000000E+00  0.186085475729E-01 -0.276688486324E-02  0.332952483049E-01  0.000000000000E+00
  0.000000000000E+00 -0.594701648651E-02  0.000000000000E+00  0.356648471590E-02 -0.566638318236E-02 -0.416060190666E-02  0.305514136384E-04
 -0.106175910295E-02  0.000000000000E+00  0.000000000000E+00 -0.764112884716E-02  0.359618937410E-03  0.000000000000E+00 -0.203512297168E-02
 -0.138312915197E-02  0.156561482053E-02 -0.158521020223E-02 -0.638374281655E-04  0.000000000000E+00 -0.283455415519E-04 -0.196339459197E-03
  0.807126803357E-03  0.000000000000E+00  0.000000000000E+00  0.000000000000E+00
  0.000000000000E+00  0.452181758392E-01  0.000000000000E+00  0.123933295899E+00  0.247647172273E-01  0.165644512331E+00  0.000000000000E+00
  0.000000000000E+00  0.155763097575E+00  0.351822589379E-02  0.259783174767E-01 -0.651224678790E-02  0.748997920810E-01  0.371839291664E-02
 -0.149294530331E-03  0.459062480625E-03  0.000000000000E+00  0.140954084789E+00 -0.808565308131E-02  0.237177367882E-02 -0.304305766441E-03
 -0.438193606598E-02  0.255017491848E-01 -0.194957029665E-02  0.308362571603E-02  0.837461435597E-01 -0.121909328501E-02  0.268514649838E-02
  0.264043121036E-02  0.279387073379E-02 -0.834662803003E-03  0.345019195265E-02
  0.960184573917E+00  0.782340562345E+00  0.101844205116E+01  0.808726658214E+00  0.746125892312E+00  0.879446499749E+00  0.117475225705E+01
  0.106719924469E+01  0.916620147711E+00  0.737395239025E+00  0.743553972968E+00  0.725759211511E+00  0.757455251092E+00  0.729188343788E+00
  0.720785048310E+00  0.722781670983E+00  0.103531921590E+01  0.858317141350E+00  0.728065073482E+00  0.718615293934E+00  0.721013448837E+00
  0.721151587193E+00  0.760018786583E+00  0.732628403638E+00  0.718531161682E+00  0.791043235775E+00  0.722107949881E+00  0.717199383103E+00
  0.717636870907E+00  0.741799737588E+00  0.724056580171E+00  0.718400634676E+00
  0.000000000000E+00  0.441238348409E+00  0.000000000000E+00  0.475214987034E+00  0.460123708880E+00  0.468827815432E+00  0.000000000000E+00
  0.000000000000E+00  0.402302516881E+00  0.469814974383E+00  0.464411128962E+00  0.478714034205E+00  0.489298241642E+00  0.483068557906E+00
  0.487930073136E+00  0.488961654645E+00  0.000000000000E+00  0.464775721456E+00  0.473795651918E+00  0.495346592019E+00  0.490266103452E+00
  0.486286083916E+00  0.445717618087E+00  0.464382274667E+00  0.496127394921E+00  0.443624103825E+00  0.486964461968E+00  0.497246279770E+00
  0.496059270899E+00  0.467732355392E+00  0.488212087375E+00  0.495098264823E+00
  0.999990295117E+00  0.102982719497E+01  0.999990758053E+00  0.104247294230E+01  0.101190080523E+01  0.102520618296E+01  0.999991416938E+00
  0.999992168392E+00  0.103891223629E+01  0.100826277308E+01  0.101252833875E+01  0.100300548289E+01  0.102702865696E+01  0.100605563289E+01
  0.100244400478E+01  0.100355660047E+01  0.999992721820E+00  0.103239739215E+01  0.100459524089E+01  0.100179336278E+01  0.100260305842E+01
  0.100234966417E+01  0.101657153077E+01  0.100617544691E+01  0.100168844809E+01  0.104043292666E+01  0.100303376376E+01  0.100118726928E+01
  0.100134171021E+01  0.100976788415E+01  0.100405369352E+01  0.100176112495E+01
        12        19        11        11
        11         5        12        12
        10        14         5         5
        19        13        11        11
        19        24        13        13
        30        23        24        24
        19        12        22        22
        28        22        21        21
        11        13         6         6
         7         6         9         9
        15        12        14        14
        18        13        23        23
        15        25        21        21
        27        19        22        22
        18         8         9         9
        27        31        24        24
         4        11         6         6
         5        14        12        12
         4         2         5         5
        21        12        15        15
        14        16        15        15
        24        19        27        27
        22        29        27        27
        23        26        18        18
        17         8        18        18
         5        11         4         4
         6         3         4         4
        26        23        30        30
         5         2        10        10
        16        14        10        10
         3         6         7         7
        21        25        28        28
        29        22        28        28
         6        13         9         9
         2         4         1         1
        31        27        32        32
        25        15        20        20
        24        23        13        13
         8         7         9         9
        13        18         9         9
        31        30        24        24
        12        21        22        22
        29        32        27        27
         3         1         4         4
        26        17        18        18
        16        20        15        15
zone t="boundary 2 bc-2", solutiontime= 0.6000000E+02, strandid=1002, i=33, j=48, f=feblock
  0.500000000000E+01  0.375000000000E+01  0.250000000000E+01  0.288078410721E+01  0.125000000000E+01  0.190974100652E+01  0.326683758169E+01
  0.201431602454E+01  0.000000000000E+00  0.963108083381E+00  0.500000000000E+01  0.403552511878E+01  0.423153924130E+01  0.500000000000E+01
  0.385533350601E+01  0.500000000000E+01  0.398173246726E+01  0.315249557942E+01  0.267000324704E+01  0.154774304040E+01  0.218329375016E+01
  0.893127759452E+00  0.000000000000E+00  0.698517061619E+00  0.964171764089E+00  0.310324758057E+01  0.000000000000E+00  0.000000000000E+00
  0.125000000000E+01  0.500000000000E+01  0.375000000000E+01  0.250000000000E+01  0.000000000000E+00
 -0.250000000000E+01 -0.250000000000E+01 -0.250000000000E+01 -0.250000000000E+01 -0.250000000000E+01 -0.250000000000E+01 -0.250000000000E+01
 -0.250000000000E+01 -0.250000000000E+01 -0.250000000000E+01 -0.250000000000E+01 -0.250000000000E+01 -0.250000000000E+01 -0.250000000000E+01
 -0.250000000000E+01 -0.250000000000E+01 -0.250000000000E+01 -0.250000000000E+01 -0.250000000000E+01 -0.250000000000E+01 -0.250000000000E+01
 -0.250000000000E+01 -0.250000000000E+01 -0.250000000000E+01 -0.250000000000E+01 -0.250000000000E+01 -0.250000000000E+01 -0.250000000000E+01
 -0.250000000000E+01 -0.250000000000E+01 -0.250000000000E+01 -0.250000000000E+01 -0.250000000000E+01
  0.000000000000E+00  0.000000000000E+00  0.000000000000E+00  0.904659890645E+00  0.000000000000E+00  0.717002441913E+00  0.188609243358E+01
  0.176246431481E+01  0.000000000000E+00  0.961328577125E+00  0.125000000000E+01  0.101201586758E+01  0.191586535653E+01  0.250000000000E+01
  0.293121848150E+01  0.375000000000E+01  0.406975391361E+01  0.363585050272E+01  0.285047954584E+01  0.292817774674E+01  0.395907379566E+01
  0.205246550326E+01  0.125000000000E+01  0.306828197606E+01  0.397245519226E+01  0.433168271247E+01  0.250000000000E+01  0.375000000000E+01
  0.500000000000E+01  0.500000000000E+01  0.500000000000E+01  0.500000000000E+01  0.500000000000E+01
  0.830787404308E+00  0.935297256327E+00  0.934221982110E+00  0.968087712896E+00  0.961719528384E+00  0.964848332174E+00  0.984136201191E+00
  0.991412447219E+00  0.144945745167E+01  0.102921689326E+01  0.955878696079E+00  0.960692919665E+00  0.981487961552E+00  0.100642910902E+01
  0.997912123410E+00  0.100977863891E+01  0.100199481641E+01  0.998063237292E+00  0.991085838874E+00  0.100132719335E+01  0.100094600695E+01
  0.101224609890E+01  0.106442280103E+01  0.101082190541E+01  0.100685258283E+01  0.100118414340E+01  0.102847362144E+01  0.100958665735E+01
  0.100510171619E+01  0.100179475839E+01  0.100266315999E+01  0.100321164519E+01  0.100399273190E+01
  0.000000000000E+00  0.000000000000E+00  0.000000000000E+00  0.378986941011E+00  0.000000000000E+00  0.340639444204E+00  0.582179008593E+00
  0.575195820684E+00  0.000000000000E+00  0.489449421605E+00  0.494741335636E+00  0.431507386941E+00  0.568961825135E+00  0.536179830582E+00
  0.568879739545E+00  0.516235685134E+00  0.508555697368E+00  0.527399281792E+00  0.566648549333E+00  0.531828923404E+00  0.506096459928E+00
  0.520701999307E+00  0.444686657924E+00  0.491339919585E+00  0.492734936088E+00  0.501504484135E+00  0.470002877990E+00  0.489199905633E+00
  0.490458183081E+00  0.491426954406E+00  0.486218276415E+00  0.490304438506E+00  0.495522026746E+00
  0.000000000000E+00  0.000000000000E+00  0.000000000000E+00  0.000000000000E+00  0.000000000000E+00  0.000000000000E+00  0.000000000000E+00
  0.000000000000E+00  0.000000000000E+00  0.000000000000E+00  0.000000000000E+00  0.000000000000E+00  0.000000000000E+00  0.000000000000E+00
  0.000000000000E+00  0.000000000000E+00  0.000000000000E+00  0.000000000000E+00  0.000000000000E+00  0.000000000000E+00  0.000000000000E+00
  0.000000000000E+00  0.000000000000E+00  0.000000000000E+00  0.000000000000E+00  0.000000000000E+00  0.000000000000E+00  0.000000000000E+00
  0.000000000000E+00  0.000000000000E+00  0.000000000000E+00  0.000000000000E+00  0.000000000000E+00
  0.000000000000E+00  0.000000000000E+00  0.000000000000E+00 -0.229669078511E-02  0.000000000000E+00  0.183565246347E-01  0.121122187101E-01
  0.454986543898E-01  0.000000000000E+00  0.870789633511E-01 -0.995426184705E-01 -0.211864966026E-01 -0.306441470268E-01 -0.414442958111E-01
 -0.137883052682E-02  0.259919185912E-02  0.609478645161E-03  0.503572985350E-03  0.150967302658E-01  0.284025719600E-01  0.564163870931E-02
  0.553419833204E-01  0.837461435597E-01  0.110441021341E-01  0.679169189101E-02 -0.758115828624E-03  0.279387073379E-02 -0.834662803003E-03
  0.400708384983E-02  0.602719175125E-02 -0.143884594819E-03  0.120121437067E-02  0.345019195265E-02
  0.593415709903E+00  0.668065253433E+00  0.667297107170E+00  0.684257572482E+00  0.686937806194E+00  0.679201335789E+00  0.695811645466E+00
  0.702343853191E+00  0.103531921590E+01  0.723694676307E+00  0.672591690727E+00  0.675702734360E+00  0.694093188892E+00  0.720959962492E+00
  0.712691281867E+00  0.724770829836E+00  0.716580562980E+00  0.713298992086E+00  0.706429557614E+00  0.717737239006E+00  0.715376602513E+00
  0.730937675032E+00  0.791043235775E+00  0.724372849951E+00  0.721010721417E+00  0.715457540774E+00  0.741799737588E+00  0.724056580171E+00
  0.719312938105E+00  0.715892799223E+00  0.716608905048E+00  0.717367939518E+00  0.718400634676E+00
  0.000000000000E+00  0.000000000000E+00  0.000000000000E+00  0.380991906520E+00  0.000000000000E+00  0.343629824953E+00  0.585286157429E+00
  0.579373264261E+00  0.000000000000E+00  0.501056069106E+00  0.508460362706E+00  0.435373026632E+00  0.572640041205E+00  0.537002098932E+00
  0.568922553863E+00  0.514994090632E+00  0.508247257189E+00  0.527252853135E+00  0.567446661118E+00  0.531657143908E+00  0.505981016599E+00
  0.520795579393E+00  0.443624103825E+00  0.490663730468E+00  0.492155873759E+00  0.501390784696E+00  0.467732355392E+00  0.488212087375E+00
  0.490002767123E+00  0.491352304714E+00  0.486075475244E+00  0.490036479266E+00  0.495098264823E+00
  0.999993487570E+00  0.999993690219E+00  0.999993543213E+00  0.989539055928E+00  0.999993137591E+00  0.985524707248E+00  0.989838908958E+00
  0.991798516576E+00  0.999992721820E+00  0.984411112433E+00  0.985091906411E+00  0.984689080913E+00  0.990058464815E+00  0.100289621836E+01
  0.999855369232E+00  0.100485306648E+01  0.100121554697E+01  0.100055642930E+01  0.997896793464E+00  0.100350029569E+01  0.100058068723E+01
  0.101093276246E+01  0.104043292666E+01  0.100326475367E+01  0.100254498742E+01  0.100045587386E+01  0.100976788415E+01  0.100405369352E+01
  0.100192656835E+01  0.100045434508E+01  0.100058774182E+01  0.100109993753E+01  0.100176112495E+01
        15         7        19        19
         8        20        19        19
        18        19        21        21
         7         4         8         8
         3         6         4         4
        19         7         8         8
        19        18        15        15
        14        13        15        15
         8        22        20        20
        27        24        22        22
        19        20        21        21
        32        26        21        21
        17        18        26        26
        17        16        15        15
        25        29        21        21
        12         7        13        13
        10         8         6         6
        25        20        24        24
         4         6         8         8
        12         2         4         4
        10        23        22        22
        26        31        17        17
        30        16        17        17
         4         7        12        12
        13        11        12        12
        21        20        25        25
        24        28        25        25
        22         8        10        10
         6         5        10        10
        31        26        32        32
         4         2         3         3
         5         6         3         3
        11        13        14        14
        22        23        27        27
        28        24        27        27
        15        13         7         7
         2        12         1         1
        29        25        33        33
        23        10         9         9
        21        26        18        18
        16        14        15        15
        18        17        15        15
        29        32        21        21
        22        24        20        20
        28        33        25        25
        11         1        12        12
        31        30        17        17
         5         9        10        10
zone t="boundary 3 bc-3", solutiontime= 0.6000000E+02, strandid=1003, i=33, j=48, f=feblock
  0.375000000000E+01  0.250000000000E+01  0.500000000000E+01  0.403552511878E+01  0.288078410721E+01  0.125000000000E+01  0.190974100652E+01
  0.500000000000E+01  0.326683758169E+01  0.423153924130E+01  0.201431602454E+01  0.000000000000E+00  0.963108083381E+00  0.500000000000E+01
  0.267000324704E+01  0.385533350601E+01  0.893127759452E+00  0.154774304040E+01  0.000000000000E+00  0.500000000000E+01  0.315249557942E+01
  0.218329375016E+01  0.398173246726E+01  0.000000000000E+00  0.698517061619E+00  0.964171764089E+00  0.125000000000E+01  0.000000000000E+00
  0.500000000000E+01  0.310324758057E+01  0.250000000000E+01  0.375000000000E+01  0.000000000000E+00
  0.250000000000E+01  0.250000000000E+01  0.250000000000E+01  0.250000000000E+01  0.250000000000E+01  0.250000000000E+01  0.250000000000E+01
  0.250000000000E+01  0.250000000000E+01  0.250000000000E+01  0.250000000000E+01  0.250000000000E+01  0.250000000000E+01  0.250000000000E+01
  0.250000000000E+01  0.250000000000E+01  0.250000000000E+01  0.250000000000E+01  0.250000000000E+01  0.250000000000E+01  0.250000000000E+01
  0.250000000000E+01  0.250000000000E+01  0.250000000000E+01  0.250000000000E+01  0.250000000000E+01  0.250000000000E+01  0.250000000000E+01
  0.250000000000E+01  0.250000000000E+01  0.250000000000E+01  0.250000000000E+01  0.250000000000E+01
  0.000000000000E+00  0.000000000000E+00  0.000000000000E+00  0.101201586758E+01  0.904659890645E+00  0.000000000000E+00  0.717002441913E+00
  0.125000000000E+01  0.188609243358E+01  0.191586535653E+01  0.176246431481E+01  0.000000000000E+00  0.961328577125E+00  0.250000000000E+01
  0.285047954584E+01  0.293121848150E+01  0.205246550326E+01  0.292817774674E+01  0.125000000000E+01  0.375000000000E+01  0.363585050272E+01
  0.395907379566E+01  0.406975391361E+01  0.250000000000E+01  0.306828197606E+01  0.397245519226E+01  0.500000000000E+01  0.375000000000E+01
  0.500000000000E+01  0.433168271247E+01  0.500000000000E+01  0.500000000000E+01  0.500000000000E+01
  0.941861271880E+00  0.946296419994E+00  0.843730490021E+00  0.964330994333E+00  0.978820741301E+00  0.956975891509E+00  0.983331403660E+00
  0.963500308281E+00  0.982689307353E+00  0.984243964279E+00  0.990263816139E+00  0.134427144948E+01  0.101918251327E+01  0.100829903948E+01
  0.993456155329E+00  0.997998684812E+00  0.100807808366E+01  0.100072116330E+01  0.106355395607E+01  0.100673529182E+01  0.100058356096E+01
  0.100234980713E+01  0.100178076643E+01  0.102389313798E+01  0.100874208383E+01  0.100528370900E+01  0.100522860295E+01  0.100830818999E+01
  0.100196461767E+01  0.100162012367E+01  0.100413205399E+01  0.100321958157E+01  0.100426040826E+01
  0.000000000000E+00  0.000000000000E+00  0.000000000000E+00  0.439071270020E+00  0.399865812461E+00  0.000000000000E+00  0.373794144958E+00
  0.495017683251E+00  0.573056190084E+00  0.569605109601E+00  0.559932658718E+00  0.000000000000E+00  0.483390704865E+00  0.533822130083E+00
  0.556458763036E+00  0.564688360880E+00  0.522615496359E+00  0.522533036244E+00  0.445481415382E+00  0.518326924741E+00  0.524750915648E+00
  0.503888174288E+00  0.509839746169E+00  0.471738849367E+00  0.496245454574E+00  0.494940396474E+00  0.489076358335E+00  0.489830188394E+00
  0.493064988036E+00  0.499146611921E+00  0.486766642407E+00  0.484757871997E+00  0.495784888027E+00
  0.000000000000E+00  0.000000000000E+00  0.000000000000E+00  0.000000000000E+00  0.000000000000E+00  0.000000000000E+00  0.000000000000E+00
  0.000000000000E+00  0.000000000000E+00  0.000000000000E+00  0.000000000000E+00  0.000000000000E+00  0.000000000000E+00  0.000000000000E+00
  0.000000000000E+00  0.000000000000E+00  0.000000000000E+00  0.000000000000E+00  0.000000000000E+00  0.000000000000E+00  0.000000000000E+00
  0.000000000000E+00  0.000000000000E+00  0.000000000000E+00  0.000000000000E+00  0.000000000000E+00  0.000000000000E+00  0.000000000000E+00
  0.000000000000E+00  0.000000000000E+00  0.000000000000E+00  0.000000000000E+00  0.000000000000E+00
  0.000000000000E+00  0.000000000000E+00  0.000000000000E+00 -0.226115182391E-01  0.111963817880E-01  0.000000000000E+00  0.179816810284E-01
 -0.100761228646E+00  0.390410743200E-02 -0.389325429047E-01  0.340377325954E-01  0.000000000000E+00  0.652293782371E-01 -0.424929711448E-01
  0.843881029727E-02 -0.650994098013E-02  0.490054841566E-01  0.135873484203E-01  0.452181758392E-01  0.737198679595E-03 -0.701222664117E-03
  0.243744359094E-02  0.868929779689E-03  0.351822589379E-02  0.103945255553E-01  0.431655358072E-02  0.337507309883E-02  0.459062480625E-03
  0.572579989879E-02  0.341101713618E-03  0.160978317349E-02  0.569905804367E-03  0.237177367882E-02
  0.672750879389E+00  0.675918855470E+00  0.602658384235E+00  0.676093765428E+00  0.691308921472E+00  0.683547254565E+00  0.690066482568E+00
  0.677274860733E+00  0.695201827905E+00  0.696250866022E+00  0.703344068655E+00  0.960184573917E+00  0.719726358956E+00  0.722866646247E+00
  0.709447759122E+00  0.713700946725E+00  0.726067413993E+00  0.716602922752E+00  0.782340562345E+00  0.722284532349E+00  0.716128636947E+00
  0.716551643778E+00  0.716546536248E+00  0.737395239025E+00  0.722682910962E+00  0.719441264185E+00  0.719566095378E+00  0.722781670983E+00
  0.716030181740E+00  0.715847822177E+00  0.718146783265E+00  0.717062470389E+00  0.718615293934E+00
  0.000000000000E+00  0.000000000000E+00  0.000000000000E+00  0.443767745628E+00  0.402286944646E+00  0.000000000000E+00  0.377550369531E+00
  0.509232128390E+00  0.575832179733E+00  0.573707405261E+00  0.562554064394E+00  0.000000000000E+00  0.490563299803E+00  0.534527096561E+00
  0.556586982145E+00  0.564391577725E+00  0.522730517385E+00  0.522052000167E+00  0.441238348409E+00  0.517182331754E+00  0.524228630724E+00
  0.503687457519E+00  0.509488571075E+00  0.469814974383E+00  0.495614442423E+00  0.494483780217E+00  0.488562428349E+00  0.488961654645E+00
  0.492980744802E+00  0.499005552193E+00  0.486460936551E+00  0.484596927612E+00  0.495346592019E+00
  0.999989339475E+00  0.999989408882E+00  0.999989626910E+00  0.981541895015E+00  0.988773990194E+00  0.999989827206E+00  0.982469462482E+00
  0.984104308921E+00  0.990427545903E+00  0.990355285688E+00  0.994362997081E+00  0.999990295117E+00  0.988652071062E+00  0.100368369414E+01
  0.999769197103E+00  0.100118501219E+01  0.100834885319E+01  0.100252111042E+01  0.102982719497E+01  0.100443319461E+01  0.100199536635E+01
  0.100082056599E+01  0.100138192344E+01  0.100826277308E+01  0.100298787130E+01  0.100192389555E+01  0.100215267509E+01  0.100355660047E+01
  0.100047670024E+01  0.100056591053E+01  0.100126820230E+01  0.100066573359E+01  0.100179336278E+01
        15         9        16        16
        15        18        11        11
        22        15        21        21
        11         5         9         9
         5         7         2         2
        11         9        15        15
        16        21        15        15
        16        10        14        14
        18        17        11        11
        17        25        24        24
        22        18        15        15
        22        30        31        31
        30        21        23        23
        16        20        23        23
        22        27        26        26
        10         9         4         4
         7        11        13        13
        25        18        26        26
        11         7         5         5
         5         1         4         4
        17        19        13        13
        23        32        30        30
        23        20        29        29
         4         9         5         5
         4         8        10        10
        26        18        22        22
        26        28        25        25
        13        11        17        17
        13         6         7         7
        31        30        32        32
         2         1         5         5
         2         7         6         6
        14        10         8         8
        24        19        17        17
        24        25        28        28
         9        10        16        16
         3         4         1         1
        33        26        27        27
        12        13        19        19
        21        30        22        22
        16        14        20        20
        16        23        21        21
        22        31        27        27
        18        25        17        17
        26        33        28        28
         4         3         8         8
        23        29        32        32
        13        12         6         6
zone t="boundary 4 bc-4", solutiontime= 0.6000000E+02, strandid=1004, i=32, j=46, f=feblock
  0.125000000000E+01  0.219251206392E+01  0.103724302461E+01  0.500000000000E+01  0.250000000000E+01  0.375000000000E+01  0.404200324774E+01
  0.500000000000E+01  0.000000000000E+00  0.310152362409E+01  0.202479342020E+01  0.324151231464E+01  0.922061490191E+00  0.000000000000E+00
  0.299062775774E+01  0.394624082883E+01  0.500000000000E+01  0.409252726285E+01  0.500000000000E+01  0.429310310915E+01  0.175434191980E+01
  0.284428995242E+01  0.000000000000E+00  0.000000000000E+00  0.715990576545E+00  0.930412228790E+00  0.125000000000E+01  0.187029682677E+01
  0.500000000000E+01  0.375000000000E+01  0.250000000000E+01  0.000000000000E+00
  0.250000000000E+01  0.157686156160E+01  0.146289271009E+01  0.250000000000E+01  0.250000000000E+01  0.250000000000E+01  0.155830813274E+01
  0.125000000000E+01  0.250000000000E+01  0.177790177481E+01  0.477386199275E+00  0.742988685424E+00  0.308372018325E+00  0.125000000000E+01
 -0.487811078581E+00 -0.144524380962E+01 -0.125000000000E+01 -0.345533899378E+00  0.000000000000E+00  0.627766083140E+00 -0.739814786992E+00
 -0.158811787973E+01  0.000000000000E+00 -0.125000000000E+01 -0.600232012419E+00 -0.154800130438E+01 -0.250000000000E+01 -0.178862290564E+01
 -0.250000000000E+01 -0.250000000000E+01 -0.250000000000E+01 -0.250000000000E+01
  0.500000000000E+01  0.500000000000E+01  0.500000000000E+01  0.500000000000E+01  0.500000000000E+01  0.500000000000E+01  0.500000000000E+01
  0.500000000000E+01  0.500000000000E+01  0.500000000000E+01  0.500000000000E+01  0.500000000000E+01  0.500000000000E+01  0.500000000000E+01
  0.500000000000E+01  0.500000000000E+01  0.500000000000E+01  0.500000000000E+01  0.500000000000E+01  0.500000000000E+01  0.500000000000E+01
  0.500000000000E+01  0.500000000000E+01  0.500000000000E+01  0.500000000000E+01  0.500000000000E+01  0.500000000000E+01  0.500000000000E+01
  0.500000000000E+01  0.500000000000E+01  0.500000000000E+01  0.500000000000E+01
  0.100522860295E+01  0.100432972647E+01  0.100432034606E+01  0.100196461767E+01  0.100413205399E+01  0.100321958157E+01  0.100258623151E+01
  0.100201175174E+01  0.100426040826E+01  0.100372310397E+01  0.100446502192E+01  0.100346952087E+01  0.100365984943E+01  0.100424800573E+01
  0.100362337536E+01  0.100164192042E+01  0.100227632655E+01  0.100227311606E+01  0.100213446574E+01  0.100254347570E+01  0.100442386349E+01
  0.100337264030E+01  0.100288843771E+01  0.100334542047E+01  0.100323223007E+01  0.100406087097E+01  0.100510171619E+01  0.100431307088E+01
  0.100179475839E+01  0.100266315999E+01  0.100321164519E+01  0.100399273190E+01
  0.489076358335E+00  0.489238598395E+00  0.490983331227E+00  0.493064988036E+00  0.486766642407E+00  0.484757871997E+00  0.485404956215E+00
  0.494262733340E+00  0.495784888027E+00  0.486800248110E+00  0.488139336984E+00  0.487244593213E+00  0.494423292552E+00  0.496536481862E+00
  0.487845782910E+00  0.483219469670E+00  0.492573587444E+00  0.487262277811E+00  0.494865946672E+00  0.488012491101E+00  0.490096716763E+00
  0.488269666920E+00  0.497534090389E+00  0.496384264443E+00  0.495259755643E+00  0.493216438788E+00  0.490458183081E+00  0.490400009041E+00
  0.491426954406E+00  0.486218276415E+00  0.490304438506E+00  0.495522026746E+00
  0.000000000000E+00 -0.893974710577E-04 -0.129755094382E-02  0.000000000000E+00  0.000000000000E+00  0.000000000000E+00  0.425702059217E-03
  0.797025496707E-03  0.000000000000E+00  0.274712871297E-03 -0.942431009655E-03 -0.820006406757E-03 -0.174523850691E-02 -0.638374281655E-04
 -0.110022750641E-02 -0.102277494028E-02 -0.133259272291E-02 -0.213434235831E-02 -0.132929464053E-02 -0.106401260647E-02 -0.624409177859E-03
 -0.761703282480E-03 -0.196339459197E-03  0.807126803357E-03  0.520225926679E-04  0.161630463657E-02  0.000000000000E+00  0.791646921127E-03
  0.000000000000E+00  0.000000000000E+00  0.000000000000E+00  0.000000000000E+00