# vtk DataFile Version 2.0
FUN3D:global_image_vtk
ASCII
DATASET UNSTRUCTURED_GRID
POINTS 213 double
    0.0000000000000000E+00    0.2500000000000000E+01    0.0000000000000000E+00
    0.1250000000000000E+01    0.2500000000000000E+01    0.0000000000000000E+00
    0.2500000000000000E+01    0.2500000000000000E+01    0.0000000000000000E+00
    0.3750000000000000E+01    0.2500000000000000E+01    0.0000000000000000E+00
    0.5000000000000000E+01    0.2500000000000000E+01    0.0000000000000000E+00
    0.5000000000000000E+01    0.1250000000000000E+01    0.0000000000000000E+00
    0.5000000000000000E+01    0.0000000000000000E+00    0.0000000000000000E+00
    0.5000000000000000E+01   -0.1250000000000000E+01    0.0000000000000000E+00
    0.5000000000000000E+01   -0.2500000000000000E+01    0.0000000000000000E+00
    0.3750000000000000E+01   -0.2500000000000000E+01    0.0000000000000000E+00
    0.2500000000000000E+01   -0.2500000000000000E+01    0.0000000000000000E+00
    0.1250000000000000E+01   -0.2500000000000000E+01    0.0000000000000000E+00
    0.0000000000000000E+00   -0.2500000000000000E+01    0.0000000000000000E+00
    0.0000000000000000E+00   -0.1250000000000000E+01    0.0000000000000000E+00
    0.0000000000000000E+00    0.0000000000000000E+00    0.0000000000000000E+00
    0.0000000000000000E+00    0.1250000000000000E+01    0.0000000000000000E+00
    0.9058375365086910E+00    0.1578994732800803E+01    0.0000000000000000E+00
    0.3982050490726493E+01   -0.1583989954232354E+01    0.0000000000000000E+00
    0.4033849428301197E+01    0.1453322699199022E+01    0.0000000000000000E+00
    0.1040505887381675E+01   -0.1479596339503735E+01    0.0000000000000000E+00
    0.1099454400140349E+01   -0.3227322616384110E+00    0.0000000000000000E+00
    0.7354504170366591E+00    0.6593508822075582E+00    0.0000000000000000E+00
    0.1622302608453282E+01    0.8256214013940779E+00    0.0000000000000000E+00
    0.2145871574390382E+01   -0.1650070333782557E+01    0.0000000000000000E+00
    0.4086422318222992E+01   -0.4612828702537229E+00    0.0000000000000000E+00
    0.2979540174134984E+01   -0.8579242121530853E+00    0.0000000000000000E+00
    0.3045064261640043E+01   -0.1836846154397680E+01    0.0000000000000000E+00
    0.3428197553792836E+01    0.3508002863614053E+00    0.0000000000000000E+00
    0.4309693860063405E+01    0.5185680230613409E+00    0.0000000000000000E+00
    0.1827272193562204E+01    0.1738996113203182E+01    0.0000000000000000E+00
    0.2808563282768077E+01    0.1325493893339706E+01    0.0000000000000000E+00
    0.1895995683864404E+01   -0.8731419609589618E+00    0.0000000000000000E+00
    0.2273179336307740E+01    0.4906150219227333E-01    0.0000000000000000E+00
    0.5000000000000000E+01    0.2500000000000000E+01    0.1250000000000000E+01
    0.5000000000000000E+01    0.2500000000000000E+01    0.2500000000000000E+01
    0.5000000000000000E+01    0.2500000000000000E+01    0.3750000000000000E+01
    0.5000000000000000E+01    0.2500000000000000E+01    0.5000000000000000E+01
    0.3750000000000000E+01    0.2500000000000000E+01    0.5000000000000000E+01
    0.2500000000000000E+01    0.2500000000000000E+01    0.5000000000000000E+01
    0.1250000000000000E+01    0.2500000000000000E+01    0.5000000000000000E+01
    0.0000000000000000E+00    0.2500000000000000E+01    0.5000000000000000E+01
    0.0000000000000000E+00    0.2500000000000000E+01    0.3750000000000000E+01
    0.0000000000000000E+00    0.2500000000000000E+01    0.2500000000000000E+01
    0.0000000000000000E+00    0.2500000000000000E+01    0.1250000000000000E+01
    0.9631080833812172E+00    0.2500000000000000E+01    0.9613285771248219E+00
    0.3981732467264904E+01    0.2500000000000000E+01    0.4069753913607991E+01
    0.4035525118777670E+01    0.2500000000000000E+01    0.1012015867579395E+01
    0.9641717640894248E+00    0.2500000000000000E+01    0.3972455192261839E+01
    0.1547743040396780E+01    0.2500000000000000E+01    0.2928177746738678E+01
    0.6985170616192014E+00    0.2500000000000000E+01    0.3068281976055466E+01
    0.8931277594515110E+00    0.2500000000000000E+01    0.2052465503257726E+01
    0.2183293750162785E+01    0.2500000000000000E+01    0.3959073795658649E+01
    0.3855333506014705E+01    0.2500000000000000E+01    0.2931218481500625E+01
    0.3152495579421047E+01    0.2500000000000000E+01    0.3635850502723324E+01
    0.3103247580566054E+01    0.2500000000000000E+01    0.4331682712472464E+01
    0.3266837581688852E+01    0.2500000000000000E+01    0.1886092433583972E+01
    0.4231539241296245E+01    0.2500000000000000E+01    0.1915865356532799E+01
    0.1909741006522088E+01    0.2500000000000000E+01    0.7170024419130505E+00
    0.2880784107213163E+01    0.2500000000000000E+01    0.9046598906449592E+00
    0.2014316024535771E+01    0.2500000000000000E+01    0.1762464314805728E+01
    0.2670003247036656E+01    0.2500000000000000E+01    0.2850479545835163E+01
    0.5000000000000000E+01    0.1250000000000000E+01    0.5000000000000000E+01
    0.5000000000000000E+01    0.0000000000000000E+00    0.5000000000000000E+01
    0.5000000000000000E+01   -0.1250000000000000E+01    0.5000000000000000E+01
    0.5000000000000000E+01   -0.2500000000000000E+01    0.5000000000000000E+01
    0.5000000000000000E+01   -0.2500000000000000E+01    0.3750000000000000E+01
    0.5000000000000000E+01   -0.2500000000000000E+01    0.2500000000000000E+01
    0.5000000000000000E+01   -0.2500000000000000E+01    0.1250000000000000E+01
    0.5000000000000000E+01    0.1578994732800803E+01    0.9058375365086910E+00
    0.5000000000000000E+01   -0.1583989954232354E+01    0.3982050490726493E+01
    0.5000000000000000E+01    0.1453322699199022E+01    0.4033849428301197E+01
    0.5000000000000000E+01   -0.1479596339503735E+01    0.1040505887381675E+01
    0.5000000000000000E+01   -0.3227322616384110E+00    0.1099454400140349E+01
    0.5000000000000000E+01    0.6593508822075582E+00    0.7354504170366591E+00
    0.5000000000000000E+01    0.8256214013940779E+00    0.1622302608453282E+01
    0.5000000000000000E+01   -0.1650070333782557E+01    0.2145871574390382E+01
    0.5000000000000000E+01   -0.4612828702537229E+00    0.4086422318222992E+01
    0.5000000000000000E+01   -0.8579242121530853E+00    0.2979540174134984E+01
    0.5000000000000000E+01   -0.1836846154397680E+01    0.3045064261640043E+01
    0.5000000000000000E+01    0.3508002863614053E+00    0.3428197553792836E+01
    0.5000000000000000E+01    0.5185680230613409E+00    0.4309693860063405E+01
    0.5000000000000000E+01    0.1738996113203182E+01    0.1827272193562204E+01
    0.5000000000000000E+01    0.1325493893339706E+01    0.2808563282768077E+01
    0.5000000000000000E+01   -0.8731419609589618E+00    0.1895995683864404E+01
    0.5000000000000000E+01    0.4906150219227333E-01    0.2273179336307740E+01
    0.0000000000000000E+00    0.1250000000000000E+01    0.5000000000000000E+01
    0.0000000000000000E+00    0.0000000000000000E+00    0.5000000000000000E+01
    0.0000000000000000E+00   -0.1250000000000000E+01    0.5000000000000000E+01
    0.0000000000000000E+00   -0.2500000000000000E+01    0.5000000000000000E+01
    0.1250000000000000E+01   -0.2500000000000000E+01    0.5000000000000000E+01
    0.2500000000000000E+01   -0.2500000000000000E+01    0.5000000000000000E+01
    0.3750000000000000E+01   -0.2500000000000000E+01    0.5000000000000000E+01
    0.4042003247744892E+01    0.1558308132739014E+01    0.5000000000000000E+01
    0.9304122287900499E+00   -0.1548001304379777E+01    0.5000000000000000E+01
    0.1037243024609388E+01    0.1462892710085612E+01    0.5000000000000000E+01
    0.3946240828834967E+01   -0.1445243809615570E+01    0.5000000000000000E+01
    0.4092527262848217E+01   -0.3455338993778935E+00    0.5000000000000000E+01
    0.4293103109154542E+01    0.6277660831404320E+00    0.5000000000000000E+01
    0.3241512314643519E+01    0.7429886854239611E+00    0.5000000000000000E+01
    0.2844289952419609E+01   -0.1588117879734118E+01    0.5000000000000000E+01
    0.7159905765450471E+00   -0.6002320124191652E+00    0.5000000000000000E+01
    0.1754341919796891E+01   -0.7398147869923652E+00    0.5000000000000000E+01
    0.1870296826774691E+01   -0.1788622905643739E+01    0.5000000000000000E+01
    0.9220614901912976E+00    0.3083720183248586E+00    0.5000000000000000E+01
    0.3101523624086016E+01    0.1777901774806180E+01    0.5000000000000000E+01
    0.2192512063922564E+01    0.1576861561598471E+01    0.5000000000000000E+01
    0.2024793420196460E+01    0.4773861992750707E+00    0.5000000000000000E+01
    0.2990627757741975E+01   -0.4878110785814084E+00    0.5000000000000000E+01
    0.0000000000000000E+00   -0.2500000000000000E+01    0.1250000000000000E+01
    0.0000000000000000E+00   -0.2500000000000000E+01    0.2500000000000000E+01
    0.0000000000000000E+00   -0.2500000000000000E+01    0.3750000000000000E+01
    0.0000000000000000E+00    0.1558308132739014E+01    0.4042003247744892E+01
    0.0000000000000000E+00   -0.1548001304379777E+01    0.9304122287900499E+00
    0.0000000000000000E+00    0.1462892710085612E+01    0.1037243024609388E+01
    0.0000000000000000E+00   -0.1445243809615570E+01    0.3946240828834967E+01
    0.0000000000000000E+00   -0.3455338993778935E+00    0.4092527262848217E+01
    0.0000000000000000E+00    0.6277660831404320E+00    0.4293103109154542E+01
    0.0000000000000000E+00    0.7429886854239611E+00    0.3241512314643519E+01
    0.0000000000000000E+00   -0.1588117879734118E+01    0.2844289952419609E+01
    0.0000000000000000E+00   -0.6002320124191652E+00    0.7159905765450471E+00
    0.0000000000000000E+00   -0.7398147869923652E+00    0.1754341919796891E+01
    0.0000000000000000E+00   -0.1788622905643739E+01    0.1870296826774691E+01
    0.0000000000000000E+00    0.3083720183248586E+00    0.9220614901912976E+00
    0.0000000000000000E+00    0.1777901774806180E+01    0.3101523624086016E+01
    0.0000000000000000E+00    0.1576861561598471E+01    0.2192512063922564E+01
[...]
POINT_DATA 213
SCALARS rho double 1
LOOKUP_TABLE default
   0.1344271449478041E+01
   0.9569758915044395E+00
   0.9462964199812690E+00
   0.9418612718318622E+00
   0.8437304899339531E+00
   0.7738004321649449E+00
   0.7629818919759345E+00
   0.7664577916009174E+00
   0.8307874043062046E+00
   0.9352972563210742E+00
   0.9342219821046224E+00
   0.9617195283762791E+00
   0.1449457451663660E+01
   0.1494090643695908E+01
   0.1644667276141240E+01
   0.1425832049092176E+01
   0.1009014435297775E+01
   0.9508810862070504E+00
   0.9436508501080135E+00
   0.9581561032915857E+00
   0.9415852462479340E+00
   0.1036377240371491E+01
   0.9256161100138305E+00
   0.9322349870051854E+00
   0.9537479576606335E+00
   0.9518769565717436E+00
   0.9348583126926471E+00
   0.9564028417738771E+00
   0.9376098401127551E+00
   0.9300661525011784E+00
   0.9445157492782312E+00
   0.8863506519420576E+00
   0.9423579969700913E+00
   0.9635003079663462E+00
   0.1008299039507377E+01
   0.1006735291836843E+01
   0.1001964617617960E+01
   0.1003219581542028E+01
   0.1004132053979922E+01
   0.1005228602953477E+01
   0.1004260408267852E+01
   0.1008308189988941E+01
   0.1023893137974831E+01
   0.1063553956070764E+01
   0.1019182513268762E+01
   0.1001780766435640E+01
   0.9643309938851636E+00
   0.1005283708998585E+01
   0.1000721163292928E+01
   0.1008742083823625E+01
   0.1008078083658193E+01
   0.1002349807125202E+01
   0.9979986848152251E+00
   0.1000583560947406E+01
   0.1001620123666986E+01
   0.9826893073718218E+00
   0.9842439642412250E+00
   0.9833314036651203E+00
   0.9788207412514596E+00
   0.9902638161416584E+00
   0.9934561553198356E+00
   0.1002011751673534E+01
   0.1002134465683018E+01
   0.1002276326545209E+01
   0.1001794758383737E+01
   0.1009778638886115E+01
   0.1006429109020685E+01
   0.9558786960504032E+00
   0.9249398411114539E+00
   0.1007036755523707E+01
   0.1004504925171600E+01
   0.9143642076332191E+00
   0.9089667860361171E+00
   0.8751688902537537E+00
   0.9767271885465868E+00
   0.1000452621145790E+01
   0.1005831087459752E+01
   0.1012882803232114E+01
   0.1011618951281953E+01
   0.1010438648585037E+01
   0.1005468280910647E+01
   0.9907612679984683E+00
   0.1005140325680939E+01
   0.9860567246233533E+00
   0.1005609737623670E+01
   0.1004248005730964E+01
   0.1002888437716137E+01
   0.1003345420469933E+01
   0.1003992731894302E+01
   0.1005101716193671E+01
   0.1003211645187126E+01
   0.1002663160003106E+01
   0.1002586231463155E+01
   0.1004060870965072E+01
   0.1004320346059520E+01
   0.1001641920430116E+01
   0.1002273116029190E+01
   0.1002543475633934E+01
   0.1003469520860267E+01
   0.1003372640305991E+01
   0.1003232230064978E+01
   0.1004423863487960E+01
   0.1004313070878351E+01
   0.1003659849422629E+01
   0.1003723103971189E+01
   0.1004329726464641E+01
   0.1004465021913087E+01
   0.1003623375374806E+01
   0.1064422801015001E+01
   0.1028473621440962E+01
   0.1009586657349308E+01
   0.1006638837500428E+01
   0.1163935522344806E+01
   0.1086087969829439E+01
   0.1007893419297941E+01
   0.1007245533335707E+01
   0.1006798074170629E+01
   0.1013018286985627E+01
   0.1019384609551053E+01
   0.1235203669735130E+01
   0.1032529466766734E+01
   0.1046681191637348E+01
   0.1200953642402402E+01
   0.1014718916057314E+01
   0.1032291153273036E+01
   0.1028095236752347E+01
   0.1014628639853465E+01
   0.1029216893255667E+01
   0.1001994816396275E+01
   0.9606929196351437E+00
   0.1006852582827398E+01
   0.1001327193344656E+01
   0.1010821905402755E+01
   0.1012246098891832E+01
   0.1000946006954778E+01
   0.9979121234057481E+00
   0.9980632372963384E+00
   0.1001184143403778E+01
   0.9841362011840527E+00
   0.9814879615389313E+00
   0.9648483321619455E+00
   0.9680877128809212E+00
   0.9914124472153898E+00
   0.9910858388699050E+00
   0.9925545095888244E+00
   0.1001727533886835E+01
   0.9993409402132893E+00
   0.9941410835097144E+00
   0.1007038753598539E+01
   0.1022539494126512E+01
   0.1001088098506179E+01
   0.1008798496285277E+01
   0.1004773846113569E+01
   0.1009050237472021E+01
   0.9966470332340364E+00
   0.1004988557938667E+01
   0.1003325535203631E+01
   0.9949431085445550E+00
   0.9832680781895241E+00
   0.9943957454958039E+00
   0.9973420656248733E+00
   0.9932190085574025E+00
   0.1001306487160072E+01
   0.1003001636972689E+01
   0.1002183579653850E+01
   0.9947078544991231E+00
   0.9937965521430381E+00
   0.1004867865548817E+01
   0.1020077607432586E+01
   0.1005364552421090E+01
   0.9816998152594916E+00
   0.1004973031262064E+01
   0.1012382323432095E+01
   0.9871424295655800E+00
   0.9551513534428376E+00
   0.9865075700184356E+00
   0.9864532949985292E+00
   0.9918946943772706E+00
   0.9933508198211832E+00
   0.9954406189217140E+00
   0.1037336789702847E+01
   0.1033536797906724E+01
   0.1001443320808292E+01
   0.1001930499786728E+01
   0.9912478515952702E+00
   0.9910920509384262E+00
   0.9648489990456141E+00
   0.9933282604823711E+00
   0.1006058638638244E+01
   0.1001954027109443E+01
   0.9908735804707787E+00
   0.9740945213728767E+00
   0.9418802141304763E+00
   0.9819379691720242E+00
   0.9794803560586716E+00
   0.9704172061498588E+00
   0.9720478946525918E+00
   0.9557351702585060E+00
   0.9496731213000192E+00
   0.9528673571481825E+00
   0.1002659534050659E+01
   0.1002471631959332E+01
   0.1000509329291464E+01
   0.1001677321728958E+01
   0.9607931434284195E+00
   0.9491625506061504E+00
   0.9584503068028093E+00
   0.1001121207774640E+01
   0.1000496140584967E+01
   0.1001156644173432E+01
   0.9807376183624662E+00
   0.9806000808526620E+00
   0.9628476108675600E+00
SCALARS u double 1
LOOKUP_TABLE default
   0.0000000000000000E+00
   0.0000000000000000E+00
   0.0000000000000000E+00
   0.0000000000000000E+00
   0.0000000000000000E+00
   0.0000000000000000E+00
   0.0000000000000000E+00
   0.0000000000000000E+00
   0.0000000000000000E+00
   0.0000000000000000E+00
   0.0000000000000000E+00
   0.0000000000000000E+00
   0.0000000000000000E+00
   0.0000000000000000E+00
   0.0000000000000000E+00
   0.0000000000000000E+00
   0.0000000000000000E+00
   0.0000000000000000E+00
   0.0000000000000000E+00
   0.0000000000000000E+00
   0.0000000000000000E+00
   0.0000000000000000E+00
   0.0000000000000000E+00
   0.0000000000000000E+00
   0.0000000000000000E+00
   0.0000000000000000E+00
   0.0000000000000000E+00
   0.0000000000000000E+00
   0.0000000000000000E+00
   0.0000000000000000E+00
   0.0000000000000000E+00
   0.0000000000000000E+00
   0.0000000000000000E+00
   0.4950176835841190E+00
   0.5338221300477510E+00
   0.5183269247653181E+00
   0.4930649880184179E+00
   0.4847578719451894E+00
   0.4867666423821530E+00
   0.4890763583465229E+00
   0.4957848880427901E+00
   0.4898301883942322E+00
   0.4717388493710604E+00
   0.4454814153860887E+00
   0.4833907048662107E+00
   0.5098397462638735E+00
   0.4390712699880258E+00
   0.4949403964822091E+00
   0.5225330362506695E+00
   0.4962454545784149E+00
   0.5226154963643472E+00
   0.5038881743111887E+00
   0.5646883608953193E+00
   0.5247509156849298E+00
   0.4991466119567933E+00
   0.5730561900921275E+00
   0.5696051096295964E+00
   0.3737941449498464E+00
   0.3998658124004570E+00
   0.5599326587167381E+00
   0.5564587630574733E+00
   0.4942627332961503E+00
   0.4948659466144617E+00
   0.4925735874258300E+00
   0.4914269544071511E+00
   0.5162356851376103E+00
   0.5361798305817844E+00
   0.4947413356662340E+00
   0.4524112203567365E+00
   0.5128777326104239E+00
   0.5117942040985476E+00
   0.4783517504812947E+00
   0.4931696656067946E+00
   0.4603173592552089E+00
   0.5244892720115729E+00
   0.5297434248055521E+00
   0.5129579301307233E+00
   0.5328358320165337E+00
   0.5308941037697560E+00
   0.5309856170940641E+00
   0.5063656735772161E+00
   0.5282461954807992E+00
   0.5410312730789388E+00
   0.5361261481193428E+00
   0.5374105276849437E+00
   0.4965364818667427E+00
   0.4975340903950915E+00
   0.4963842644464012E+00
   0.4955220267507295E+00
   0.4904581830908712E+00
   0.4903044384957808E+00
   0.4862182764122414E+00
   0.4854049561139901E+00
   0.4932164387896409E+00
   0.4909833312225310E+00
   0.4832194696407858E+00
   0.4872622777059393E+00
   0.4880124909542520E+00
   0.4872445931307798E+00
   0.4882696669168696E+00
   0.4952597556456266E+00
   0.4900967167578033E+00
   0.4904000090419823E+00
   0.4944232925468870E+00
   0.4868002480712982E+00
   0.4892385983694570E+00
   0.4881393369428786E+00
   0.4878457828583532E+00
   0.4446866579573778E+00
   0.4700028779888676E+00
   0.4891999056370553E+00
   0.4885247843604433E+00
   0.4506533043275309E+00
   0.4687378565496458E+00
   0.4877010456683526E+00
   0.4868353683264373E+00
   0.4908994715973976E+00
   0.4793551576538740E+00
   0.4658071746694916E+00
   0.3792725227162422E+00
   0.4901596530030740E+00
   0.4486686689937129E+00
   0.4436137390073975E+00
   0.4845147241074623E+00
   0.4621822645190040E+00
   0.4665749534238685E+00
   0.4748140299140098E+00
   0.4894494216106511E+00
   0.5085556973397252E+00
   0.4315073869454276E+00
   0.4927349360930576E+00
   0.5318289234014232E+00
   0.4913399195850857E+00
   0.5207019993136019E+00
   0.5060964599285103E+00
   0.5688797395438097E+00
   0.5273992817841153E+00
   0.5015044841231073E+00
   0.5821790085993499E+00
   0.5689618251422709E+00
   0.3406394442058552E+00
   0.3789869410155385E+00
   0.5751958206919109E+00
   0.5666485493321950E+00
   0.5704108783031455E+00
   0.5291056376076591E+00
   0.5451902710886340E+00
   0.5718804315050688E+00
   0.5389079125603172E+00
   0.5475507504643561E+00
   0.5821713868889010E+00
   0.4925601784239860E+00
   0.5042157546113213E+00
   0.4961735435915836E+00
   0.5565207962888222E+00
   0.4758845212870467E+00
   0.4950268383288168E+00
   0.5498525443312798E+00
   0.5891202296062878E+00
   0.5841957609148715E+00
   0.5469097664566595E+00
   0.5805417617819786E+00
   0.5106251438294211E+00
   0.5030200512873044E+00
   0.5033624679855350E+00
   0.5676446096681511E+00
   0.5563943082741325E+00
   0.4947255973128759E+00
   0.5505243828555173E+00
   0.5510857281411872E+00
   0.5657350949581792E+00
   0.4920070017459225E+00
   0.4927299096374025E+00
   0.3865140567819019E+00
   0.3687754531987756E+00
   0.5574921716768114E+00
   0.5763755545324720E+00
   0.4194304389854552E+00
   0.5824843240162051E+00
   0.4265209611264058E+00
   0.5392799843579632E+00
   0.5012032759530144E+00
   0.5119513208556861E+00
   0.5049119463495304E+00
   0.5751974973910670E+00
   0.5876371360374365E+00
   0.5379907804220809E+00
   0.5677472540324874E+00
   0.5351248666890159E+00
   0.5338056379936047E+00
   0.5580313798390564E+00
   0.5512707860018522E+00
   0.4261852751059332E+00
   0.5273356176650954E+00
   0.5795712528966680E+00
   0.3318687131181723E+00
   0.4760283322394681E+00
   0.5446196252423763E+00
   0.4798331896481540E+00
   0.3005293504811004E+00
   0.5031051137981272E+00
   0.5017115977461416E+00
   0.5129033211027932E+00
   0.5414840108751879E+00
   0.3437603851861836E+00
   0.3397710712270258E+00
   0.3189928566771491E+00
   0.5065936051761983E+00
   0.5123483779796226E+00
   0.5330313519469744E+00
   0.5879310000349773E+00
   0.4644180532808971E+00
   0.3531270506299523E+00
SCALARS v double 1
LOOKUP_TABLE default
   0.0000000000000000E+00
   0.0000000000000000E+00
   0.0000000000000000E+00
   0.0000000000000000E+00
   0.0000000000000000E+00
   0.0000000000000000E+00
   0.0000000000000000E+00
   0.0000000000000000E+00
   0.0000000000000000E+00
   0.0000000000000000E+00
   0.0000000000000000E+00
   0.0000000000000000E+00
   0.0000000000000000E+00
   0.0000000000000000E+00
   0.0000000000000000E+00
   0.0000000000000000E+00
   0.0000000000000000E+00
   0.0000000000000000E+00
   0.0000000000000000E+00
   0.0000000000000000E+00
   0.0000000000000000E+00
   0.0000000000000000E+00
   0.0000000000000000E+00
   0.0000000000000000E+00
   0.0000000000000000E+00
   0.0000000000000000E+00
   0.0000000000000000E+00
   0.0000000000000000E+00
   0.0000000000000000E+00
   0.0000000000000000E+00
   0.0000000000000000E+00
   0.0000000000000000E+00
   0.0000000000000000E+00
   0.0000000000000000E+00
   0.0000000000000000E+00
   0.0000000000000000E+00
   0.0000000000000000E+00
   0.0000000000000000E+00
   0.0000000000000000E+00
   0.0000000000000000E+00
   0.0000000000000000E+00
   0.0000000000000000E+00
   0.0000000000000000E+00
   0.0000000000000000E+00
   0.0000000000000000E+00
   0.0000000000000000E+00
   0.0000000000000000E+00
   0.0000000000000000E+00
   0.0000000000000000E+00
   0.0000000000000000E+00
   0.0000000000000000E+00
   0.0000000000000000E+00
   0.0000000000000000E+00
   0.0000000000000000E+00
   0.0000000000000000E+00
   0.0000000000000000E+00
   0.0000000000000000E+00
   0.0000000000000000E+00
   0.0000000000000000E+00
   0.0000000000000000E+00
   0.0000000000000000E+00
   0.7970254525998053E-03
  -0.1329294690551543E-02
  -0.1332592753357750E-02
   0.0000000000000000E+00
   0.0000000000000000E+00
   0.0000000000000000E+00
   0.0000000000000000E+00
  -0.1922562563472136E-01
   0.4770618234019071E-03
   0.2183360175025872E-02
   0.1427333017759040E-01
  -0.6488282108683477E-02
  -0.7821623023283346E-02
  -0.1327725060361538E-01
   0.4914481803869455E-02
   0.6907122081063246E-03
   0.3434418451758204E-02
   0.1920847399513995E-02
   0.3147960236184589E-02
   0.1704778376336717E-02
  -0.7316187350338821E-02
  -0.7701903043248824E-04
   0.4468738041588672E-02
  -0.4387156499990119E-03
  -0.6383742660575057E-04
  -0.1963394584387383E-03
   0.8071268016412927E-03
   0.0000000000000000E+00
   0.0000000000000000E+00
   0.0000000000000000E+00
   0.0000000000000000E+00
   0.4257020233110962E-03
   0.1616304636373372E-02
  -0.1297550946208426E-02
  -0.1022774980581144E-02
  -0.2134342412548153E-02
  -0.1064012661867971E-02
  -0.8200064297603232E-03
  -0.7617033217355914E-03
   0.5202259034574580E-04
  -0.6244091940578306E-03
   0.7916469209007723E-03
  -0.1745238509510186E-02
   0.2747128655051651E-03
  -0.8939747351453895E-04
  -0.9424310128362984E-03
  -0.1100227545043711E-02
   0.0000000000000000E+00
   0.0000000000000000E+00
   0.0000000000000000E+00
  -0.1061759100059669E-02
  -0.7641128851224904E-02
   0.1860854756987087E-01
  -0.2834554289350838E-04
  -0.1383129150865953E-02
  -0.2035122968694209E-02
  -0.5666383183732422E-02
  -0.1585210198742165E-02
  -0.5947016485159850E-02
  -0.4160601904295120E-02
   0.1565614821183978E-02
   0.3329524830352701E-01
   0.3055141301720187E-04
  -0.2766884863609167E-02
   0.3566484713860659E-02
   0.3596189370835580E-03
   0.0000000000000000E+00
   0.0000000000000000E+00
   0.0000000000000000E+00
   0.0000000000000000E+00
   0.0000000000000000E+00
   0.0000000000000000E+00
   0.0000000000000000E+00
   0.0000000000000000E+00
   0.0000000000000000E+00
   0.0000000000000000E+00
   0.0000000000000000E+00
   0.0000000000000000E+00
   0.0000000000000000E+00
   0.0000000000000000E+00
   0.0000000000000000E+00
   0.0000000000000000E+00
   0.0000000000000000E+00
   0.5047032581503577E-02
   0.3230791961356406E-02
   0.8149134295623505E-02
   0.6168366997787468E-02
   0.1122928641842722E-01
   0.1429277502079311E-01
  -0.2038826795040900E-03
   0.5118221839466098E-02
   0.2914950550395346E-02
   0.3373611842339320E-02
   0.3728336436527206E-02
  -0.1465719872531898E-01
  -0.6159699884820849E-03
   0.6651630357019834E-02
   0.1542014239613710E-02
   0.1969646522708470E-02
   0.4266273546546561E-02
  -0.2790960967633321E-02
   0.1226887079213182E-02
   0.2819172494724343E-02
   0.1497449165714095E-02
   0.2575339051288884E-02
   0.2030646458762709E-02
   0.2118046073579155E-02
   0.8700410481368284E-02
  -0.3733396982407754E-02
   0.6241189119746340E-02
   0.2516488997004468E-04
  -0.3854044895229858E-03
  -0.1674679014926866E-01
  -0.4881976926325279E-02
  -0.4720000828388968E-02
   0.3445223055967604E-02
  -0.6135724118602945E-02
   0.9934520178982445E-04
  -0.3291372932936108E-01
  -0.3046196727705207E-02
   0.4722743219121337E-02
   0.9228368053596732E-03
   0.2112175236924142E-02
   0.4518755700649150E-02
   0.2720465295177659E-02
   0.3212576503145894E-02
   0.5200804229980515E-02
   0.1941838972998289E-02
   0.7315897602177985E-03
  -0.2555237374948619E-04
  -0.5374632807438347E-02
  -0.6959591050768029E-02
  -0.9443816444483738E-03
   0.1105268430050657E-02
  -0.2080554142751525E-02
  -0.3200035931693985E-02
  -0.2527833399679929E-02
  -0.4115193599774488E-02
  -0.7593954950380537E-02
  -0.1985686403599659E-02
   0.6240402899663034E-03
  -0.2239081646530832E-03
   0.1216949786981282E-02
  -0.3483958322156835E-02
   0.5229139896577788E-02
  -0.8487626037031864E-02
   0.2315170783454582E-04
  -0.3395192810653113E-03
   0.2542663554171185E-02
   0.1663457704530597E-02
   0.2021438732135608E-02
  -0.5620784006456643E-02
SCALARS w double 1
LOOKUP_TABLE default
   0.0000000000000000E+00
   0.0000000000000000E+00
   0.0000000000000000E+00
   0.0000000000000000E+00
   0.0000000000000000E+00
   0.0000000000000000E+00
   0.0000000000000000E+00
   0.0000000000000000E+00
   0.0000000000000000E+00
   0.0000000000000000E+00
   0.0000000000000000E+00
   0.0000000000000000E+00
   0.0000000000000000E+00
   0.0000000000000000E+00
   0.0000000000000000E+00
   0.0000000000000000E+00
   0.0000000000000000E+00
   0.0000000000000000E+00
   0.0000000000000000E+00
   0.0000000000000000E+00
   0.0000000000000000E+00
   0.0000000000000000E+00
   0.0000000000000000E+00
   0.0000000000000000E+00
   0.0000000000000000E+00
   0.0000000000000000E+00
   0.0000000000000000E+00
   0.0000000000000000E+00
   0.0000000000000000E+00
   0.0000000000000000E+00
   0.0000000000000000E+00
   0.0000000000000000E+00
   0.0000000000000000E+00
  -0.1007612287558742E+00
  -0.4249297120494791E-01
   0.7371987059502377E-03
   0.5725799945839567E-02
   0.5699057969071538E-03
   0.1609783180193400E-02
   0.3375073087899018E-02
   0.2371773673567861E-02
   0.4590624799015033E-03
   0.3518225893586941E-02
   0.4521817584045291E-01
   0.6522937823737164E-01
   0.8689297775840725E-03
  -0.2261151820558766E-01
   0.4316553575051677E-02
   0.1358734842423729E-01
   0.1039452555589976E-01
   0.4900548415774229E-01
   0.2437443586414823E-02
  -0.6509940985428772E-02
  -0.7012226560973549E-03
   0.3411017163624540E-03
   0.3904107443324573E-02
  -0.3893254294293632E-01
   0.1798168102987452E-01
   0.1119638181221773E-01
   0.3403773260976565E-01
   0.8438810302522822E-02
   0.4937312280216603E-02
   0.4970345585633132E-02
   0.4871517423593841E-02
   0.6027191721567352E-02
   0.2599191838388401E-02
  -0.4144429581478140E-01
  -0.9954261847439524E-01
  -0.1121678217233738E+00
   0.5070875091722129E-02
   0.4230770773340707E-02
  -0.1004732302773066E+00
  -0.9895252488833373E-01
  -0.9875450932367251E-01
  -0.9462509596848610E-01
  -0.6807133810366486E-01
   0.5154922243730421E-02
  -0.1935330737771334E-01
  -0.1575800281963100E-01
  -0.6002862300619000E-02
   0.6819057434969309E-02
  -0.8010050793979402E-01
  -0.2781092446455350E-01
  -0.8096457339690126E-01
  -0.5873277545968499E-01
   0.3083625715104161E-02
   0.2685146492405321E-02
   0.2640431205348218E-02
   0.3450191949634738E-02
   0.4007083846995725E-02
   0.1201214386218084E-02
  -0.1438845906582622E-03
   0.2039877308526835E-02
   0.4895693676732277E-02
   0.3857385658530286E-02
   0.1114201963818560E-02
   0.1182682056553182E-02
   0.1465296260032678E-02
  -0.1653633633337075E-04
   0.8996631009529682E-04
   0.4386667926535295E-02
   0.2715724309150900E-02
   0.2322755366753339E-02
   0.5010601106400534E-02
   0.1071689406695661E-02
   0.2712217795143274E-02
   0.2013964155886789E-02
   0.2879091559724639E-04
   0.8374614357405766E-01
   0.2793870734129555E-02
  -0.8346628030715380E-03
  -0.1492945334158852E-03
   0.1409540847886653E+00
   0.1239332958957503E+00
  -0.1219093285953391E-02
  -0.4381936070493227E-02
  -0.3043057695618254E-03
  -0.6512246789505300E-02
  -0.1949570297119166E-02
   0.1557630975751692E+00
   0.7489979208069139E-01
   0.2550174918413254E-01
   0.1656445123305050E+00