title="tecplot geometry and solution file"
variables = x y z rho u v w p mach temperature
zone t="boundary 1 bc-1", solutiontime= 0.7000000E+02, strandid=1001, i=32, j=46, f=feblock
  0.000000000000E+00  0.000000000000E+00  0.000000000000E+00  0.000000000000E+00  0.000000000000E+00  0.000000000000E+00  0.000000000000E+00
  0.000000000000E+00  0.000000000000E+00  0.000000000000E+00  0.000000000000E+00  0.000000000000E+00  0.000000000000E+00  0.000000000000E+00
  0.000000000000E+00  0.000000000000E+00  0.000000000000E+00  0.000000000000E+00  0.000000000000E+00  0.000000000000E+00  0.000000000000E+00
  0.000000000000E+00  0.000000000000E+00  0.000000000000E+00  0.000000000000E+00  0.000000000000E+00  0.000000000000E+00  0.000000000000E+00
  0.000000000000E+00  0.000000000000E+00  0.000000000000E+00  0.000000000000E+00
  0.250000000000E+01  0.250000000000E+01  0.125000000000E+01  0.146289271009E+01  0.157686156160E+01  0.308372018325E+00  0.000000000000E+00
 -0.125000000000E+01 -0.600232012419E+00  0.250000000000E+01  0.477386199275E+00  0.742988685424E+00 -0.739814786992E+00  0.177790177481E+01
  0.155830813274E+01  0.250000000000E+01 -0.250000000000E+01 -0.154800130438E+01 -0.487811078581E+00  0.250000000000E+01  0.627766083140E+00
 -0.345533899378E+00 -0.178862290564E+01 -0.158811787973E+01  0.125000000000E+01 -0.250000000000E+01 -0.144524380962E+01  0.000000000000E+00
 -0.125000000000E+01 -0.250000000000E+01 -0.250000000000E+01 -0.250000000000E+01
  0.000000000000E+00  0.125000000000E+01  0.000000000000E+00  0.103724302461E+01  0.219251206392E+01  0.922061490191E+00  0.000000000000E+00
  0.000000000000E+00  0.715990576545E+00  0.250000000000E+01  0.202479342020E+01  0.324151231464E+01  0.175434191980E+01  0.310152362409E+01
  0.404200324774E+01  0.375000000000E+01  0.000000000000E+00  0.930412228790E+00  0.299062775774E+01  0.500000000000E+01  0.429310310915E+01
  0.409252726285E+01  0.187029682677E+01  0.284428995242E+01  0.500000000000E+01  0.125000000000E+01  0.394624082883E+01  0.500000000000E+01
  0.500000000000E+01  0.250000000000E+01  0.375000000000E+01  0.500000000000E+01
  0.134427144948E+01  0.106355395607E+01  0.142583204909E+01  0.108608796983E+01  0.103229115327E+01  0.120095364240E+01  0.164466727614E+01
  0.149409064370E+01  0.123520366974E+01  0.102389313797E+01  0.102809523675E+01  0.101301828699E+01  0.103252946677E+01  0.101471891606E+01
  0.100663883750E+01  0.100830818999E+01  0.144945745166E+01  0.116393552234E+01  0.101462863985E+01  0.100426040827E+01  0.100679807417E+01
  0.100724553334E+01  0.104668119164E+01  0.101938460955E+01  0.100424800573E+01  0.106442280102E+01  0.100789341930E+01  0.100288843772E+01
  0.100334542047E+01  0.102847362144E+01  0.100958665735E+01  0.100399273189E+01
  0.000000000000E+00  0.445481415386E+00  0.000000000000E+00  0.468737856550E+00  0.462182264519E+00  0.443613739007E+00  0.000000000000E+00
  0.000000000000E+00  0.379272522716E+00  0.471738849371E+00  0.466574953424E+00  0.479355157654E+00  0.490159653003E+00  0.484514724107E+00
  0.488524784360E+00  0.489830188394E+00  0.000000000000E+00  0.450653304328E+00  0.474814029914E+00  0.495784888043E+00  0.490899471597E+00
  0.486835368326E+00  0.448668668994E+00  0.465807174669E+00  0.496536481867E+00  0.444686657957E+00  0.487701045668E+00  0.497534090395E+00
  0.496384264446E+00  0.470002877989E+00  0.489199905637E+00  0.495522026751E+00
  0.000000000000E+00  0.000000000000E+00  0.000000000000E+00  0.186085475699E-01 -0.276688486361E-02  0.332952483035E-01  0.000000000000E+00
  0.000000000000E+00 -0.594701648516E-02  0.000000000000E+00  0.356648471386E-02 -0.566638318373E-02 -0.416060190430E-02  0.305514130172E-04
 -0.106175910006E-02  0.000000000000E+00  0.000000000000E+00 -0.764112885122E-02  0.359618937084E-03  0.000000000000E+00 -0.203512296869E-02
 -0.138312915087E-02  0.156561482118E-02 -0.158521019874E-02 -0.638374266058E-04  0.000000000000E+00 -0.283455428935E-04 -0.196339458439E-03
  0.807126801641E-03  0.000000000000E+00  0.000000000000E+00  0.000000000000E+00
  0.000000000000E+00  0.452181758405E-01  0.000000000000E+00  0.123933295896E+00  0.247647172297E-01  0.165644512331E+00  0.000000000000E+00
  0.000000000000E+00  0.155763097575E+00  0.351822589359E-02  0.259783174792E-01 -0.651224678951E-02  0.748997920807E-01  0.371839291595E-02
 -0.149294533416E-03  0.459062479902E-03  0.000000000000E+00  0.140954084789E+00 -0.808565308185E-02  0.237177367357E-02 -0.304305769562E-03
 -0.438193607049E-02  0.255017491841E-01 -0.194957029712E-02  0.308362571510E-02  0.837461435741E-01 -0.121909328595E-02  0.268514649241E-02
  0.264043120535E-02  0.279387073413E-02 -0.834662803072E-03  0.345019194963E-02
  0.960184573915E+00  0.782340562342E+00  0.101844205116E+01  0.808726658212E+00  0.746125892309E+00  0.879446499746E+00  0.117475225704E+01
  0.106719924469E+01  0.916620147708E+00  0.737395239021E+00  0.743553972963E+00  0.725759211507E+00  0.757455251088E+00  0.729188343784E+00
  0.720785048307E+00  0.722781670979E+00  0.103531921589E+01  0.858317141348E+00  0.728065073479E+00  0.718615293935E+00  0.721013448836E+00
  0.721151587191E+00  0.760018786581E+00  0.732628403635E+00  0.718531161683E+00  0.791043235769E+00  0.722107949878E+00  0.717199383103E+00
  0.717636870905E+00  0.741799737586E+00  0.724056580168E+00  0.718400634673E+00
  0.000000000000E+00  0.441238348413E+00  0.000000000000E+00  0.475214987026E+00  0.460123708888E+00  0.468827815441E+00  0.000000000000E+00
  0.000000000000E+00  0.402302516885E+00  0.469814974388E+00  0.464411128968E+00  0.478714034210E+00  0.489298241650E+00  0.483068557910E+00
  0.487930073135E+00  0.488961654645E+00  0.000000000000E+00  0.464775721443E+00  0.473795651921E+00  0.495346592035E+00  0.490266103461E+00
  0.486286083921E+00  0.445717618090E+00  0.464382274665E+00  0.496127394926E+00  0.443624103858E+00  0.486964461976E+00  0.497246279777E+00
  0.496059270902E+00  0.467732355391E+00  0.488212087379E+00  0.495098264828E+00
  0.999990295117E+00  0.102982719497E+01  0.999990758053E+00  0.104247294229E+01  0.101190080523E+01  0.102520618296E+01  0.999991416938E+00
  0.999992168392E+00  0.103891223628E+01  0.100826277308E+01  0.101252833875E+01  0.100300548288E+01  0.102702865696E+01  0.100605563289E+01
  0.100244400478E+01  0.100355660047E+01  0.999992721820E+00  0.103239739214E+01  0.100459524089E+01  0.100179336278E+01  0.100260305842E+01
  0.100234966416E+01  0.101657153077E+01  0.100617544691E+01  0.100168844809E+01  0.104043292667E+01  0.100303376376E+01  0.100118726928E+01
  0.100134171021E+01  0.100976788414E+01  0.100405369352E+01  0.100176112495E+01
        12        19        11        11
        11         5        12        12
        10        14         5         5
        19        13        11        11
        19        24        13        13
        30        23        24        24
        19        12        22        22
        28        22        21        21
        11        13         6         6
         7         6         9         9
        15        12        14        14
        18        13        23        23
        15        25        21        21
        27        19        22        22
        18         8         9         9
        27        31        24        24
         4        11         6         6
         5        14        12        12
         4         2         5         5
        21        12        15        15
        14        16        15        15
        24        19        27        27
        22        29        27        27
        23        26        18        18
        17         8        18        18
         5        11         4         4
         6         3         4         4
        26        23        30        30
         5         2        10        10
        16        14        10        10
         3         6         7         7
        21        25        28        28
        29        22        28        28
         6        13         9         9
         2         4         1         1
        31        27        32        32
        25        15        20        20
        24        23        13        13
         8         7         9         9
        13        18         9         9
        31        30        24        24
        12        21        22        22
        29        32        27        27
         3         1         4         4
        26        17        18        18
        16        20        15        15
zone t="boundary 2 bc-2", solutiontime= 0.7000000E+02, strandid=1002, i=33, j=48, f=feblock
  0.500000000000E+01  0.375000000000E+01  0.250000000000E+01  0.288078410721E+01  0.125000000000E+01  0.190974100652E+01  0.326683758169E+01
  0.201431602454E+01  0.000000000000E+00  0.963108083381E+00  0.500000000000E+01  0.403552511878E+01  0.423153924130E+01  0.500000000000E+01
  0.385533350601E+01  0.500000000000E+01  0.398173246726E+01  0.315249557942E+01  0.267000324704E+01  0.154774304040E+01  0.218329375016E+01
  0.893127759452E+00  0.000000000000E+00  0.698517061619E+00  0.964171764089E+00  0.310324758057E+01  0.000000000000E+00  0.000000000000E+00
  0.125000000000E+01  0.500000000000E+01  0.375000000000E+01  0.250000000000E+01  0.000000000000E+00
 -0.250000000000E+01 -0.250000000000E+01 -0.250000000000E+01 -0.250000000000E+01 -0.250000000000E+01 -0.250000000000E+01 -0.250000000000E+01
 -0.250000000000E+01 -0.250000000000E+01 -0.250000000000E+01 -0.250000000000E+01 -0.250000000000E+01 -0.250000000000E+01 -0.250000000000E+01
 -0.250000000000E+01 -0.250000000000E+01 -0.250000000000E+01 -0.250000000000E+01 -0.250000000000E+01 -0.250000000000E+01 -0.250000000000E+01
 -0.250000000000E+01 -0.250000000000E+01 -0.250000000000E+01 -0.250000000000E+01 -0.250000000000E+01 -0.250000000000E+01 -0.250000000000E+01
 -0.250000000000E+01 -0.250000000000E+01 -0.250000000000E+01 -0.250000000000E+01 -0.250000000000E+01
  0.000000000000E+00  0.000000000000E+00  0.000000000000E+00  0.904659890645E+00  0.000000000000E+00  0.717002441913E+00  0.188609243358E+01
  0.176246431481E+01  0.000000000000E+00  0.961328577125E+00  0.125000000000E+01  0.101201586758E+01  0.191586535653E+01  0.250000000000E+01
  0.293121848150E+01  0.375000000000E+01  0.406975391361E+01  0.363585050272E+01  0.285047954584E+01  0.292817774674E+01  0.395907379566E+01
  0.205246550326E+01  0.125000000000E+01  0.306828197606E+01  0.397245519226E+01  0.433168271247E+01  0.250000000000E+01  0.375000000000E+01
  0.500000000000E+01  0.500000000000E+01  0.500000000000E+01  0.500000000000E+01  0.500000000000E+01
  0.830787404306E+00  0.935297256321E+00  0.934221982105E+00  0.968087712881E+00  0.961719528376E+00  0.964848332162E+00  0.984136201184E+00
  0.991412447215E+00  0.144945745166E+01  0.102921689326E+01  0.955878696050E+00  0.960692919635E+00  0.981487961539E+00  0.100642910902E+01
  0.997912123406E+00  0.100977863889E+01  0.100199481640E+01  0.998063237296E+00  0.991085838870E+00  0.100132719334E+01  0.100094600695E+01
  0.101224609889E+01  0.106442280102E+01  0.101082190540E+01  0.100685258283E+01  0.100118414340E+01  0.102847362144E+01  0.100958665735E+01
  0.100510171619E+01  0.100179475838E+01  0.100266316000E+01  0.100321164519E+01  0.100399273189E+01
  0.000000000000E+00  0.000000000000E+00  0.000000000000E+00  0.378986941016E+00  0.000000000000E+00  0.340639444206E+00  0.582179008599E+00
  0.575195820692E+00  0.000000000000E+00  0.489449421611E+00  0.494741335666E+00  0.431507386945E+00  0.568961825142E+00  0.536179830582E+00
  0.568879739544E+00  0.516235685138E+00  0.508555697340E+00  0.527399281784E+00  0.566648549332E+00  0.531828923401E+00  0.506096459929E+00
  0.520701999314E+00  0.444686657957E+00  0.491339919585E+00  0.492734936093E+00  0.501504484123E+00  0.470002877989E+00  0.489199905637E+00
  0.490458183091E+00  0.491426954407E+00  0.486218276412E+00  0.490304438496E+00  0.495522026751E+00
  0.000000000000E+00  0.000000000000E+00  0.000000000000E+00  0.000000000000E+00  0.000000000000E+00  0.000000000000E+00  0.000000000000E+00
  0.000000000000E+00  0.000000000000E+00  0.000000000000E+00  0.000000000000E+00  0.000000000000E+00  0.000000000000E+00  0.000000000000E+00
  0.000000000000E+00  0.000000000000E+00  0.000000000000E+00  0.000000000000E+00  0.000000000000E+00  0.000000000000E+00  0.000000000000E+00
  0.000000000000E+00  0.000000000000E+00  0.000000000000E+00  0.000000000000E+00  0.000000000000E+00  0.000000000000E+00  0.000000000000E+00
  0.000000000000E+00  0.000000000000E+00  0.000000000000E+00  0.000000000000E+00  0.000000000000E+00
  0.000000000000E+00  0.000000000000E+00  0.000000000000E+00 -0.229669078482E-02  0.000000000000E+00  0.183565246344E-01  0.121122187100E-01
  0.454986543905E-01  0.000000000000E+00  0.870789633526E-01 -0.995426184744E-01 -0.211864966012E-01 -0.306441470299E-01 -0.414442958148E-01
 -0.137883053874E-02  0.259919183839E-02  0.609478612523E-03  0.503572974358E-03  0.150967302624E-01  0.284025719572E-01  0.564163870400E-02
  0.553419833216E-01  0.837461435741E-01  0.110441021347E-01  0.679169189056E-02 -0.758115836884E-03  0.279387073413E-02 -0.834662803072E-03
  0.400708384700E-02  0.602719172157E-02 -0.143884590658E-03  0.120121438622E-02  0.345019194963E-02
  0.593415709901E+00  0.668065253428E+00  0.667297107166E+00  0.684257572478E+00  0.686937806188E+00  0.679201335786E+00  0.695811645463E+00
  0.702343853187E+00  0.103531921589E+01  0.723694676302E+00  0.672591690713E+00  0.675702734359E+00  0.694093188890E+00  0.720959962490E+00
  0.712691281863E+00  0.724770829821E+00  0.716580562980E+00  0.713298992089E+00  0.706429557612E+00  0.717737239003E+00  0.715376602512E+00
  0.730937675030E+00  0.791043235769E+00  0.724372849948E+00  0.721010721414E+00  0.715457540775E+00  0.741799737586E+00  0.724056580168E+00
  0.719312938103E+00  0.715892799217E+00  0.716608905055E+00  0.717367939521E+00  0.718400634673E+00
  0.000000000000E+00  0.000000000000E+00  0.000000000000E+00  0.380991906522E+00  0.000000000000E+00  0.343629824953E+00  0.585286157435E+00
  0.579373264269E+00  0.000000000000E+00  0.501056069112E+00  0.508460362734E+00  0.435373026630E+00  0.572640041210E+00  0.537002098931E+00
  0.568922553863E+00  0.514994090636E+00  0.508247257158E+00  0.527252853127E+00  0.567446661117E+00  0.531657143905E+00  0.505981016600E+00
  0.520795579400E+00  0.443624103858E+00  0.490663730469E+00  0.492155873764E+00  0.501390784684E+00  0.467732355391E+00  0.488212087379E+00
  0.490002767132E+00  0.491352304715E+00  0.486075475241E+00  0.490036479253E+00  0.495098264828E+00
  0.999993487570E+00  0.999993690219E+00  0.999993543213E+00  0.989539055938E+00  0.999993137591E+00  0.985524707256E+00  0.989838908961E+00
  0.991798516574E+00  0.999992721820E+00  0.984411112432E+00  0.985091906420E+00  0.984689080942E+00  0.990058464825E+00  0.100289621836E+01
  0.999855369231E+00  0.100485306648E+01  0.100121554698E+01  0.100055642930E+01  0.997896793465E+00  0.100350029569E+01  0.100058068723E+01
  0.101093276246E+01  0.104043292667E+01  0.100326475367E+01  0.100254498741E+01  0.100045587386E+01  0.100976788414E+01  0.100405369352E+01
  0.100192656835E+01  0.100045434508E+01  0.100058774182E+01  0.100109993753E+01  0.100176112495E+01
        15         7        19        19
         8        20        19        19
        18        19        21        21
         7         4         8         8
         3         6         4         4
        19         7         8         8
        19        18        15        15
        14        13        15        15
         8        22        20        20
        27        24        22        22
        19        20        21        21
        32        26        21        21
        17        18        26        26
        17        16        15        15
        25        29        21        21
        12         7        13        13
        10         8         6         6
        25        20        24        24
         4         6         8         8
        12         2         4         4
        10        23        22        22
        26        31        17        17
        30        16        17        17
         4         7        12        12
        13        11        12        12
        21        20        25        25
        24        28        25        25
        22         8        10        10
         6         5        10        10
        31        26        32        32
         4         2         3         3
         5         6         3         3
        11        13        14        14
        22        23        27        27
        28        24        27        27
        15        13         7         7
         2        12         1         1
        29        25        33        33
        23        10         9         9
        21        26        18        18
        16        14        15        15
        18        17        15        15
        29        32        21        21
        22        24        20        20
        28        33        25        25
        11         1        12        12
        31        30        17        17
         5         9        10        10
zone t="boundary 3 bc-3", solutiontime= 0.7000000E+02, strandid=1003, i=33, j=48, f=feblock
  0.375000000000E+01  0.250000000000E+01  0.500000000000E+01  0.403552511878E+01  0.288078410721E+01  0.125000000000E+01  0.190974100652E+01
  0.500000000000E+01  0.326683758169E+01  0.423153924130E+01  0.201431602454E+01  0.000000000000E+00  0.963108083381E+00  0.500000000000E+01
  0.267000324704E+01  0.385533350601E+01  0.893127759452E+00  0.154774304040E+01  0.000000000000E+00  0.500000000000E+01  0.315249557942E+01
  0.218329375016E+01  0.398173246726E+01  0.000000000000E+00  0.698517061619E+00  0.964171764089E+00  0.125000000000E+01  0.000000000000E+00
  0.500000000000E+01  0.310324758057E+01  0.250000000000E+01  0.375000000000E+01  0.000000000000E+00
  0.250000000000E+01  0.250000000000E+01  0.250000000000E+01  0.250000000000E+01  0.250000000000E+01  0.250000000000E+01  0.250000000000E+01
  0.250000000000E+01  0.250000000000E+01  0.250000000000E+01  0.250000000000E+01  0.250000000000E+01  0.250000000000E+01  0.250000000000E+01
  0.250000000000E+01  0.250000000000E+01  0.250000000000E+01  0.250000000000E+01  0.250000000000E+01  0.250000000000E+01  0.250000000000E+01
  0.250000000000E+01  0.250000000000E+01  0.250000000000E+01  0.250000000000E+01  0.250000000000E+01  0.250000000000E+01  0.250000000000E+01
  0.250000000000E+01  0.250000000000E+01  0.250000000000E+01  0.250000000000E+01  0.250000000000E+01
  0.000000000000E+00  0.000000000000E+00  0.000000000000E+00  0.101201586758E+01  0.904659890645E+00  0.000000000000E+00  0.717002441913E+00
  0.125000000000E+01  0.188609243358E+01  0.191586535653E+01  0.176246431481E+01  0.000000000000E+00  0.961328577125E+00  0.250000000000E+01
  0.285047954584E+01  0.293121848150E+01  0.205246550326E+01  0.292817774674E+01  0.125000000000E+01  0.375000000000E+01  0.363585050272E+01
  0.395907379566E+01  0.406975391361E+01  0.250000000000E+01  0.306828197606E+01  0.397245519226E+01  0.500000000000E+01  0.375000000000E+01
  0.500000000000E+01  0.433168271247E+01  0.500000000000E+01  0.500000000000E+01  0.500000000000E+01
  0.941861271832E+00  0.946296419981E+00  0.843730489934E+00  0.964330993885E+00  0.978820741251E+00  0.956975891504E+00  0.983331403665E+00
  0.963500307966E+00  0.982689307372E+00  0.984243964241E+00  0.990263816142E+00  0.134427144948E+01  0.101918251327E+01  0.100829903951E+01
  0.993456155320E+00  0.997998684815E+00  0.100807808366E+01  0.100072116329E+01  0.106355395607E+01  0.100673529184E+01  0.100058356095E+01
  0.100234980713E+01  0.100178076644E+01  0.102389313797E+01  0.100874208382E+01  0.100528370900E+01  0.100522860295E+01  0.100830818999E+01
  0.100196461762E+01  0.100162012367E+01  0.100413205398E+01  0.100321958154E+01  0.100426040827E+01
  0.000000000000E+00  0.000000000000E+00  0.000000000000E+00  0.439071269988E+00  0.399865812400E+00  0.000000000000E+00  0.373794144950E+00
  0.495017683584E+00  0.573056190092E+00  0.569605109630E+00  0.559932658717E+00  0.000000000000E+00  0.483390704866E+00  0.533822130048E+00
  0.556458763057E+00  0.564688360895E+00  0.522615496364E+00  0.522533036251E+00  0.445481415386E+00  0.518326924765E+00  0.524750915685E+00
  0.503888174311E+00  0.509839746264E+00  0.471738849371E+00  0.496245454578E+00  0.494940396482E+00  0.489076358347E+00  0.489830188394E+00
  0.493064988018E+00  0.499146611957E+00  0.486766642382E+00  0.484757871945E+00  0.495784888043E+00
  0.000000000000E+00  0.000000000000E+00  0.000000000000E+00  0.000000000000E+00  0.000000000000E+00  0.000000000000E+00  0.000000000000E+00
  0.000000000000E+00  0.000000000000E+00  0.000000000000E+00  0.000000000000E+00  0.000000000000E+00  0.000000000000E+00  0.000000000000E+00
  0.000000000000E+00  0.000000000000E+00  0.000000000000E+00  0.000000000000E+00  0.000000000000E+00  0.000000000000E+00  0.000000000000E+00
  0.000000000000E+00  0.000000000000E+00  0.000000000000E+00  0.000000000000E+00  0.000000000000E+00  0.000000000000E+00  0.000000000000E+00
  0.000000000000E+00  0.000000000000E+00  0.000000000000E+00  0.000000000000E+00  0.000000000000E+00
  0.000000000000E+00  0.000000000000E+00  0.000000000000E+00 -0.226115182056E-01  0.111963818122E-01  0.000000000000E+00  0.179816810299E-01
 -0.100761228756E+00  0.390410744332E-02 -0.389325429429E-01  0.340377326098E-01  0.000000000000E+00  0.652293782374E-01 -0.424929712049E-01
  0.843881030252E-02 -0.650994098543E-02  0.490054841577E-01  0.135873484242E-01  0.452181758405E-01  0.737198705950E-03 -0.701222656097E-03
  0.243744358641E-02  0.868929777584E-03  0.351822589359E-02  0.103945255559E-01  0.431655357505E-02  0.337507308790E-02  0.459062479902E-03
  0.572579994584E-02  0.341101716362E-03  0.160978318019E-02  0.569905796907E-03  0.237177367357E-02
  0.672750879354E+00  0.675918855460E+00  0.602658384173E+00  0.676093765423E+00  0.691308921462E+00  0.683547254561E+00  0.690066482567E+00
  0.677274860600E+00  0.695201827889E+00  0.696250865997E+00  0.703344068648E+00  0.960184573915E+00  0.719726358950E+00  0.722866646257E+00
  0.709447759115E+00  0.713700946720E+00  0.726067413987E+00  0.716602922748E+00  0.782340562342E+00  0.722284532357E+00  0.716128636935E+00
  0.716551643771E+00  0.716546536236E+00  0.737395239021E+00  0.722682910957E+00  0.719441264180E+00  0.719566095379E+00  0.722781670979E+00
  0.716030181701E+00  0.715847822169E+00  0.718146783259E+00  0.717062470373E+00  0.718615293935E+00
  0.000000000000E+00  0.000000000000E+00  0.000000000000E+00  0.443767745493E+00  0.402286944579E+00  0.000000000000E+00  0.377550369524E+00
  0.509232128708E+00  0.575832179753E+00  0.573707405291E+00  0.562554064398E+00  0.000000000000E+00  0.490563299806E+00  0.534527096534E+00
  0.556586982166E+00  0.564391577744E+00  0.522730517391E+00  0.522052000174E+00  0.441238348413E+00  0.517182331779E+00  0.524228630763E+00
  0.503687457543E+00  0.509488571176E+00  0.469814974388E+00  0.495614442428E+00  0.494483780226E+00  0.488562428360E+00  0.488961654645E+00
  0.492980744787E+00  0.499005552230E+00  0.486460936525E+00  0.484596927560E+00  0.495346592035E+00
  0.999989339475E+00  0.999989408882E+00  0.999989626910E+00  0.981541895464E+00  0.988773990230E+00  0.999989827206E+00  0.982469462475E+00
  0.984104309049E+00  0.990427545862E+00  0.990355285692E+00  0.994362997068E+00  0.999990295117E+00  0.988652071058E+00  0.100368369413E+01
  0.999769197103E+00  0.100118501218E+01  0.100834885319E+01  0.100252111042E+01  0.102982719497E+01  0.100443319460E+01  0.100199536634E+01
  0.100082056598E+01  0.100138192341E+01  0.100826277308E+01  0.100298787130E+01  0.100192389555E+01  0.100215267509E+01  0.100355660047E+01
  0.100047670023E+01  0.100056591052E+01  0.100126820230E+01  0.100066573360E+01  0.100179336278E+01
        15         9        16        16
        15        18        11        11
        22        15        21        21
        11         5         9         9
         5         7         2         2
        11         9        15        15
        16        21        15        15
        16        10        14        14
        18        17        11        11
        17        25        24        24
        22        18        15        15
        22        30        31        31
        30        21        23        23
        16        20        23        23
        22        27        26        26
        10         9         4         4
         7        11        13        13
        25        18        26        26
        11         7         5         5
         5         1         4         4
        17        19        13        13
        23        32        30        30
        23        20        29        29
         4         9         5         5
         4         8        10        10
        26        18        22        22
        26        28        25        25
        13        11        17        17
        13         6         7         7
        31        30        32        32
         2         1         5         5
         2         7         6         6
        14        10         8         8
        24        19        17        17
        24        25        28        28
         9        10        16        16
         3         4         1         1
        33        26        27        27
        12        13        19        19
        21        30        22        22
        16        14        20        20
        16        23        21        21
        22        31        27        27
        18        25        17        17
        26        33        28        28
         4         3         8         8
        23        29        32        32
        13        12         6         6
zone t="boundary 4 bc-4", solutiontime= 0.7000000E+02, strandid=1004, i=32, j=46, f=feblock
  0.125000000000E+01  0.219251206392E+01  0.103724302461E+01  0.500000000000E+01  0.250000000000E+01  0.375000000000E+01  0.404200324774E+01
  0.500000000000E+01  0.000000000000E+00  0.310152362409E+01  0.202479342020E+01  0.324151231464E+01  0.922061490191E+00  0.000000000000E+00
  0.299062775774E+01  0.394624082883E+01  0.500000000000E+01  0.409252726285E+01  0.500000000000E+01  0.429310310915E+01  0.175434191980E+01
  0.284428995242E+01  0.000000000000E+00  0.000000000000E+00  0.715990576545E+00  0.930412228790E+00  0.125000000000E+01  0.187029682677E+01
  0.500000000000E+01  0.375000000000E+01  0.250000000000E+01  0.000000000000E+00
  0.250000000000E+01  0.157686156160E+01  0.146289271009E+01  0.250000000000E+01  0.250000000000E+01  0.250000000000E+01  0.155830813274E+01
  0.125000000000E+01  0.250000000000E+01  0.177790177481E+01  0.477386199275E+00  0.742988685424E+00  0.308372018325E+00  0.125000000000E+01
 -0.487811078581E+00 -0.144524380962E+01 -0.125000000000E+01 -0.345533899378E+00  0.000000000000E+00  0.627766083140E+00 -0.739814786992E+00
 -0.158811787973E+01  0.000000000000E+00 -0.125000000000E+01 -0.600232012419E+00 -0.154800130438E+01 -0.250000000000E+01 -0.178862290564E+01
 -0.250000000000E+01 -0.250000000000E+01 -0.250000000000E+01 -0.250000000000E+01
  0.500000000000E+01  0.500000000000E+01  0.500000000000E+01  0.500000000000E+01  0.500000000000E+01  0.500000000000E+01  0.500000000000E+01
  0.500000000000E+01  0.500000000000E+01  0.500000000000E+01  0.500000000000E+01  0.500000000000E+01  0.500000000000E+01  0.500000000000E+01
  0.500000000000E+01  0.500000000000E+01  0.500000000000E+01  0.500000000000E+01  0.500000000000E+01  0.500000000000E+01  0.500000000000E+01
  0.500000000000E+01  0.500000000000E+01  0.500000000000E+01  0.500000000000E+01  0.500000000000E+01  0.500000000000E+01  0.500000000000E+01
  0.500000000000E+01  0.500000000000E+01  0.500000000000E+01  0.500000000000E+01
  0.100522860295E+01  0.100432972646E+01  0.100432034606E+01  0.100196461762E+01  0.100413205398E+01  0.100321958154E+01  0.100258623146E+01
  0.100201175167E+01  0.100426040827E+01  0.100372310397E+01  0.100446502191E+01  0.100346952086E+01  0.100365984942E+01  0.100424800573E+01
  0.100362337537E+01  0.100164192043E+01  0.100227632655E+01  0.100227311603E+01  0.100213446568E+01  0.100254347563E+01  0.100442386349E+01
  0.100337264031E+01  0.100288843772E+01  0.100334542047E+01  0.100323223006E+01  0.100406087097E+01  0.100510171619E+01  0.100431307088E+01
  0.100179475838E+01  0.100266316000E+01  0.100321164519E+01  0.100399273189E+01
  0.489076358347E+00  0.489238598369E+00  0.490983331223E+00  0.493064988018E+00  0.486766642382E+00  0.484757871945E+00  0.485404956114E+00
  0.494262733296E+00  0.495784888043E+00  0.486800248071E+00  0.488139336943E+00  0.487244593131E+00  0.494423292547E+00  0.496536481867E+00
  0.487845782858E+00  0.483219469641E+00  0.492573587426E+00  0.487262277706E+00  0.494865946614E+00  0.488012490954E+00  0.490096716758E+00
  0.488269666917E+00  0.497534090395E+00  0.496384264446E+00  0.495259755646E+00  0.493216438790E+00  0.490458183091E+00  0.490400009042E+00
  0.491426954407E+00  0.486218276412E+00  0.490304438496E+00  0.495522026751E+00
  0.000000000000E+00 -0.893974735145E-04 -0.129755094621E-02  0.000000000000E+00  0.000000000000E+00  0.000000000000E+00  0.425702023311E-03
  0.797025452600E-03  0.000000000000E+00  0.274712865505E-03 -0.942431012836E-03 -0.820006429760E-03 -0.174523850951E-02 -0.638374266058E-04
 -0.110022754504E-02 -0.102277498058E-02 -0.133259275336E-02 -0.213434241255E-02 -0.132929469055E-02 -0.106401266187E-02 -0.624409194058E-03
 -0.761703321736E-03 -0.196339458439E-03  0.807126801641E-03  0.520225903457E-04  0.161630463637E-02  0.000000000000E+00  0.791646920901E-03
  0.000000000000E+00  0.000000000000E+00  0.000000000000E+00  0.000000000000E+00