title="tecplot geometry and solution file"
variables = x y z rho u v w p mach temperature
zone t="boundary 1 bc-1", solutiontime= 0.1000000E+02, strandid=1001, i=32, j=46, f=feblock
  0.000000000000E+00  0.000000000000E+00  0.000000000000E+00  0.000000000000E+00  0.000000000000E+00  0.000000000000E+00  0.000000000000E+00
  0.000000000000E+00  0.000000000000E+00  0.000000000000E+00  0.000000000000E+00  0.000000000000E+00  0.000000000000E+00  0.000000000000E+00
  0.000000000000E+00  0.000000000000E+00  0.000000000000E+00  0.000000000000E+00  0.000000000000E+00  0.000000000000E+00  0.000000000000E+00
  0.000000000000E+00  0.000000000000E+00  0.000000000000E+00  0.000000000000E+00  0.000000000000E+00  0.000000000000E+00  0.000000000000E+00
  0.000000000000E+00  0.000000000000E+00  0.000000000000E+00  0.000000000000E+00
  0.250000000000E+01  0.250000000000E+01  0.125000000000E+01  0.146289271009E+01  0.157686156160E+01  0.308372018325E+00  0.000000000000E+00
 -0.125000000000E+01 -0.600232012419E+00  0.250000000000E+01  0.477386199275E+00  0.742988685424E+00 -0.739814786992E+00  0.177790177481E+01
  0.155830813274E+01  0.250000000000E+01 -0.250000000000E+01 -0.154800130438E+01 -0.487811078581E+00  0.250000000000E+01  0.627766083140E+00
 -0.345533899378E+00 -0.178862290564E+01 -0.158811787973E+01  0.125000000000E+01 -0.250000000000E+01 -0.144524380962E+01  0.000000000000E+00
 -0.125000000000E+01 -0.250000000000E+01 -0.250000000000E+01 -0.250000000000E+01
  0.000000000000E+00  0.125000000000E+01  0.000000000000E+00  0.103724302461E+01  0.219251206392E+01  0.922061490191E+00  0.000000000000E+00
  0.000000000000E+00  0.715990576545E+00  0.250000000000E+01  0.202479342020E+01  0.324151231464E+01  0.175434191980E+01  0.310152362409E+01
  0.404200324774E+01  0.375000000000E+01  0.000000000000E+00  0.930412228790E+00  0.299062775774E+01  0.500000000000E+01  0.429310310915E+01
  0.409252726285E+01  0.187029682677E+01  0.284428995242E+01  0.500000000000E+01  0.125000000000E+01  0.394624082883E+01  0.500000000000E+01
  0.500000000000E+01  0.250000000000E+01  0.375000000000E+01  0.500000000000E+01
  0.134396596736E+01  0.106288564931E+01  0.142567199352E+01  0.108605535140E+01  0.103189236884E+01  0.120046100816E+01  0.164280959236E+01
  0.149231920412E+01  0.123491055430E+01  0.102374887875E+01  0.102837514271E+01  0.101298494162E+01  0.103298018510E+01  0.101450435646E+01
  0.100651933240E+01  0.100815139851E+01  0.144786901256E+01  0.116338097922E+01  0.101484578855E+01  0.100300465267E+01  0.100671153779E+01
  0.100730254193E+01  0.104658363843E+01  0.101925944797E+01  0.100388286079E+01  0.106492802091E+01  0.100782012644E+01  0.100321537375E+01
  0.100342413909E+01  0.102865083063E+01  0.100953790996E+01  0.100373853225E+01
  0.000000000000E+00  0.446358083963E+00  0.000000000000E+00  0.467563571501E+00  0.463486932609E+00  0.444133045604E+00  0.000000000000E+00
  0.000000000000E+00  0.379418336884E+00  0.472067248288E+00  0.467067893181E+00  0.479430320799E+00  0.489673706202E+00  0.484504446287E+00
  0.488023432427E+00  0.489656768507E+00  0.000000000000E+00  0.450854198683E+00  0.474819008983E+00  0.496307945338E+00  0.491007076010E+00
  0.486784670350E+00  0.449354221021E+00  0.466800966500E+00  0.497492500250E+00  0.445302537813E+00  0.487563809736E+00  0.498116300860E+00
  0.496793354498E+00  0.469844688603E+00  0.489158518995E+00  0.495744169019E+00
  0.000000000000E+00  0.000000000000E+00  0.000000000000E+00  0.175477639521E-01 -0.213729962064E-02  0.327979535500E-01  0.000000000000E+00
  0.000000000000E+00 -0.650328181222E-02  0.000000000000E+00  0.411727311998E-02 -0.522545164143E-02 -0.408068578308E-02  0.340392888929E-04
 -0.824514640577E-03  0.000000000000E+00  0.000000000000E+00 -0.784096066872E-02  0.397529863595E-03  0.000000000000E+00 -0.213224068417E-02
 -0.139207598069E-02  0.163781912713E-02 -0.186754343292E-02 -0.433573574961E-03  0.000000000000E+00 -0.230329822260E-03 -0.412220788194E-03
  0.823832789842E-03  0.000000000000E+00  0.000000000000E+00  0.000000000000E+00
  0.000000000000E+00  0.455578365111E-01  0.000000000000E+00  0.122821576497E+00  0.248513824867E-01  0.165555764762E+00  0.000000000000E+00
  0.000000000000E+00  0.156229720104E+00  0.371051002867E-02  0.269604582177E-01 -0.607265841927E-02  0.753301364357E-01  0.395709265917E-02
  0.296501397028E-03  0.875249860351E-03  0.000000000000E+00  0.140694085252E+00 -0.764474788229E-02  0.449760185921E-02  0.193802458889E-03
 -0.422693395980E-02  0.257869998513E-01 -0.140660121789E-02  0.448025866446E-02  0.843971819328E-01 -0.110385044140E-02  0.318264158067E-02
  0.318167038436E-02  0.268924867646E-02 -0.853215985118E-03  0.445298688456E-02
  0.959966374521E+00  0.781902653829E+00  0.101832772681E+01  0.808257918759E+00  0.745947924881E+00  0.879213444943E+00  0.117342535144E+01
  0.106593394061E+01  0.916233369596E+00  0.737246062947E+00  0.743709020232E+00  0.725752188551E+00  0.757527696095E+00  0.729039700072E+00
  0.720574106639E+00  0.722624471833E+00  0.103418462479E+01  0.857886472806E+00  0.728168401696E+00  0.718031343665E+00  0.721005193188E+00
  0.721150997717E+00  0.759976946170E+00  0.732624392305E+00  0.718477302431E+00  0.791195134691E+00  0.722071716241E+00  0.717593508320E+00
  0.717814525456E+00  0.741827108593E+00  0.723983027341E+00  0.718433596924E+00
  0.000000000000E+00  0.442116500049E+00  0.000000000000E+00  0.473917813240E+00  0.461385999321E+00  0.469208363470E+00  0.000000000000E+00
  0.000000000000E+00  0.402654370283E+00  0.470157920063E+00  0.464974770736E+00  0.478772748615E+00  0.488971294333E+00  0.483058360775E+00
  0.487471345056E+00  0.488804262103E+00  0.000000000000E+00  0.464897233030E+00  0.473810439941E+00  0.495775218182E+00  0.490355655303E+00
  0.486248062774E+00  0.446404319678E+00  0.465344796280E+00  0.497021629664E+00  0.444398663839E+00  0.486821726397E+00  0.497775581702E+00
  0.496429309448E+00  0.467605981966E+00  0.488183827238E+00  0.495254120958E+00
  0.999990295117E+00  0.102989791618E+01  0.999990758053E+00  0.104190001440E+01  0.101205040988E+01  0.102535510487E+01  0.999991416938E+00
  0.999992168392E+00  0.103872034535E+01  0.100820084842E+01  0.101246382286E+01  0.100302879365E+01  0.102667872030E+01  0.100606327967E+01
  0.100226962048E+01  0.100349437799E+01  0.999992721820E+00  0.103237123812E+01  0.100452282886E+01  0.100223252051E+01  0.100267776078E+01
  0.100229211660E+01  0.101661031720E+01  0.100629349207E+01  0.100197768354E+01  0.104013902050E+01  0.100305637506E+01  0.100141100101E+01
  0.100151102260E+01  0.100963118009E+01  0.100400017501E+01  0.100206079908E+01
        12        19        11        11
        11         5        12        12
        10        14         5         5
        19        13        11        11
        19        24        13        13
        30        23        24        24
        19        12        22        22
        28        22        21        21
        11        13         6         6
         7         6         9         9
        15        12        14        14
        18        13        23        23
        15        25        21        21
        27        19        22        22
        18         8         9         9
        27        31        24        24
         4        11         6         6
         5        14        12        12
         4         2         5         5
        21        12        15        15
        14        16        15        15
        24        19        27        27
        22        29        27        27
        23        26        18        18
        17         8        18        18
         5        11         4         4
         6         3         4         4
        26        23        30        30
         5         2        10        10
        16        14        10        10
         3         6         7         7
        21        25        28        28
        29        22        28        28
         6        13         9         9
         2         4         1         1
        31        27        32        32
        25        15        20        20
        24        23        13        13
         8         7         9         9
        13        18         9         9
        31        30        24        24
        12        21        22        22
        29        32        27        27
         3         1         4         4
        26        17        18        18
        16        20        15        15
zone t="boundary 2 bc-2", solutiontime= 0.1000000E+02, strandid=1002, i=33, j=48, f=feblock
  0.500000000000E+01  0.375000000000E+01  0.250000000000E+01  0.288078410721E+01  0.125000000000E+01  0.190974100652E+01  0.326683758169E+01
  0.201431602454E+01  0.000000000000E+00  0.963108083381E+00  0.500000000000E+01  0.403552511878E+01  0.423153924130E+01  0.500000000000E+01
  0.385533350601E+01  0.500000000000E+01  0.398173246726E+01  0.315249557942E+01  0.267000324704E+01  0.154774304040E+01  0.218329375016E+01
  0.893127759452E+00  0.000000000000E+00  0.698517061619E+00  0.964171764089E+00  0.310324758057E+01  0.000000000000E+00  0.000000000000E+00
  0.125000000000E+01  0.500000000000E+01  0.375000000000E+01  0.250000000000E+01  0.000000000000E+00
 -0.250000000000E+01 -0.250000000000E+01 -0.250000000000E+01 -0.250000000000E+01 -0.250000000000E+01 -0.250000000000E+01 -0.250000000000E+01
 -0.250000000000E+01 -0.250000000000E+01 -0.250000000000E+01 -0.250000000000E+01 -0.250000000000E+01 -0.250000000000E+01 -0.250000000000E+01
 -0.250000000000E+01 -0.250000000000E+01 -0.250000000000E+01 -0.250000000000E+01 -0.250000000000E+01 -0.250000000000E+01 -0.250000000000E+01
 -0.250000000000E+01 -0.250000000000E+01 -0.250000000000E+01 -0.250000000000E+01 -0.250000000000E+01 -0.250000000000E+01 -0.250000000000E+01
 -0.250000000000E+01 -0.250000000000E+01 -0.250000000000E+01 -0.250000000000E+01 -0.250000000000E+01
  0.000000000000E+00  0.000000000000E+00  0.000000000000E+00  0.904659890645E+00  0.000000000000E+00  0.717002441913E+00  0.188609243358E+01
  0.176246431481E+01  0.000000000000E+00  0.961328577125E+00  0.125000000000E+01  0.101201586758E+01  0.191586535653E+01  0.250000000000E+01
  0.293121848150E+01  0.375000000000E+01  0.406975391361E+01  0.363585050272E+01  0.285047954584E+01  0.292817774674E+01  0.395907379566E+01
  0.205246550326E+01  0.125000000000E+01  0.306828197606E+01  0.397245519226E+01  0.433168271247E+01  0.250000000000E+01  0.375000000000E+01
  0.500000000000E+01  0.500000000000E+01  0.500000000000E+01  0.500000000000E+01  0.500000000000E+01
  0.831661437548E+00  0.936966371372E+00  0.935439893949E+00  0.968890273077E+00  0.961482411791E+00  0.965361381172E+00  0.983820447048E+00
  0.991386732062E+00  0.144786901256E+01  0.102907330707E+01  0.955962007455E+00  0.962140181685E+00  0.980840724227E+00  0.100469969107E+01
  0.997287245327E+00  0.100954410899E+01  0.100208040748E+01  0.997824967709E+00  0.991303373812E+00  0.100153796197E+01  0.100104792536E+01
  0.101224890515E+01  0.106492802091E+01  0.101060544614E+01  0.100680713430E+01  0.100111654517E+01  0.102865083063E+01  0.100953790996E+01
  0.100528166187E+01  0.100485028619E+01  0.100458056039E+01  0.100326515580E+01  0.100373853225E+01
  0.000000000000E+00  0.000000000000E+00  0.000000000000E+00  0.379919181233E+00  0.000000000000E+00  0.341371341836E+00  0.580277455236E+00
  0.573749134737E+00  0.000000000000E+00  0.489361755134E+00  0.495708956147E+00  0.433926270924E+00  0.567786547320E+00  0.535919241846E+00
  0.567029682446E+00  0.516413509763E+00  0.508659607506E+00  0.528316798538E+00  0.566434142047E+00  0.532986089247E+00  0.506500476185E+00
  0.520722450144E+00  0.445302537813E+00  0.491840784336E+00  0.492647481533E+00  0.501420832404E+00  0.469844688603E+00  0.489158518995E+00
  0.487891502800E+00  0.491895270038E+00  0.485574443530E+00  0.487618503668E+00  0.495744169019E+00
  0.000000000000E+00  0.000000000000E+00  0.000000000000E+00  0.000000000000E+00  0.000000000000E+00  0.000000000000E+00  0.000000000000E+00
  0.000000000000E+00  0.000000000000E+00  0.000000000000E+00  0.000000000000E+00  0.000000000000E+00  0.000000000000E+00  0.000000000000E+00
  0.000000000000E+00  0.000000000000E+00  0.000000000000E+00  0.000000000000E+00  0.000000000000E+00  0.000000000000E+00  0.000000000000E+00
  0.000000000000E+00  0.000000000000E+00  0.000000000000E+00  0.000000000000E+00  0.000000000000E+00  0.000000000000E+00  0.000000000000E+00
  0.000000000000E+00  0.000000000000E+00  0.000000000000E+00  0.000000000000E+00  0.000000000000E+00
  0.000000000000E+00  0.000000000000E+00  0.000000000000E+00 -0.228787933168E-02  0.000000000000E+00  0.184382857367E-01  0.114382303598E-01
  0.449169451817E-01  0.000000000000E+00  0.866356552684E-01 -0.969155019389E-01 -0.217476931221E-01 -0.302169867982E-01 -0.405210237111E-01
 -0.573483436279E-03  0.169108785748E-02  0.185159894180E-02  0.180640727377E-02  0.153246136852E-01  0.288066147708E-01  0.614076686511E-02
  0.554070033671E-01  0.843971819328E-01  0.111772456626E-01  0.660675946826E-02  0.136112153575E-04  0.268924867646E-02 -0.853215985118E-03
  0.370763169493E-02  0.566397770978E-02  0.102422997416E-02  0.914522547173E-03  0.445298688456E-02
  0.594040015294E+00  0.669257470942E+00  0.668167038581E+00  0.684522147205E+00  0.686768438361E+00  0.679274482191E+00  0.695948791113E+00
  0.702390535744E+00  0.103418462479E+01  0.723545579077E+00  0.672749974639E+00  0.676346069297E+00  0.693934730575E+00  0.719881930967E+00
  0.712449311206E+00  0.724516416945E+00  0.716380700676E+00  0.713137898129E+00  0.706611877605E+00  0.717766786555E+00  0.715686147717E+00
  0.730918887880E+00  0.791195134691E+00  0.724241150891E+00  0.721036354590E+00  0.715447349823E+00  0.741827108593E+00  0.723983027341E+00
  0.719780796955E+00  0.717936722246E+00  0.717572519649E+00  0.717293655882E+00  0.718433596924E+00
  0.000000000000E+00  0.000000000000E+00  0.000000000000E+00  0.382013423171E+00  0.000000000000E+00  0.344443443105E+00  0.583210475158E+00
  0.577852563713E+00  0.000000000000E+00  0.500907654978E+00  0.508863959262E+00  0.437956902707E+00  0.571314386133E+00  0.536612405821E+00
  0.566989667708E+00  0.515198322224E+00  0.508446729418E+00  0.528169557280E+00  0.567227284266E+00  0.532877371275E+00  0.506306945850E+00
  0.520830059107E+00  0.444398663839E+00  0.491158714129E+00  0.492046174885E+00  0.501293225575E+00  0.467605981966E+00  0.488183827238E+00
  0.487321450865E+00  0.491863973328E+00  0.485570456472E+00  0.487389639500E+00  0.495254120958E+00
  0.999993487570E+00  0.999993690219E+00  0.999993543213E+00  0.989101689548E+00  0.999993137591E+00  0.985107021697E+00  0.990351756240E+00
  0.991890165805E+00  0.999992721820E+00  0.984345628006E+00  0.985237862122E+00  0.984144010447E+00  0.990485609751E+00  0.100312034761E+01
  0.100014217605E+01  0.100473369582E+01  0.100085080345E+01  0.100056932798E+01  0.997935298902E+00  0.100333041715E+01  0.100091172602E+01
  0.101090397612E+01  0.104013902050E+01  0.100329719686E+01  0.100262588736E+01  0.100050917606E+01  0.100963118009E+01  0.100400017501E+01
  0.100239878430E+01  0.100025986453E+01  0.100002087151E+01  0.100094288378E+01  0.100206079908E+01
        15         7        19        19
         8        20        19        19
        18        19        21        21
         7         4         8         8
         3         6         4         4
        19         7         8         8
        19        18        15        15
        14        13        15        15
         8        22        20        20
        27        24        22        22
        19        20        21        21
        32        26        21        21
        17        18        26        26
        17        16        15        15
        25        29        21        21
        12         7        13        13
        10         8         6         6
        25        20        24        24
         4         6         8         8
        12         2         4         4
        10        23        22        22
        26        31        17        17
        30        16        17        17
         4         7        12        12
        13        11        12        12
        21        20        25        25
        24        28        25        25
        22         8        10        10
         6         5        10        10
        31        26        32        32
         4         2         3         3
         5         6         3         3
        11        13        14        14
        22        23        27        27
        28        24        27        27
        15        13         7         7
         2        12         1         1
        29        25        33        33
        23        10         9         9
        21        26        18        18
        16        14        15        15
        18        17        15        15
        29        32        21        21
        22        24        20        20
        28        33        25        25
        11         1        12        12
        31        30        17        17
         5         9        10        10
zone t="boundary 3 bc-3", solutiontime= 0.1000000E+02, strandid=1003, i=33, j=48, f=feblock
  0.375000000000E+01  0.250000000000E+01  0.500000000000E+01  0.403552511878E+01  0.288078410721E+01  0.125000000000E+01  0.190974100652E+01
  0.500000000000E+01  0.326683758169E+01  0.423153924130E+01  0.201431602454E+01  0.000000000000E+00  0.963108083381E+00  0.500000000000E+01
  0.267000324704E+01  0.385533350601E+01  0.893127759452E+00  0.154774304040E+01  0.000000000000E+00  0.500000000000E+01  0.315249557942E+01
  0.218329375016E+01  0.398173246726E+01  0.000000000000E+00  0.698517061619E+00  0.964171764089E+00  0.125000000000E+01  0.000000000000E+00
  0.500000000000E+01  0.310324758057E+01  0.250000000000E+01  0.375000000000E+01  0.000000000000E+00
  0.250000000000E+01  0.250000000000E+01  0.250000000000E+01  0.250000000000E+01  0.250000000000E+01  0.250000000000E+01  0.250000000000E+01
  0.250000000000E+01  0.250000000000E+01  0.250000000000E+01  0.250000000000E+01  0.250000000000E+01  0.250000000000E+01  0.250000000000E+01
  0.250000000000E+01  0.250000000000E+01  0.250000000000E+01  0.250000000000E+01  0.250000000000E+01  0.250000000000E+01  0.250000000000E+01
  0.250000000000E+01  0.250000000000E+01  0.250000000000E+01  0.250000000000E+01  0.250000000000E+01  0.250000000000E+01  0.250000000000E+01
  0.250000000000E+01  0.250000000000E+01  0.250000000000E+01  0.250000000000E+01  0.250000000000E+01
  0.000000000000E+00  0.000000000000E+00  0.000000000000E+00  0.101201586758E+01  0.904659890645E+00  0.000000000000E+00  0.717002441913E+00
  0.125000000000E+01  0.188609243358E+01  0.191586535653E+01  0.176246431481E+01  0.000000000000E+00  0.961328577125E+00  0.250000000000E+01
  0.285047954584E+01  0.293121848150E+01  0.205246550326E+01  0.292817774674E+01  0.125000000000E+01  0.375000000000E+01  0.363585050272E+01
  0.395907379566E+01  0.406975391361E+01  0.250000000000E+01  0.306828197606E+01  0.397245519226E+01  0.500000000000E+01  0.375000000000E+01
  0.500000000000E+01  0.433168271247E+01  0.500000000000E+01  0.500000000000E+01  0.500000000000E+01
  0.943813145850E+00  0.947744846034E+00  0.844100950099E+00  0.965891854688E+00  0.980212805477E+00  0.957697275395E+00  0.984138051765E+00
  0.964121946010E+00  0.982837219214E+00  0.984087814390E+00  0.990552180928E+00  0.134396596736E+01  0.101911328654E+01  0.100729640039E+01
  0.993499827718E+00  0.997601423737E+00  0.100791843016E+01  0.100077531008E+01  0.106288564931E+01  0.100618477843E+01  0.100059357147E+01
  0.100249419968E+01  0.100182782004E+01  0.102374887875E+01  0.100882730644E+01  0.100540993545E+01  0.100528491061E+01  0.100815139851E+01
  0.100457495950E+01  0.100186529220E+01  0.100461052710E+01  0.100575142333E+01  0.100300465267E+01
  0.000000000000E+00  0.000000000000E+00  0.000000000000E+00  0.440750670321E+00  0.400715097417E+00  0.000000000000E+00  0.373002526382E+00
  0.495608827958E+00  0.571962655343E+00  0.568806566073E+00  0.558798817988E+00  0.000000000000E+00  0.482764917219E+00  0.533602897163E+00
  0.556443598080E+00  0.564022265367E+00  0.522725277339E+00  0.522941483377E+00  0.446358083963E+00  0.518445048567E+00  0.525239884534E+00
  0.503208373206E+00  0.508924008326E+00  0.472067248288E+00  0.496211332852E+00  0.494405917584E+00  0.486389738483E+00  0.489656768507E+00
  0.493313380580E+00  0.498020318248E+00  0.483717032273E+00  0.484198149037E+00  0.496307945338E+00
  0.000000000000E+00  0.000000000000E+00  0.000000000000E+00  0.000000000000E+00  0.000000000000E+00  0.000000000000E+00  0.000000000000E+00
  0.000000000000E+00  0.000000000000E+00  0.000000000000E+00  0.000000000000E+00  0.000000000000E+00  0.000000000000E+00  0.000000000000E+00
  0.000000000000E+00  0.000000000000E+00  0.000000000000E+00  0.000000000000E+00  0.000000000000E+00  0.000000000000E+00  0.000000000000E+00
  0.000000000000E+00  0.000000000000E+00  0.000000000000E+00  0.000000000000E+00  0.000000000000E+00  0.000000000000E+00  0.000000000000E+00
  0.000000000000E+00  0.000000000000E+00  0.000000000000E+00  0.000000000000E+00  0.000000000000E+00
  0.000000000000E+00  0.000000000000E+00  0.000000000000E+00 -0.224687349431E-01  0.108026778851E-01  0.000000000000E+00  0.177288215072E-01
 -0.979338782119E-01  0.370529249453E-02 -0.377253749583E-01  0.330651308498E-01  0.000000000000E+00  0.645451363171E-01 -0.415865205811E-01
  0.829503223824E-02 -0.598356741990E-02  0.483632371672E-01  0.130696353510E-01  0.455578365111E-01 -0.264320042270E-03 -0.367168696813E-03
  0.204215339716E-02  0.141795284375E-02  0.371051002867E-02  0.101472433677E-01  0.438344313421E-02  0.369810946153E-02  0.875249860351E-03
  0.477696889047E-02  0.686634737708E-03  0.206694631488E-02  0.233653105982E-02  0.449760185921E-02
  0.674145060218E+00  0.676953434540E+00  0.602922995832E+00  0.676678163525E+00  0.691682242310E+00  0.684062523527E+00  0.690393835563E+00
  0.677703156389E+00  0.695241263488E+00  0.696246676122E+00  0.703454749014E+00  0.959966374521E+00  0.719436803074E+00  0.722257078343E+00
  0.709528161189E+00  0.713538717431E+00  0.725990278289E+00  0.716689663044E+00  0.781902653829E+00  0.721786776134E+00  0.716089331096E+00
  0.716741608844E+00  0.716386817254E+00  0.737246062947E+00  0.722653236856E+00  0.719586081863E+00  0.719926510660E+00  0.722624471833E+00
  0.717629868483E+00  0.715881564436E+00  0.718220945622E+00  0.718281780016E+00  0.718031343665E+00
  0.000000000000E+00  0.000000000000E+00  0.000000000000E+00  0.445621075728E+00  0.403307517428E+00  0.000000000000E+00  0.376805575204E+00
  0.509259155375E+00  0.574759020380E+00  0.572781580610E+00  0.561398214884E+00  0.000000000000E+00  0.489929848227E+00  0.534197490447E+00
  0.556550352382E+00  0.563671954068E+00  0.522766424716E+00  0.522429137904E+00  0.442116500049E+00  0.517336571584E+00  0.524733798079E+00
  0.502975745607E+00  0.508643334790E+00  0.470157920063E+00  0.495606378180E+00  0.493931723249E+00  0.485773072671E+00  0.488804262103E+00
  0.493310272830E+00  0.497929128488E+00  0.483505207438E+00  0.484241567071E+00  0.495775218182E+00
  0.999989339475E+00  0.999989408882E+00  0.999989626910E+00  0.980802793125E+00  0.987902967420E+00  0.999989827206E+00  0.982129862832E+00
  0.984091714612E+00  0.990334665654E+00  0.990506469358E+00  0.994229953335E+00  0.999990295117E+00  0.988321453177E+00  0.100383552377E+01
  0.999838548484E+00  0.100135603322E+01  0.100840143329E+01  0.100258821151E+01  0.102989791618E+01  0.100429017438E+01  0.100193034627E+01
  0.100094170390E+01  0.100111169214E+01  0.100820084842E+01  0.100286196175E+01  0.100199976058E+01  0.100259847162E+01  0.100349437799E+01
  0.100010636974E+01  0.100036821119E+01  0.100089467186E+01  0.999843966106E+00  0.100223252051E+01
        15         9        16        16
        15        18        11        11
        22        15        21        21
        11         5         9         9
         5         7         2         2
        11         9        15        15
        16        21        15        15
        16        10        14        14
        18        17        11        11
        17        25        24        24
        22        18        15        15
        22        30        31        31
        30        21        23        23
        16        20        23        23
        22        27        26        26
        10         9         4         4
         7        11        13        13
        25        18        26        26
        11         7         5         5
         5         1         4         4
        17        19        13        13
        23        32        30        30
        23        20        29        29
         4         9         5         5
         4         8        10        10
        26        18        22        22
        26        28        25        25
        13        11        17        17
        13         6         7         7
        31        30        32        32
         2         1         5         5
         2         7         6         6
        14        10         8         8
        24        19        17        17
        24        25        28        28
         9        10        16        16
         3         4         1         1
        33        26        27        27
        12        13        19        19
        21        30        22        22
        16        14        20        20
        16        23        21        21
        22        31        27        27
        18        25        17        17
        26        33        28        28
         4         3         8         8
        23        29        32        32
        13        12         6         6
zone t="boundary 4 bc-4", solutiontime= 0.1000000E+02, strandid=1004, i=32, j=46, f=feblock
  0.125000000000E+01  0.219251206392E+01  0.103724302461E+01  0.500000000000E+01  0.250000000000E+01  0.375000000000E+01  0.404200324774E+01
  0.500000000000E+01  0.000000000000E+00  0.310152362409E+01  0.202479342020E+01  0.324151231464E+01  0.922061490191E+00  0.000000000000E+00
  0.299062775774E+01  0.394624082883E+01  0.500000000000E+01  0.409252726285E+01  0.500000000000E+01  0.429310310915E+01  0.175434191980E+01
  0.284428995242E+01  0.000000000000E+00  0.000000000000E+00  0.715990576545E+00  0.930412228790E+00  0.125000000000E+01  0.187029682677E+01
  0.500000000000E+01  0.375000000000E+01  0.250000000000E+01  0.000000000000E+00
  0.250000000000E+01  0.157686156160E+01  0.146289271009E+01  0.250000000000E+01  0.250000000000E+01  0.250000000000E+01  0.155830813274E+01
  0.125000000000E+01  0.250000000000E+01  0.177790177481E+01  0.477386199275E+00  0.742988685424E+00  0.308372018325E+00  0.125000000000E+01
 -0.487811078581E+00 -0.144524380962E+01 -0.125000000000E+01 -0.345533899378E+00  0.000000000000E+00  0.627766083140E+00 -0.739814786992E+00
 -0.158811787973E+01  0.000000000000E+00 -0.125000000000E+01 -0.600232012419E+00 -0.154800130438E+01 -0.250000000000E+01 -0.178862290564E+01
 -0.250000000000E+01 -0.250000000000E+01 -0.250000000000E+01 -0.250000000000E+01
  0.500000000000E+01  0.500000000000E+01  0.500000000000E+01  0.500000000000E+01  0.500000000000E+01  0.500000000000E+01  0.500000000000E+01
  0.500000000000E+01  0.500000000000E+01  0.500000000000E+01  0.500000000000E+01  0.500000000000E+01  0.500000000000E+01  0.500000000000E+01
  0.500000000000E+01  0.500000000000E+01  0.500000000000E+01  0.500000000000E+01  0.500000000000E+01  0.500000000000E+01  0.500000000000E+01
  0.500000000000E+01  0.500000000000E+01  0.500000000000E+01  0.500000000000E+01  0.500000000000E+01  0.500000000000E+01  0.500000000000E+01
  0.500000000000E+01  0.500000000000E+01  0.500000000000E+01  0.500000000000E+01
  0.100528491061E+01  0.100481213341E+01  0.100454652545E+01  0.100457495950E+01  0.100461052710E+01  0.100575142333E+01  0.100519642975E+01
  0.100477824513E+01  0.100300465267E+01  0.100530973356E+01  0.100474175818E+01  0.100468643207E+01  0.100353625077E+01  0.100388286079E+01
  0.100466978741E+01  0.100338589066E+01  0.100511432153E+01  0.100451939792E+01  0.100476718943E+01  0.100579165801E+01  0.100440679798E+01
  0.100395541140E+01  0.100321537375E+01  0.100342413909E+01  0.100313593359E+01  0.100406071955E+01  0.100528166187E+01  0.100421777894E+01
  0.100485028619E+01  0.100458056039E+01  0.100326515580E+01  0.100373853225E+01
  0.486389738483E+00  0.486750333351E+00  0.489155376054E+00  0.493313380580E+00  0.483717032273E+00  0.484198149037E+00  0.486438078361E+00
  0.494607020519E+00  0.496307945338E+00  0.484748996349E+00  0.486074181307E+00  0.486482034561E+00  0.493033311238E+00  0.497492500250E+00
  0.486347331972E+00  0.485257156334E+00  0.493788706914E+00  0.488630692427E+00  0.495402089067E+00  0.489159304360E+00  0.487288273393E+00
  0.486488460189E+00  0.498116300860E+00  0.496793354498E+00  0.494574763467E+00  0.491698255965E+00  0.487891502800E+00  0.487577204748E+00
  0.491895270038E+00  0.485574443530E+00  0.487618503668E+00  0.495744169019E+00
  0.000000000000E+00  0.267010224209E-03 -0.143245431879E-02  0.000000000000E+00  0.000000000000E+00  0.000000000000E+00  0.771315337761E-03
  0.111094482112E-02  0.000000000000E+00  0.657713553155E-03 -0.412214351572E-03  0.157036902909E-03 -0.200982280216E-02 -0.433573574961E-03
 -0.404175320209E-03 -0.183068201345E-03 -0.225623087861E-03 -0.636822890138E-03  0.889406452697E-04  0.155451181923E-06 -0.581287641927E-03
 -0.128132614918E-03 -0.412220788194E-03  0.823832789842E-03 -0.198090653694E-03  0.144685556192E-02  0.000000000000E+00  0.818727375854E-03
  0.000000000000E+00  0.000000000000E+00  0.000000000000E+00  0.000000000000E+00