# vtk DataFile Version 2.0
FUN3D:global_image_vtk
ASCII
DATASET UNSTRUCTURED_GRID
POINTS 213 double
    0.0000000000000000E+00    0.2500000000000000E+01    0.0000000000000000E+00
    0.1250000000000000E+01    0.2500000000000000E+01    0.0000000000000000E+00
    0.2500000000000000E+01    0.2500000000000000E+01    0.0000000000000000E+00
    0.3750000000000000E+01    0.2500000000000000E+01    0.0000000000000000E+00
    0.5000000000000000E+01    0.2500000000000000E+01    0.0000000000000000E+00
    0.5000000000000000E+01    0.1250000000000000E+01    0.0000000000000000E+00
    0.5000000000000000E+01    0.0000000000000000E+00    0.0000000000000000E+00
    0.5000000000000000E+01   -0.1250000000000000E+01    0.0000000000000000E+00
    0.5000000000000000E+01   -0.2500000000000000E+01    0.0000000000000000E+00
    0.3750000000000000E+01   -0.2500000000000000E+01    0.0000000000000000E+00
    0.2500000000000000E+01   -0.2500000000000000E+01    0.0000000000000000E+00
    0.1250000000000000E+01   -0.2500000000000000E+01    0.0000000000000000E+00
    0.0000000000000000E+00   -0.2500000000000000E+01    0.0000000000000000E+00
    0.0000000000000000E+00   -0.1250000000000000E+01    0.0000000000000000E+00
    0.0000000000000000E+00    0.0000000000000000E+00    0.0000000000000000E+00
    0.0000000000000000E+00    0.1250000000000000E+01    0.0000000000000000E+00
    0.9058375365086910E+00    0.1578994732800803E+01    0.0000000000000000E+00
    0.3982050490726493E+01   -0.1583989954232354E+01    0.0000000000000000E+00
    0.4033849428301197E+01    0.1453322699199022E+01    0.0000000000000000E+00
    0.1040505887381675E+01   -0.1479596339503735E+01    0.0000000000000000E+00
    0.1099454400140349E+01   -0.3227322616384110E+00    0.0000000000000000E+00
    0.7354504170366591E+00    0.6593508822075582E+00    0.0000000000000000E+00
    0.1622302608453282E+01    0.8256214013940779E+00    0.0000000000000000E+00
    0.2145871574390382E+01   -0.1650070333782557E+01    0.0000000000000000E+00
    0.4086422318222992E+01   -0.4612828702537229E+00    0.0000000000000000E+00
    0.2979540174134984E+01   -0.8579242121530853E+00    0.0000000000000000E+00
    0.3045064261640043E+01   -0.1836846154397680E+01    0.0000000000000000E+00
    0.3428197553792836E+01    0.3508002863614053E+00    0.0000000000000000E+00
    0.4309693860063405E+01    0.5185680230613409E+00    0.0000000000000000E+00
    0.1827272193562204E+01    0.1738996113203182E+01    0.0000000000000000E+00
    0.2808563282768077E+01    0.1325493893339706E+01    0.0000000000000000E+00
    0.1895995683864404E+01   -0.8731419609589618E+00    0.0000000000000000E+00
    0.2273179336307740E+01    0.4906150219227333E-01    0.0000000000000000E+00
    0.5000000000000000E+01    0.2500000000000000E+01    0.1250000000000000E+01
    0.5000000000000000E+01    0.2500000000000000E+01    0.2500000000000000E+01
    0.5000000000000000E+01    0.2500000000000000E+01    0.3750000000000000E+01
    0.5000000000000000E+01    0.2500000000000000E+01    0.5000000000000000E+01
    0.3750000000000000E+01    0.2500000000000000E+01    0.5000000000000000E+01
    0.2500000000000000E+01    0.2500000000000000E+01    0.5000000000000000E+01
    0.1250000000000000E+01    0.2500000000000000E+01    0.5000000000000000E+01
    0.0000000000000000E+00    0.2500000000000000E+01    0.5000000000000000E+01
    0.0000000000000000E+00    0.2500000000000000E+01    0.3750000000000000E+01
    0.0000000000000000E+00    0.2500000000000000E+01    0.2500000000000000E+01
    0.0000000000000000E+00    0.2500000000000000E+01    0.1250000000000000E+01
    0.9631080833812172E+00    0.2500000000000000E+01    0.9613285771248219E+00
    0.3981732467264904E+01    0.2500000000000000E+01    0.4069753913607991E+01
    0.4035525118777670E+01    0.2500000000000000E+01    0.1012015867579395E+01
    0.9641717640894248E+00    0.2500000000000000E+01    0.3972455192261839E+01
    0.1547743040396780E+01    0.2500000000000000E+01    0.2928177746738678E+01
    0.6985170616192014E+00    0.2500000000000000E+01    0.3068281976055466E+01
    0.8931277594515110E+00    0.2500000000000000E+01    0.2052465503257726E+01
    0.2183293750162785E+01    0.2500000000000000E+01    0.3959073795658649E+01
    0.3855333506014705E+01    0.2500000000000000E+01    0.2931218481500625E+01
    0.3152495579421047E+01    0.2500000000000000E+01    0.3635850502723324E+01
    0.3103247580566054E+01    0.2500000000000000E+01    0.4331682712472464E+01
    0.3266837581688852E+01    0.2500000000000000E+01    0.1886092433583972E+01
    0.4231539241296245E+01    0.2500000000000000E+01    0.1915865356532799E+01
    0.1909741006522088E+01    0.2500000000000000E+01    0.7170024419130505E+00
    0.2880784107213163E+01    0.2500000000000000E+01    0.9046598906449592E+00
    0.2014316024535771E+01    0.2500000000000000E+01    0.1762464314805728E+01
    0.2670003247036656E+01    0.2500000000000000E+01    0.2850479545835163E+01
    0.5000000000000000E+01    0.1250000000000000E+01    0.5000000000000000E+01
    0.5000000000000000E+01    0.0000000000000000E+00    0.5000000000000000E+01
    0.5000000000000000E+01   -0.1250000000000000E+01    0.5000000000000000E+01
    0.5000000000000000E+01   -0.2500000000000000E+01    0.5000000000000000E+01
    0.5000000000000000E+01   -0.2500000000000000E+01    0.3750000000000000E+01
    0.5000000000000000E+01   -0.2500000000000000E+01    0.2500000000000000E+01
    0.5000000000000000E+01   -0.2500000000000000E+01    0.1250000000000000E+01
    0.5000000000000000E+01    0.1578994732800803E+01    0.9058375365086910E+00
    0.5000000000000000E+01   -0.1583989954232354E+01    0.3982050490726493E+01
    0.5000000000000000E+01    0.1453322699199022E+01    0.4033849428301197E+01
    0.5000000000000000E+01   -0.1479596339503735E+01    0.1040505887381675E+01
    0.5000000000000000E+01   -0.3227322616384110E+00    0.1099454400140349E+01
    0.5000000000000000E+01    0.6593508822075582E+00    0.7354504170366591E+00
    0.5000000000000000E+01    0.8256214013940779E+00    0.1622302608453282E+01
    0.5000000000000000E+01   -0.1650070333782557E+01    0.2145871574390382E+01
    0.5000000000000000E+01   -0.4612828702537229E+00    0.4086422318222992E+01
    0.5000000000000000E+01   -0.8579242121530853E+00    0.2979540174134984E+01
    0.5000000000000000E+01   -0.1836846154397680E+01    0.3045064261640043E+01
    0.5000000000000000E+01    0.3508002863614053E+00    0.3428197553792836E+01
    0.5000000000000000E+01    0.5185680230613409E+00    0.4309693860063405E+01
    0.5000000000000000E+01    0.1738996113203182E+01    0.1827272193562204E+01
    0.5000000000000000E+01    0.1325493893339706E+01    0.2808563282768077E+01
    0.5000000000000000E+01   -0.8731419609589618E+00    0.1895995683864404E+01
    0.5000000000000000E+01    0.4906150219227333E-01    0.2273179336307740E+01
    0.0000000000000000E+00    0.1250000000000000E+01    0.5000000000000000E+01
    0.0000000000000000E+00    0.0000000000000000E+00    0.5000000000000000E+01
    0.0000000000000000E+00   -0.1250000000000000E+01    0.5000000000000000E+01
    0.0000000000000000E+00   -0.2500000000000000E+01    0.5000000000000000E+01
    0.1250000000000000E+01   -0.2500000000000000E+01    0.5000000000000000E+01
    0.2500000000000000E+01   -0.2500000000000000E+01    0.5000000000000000E+01
    0.3750000000000000E+01   -0.2500000000000000E+01    0.5000000000000000E+01
    0.4042003247744892E+01    0.1558308132739014E+01    0.5000000000000000E+01
    0.9304122287900499E+00   -0.1548001304379777E+01    0.5000000000000000E+01
    0.1037243024609388E+01    0.1462892710085612E+01    0.5000000000000000E+01
    0.3946240828834967E+01   -0.1445243809615570E+01    0.5000000000000000E+01
    0.4092527262848217E+01   -0.3455338993778935E+00    0.5000000000000000E+01
    0.4293103109154542E+01    0.6277660831404320E+00    0.5000000000000000E+01
    0.3241512314643519E+01    0.7429886854239611E+00    0.5000000000000000E+01
    0.2844289952419609E+01   -0.1588117879734118E+01    0.5000000000000000E+01
    0.7159905765450471E+00   -0.6002320124191652E+00    0.5000000000000000E+01
    0.1754341919796891E+01   -0.7398147869923652E+00    0.5000000000000000E+01
    0.1870296826774691E+01   -0.1788622905643739E+01    0.5000000000000000E+01
    0.9220614901912976E+00    0.3083720183248586E+00    0.5000000000000000E+01
    0.3101523624086016E+01    0.1777901774806180E+01    0.5000000000000000E+01
    0.2192512063922564E+01    0.1576861561598471E+01    0.5000000000000000E+01
    0.2024793420196460E+01    0.4773861992750707E+00    0.5000000000000000E+01
    0.2990627757741975E+01   -0.4878110785814084E+00    0.5000000000000000E+01
    0.0000000000000000E+00   -0.2500000000000000E+01    0.1250000000000000E+01
    0.0000000000000000E+00   -0.2500000000000000E+01    0.2500000000000000E+01
    0.0000000000000000E+00   -0.2500000000000000E+01    0.3750000000000000E+01
    0.0000000000000000E+00    0.1558308132739014E+01    0.4042003247744892E+01
    0.0000000000000000E+00   -0.1548001304379777E+01    0.9304122287900499E+00
    0.0000000000000000E+00    0.1462892710085612E+01    0.1037243024609388E+01
    0.0000000000000000E+00   -0.1445243809615570E+01    0.3946240828834967E+01
    0.0000000000000000E+00   -0.3455338993778935E+00    0.4092527262848217E+01
    0.0000000000000000E+00    0.6277660831404320E+00    0.4293103109154542E+01
    0.0000000000000000E+00    0.7429886854239611E+00    0.3241512314643519E+01
    0.0000000000000000E+00   -0.1588117879734118E+01    0.2844289952419609E+01
    0.0000000000000000E+00   -0.6002320124191652E+00    0.7159905765450471E+00
    0.0000000000000000E+00   -0.7398147869923652E+00    0.1754341919796891E+01
    0.0000000000000000E+00   -0.1788622905643739E+01    0.1870296826774691E+01
    0.0000000000000000E+00    0.3083720183248586E+00    0.9220614901912976E+00
    0.0000000000000000E+00    0.1777901774806180E+01    0.3101523624086016E+01
    0.0000000000000000E+00    0.1576861561598471E+01    0.2192512063922564E+01
[...]
POINT_DATA 213
SCALARS rho double 1
LOOKUP_TABLE default
   0.1343965967361258E+01
   0.9576972753951194E+00
   0.9477448460337644E+00
   0.9438131458496307E+00
   0.8441009500991132E+00
   0.7733576838608082E+00
   0.7630128834576814E+00
   0.7656186417491815E+00
   0.8316614375480779E+00
   0.9369663713718266E+00
   0.9354398939494628E+00
   0.9614824117912604E+00
   0.1447869012563183E+01
   0.1492319204115865E+01
   0.1642809592359505E+01
   0.1425671993524171E+01
   0.1009386316544516E+01
   0.9522697506048715E+00
   0.9451727086892394E+00
   0.9577559827873723E+00
   0.9405678787679665E+00
   0.1035489934519404E+01
   0.9260511833309245E+00
   0.9335251662471385E+00
   0.9552381749124543E+00
   0.9537149715901142E+00
   0.9360594563607830E+00
   0.9578783284239644E+00
   0.9386202175490282E+00
   0.9312265817923958E+00
   0.9460891779139652E+00
   0.8867073897387635E+00
   0.9437960444113498E+00
   0.9641219460104161E+00
   0.1007296400388521E+01
   0.1006184778433695E+01
   0.1004574959496264E+01
   0.1005751423333629E+01
   0.1004610527102487E+01
   0.1005284910612429E+01
   0.1003004652667235E+01
   0.1008151398514320E+01
   0.1023748878753366E+01
   0.1062885649307139E+01
   0.1019113286537513E+01
   0.1001827820042235E+01
   0.9658918546877271E+00
   0.1005409935450852E+01
   0.1000775310081239E+01
   0.1008827306438499E+01
   0.1007918430155065E+01
   0.1002494199680253E+01
   0.9976014237367518E+00
   0.1000593571469974E+01
   0.1001865292199464E+01
   0.9828372192140503E+00
   0.9840878143904046E+00
   0.9841380517649974E+00
   0.9802128054771911E+00
   0.9905521809282136E+00
   0.9934998277176332E+00
   0.1004778245127186E+01
   0.1004767189428653E+01
   0.1005114321528068E+01
   0.1004850286192323E+01
   0.1009544108992381E+01
   0.1004699691074773E+01
   0.9559620074550096E+00
   0.9257182865022133E+00
   0.1007687731086664E+01
   0.1004499793525848E+01
   0.9151324668690798E+00
   0.9096292341929022E+00
   0.8762723021768286E+00
   0.9757629706064828E+00
   0.9987129104665718E+00
   0.1006335541457932E+01
   0.1010818858839152E+01
   0.1010129204687206E+01
   0.1009074518695108E+01
   0.1005937111844842E+01
   0.9900076155962834E+00
   0.1003829925500742E+01
   0.9846226061780883E+00
   0.1002837187922695E+01
   0.1003882860790076E+01
   0.1003215373745395E+01
   0.1003424139086003E+01
   0.1003738532251821E+01
   0.1005281661869639E+01
   0.1003265155796141E+01
   0.1004580560392736E+01
   0.1005196429746083E+01
   0.1004060719547951E+01
   0.1004546525453528E+01
   0.1003385890657546E+01
   0.1004519397917228E+01
   0.1005791658005227E+01
   0.1004686432070655E+01
   0.1003955411400712E+01
   0.1003135933589934E+01
   0.1004406797982816E+01
   0.1004217778937461E+01
   0.1003536250770695E+01
   0.1005309733557083E+01
   0.1004812133410518E+01
   0.1004741758176708E+01
   0.1004669787410720E+01
   0.1064928020906762E+01
   0.1028650830629440E+01
   0.1009537909957066E+01
   0.1006519332401560E+01
   0.1163380979220291E+01
   0.1086055351396211E+01
   0.1007820126435039E+01
   0.1007302541926546E+01
   0.1006711537791341E+01
   0.1012984941615875E+01
   0.1019259447968478E+01
   0.1234910554299753E+01
   0.1032980185103556E+01
   0.1046583638425953E+01
   0.1200461008163515E+01
   0.1014504356458007E+01
   0.1031892368837389E+01
   0.1028375142714043E+01
   0.1014845788548421E+01
   0.1029073307065055E+01
   0.1002080407480647E+01
   0.9621401816854680E+00
   0.1006807134298613E+01
   0.1001537961973261E+01
   0.1010605446142474E+01
   0.1012248905146762E+01
   0.1001047925364485E+01
   0.9972872453265026E+00
   0.9978249677090175E+00
   0.1001116545169289E+01
   0.9838204470477447E+00
   0.9808407242273594E+00
   0.9653613811720217E+00
   0.9688902730770236E+00
   0.9913867320617933E+00
   0.9913033738121809E+00
   0.9924499654308877E+00
   0.1001939551072034E+01
   0.9994944957957321E+00
   0.9940522237211826E+00
   0.1006988072651656E+01
   0.1022221194391811E+01
   0.1000742636785412E+01
   0.1008918713620611E+01
   0.1004949826030323E+01
   0.1009093555015345E+01
   0.9967232935903861E+00
   0.1004971621824129E+01
   0.1003543350900733E+01
   0.9949818723381246E+00
   0.9827942753634455E+00
   0.9939983480075042E+00
   0.9970549763073413E+00
   0.9919138356293836E+00
   0.1001240974737821E+01
   0.1003192427333346E+01
   0.1002174556142789E+01
   0.9936100681958117E+00
   0.9937194722158907E+00
   0.1005130361499633E+01
   0.1019813425042611E+01
   0.1005421270498960E+01
   0.9816989786911648E+00
   0.1005148095029508E+01
   0.1012366735220482E+01
   0.9872336010967901E+00
   0.9550246544214627E+00
   0.9860586848210213E+00
   0.9866043131507396E+00
   0.9925193440407377E+00
   0.9931308549880071E+00
   0.9948952535539914E+00
   0.1037296046654464E+01
   0.1033015715108043E+01
   0.1001454862144302E+01
   0.1002005181980062E+01
   0.9897996521978117E+00
   0.9907251148383411E+00
   0.9646455768138139E+00
   0.9920848215135193E+00
   0.1005418868867805E+01
   0.1001496628923102E+01
   0.9910386850865121E+00
   0.9741297641339897E+00
   0.9424060725799319E+00
   0.9820102507314795E+00
   0.9791544204488390E+00
   0.9713816148961695E+00
   0.9720530691242190E+00
   0.9554278772803125E+00
   0.9502413896371530E+00
   0.9545737783715995E+00
   0.1002932458319808E+01
   0.1002562230702838E+01
   0.1000541323119279E+01
   0.1001108797917409E+01
   0.9616592909031079E+00
   0.9512265344170995E+00
   0.9602851468456669E+00
   0.1000865689596876E+01
   0.1000324352428341E+01
   0.1000906465849909E+01
   0.9809417604301164E+00
   0.9805261768072989E+00
   0.9640837780115475E+00
SCALARS u double 1
LOOKUP_TABLE default
   0.0000000000000000E+00
   0.0000000000000000E+00
   0.0000000000000000E+00
   0.0000000000000000E+00
   0.0000000000000000E+00
   0.0000000000000000E+00
   0.0000000000000000E+00
   0.0000000000000000E+00
   0.0000000000000000E+00
   0.0000000000000000E+00
   0.0000000000000000E+00
   0.0000000000000000E+00
   0.0000000000000000E+00
   0.0000000000000000E+00
   0.0000000000000000E+00
   0.0000000000000000E+00
   0.0000000000000000E+00
   0.0000000000000000E+00
   0.0000000000000000E+00
   0.0000000000000000E+00
   0.0000000000000000E+00
   0.0000000000000000E+00
   0.0000000000000000E+00
   0.0000000000000000E+00
   0.0000000000000000E+00
   0.0000000000000000E+00
   0.0000000000000000E+00
   0.0000000000000000E+00
   0.0000000000000000E+00
   0.0000000000000000E+00
   0.0000000000000000E+00
   0.0000000000000000E+00
   0.0000000000000000E+00
   0.4956088279580774E+00
   0.5336028971625063E+00
   0.5184450485667731E+00
   0.4933133805803990E+00
   0.4841981490370863E+00
   0.4837170322734495E+00
   0.4863897384830135E+00
   0.4963079453380544E+00
   0.4896567685071269E+00
   0.4720672482883191E+00
   0.4463580839630503E+00
   0.4827649172190266E+00
   0.5089240083255809E+00
   0.4407506703209860E+00
   0.4944059175836165E+00
   0.5229414833767123E+00
   0.4962113328523683E+00
   0.5227252773392220E+00
   0.5032083732056897E+00
   0.5640222653674074E+00
   0.5252398845338503E+00
   0.4980203182482278E+00
   0.5719626553429438E+00
   0.5688065660729934E+00
   0.3730025263820215E+00
   0.4007150974166583E+00
   0.5587988179882338E+00
   0.5564435980804397E+00
   0.4946070205192176E+00
   0.4954020890673326E+00
   0.4937887069142369E+00
   0.4918952700376374E+00
   0.5164135097631454E+00
   0.5359192418459211E+00
   0.4957089561466007E+00
   0.4530920750536514E+00
   0.5123877366861499E+00
   0.5107432043116159E+00
   0.4790291048519567E+00
   0.4944626124517493E+00
   0.4614927591884712E+00
   0.5257659112255718E+00
   0.5298668677555171E+00
   0.5123506250238762E+00
   0.5330012242996247E+00
   0.5309373758738016E+00
   0.5300690753576071E+00
   0.5056169292944863E+00
   0.5285423540818157E+00
   0.5403389547997647E+00
   0.5368093473229681E+00
   0.5377911719097783E+00
   0.4974925002502583E+00
   0.4981163008598484E+00
   0.4967933544981852E+00
   0.4957441690190285E+00
   0.4878915027998565E+00
   0.4876185036677977E+00
   0.4855744435298315E+00
   0.4864380783609957E+00
   0.4916982559645560E+00
   0.4891553760538692E+00
   0.4852571563337930E+00
   0.4886306924271388E+00
   0.4891593043601262E+00
   0.4864820345611880E+00
   0.4864884601892113E+00
   0.4945747634666132E+00
   0.4872882733927091E+00
   0.4875772047478150E+00
   0.4930333112384875E+00
   0.4847489963494025E+00
   0.4867503333506151E+00
   0.4860741813067671E+00
   0.4863473319724357E+00
   0.4453025378133855E+00
   0.4698446886025338E+00
   0.4891585189946812E+00
   0.4880234324272702E+00
   0.4508541986826941E+00
   0.4675635715007803E+00
   0.4875638097359808E+00
   0.4867846703495897E+00
   0.4910070760100576E+00
   0.4794303207987514E+00
   0.4668009665003809E+00
   0.3794183368842889E+00
   0.4896737062018848E+00
   0.4493542210206171E+00
   0.4441330456036574E+00
   0.4845044462871411E+00
   0.4634869326085999E+00
   0.4670678931807477E+00
   0.4748190089831315E+00
   0.4893617551337294E+00
   0.5086596075061899E+00
   0.4339262709240166E+00
   0.4926474815334926E+00
   0.5329860892466260E+00
   0.4918407843356913E+00
   0.5207224501441590E+00
   0.5065004761852714E+00
   0.5670296824456955E+00
   0.5283167985378324E+00
   0.5014208324042008E+00
   0.5802774552358705E+00
   0.5677865473202938E+00
   0.3413713418356056E+00
   0.3799191812329774E+00
   0.5737491347373478E+00
   0.5664341420465563E+00
   0.5693347635997857E+00
   0.5290190586658476E+00
   0.5447941407645644E+00
   0.5714556247126221E+00
   0.5388201780487234E+00
   0.5474922101419930E+00
   0.5819849040481277E+00
   0.4927287444362750E+00
   0.5038081360912098E+00
   0.4963777804998799E+00
   0.5560551743010416E+00
   0.4759488690332939E+00
   0.4944703449109022E+00
   0.5492269732003690E+00
   0.5873511810459013E+00
   0.5827117378078409E+00
   0.5459119783736966E+00
   0.5779713469364166E+00
   0.5101703931862749E+00
   0.5024518105344242E+00
   0.5028207581624392E+00
   0.5662368375038851E+00
   0.5559265057026942E+00
   0.4944845323916204E+00
   0.5501273442723991E+00
   0.5508114156050361E+00
   0.5651747165818234E+00
   0.4913641463298170E+00
   0.4930968994267019E+00
   0.3887840306631662E+00
   0.3712671994542446E+00
   0.5569996397391892E+00
   0.5753868691455206E+00
   0.4190741676138913E+00
   0.5815029704267909E+00
   0.4282091018123687E+00
   0.5390672021261464E+00
   0.5018184740183000E+00
   0.5109974191794857E+00
   0.5042138093843428E+00
   0.5729366098225757E+00
   0.5854507375820635E+00
   0.5377005183150035E+00
   0.5657930586905751E+00
   0.5353592580011077E+00
   0.5338428452559809E+00
   0.5573228453052225E+00
   0.5505141598938742E+00
   0.4278589440412615E+00
   0.5263781251748744E+00
   0.5780468344760217E+00
   0.3349063544382713E+00
   0.4756038250455558E+00
   0.5450194236817678E+00
   0.4812880014732728E+00
   0.3028624661804355E+00
   0.5042224177692283E+00
   0.5010712474880645E+00
   0.5127451430371303E+00
   0.5402571480027435E+00
   0.3462531766368475E+00
   0.3437558818907498E+00
   0.3211894751011670E+00
   0.5065066592573298E+00
   0.5132480548745715E+00
   0.5328474636641036E+00
   0.5867050687177638E+00
   0.4641292924093893E+00
   0.3573061432787918E+00
SCALARS v double 1
LOOKUP_TABLE default
   0.0000000000000000E+00
   0.0000000000000000E+00
   0.0000000000000000E+00
   0.0000000000000000E+00
   0.0000000000000000E+00
   0.0000000000000000E+00
   0.0000000000000000E+00
   0.0000000000000000E+00
   0.0000000000000000E+00
   0.0000000000000000E+00
   0.0000000000000000E+00
   0.0000000000000000E+00
   0.0000000000000000E+00
   0.0000000000000000E+00
   0.0000000000000000E+00
   0.0000000000000000E+00
   0.0000000000000000E+00
   0.0000000000000000E+00
   0.0000000000000000E+00
   0.0000000000000000E+00
   0.0000000000000000E+00
   0.0000000000000000E+00
   0.0000000000000000E+00
   0.0000000000000000E+00
   0.0000000000000000E+00
   0.0000000000000000E+00
   0.0000000000000000E+00
   0.0000000000000000E+00
   0.0000000000000000E+00
   0.0000000000000000E+00
   0.0000000000000000E+00
   0.0000000000000000E+00
   0.0000000000000000E+00
   0.0000000000000000E+00
   0.0000000000000000E+00
   0.0000000000000000E+00
   0.0000000000000000E+00
   0.0000000000000000E+00
   0.0000000000000000E+00
   0.0000000000000000E+00
   0.0000000000000000E+00
   0.0000000000000000E+00
   0.0000000000000000E+00
   0.0000000000000000E+00
   0.0000000000000000E+00
   0.0000000000000000E+00
   0.0000000000000000E+00
   0.0000000000000000E+00
   0.0000000000000000E+00
   0.0000000000000000E+00
   0.0000000000000000E+00
   0.0000000000000000E+00
   0.0000000000000000E+00
   0.0000000000000000E+00
   0.0000000000000000E+00
   0.0000000000000000E+00
   0.0000000000000000E+00
   0.0000000000000000E+00
   0.0000000000000000E+00
   0.0000000000000000E+00
   0.0000000000000000E+00
   0.1110944821116970E-02
   0.8894064526973654E-04
  -0.2256230878609202E-03
   0.0000000000000000E+00
   0.0000000000000000E+00
   0.0000000000000000E+00
   0.0000000000000000E+00
  -0.1826596327808529E-01
   0.5203830396425096E-03
   0.1878491900446032E-02
   0.1416255076277205E-01
  -0.6501997895116028E-02
  -0.6389586154044704E-02
  -0.1279767720188205E-01
   0.4370092550543583E-02
   0.8687744250651325E-03
   0.2912660617288497E-02
   0.1721176759205646E-02
   0.2390060014936374E-02
   0.1806295089812745E-02
  -0.7239135707328585E-02
  -0.7923524501580726E-03
   0.3835177364062297E-02
  -0.1118304361001513E-02
  -0.4335735749605121E-03
  -0.4122207881943122E-03
   0.8238327898423029E-03
   0.0000000000000000E+00
   0.0000000000000000E+00
   0.0000000000000000E+00
   0.0000000000000000E+00
   0.7713153377608533E-03
   0.1446855561920113E-02
  -0.1432454318789102E-02
  -0.1830682013448113E-03
  -0.6368228901376318E-03
   0.1554511819234782E-06
   0.1570369029092956E-03
  -0.1281326149179120E-03
  -0.1980906536937179E-03
  -0.5812876419271596E-03
   0.8187273758541633E-03
  -0.2009822802156741E-02
   0.6577135531549245E-03
   0.2670102242088095E-03
  -0.4122143515724904E-03
  -0.4041753202092435E-03
   0.0000000000000000E+00
   0.0000000000000000E+00
   0.0000000000000000E+00
  -0.8245146405772873E-03
  -0.7840960668721971E-02
   0.1754776395205897E-01
  -0.2303298222604065E-03
  -0.1392075980688440E-02
  -0.2132240684173692E-02
  -0.5225451641428838E-02
  -0.1867543432916764E-02
  -0.6503281812215077E-02
  -0.4080685783076460E-02
   0.1637819127131629E-02
   0.3279795354997321E-01
   0.3403928889287343E-04
  -0.2137299620636967E-02
   0.4117273119982696E-02
   0.3975298635946447E-03
   0.0000000000000000E+00
   0.0000000000000000E+00
   0.0000000000000000E+00
   0.0000000000000000E+00
   0.0000000000000000E+00
   0.0000000000000000E+00
   0.0000000000000000E+00
   0.0000000000000000E+00
   0.0000000000000000E+00
   0.0000000000000000E+00
   0.0000000000000000E+00
   0.0000000000000000E+00
   0.0000000000000000E+00
   0.0000000000000000E+00
   0.0000000000000000E+00
   0.0000000000000000E+00
   0.0000000000000000E+00
   0.4616975226140027E-02
   0.3357845455116897E-02
   0.8115582473694491E-02
   0.5759262541200341E-02
   0.1133093156179739E-01
   0.1381895412463594E-01
  -0.1135117681175018E-02
   0.5476402120882810E-02
   0.3081290814501596E-02
   0.3702009468428775E-02
   0.3533065014425075E-02
  -0.1539744677226767E-01
  -0.6072392080241903E-03
   0.6600773106471588E-02
   0.1225967794675762E-02
   0.2048810936515910E-02
   0.4111602296725575E-02
  -0.2954721449000049E-02
   0.1551222812071766E-02
   0.3142034597127222E-02
   0.1844151294711390E-02
   0.1980344419005433E-02
   0.1905421326938530E-02
   0.2340303359099208E-02
   0.8854545387709790E-02
  -0.3596672733561914E-02
   0.6173453806358605E-02
  -0.2538597386144429E-04
  -0.5217189253404705E-03
  -0.1694694279507760E-01
  -0.5238548425122711E-02
  -0.5401912136841085E-02
   0.3390622979099583E-02
  -0.6456338052352098E-02
  -0.2496867360521230E-03
  -0.3423380087850593E-01
  -0.2794928477452365E-02
   0.4829281621059014E-02
   0.1165738645989886E-02
   0.2409666458378162E-02
   0.3800483073659840E-02
   0.2521483343754031E-02
   0.2787006694930417E-02
   0.4652276077031414E-02
   0.1860294817798684E-02
   0.5598144921086582E-03
   0.1109449444485937E-03
  -0.5015274396435348E-02
  -0.6123223580155567E-02
  -0.7179795388203528E-03
   0.7534682025674274E-03
  -0.1629172508750645E-02
  -0.3315608028325917E-02
  -0.2686693072536930E-02
  -0.4637902135161851E-02
  -0.7870486869304218E-02
  -0.1984609546383578E-02
   0.7342676460962099E-03
  -0.4820012175667747E-04
   0.8017466273223293E-03
  -0.3054426385926705E-02
   0.5726048117904615E-02
  -0.8604835634598887E-02
   0.1214044241866185E-03
  -0.2437893749334391E-03
   0.2381684854019329E-02
   0.1773419331178803E-02
   0.2220241717569617E-02
  -0.5479036280233504E-02
SCALARS w double 1
LOOKUP_TABLE default
   0.0000000000000000E+00
   0.0000000000000000E+00
   0.0000000000000000E+00
   0.0000000000000000E+00
   0.0000000000000000E+00
   0.0000000000000000E+00
   0.0000000000000000E+00
   0.0000000000000000E+00
   0.0000000000000000E+00
   0.0000000000000000E+00
   0.0000000000000000E+00
   0.0000000000000000E+00
   0.0000000000000000E+00
   0.0000000000000000E+00
   0.0000000000000000E+00
   0.0000000000000000E+00
   0.0000000000000000E+00
   0.0000000000000000E+00
   0.0000000000000000E+00
   0.0000000000000000E+00
   0.0000000000000000E+00
   0.0000000000000000E+00
   0.0000000000000000E+00
   0.0000000000000000E+00
   0.0000000000000000E+00
   0.0000000000000000E+00
   0.0000000000000000E+00
   0.0000000000000000E+00
   0.0000000000000000E+00
   0.0000000000000000E+00
   0.0000000000000000E+00
   0.0000000000000000E+00
   0.0000000000000000E+00
  -0.9793387821193923E-01
  -0.4158652058114092E-01
  -0.2643200422698447E-03
   0.4776968890468788E-02
   0.2336531059816422E-02
   0.2066946314875983E-02
   0.3698109461534393E-02
   0.4497601859211161E-02
   0.8752498603512523E-03
   0.3710510028672439E-02
   0.4555783651108908E-01
   0.6454513631710418E-01
   0.1417952843746857E-02
  -0.2246873494306542E-01
   0.4383443134211695E-02
   0.1306963535102924E-01
   0.1014724336766790E-01
   0.4836323716723610E-01
   0.2042153397161444E-02
  -0.5983567419897927E-02
  -0.3671686968126951E-03
   0.6866347377083752E-03
   0.3705292494525411E-02
  -0.3772537495828045E-01
   0.1772882150721728E-01
   0.1080267788506437E-01
   0.3306513084978814E-01
   0.8295032238235358E-02
   0.4265551521753124E-02
   0.4617427841971129E-02
   0.4884783255757935E-02
   0.5663977709778565E-02
   0.1691087857480426E-02
  -0.4052102371107023E-01
  -0.9691550193891836E-01
  -0.1096890438947125E+00
   0.4373725760265222E-02
   0.2875303160162181E-02
  -0.9736388222416520E-01
  -0.9617761213647540E-01
  -0.9618032307210268E-01
  -0.9224873704363162E-01
  -0.6624934260865464E-01
   0.3937943191209731E-02
  -0.1958109040192531E-01
  -0.1613554991225024E-01
  -0.7363644045616997E-02
   0.5393789538769380E-02
  -0.7799400328912814E-01
  -0.2811874279497463E-01
  -0.7850874647133814E-01
  -0.5795367555379249E-01
   0.4480258664458189E-02
   0.3182641580670195E-02
   0.3181670384357724E-02
   0.4452986884561179E-02
   0.3707631694926439E-02
   0.9145225471727439E-03
   0.1024229974158736E-02
   0.3497665245705542E-02
   0.5421220973132893E-02
   0.4199489199747562E-02
   0.3488250813662549E-02
   0.1479916677759551E-02
   0.3869357838142482E-02
   0.1323527028285946E-02
   0.4042516997119003E-03
   0.5468668062088611E-02
   0.2804196250850366E-02
   0.2554744919469444E-02
   0.5857587399793275E-02
   0.1779116018497367E-02
   0.2308782797163030E-02
   0.2015540209742998E-02
   0.8912502004713564E-03
   0.8439718193284525E-01
   0.2689248676458275E-02
  -0.8532159851183078E-03
   0.2965013970282488E-03
   0.1406940852519500E+00
   0.1228215764969619E+00
  -0.1103850441402500E-02
  -0.4226933959802339E-02
   0.1938024588885214E-03
  -0.6072658419269563E-02
  -0.1406601217893220E-02
   0.1562297201044497E+00
   0.7533013643571233E-01
   0.2578699985125071E-01
   0.1655557647620430E+00