# vtk DataFile Version 2.0
FUN3D:global_image_vtk
ASCII
DATASET UNSTRUCTURED_GRID
POINTS 213 double
    0.0000000000000000E+00    0.2500000000000000E+01    0.0000000000000000E+00
    0.1250000000000000E+01    0.2500000000000000E+01    0.0000000000000000E+00
    0.2500000000000000E+01    0.2500000000000000E+01    0.0000000000000000E+00
    0.3750000000000000E+01    0.2500000000000000E+01    0.0000000000000000E+00
    0.5000000000000000E+01    0.2500000000000000E+01    0.0000000000000000E+00
    0.5000000000000000E+01    0.1250000000000000E+01    0.0000000000000000E+00
    0.5000000000000000E+01    0.0000000000000000E+00    0.0000000000000000E+00
    0.5000000000000000E+01   -0.1250000000000000E+01    0.0000000000000000E+00
    0.5000000000000000E+01   -0.2500000000000000E+01    0.0000000000000000E+00
    0.3750000000000000E+01   -0.2500000000000000E+01    0.0000000000000000E+00
    0.2500000000000000E+01   -0.2500000000000000E+01    0.0000000000000000E+00
    0.1250000000000000E+01   -0.2500000000000000E+01    0.0000000000000000E+00
    0.0000000000000000E+00   -0.2500000000000000E+01    0.0000000000000000E+00
    0.0000000000000000E+00   -0.1250000000000000E+01    0.0000000000000000E+00
    0.0000000000000000E+00    0.0000000000000000E+00    0.0000000000000000E+00
    0.0000000000000000E+00    0.1250000000000000E+01    0.0000000000000000E+00
    0.9058375365086910E+00    0.1578994732800803E+01    0.0000000000000000E+00
    0.3982050490726493E+01   -0.1583989954232354E+01    0.0000000000000000E+00
    0.4033849428301197E+01    0.1453322699199022E+01    0.0000000000000000E+00
    0.1040505887381675E+01   -0.1479596339503735E+01    0.0000000000000000E+00
    0.1099454400140349E+01   -0.3227322616384110E+00    0.0000000000000000E+00
    0.7354504170366591E+00    0.6593508822075582E+00    0.0000000000000000E+00
    0.1622302608453282E+01    0.8256214013940779E+00    0.0000000000000000E+00
    0.2145871574390382E+01   -0.1650070333782557E+01    0.0000000000000000E+00
    0.4086422318222992E+01   -0.4612828702537229E+00    0.0000000000000000E+00
    0.2979540174134984E+01   -0.8579242121530853E+00    0.0000000000000000E+00
    0.3045064261640043E+01   -0.1836846154397680E+01    0.0000000000000000E+00
    0.3428197553792836E+01    0.3508002863614053E+00    0.0000000000000000E+00
    0.4309693860063405E+01    0.5185680230613409E+00    0.0000000000000000E+00
    0.1827272193562204E+01    0.1738996113203182E+01    0.0000000000000000E+00
    0.2808563282768077E+01    0.1325493893339706E+01    0.0000000000000000E+00
    0.1895995683864404E+01   -0.8731419609589618E+00    0.0000000000000000E+00
    0.2273179336307740E+01    0.4906150219227333E-01    0.0000000000000000E+00
    0.5000000000000000E+01    0.2500000000000000E+01    0.1250000000000000E+01
    0.5000000000000000E+01    0.2500000000000000E+01    0.2500000000000000E+01
    0.5000000000000000E+01    0.2500000000000000E+01    0.3750000000000000E+01
    0.5000000000000000E+01    0.2500000000000000E+01    0.5000000000000000E+01
    0.3750000000000000E+01    0.2500000000000000E+01    0.5000000000000000E+01
    0.2500000000000000E+01    0.2500000000000000E+01    0.5000000000000000E+01
    0.1250000000000000E+01    0.2500000000000000E+01    0.5000000000000000E+01
    0.0000000000000000E+00    0.2500000000000000E+01    0.5000000000000000E+01
    0.0000000000000000E+00    0.2500000000000000E+01    0.3750000000000000E+01
    0.0000000000000000E+00    0.2500000000000000E+01    0.2500000000000000E+01
    0.0000000000000000E+00    0.2500000000000000E+01    0.1250000000000000E+01
    0.9631080833812172E+00    0.2500000000000000E+01    0.9613285771248219E+00
    0.3981732467264904E+01    0.2500000000000000E+01    0.4069753913607991E+01
    0.4035525118777670E+01    0.2500000000000000E+01    0.1012015867579395E+01
    0.9641717640894248E+00    0.2500000000000000E+01    0.3972455192261839E+01
    0.1547743040396780E+01    0.2500000000000000E+01    0.2928177746738678E+01
    0.6985170616192014E+00    0.2500000000000000E+01    0.3068281976055466E+01
    0.8931277594515110E+00    0.2500000000000000E+01    0.2052465503257726E+01
    0.2183293750162785E+01    0.2500000000000000E+01    0.3959073795658649E+01
    0.3855333506014705E+01    0.2500000000000000E+01    0.2931218481500625E+01
    0.3152495579421047E+01    0.2500000000000000E+01    0.3635850502723324E+01
    0.3103247580566054E+01    0.2500000000000000E+01    0.4331682712472464E+01
    0.3266837581688852E+01    0.2500000000000000E+01    0.1886092433583972E+01
    0.4231539241296245E+01    0.2500000000000000E+01    0.1915865356532799E+01
    0.1909741006522088E+01    0.2500000000000000E+01    0.7170024419130505E+00
    0.2880784107213163E+01    0.2500000000000000E+01    0.9046598906449592E+00
    0.2014316024535771E+01    0.2500000000000000E+01    0.1762464314805728E+01
    0.2670003247036656E+01    0.2500000000000000E+01    0.2850479545835163E+01
    0.5000000000000000E+01    0.1250000000000000E+01    0.5000000000000000E+01
    0.5000000000000000E+01    0.0000000000000000E+00    0.5000000000000000E+01
    0.5000000000000000E+01   -0.1250000000000000E+01    0.5000000000000000E+01
    0.5000000000000000E+01   -0.2500000000000000E+01    0.5000000000000000E+01
    0.5000000000000000E+01   -0.2500000000000000E+01    0.3750000000000000E+01
    0.5000000000000000E+01   -0.2500000000000000E+01    0.2500000000000000E+01
    0.5000000000000000E+01   -0.2500000000000000E+01    0.1250000000000000E+01
    0.5000000000000000E+01    0.1578994732800803E+01    0.9058375365086910E+00
    0.5000000000000000E+01   -0.1583989954232354E+01    0.3982050490726493E+01
    0.5000000000000000E+01    0.1453322699199022E+01    0.4033849428301197E+01
    0.5000000000000000E+01   -0.1479596339503735E+01    0.1040505887381675E+01
    0.5000000000000000E+01   -0.3227322616384110E+00    0.1099454400140349E+01
    0.5000000000000000E+01    0.6593508822075582E+00    0.7354504170366591E+00
    0.5000000000000000E+01    0.8256214013940779E+00    0.1622302608453282E+01
    0.5000000000000000E+01   -0.1650070333782557E+01    0.2145871574390382E+01
    0.5000000000000000E+01   -0.4612828702537229E+00    0.4086422318222992E+01
    0.5000000000000000E+01   -0.8579242121530853E+00    0.2979540174134984E+01
    0.5000000000000000E+01   -0.1836846154397680E+01    0.3045064261640043E+01
    0.5000000000000000E+01    0.3508002863614053E+00    0.3428197553792836E+01
    0.5000000000000000E+01    0.5185680230613409E+00    0.4309693860063405E+01
    0.5000000000000000E+01    0.1738996113203182E+01    0.1827272193562204E+01
    0.5000000000000000E+01    0.1325493893339706E+01    0.2808563282768077E+01
    0.5000000000000000E+01   -0.8731419609589618E+00    0.1895995683864404E+01
    0.5000000000000000E+01    0.4906150219227333E-01    0.2273179336307740E+01
    0.0000000000000000E+00    0.1250000000000000E+01    0.5000000000000000E+01
    0.0000000000000000E+00    0.0000000000000000E+00    0.5000000000000000E+01
    0.0000000000000000E+00   -0.1250000000000000E+01    0.5000000000000000E+01
    0.0000000000000000E+00   -0.2500000000000000E+01    0.5000000000000000E+01
    0.1250000000000000E+01   -0.2500000000000000E+01    0.5000000000000000E+01
    0.2500000000000000E+01   -0.2500000000000000E+01    0.5000000000000000E+01
    0.3750000000000000E+01   -0.2500000000000000E+01    0.5000000000000000E+01
    0.4042003247744892E+01    0.1558308132739014E+01    0.5000000000000000E+01
    0.9304122287900499E+00   -0.1548001304379777E+01    0.5000000000000000E+01
    0.1037243024609388E+01    0.1462892710085612E+01    0.5000000000000000E+01
    0.3946240828834967E+01   -0.1445243809615570E+01    0.5000000000000000E+01
    0.4092527262848217E+01   -0.3455338993778935E+00    0.5000000000000000E+01
    0.4293103109154542E+01    0.6277660831404320E+00    0.5000000000000000E+01
    0.3241512314643519E+01    0.7429886854239611E+00    0.5000000000000000E+01
    0.2844289952419609E+01   -0.1588117879734118E+01    0.5000000000000000E+01
    0.7159905765450471E+00   -0.6002320124191652E+00    0.5000000000000000E+01
    0.1754341919796891E+01   -0.7398147869923652E+00    0.5000000000000000E+01
    0.1870296826774691E+01   -0.1788622905643739E+01    0.5000000000000000E+01
    0.9220614901912976E+00    0.3083720183248586E+00    0.5000000000000000E+01
    0.3101523624086016E+01    0.1777901774806180E+01    0.5000000000000000E+01
    0.2192512063922564E+01    0.1576861561598471E+01    0.5000000000000000E+01
    0.2024793420196460E+01    0.4773861992750707E+00    0.5000000000000000E+01
    0.2990627757741975E+01   -0.4878110785814084E+00    0.5000000000000000E+01
    0.0000000000000000E+00   -0.2500000000000000E+01    0.1250000000000000E+01
    0.0000000000000000E+00   -0.2500000000000000E+01    0.2500000000000000E+01
    0.0000000000000000E+00   -0.2500000000000000E+01    0.3750000000000000E+01
    0.0000000000000000E+00    0.1558308132739014E+01    0.4042003247744892E+01
    0.0000000000000000E+00   -0.1548001304379777E+01    0.9304122287900499E+00
    0.0000000000000000E+00    0.1462892710085612E+01    0.1037243024609388E+01
    0.0000000000000000E+00   -0.1445243809615570E+01    0.3946240828834967E+01
    0.0000000000000000E+00   -0.3455338993778935E+00    0.4092527262848217E+01
    0.0000000000000000E+00    0.6277660831404320E+00    0.4293103109154542E+01
    0.0000000000000000E+00    0.7429886854239611E+00    0.3241512314643519E+01
    0.0000000000000000E+00   -0.1588117879734118E+01    0.2844289952419609E+01
    0.0000000000000000E+00   -0.6002320124191652E+00    0.7159905765450471E+00
    0.0000000000000000E+00   -0.7398147869923652E+00    0.1754341919796891E+01
    0.0000000000000000E+00   -0.1788622905643739E+01    0.1870296826774691E+01
    0.0000000000000000E+00    0.3083720183248586E+00    0.9220614901912976E+00
    0.0000000000000000E+00    0.1777901774806180E+01    0.3101523624086016E+01
    0.0000000000000000E+00    0.1576861561598471E+01    0.2192512063922564E+01
[...]
POINT_DATA 213
SCALARS rho double 1
LOOKUP_TABLE default
   0.1344267012605114E+01
   0.9569620334089558E+00
   0.9462826839516553E+00
   0.9418683848361976E+00
   0.8437288270385827E+00
   0.7737785027748966E+00
   0.7629655335374157E+00
   0.7664231987329925E+00
   0.8307795791162259E+00
   0.9352921270271179E+00
   0.9341975947013740E+00
   0.9617063672707600E+00
   0.1449458145814803E+01
   0.1494082260025548E+01
   0.1644657579059564E+01
   0.1425833243701455E+01
   0.1009002244821835E+01
   0.9508646775522951E+00
   0.9436502650667513E+00
   0.9581489086989780E+00
   0.9415724159376420E+00
   0.1036366299094411E+01
   0.9255999318675702E+00
   0.9322179633235261E+00
   0.9537387295734983E+00
   0.9518642144125243E+00
   0.9348365665073765E+00
   0.9563934993204354E+00
   0.9376030635674072E+00
   0.9300513986743477E+00
   0.9445029160279433E+00
   0.8863352794539188E+00
   0.9423501368658216E+00
   0.9635378215305144E+00
   0.1008308816420600E+01
   0.1006769192184070E+01
   0.1001857477627242E+01
   0.1003124459470146E+01
   0.1004093802994551E+01
   0.1005222970051707E+01
   0.1004259124264139E+01
   0.1008292614807840E+01
   0.1023882348128015E+01
   0.1063537223938010E+01
   0.1019173466853123E+01
   0.1001771535090639E+01
   0.9644010175349803E+00
   0.1005265186662305E+01
   0.1000700066518921E+01
   0.1008724216460106E+01
   0.1008060749697034E+01
   0.1002336141638105E+01
   0.9980001409716462E+00
   0.1000580101673415E+01
   0.1001603197484464E+01
   0.9826720317101337E+00
   0.9842340561077646E+00
   0.9833218566045921E+00
   0.9788541671888495E+00
   0.9902494658386162E+00
   0.9934419869569213E+00
   0.1001926398282106E+01
   0.1002058846481357E+01
   0.1002230166273827E+01
   0.1001729288458310E+01
   0.1009794417376360E+01
   0.1006420935366886E+01
   0.9558518586030343E+00
   0.9249384799470327E+00
   0.1007036466071000E+01
   0.1004507811473213E+01
   0.9143645049372677E+00
   0.9089893964396273E+00
   0.8751868723420723E+00
   0.9766925962557605E+00
   0.1000419764338737E+01
   0.1005832486416894E+01
   0.1012901387347022E+01
   0.1011639591940181E+01
   0.1010468741037018E+01
   0.1005447286698385E+01
   0.9907369309300394E+00
   0.1005160984541199E+01
   0.9860350808210115E+00
   0.1005591815492817E+01
   0.1004242228799782E+01
   0.1002869574392265E+01
   0.1003327520974344E+01
   0.1003986596370291E+01
   0.1005087301921170E+01
   0.1003200196753253E+01
   0.1002632328547593E+01
   0.1002499085238959E+01
   0.1004049300866500E+01
   0.1004298169835243E+01
   0.1001608577294070E+01
   0.1002211483889750E+01
   0.1002464942677482E+01
   0.1003437273300963E+01
   0.1003363256682151E+01
   0.1003220434349309E+01
   0.1004417354531357E+01
   0.1004307315978241E+01
   0.1003649598113846E+01
   0.1003660288073588E+01
   0.1004304099950935E+01
   0.1004446788214362E+01
   0.1003592197391740E+01
   0.1064415892495439E+01
   0.1028463303419794E+01
   0.1009570538009999E+01
   0.1006630233147851E+01
   0.1163915952549950E+01
   0.1086088956733520E+01
   0.1007875703534810E+01
   0.1007229067467779E+01
   0.1006789465613201E+01
   0.1013007951121018E+01
   0.1019369739320332E+01
   0.1235197105967268E+01
   0.1032525198402396E+01
   0.1046663651151150E+01
   0.1200941084792266E+01
   0.1014711034447747E+01
   0.1032275203337441E+01
   0.1028080402255441E+01
   0.1014614952846329E+01
   0.1029208802661879E+01
   0.1001987058595103E+01
   0.9607032364211442E+00
   0.1006839686108905E+01
   0.1001310168371875E+01
   0.1010807273747165E+01
   0.1012236439405843E+01
   0.1000934542287274E+01
   0.9979042888571750E+00
   0.9980562526999750E+00
   0.1001168934197136E+01
   0.9841073311021336E+00
   0.9814616484756006E+00
   0.9648470897317871E+00
   0.9680776368551348E+00
   0.9914092089526855E+00
   0.9910730728396654E+00
   0.9925395475916753E+00
   0.1001710413858267E+01
   0.9993232977981851E+00
   0.9941281323238471E+00
   0.1007024421331362E+01
   0.1022528039281668E+01
   0.1001086544535033E+01
   0.1008782630074897E+01
   0.1004757532977923E+01
   0.1009029261918891E+01
   0.9966337570323989E+00
   0.1004979678323806E+01
   0.1003316804742584E+01
   0.9949326954284925E+00
   0.9832512907717317E+00
   0.9943801867486057E+00
   0.9973370813513384E+00
   0.9931993230595408E+00
   0.1001297996812837E+01
   0.1002993522477029E+01
   0.1002168356689085E+01
   0.9947060779685122E+00
   0.9937906937728230E+00
   0.1004853217294633E+01
   0.1020064253337416E+01
   0.1005353752799174E+01
   0.9816911514400811E+00
   0.1004961378703244E+01
   0.1012366190350123E+01
   0.9871320569920852E+00
   0.9551461649349382E+00
   0.9864982443464110E+00
   0.9864417856481104E+00
   0.9918881080731046E+00
   0.9933389888296542E+00
   0.9954305779213541E+00
   0.1037328900855673E+01
   0.1033524496470905E+01
   0.1001426029574974E+01
   0.1001912801822390E+01
   0.9912324224862826E+00
   0.9910790415422651E+00
   0.9648200236017647E+00
   0.9933159689028196E+00
   0.1006058190781408E+01
   0.1001951445851770E+01
   0.9908606841870297E+00
   0.9740756600857956E+00
   0.9418723948020679E+00
   0.9819200914273433E+00
   0.9794670296733868E+00
   0.9704193766534741E+00
   0.9720239418538835E+00
   0.9557222765994631E+00
   0.9496779684648481E+00
   0.9528788111209553E+00
   0.1002641724752680E+01
   0.1002466660925386E+01
   0.1000501760963283E+01
   0.1001691470547684E+01
   0.9607697483486018E+00
   0.9492033420652951E+00
   0.9584631977450694E+00
   0.1001115862812621E+01
   0.1000492359692288E+01
   0.1001169299577818E+01
   0.9807286208012242E+00
   0.9805902047437255E+00
   0.9628514388303593E+00
SCALARS u double 1
LOOKUP_TABLE default
   0.0000000000000000E+00
   0.0000000000000000E+00
   0.0000000000000000E+00
   0.0000000000000000E+00
   0.0000000000000000E+00
   0.0000000000000000E+00
   0.0000000000000000E+00
   0.0000000000000000E+00
   0.0000000000000000E+00
   0.0000000000000000E+00
   0.0000000000000000E+00
   0.0000000000000000E+00
   0.0000000000000000E+00
   0.0000000000000000E+00
   0.0000000000000000E+00
   0.0000000000000000E+00
   0.0000000000000000E+00
   0.0000000000000000E+00
   0.0000000000000000E+00
   0.0000000000000000E+00
   0.0000000000000000E+00
   0.0000000000000000E+00
   0.0000000000000000E+00
   0.0000000000000000E+00
   0.0000000000000000E+00
   0.0000000000000000E+00
   0.0000000000000000E+00
   0.0000000000000000E+00
   0.0000000000000000E+00
   0.0000000000000000E+00
   0.0000000000000000E+00
   0.0000000000000000E+00
   0.0000000000000000E+00
   0.4949278830137457E+00
   0.5338112573448121E+00
   0.5183807329838481E+00
   0.4930034841820413E+00
   0.4845359639666749E+00
   0.4867358494578664E+00
   0.4891296827573622E+00
   0.4958382995008248E+00
   0.4898330492949362E+00
   0.4717517664997019E+00
   0.4455021593042224E+00
   0.4833967746064153E+00
   0.5099454999100795E+00
   0.4390219936918819E+00
   0.4949635059948521E+00
   0.5225566256218923E+00
   0.4962573745086791E+00
   0.5226346094049071E+00
   0.5039535201415214E+00
   0.5647638574463262E+00
   0.5248437878111665E+00
   0.4992291381257260E+00
   0.5730321158777769E+00
   0.5695644889729604E+00
   0.3737818149209737E+00
   0.3998085538446599E+00
   0.5599353496894521E+00
   0.5565001966173597E+00
   0.4941813992305449E+00
   0.4948052120450732E+00
   0.4925088040306354E+00
   0.4913885557852863E+00
   0.5162950047711696E+00
   0.5361795627152810E+00
   0.4947210278721202E+00
   0.4523786178983719E+00
   0.5129045062434817E+00
   0.5118476409628311E+00
   0.4783159229654673E+00
   0.4931484082086155E+00
   0.4602858063983438E+00
   0.5245013192722099E+00
   0.5297469835747955E+00
   0.5129821422261801E+00
   0.5328335667444339E+00
   0.5309087781595370E+00
   0.5310009737422442E+00
   0.5063871072535997E+00
   0.5282251787067215E+00
   0.5410274026007884E+00
   0.5361270551833509E+00
   0.5374182780072188E+00
   0.4965531454995095E+00
   0.4975464781791003E+00
   0.4963925670690170E+00
   0.4955397964706365E+00
   0.4904527082834744E+00
   0.4902488184214258E+00
   0.4860455916377359E+00
   0.4851910956939602E+00
   0.4932252261633880E+00
   0.4910081431027010E+00
   0.4830821636880083E+00
   0.4871170094036725E+00
   0.4878477587377216E+00
   0.4871553983340294E+00
   0.4881579533757693E+00
   0.4952683140460568E+00
   0.4900944237470378E+00
   0.4903796501429358E+00
   0.4944436877486382E+00
   0.4866873871756867E+00
   0.4892339652291273E+00
   0.4881387703089787E+00
   0.4877631458313824E+00
   0.4446943045117062E+00
   0.4700133571335336E+00
   0.4892142242443910E+00
   0.4885079335268035E+00
   0.4506815292064297E+00
   0.4687225020587091E+00
   0.4877080641234083E+00
   0.4868379884511344E+00
   0.4909073557997432E+00
   0.4793680996316304E+00
   0.4658289088607785E+00
   0.3792814396885384E+00
   0.4901621220471523E+00
   0.4486862230563562E+00
   0.4436310716925012E+00
   0.4845238725026909E+00
   0.4622157392697722E+00
   0.4665991079208474E+00
   0.4748309156862385E+00
   0.4894644237957126E+00
   0.5086550539501857E+00
   0.4314870149731788E+00
   0.4927489958613947E+00
   0.5318444359640212E+00
   0.4913494633182972E+00
   0.5207125673687385E+00
   0.5061666752819228E+00
   0.5689355775021538E+00
   0.5274827395190874E+00
   0.5015535828717287E+00
   0.5821440462633982E+00
   0.5689329851997533E+00
   0.3406475286544071E+00
   0.3789657077878260E+00
   0.5751939191336179E+00
   0.5666642869205309E+00
   0.5704151782986991E+00
   0.5291209052061320E+00
   0.5452011432414939E+00
   0.5718763412317320E+00
   0.5389245377513936E+00
   0.5475596039437280E+00
   0.5821760119503637E+00
   0.4925752682634303E+00
   0.5042528469136115E+00
   0.4961885203515845E+00
   0.5565263683509492E+00
   0.4758940624373578E+00
   0.4950522657863747E+00
   0.5498882796534423E+00
   0.5891054195267073E+00
   0.5842296313086044E+00
   0.5469767085380537E+00
   0.5805360493885340E+00
   0.5106923148472245E+00
   0.5030846381253481E+00
   0.5034173153207142E+00
   0.5676683822953581E+00
   0.5564306285845430E+00
   0.4947552085326878E+00
   0.5505317347637403E+00
   0.5510885864884423E+00
   0.5657340317514921E+00
   0.4920277499091107E+00
   0.4927385198538258E+00
   0.3865374071497890E+00
   0.3688047609267900E+00
   0.5574785249419794E+00
   0.5763755109812190E+00
   0.4194224112890530E+00
   0.5824673330225288E+00
   0.4265483711672503E+00
   0.5392952491409808E+00
   0.5012211006711580E+00
   0.5120001188024019E+00
   0.5049940153683116E+00
   0.5751857645710303E+00
   0.5876531094293507E+00
   0.5379510674246896E+00
   0.5677452006312464E+00
   0.5351892300386478E+00
   0.5338507262547501E+00
   0.5580391326523687E+00
   0.5512159833660547E+00
   0.4261539333279572E+00
   0.5273063725505928E+00
   0.5795607659944215E+00
   0.3319009015787289E+00
   0.4760038868352547E+00
   0.5446177410100093E+00
   0.4798246978314078E+00
   0.3005436022014854E+00
   0.5031224201693933E+00
   0.5017683487156721E+00
   0.5129547810609189E+00
   0.5415535060060651E+00
   0.3437629131582963E+00
   0.3398105923929950E+00
   0.3189704043049147E+00
   0.5066520739092109E+00
   0.5124251027440593E+00
   0.5331277801584391E+00
   0.5879313269480440E+00
   0.4644225947000767E+00
   0.3531739650459745E+00
SCALARS v double 1
LOOKUP_TABLE default
   0.0000000000000000E+00
   0.0000000000000000E+00
   0.0000000000000000E+00
   0.0000000000000000E+00
   0.0000000000000000E+00
   0.0000000000000000E+00
   0.0000000000000000E+00
   0.0000000000000000E+00
   0.0000000000000000E+00
   0.0000000000000000E+00
   0.0000000000000000E+00
   0.0000000000000000E+00
   0.0000000000000000E+00
   0.0000000000000000E+00
   0.0000000000000000E+00
   0.0000000000000000E+00
   0.0000000000000000E+00
   0.0000000000000000E+00
   0.0000000000000000E+00
   0.0000000000000000E+00
   0.0000000000000000E+00
   0.0000000000000000E+00
   0.0000000000000000E+00
   0.0000000000000000E+00
   0.0000000000000000E+00
   0.0000000000000000E+00
   0.0000000000000000E+00
   0.0000000000000000E+00
   0.0000000000000000E+00
   0.0000000000000000E+00
   0.0000000000000000E+00
   0.0000000000000000E+00
   0.0000000000000000E+00
   0.0000000000000000E+00
   0.0000000000000000E+00
   0.0000000000000000E+00
   0.0000000000000000E+00
   0.0000000000000000E+00
   0.0000000000000000E+00
   0.0000000000000000E+00
   0.0000000000000000E+00
   0.0000000000000000E+00
   0.0000000000000000E+00
   0.0000000000000000E+00
   0.0000000000000000E+00
   0.0000000000000000E+00
   0.0000000000000000E+00
   0.0000000000000000E+00
   0.0000000000000000E+00
   0.0000000000000000E+00
   0.0000000000000000E+00
   0.0000000000000000E+00
   0.0000000000000000E+00
   0.0000000000000000E+00
   0.0000000000000000E+00
   0.0000000000000000E+00
   0.0000000000000000E+00
   0.0000000000000000E+00
   0.0000000000000000E+00
   0.0000000000000000E+00
   0.0000000000000000E+00
   0.8482663044068116E-03
  -0.1304809177578692E-02
  -0.1340582180453539E-02
   0.0000000000000000E+00
   0.0000000000000000E+00
   0.0000000000000000E+00
   0.0000000000000000E+00
  -0.1923078252075816E-01
   0.4847958181657284E-03
   0.2195886907062750E-02
   0.1426111883896100E-01
  -0.6492474273775185E-02
  -0.7805616498719843E-02
  -0.1326830779216425E-01
   0.4917522513937863E-02
   0.7041412591369522E-03
   0.3452769909596733E-02
   0.1930187708284931E-02
   0.3168879671286921E-02
   0.1729140279746810E-02
  -0.7321897607891478E-02
  -0.7611052967329175E-04
   0.4468149284643847E-02
  -0.4237846542667227E-03
  -0.6678084821817631E-04
  -0.1962045233157260E-03
   0.8183880635967348E-03
   0.0000000000000000E+00
   0.0000000000000000E+00
   0.0000000000000000E+00
   0.0000000000000000E+00
   0.4671037486316420E-03
   0.1639442483438271E-02
  -0.1311299477654080E-02
  -0.1035797619097107E-02
  -0.2155056633709200E-02
  -0.1051923471020312E-02
  -0.8338626257111927E-03
  -0.7493787356645662E-03
   0.6587514640117748E-04
  -0.5940800657390288E-03
   0.8051523455301984E-03
  -0.1744965074866726E-02
   0.2675505881886628E-03
  -0.1031848489437969E-03
  -0.9479563014584956E-03
  -0.1104273184393327E-02
   0.0000000000000000E+00
   0.0000000000000000E+00
   0.0000000000000000E+00
  -0.1062547033984586E-02
  -0.7643247017816285E-02
   0.1860875971804585E-01
  -0.2860875055242117E-04
  -0.1392507837062562E-02
  -0.2043723407235560E-02
  -0.5677095902262556E-02
  -0.1593403468983956E-02
  -0.5949644080068357E-02
  -0.4165078041567476E-02
   0.1565902358633499E-02
   0.3329587465710324E-01
   0.2717119247892591E-04
  -0.2767415698531636E-02
   0.3563870378784029E-02
   0.3507527963838588E-03
   0.0000000000000000E+00
   0.0000000000000000E+00
   0.0000000000000000E+00
   0.0000000000000000E+00
   0.0000000000000000E+00
   0.0000000000000000E+00
   0.0000000000000000E+00
   0.0000000000000000E+00
   0.0000000000000000E+00
   0.0000000000000000E+00
   0.0000000000000000E+00
   0.0000000000000000E+00
   0.0000000000000000E+00
   0.0000000000000000E+00
   0.0000000000000000E+00
   0.0000000000000000E+00
   0.0000000000000000E+00
   0.5062168356029977E-02
   0.3232573647265837E-02
   0.8161448075333949E-02
   0.6169393944921208E-02
   0.1123167016889198E-01
   0.1429342669152518E-01
  -0.2049566695623157E-03
   0.5112349512282559E-02
   0.2924181925421955E-02
   0.3374560073590562E-02
   0.3731860073082427E-02
  -0.1466846450418955E-01
  -0.6098932702409274E-03
   0.6672313353294350E-02
   0.1543590830028216E-02
   0.1983929106682329E-02
   0.4297978827058696E-02
  -0.2770261789911144E-02
   0.1248641045218602E-02
   0.2837719063444568E-02
   0.1523869550177067E-02
   0.2602701696449779E-02
   0.2047987097328925E-02
   0.2124922809748230E-02
   0.8698335956490728E-02
  -0.3737753636801135E-02
   0.6242120524245338E-02
   0.3334277535654007E-04
  -0.3946629101402073E-03
  -0.1677884914057974E-01
  -0.4892217982586749E-02
  -0.4720315654081780E-02
   0.3447899682139189E-02
  -0.6151600187712812E-02
   0.9568134109204909E-04
  -0.3292955289467828E-01
  -0.3045441257879225E-02
   0.4726500267657173E-02
   0.9418248456573936E-03
   0.2128824205087129E-02
   0.4537397766099898E-02
   0.2724989729554132E-02
   0.3212934153428770E-02
   0.5207172748142546E-02
   0.1947749621110322E-02
   0.7433350550413169E-03
  -0.2612150743627369E-04
  -0.5378989391016597E-02
  -0.6963751447398216E-02
  -0.9632106463372301E-03
   0.1118466691570744E-02
  -0.2075607360361613E-02
  -0.3192058366046826E-02
  -0.2523485566335291E-02
  -0.4120845429080119E-02
  -0.7597846694605975E-02
  -0.1995693158228185E-02
   0.6427049678681571E-03
  -0.2129251184441340E-03
   0.1239494512821175E-02
  -0.3507952825113891E-02
   0.5219762449694004E-02
  -0.8489354617794511E-02
   0.2876554820848840E-04
  -0.3440166879632364E-03
   0.2559417533539004E-02
   0.1663761890612632E-02
   0.2025161911993290E-02
  -0.5634429946659665E-02
SCALARS w double 1
LOOKUP_TABLE default
   0.0000000000000000E+00
   0.0000000000000000E+00
   0.0000000000000000E+00
   0.0000000000000000E+00
   0.0000000000000000E+00
   0.0000000000000000E+00
   0.0000000000000000E+00
   0.0000000000000000E+00
   0.0000000000000000E+00
   0.0000000000000000E+00
   0.0000000000000000E+00
   0.0000000000000000E+00
   0.0000000000000000E+00
   0.0000000000000000E+00
   0.0000000000000000E+00
   0.0000000000000000E+00
   0.0000000000000000E+00
   0.0000000000000000E+00
   0.0000000000000000E+00
   0.0000000000000000E+00
   0.0000000000000000E+00
   0.0000000000000000E+00
   0.0000000000000000E+00
   0.0000000000000000E+00
   0.0000000000000000E+00
   0.0000000000000000E+00
   0.0000000000000000E+00
   0.0000000000000000E+00
   0.0000000000000000E+00
   0.0000000000000000E+00
   0.0000000000000000E+00
   0.0000000000000000E+00
   0.0000000000000000E+00
  -0.1007682224302990E+00
  -0.4250163548822077E-01
   0.8003977479638364E-03
   0.5838626760785638E-02
   0.6843978669318243E-03
   0.1636366113680479E-02
   0.3339558827903081E-02
   0.2343076526184091E-02
   0.4494777522003855E-03
   0.3515597923239614E-02
   0.4522733769373755E-01
   0.6522545425619619E-01
   0.9260773284723549E-03
  -0.2263933854443256E-01
   0.4312180567518246E-02
   0.1361076514885606E-01
   0.1039593140590796E-01
   0.4901013750178591E-01
   0.2440223314178524E-02
  -0.6507074688460152E-02
  -0.6965274286847489E-03
   0.3399677030543528E-03
   0.3907621352633739E-02
  -0.3895810459603500E-01
   0.1798256886390445E-01
   0.1120032624158686E-01
   0.3404880318334625E-01
   0.8456288918506029E-02
   0.4998654412585963E-02
   0.5009528752353036E-02
   0.4891471993616571E-02
   0.6070359927437255E-02
   0.2618934260557889E-02
  -0.4147031471691353E-01
  -0.9954686109982049E-01
  -0.1121627056016744E+00
   0.5101983373004932E-02
   0.4315345315151825E-02
  -0.1004494777922803E+00
  -0.9891172198773551E-01
  -0.9872416195647468E-01
  -0.9459750217646680E-01
  -0.6807735200375353E-01
   0.5209471413331774E-02
  -0.1933491761697141E-01
  -0.1576566131860129E-01
  -0.5957717828276012E-02
   0.6898337070682437E-02
  -0.8011052382941868E-01
  -0.2780051386463437E-01
  -0.8093431514830499E-01
  -0.5870810911971597E-01
   0.3061935654869533E-02
   0.2691047438630612E-02
   0.2653917900921665E-02
   0.3447456463583987E-02
   0.4000659103825119E-02
   0.1202943376706313E-02
  -0.1419856664901265E-03
   0.2129885285451911E-02
   0.4886461166317041E-02
   0.3841657304199581E-02
   0.1118130808510698E-02
   0.1225644564367287E-02
   0.1515727687679108E-02
   0.1565564948693388E-05
   0.7662048398876093E-04
   0.4380883616418836E-02
   0.2696883021878959E-02
   0.2314565629285831E-02
   0.4995452067795420E-02
   0.1138644421521469E-02
   0.2713089060493300E-02
   0.1994183651939767E-02
   0.4315629448039500E-04
   0.8373818413710300E-01
   0.2783369673561790E-02
  -0.8384869650619527E-03
  -0.1612721911674509E-03
   0.1409485922914110E+00
   0.1239155922531138E+00
  -0.1198499651569195E-02
  -0.4382545479260164E-02
  -0.3167620608992354E-03
  -0.6515694361838369E-02
  -0.1956923940395567E-02
   0.1557643574972224E+00
   0.7489214615076280E-01
   0.2549333466741849E-01
   0.1656404332549400E+00