# vtk DataFile Version 2.0
FUN3D:global_image_vtk
ASCII
DATASET UNSTRUCTURED_GRID
POINTS 213 double
    0.0000000000000000E+00    0.2500000000000000E+01    0.0000000000000000E+00
    0.1250000000000000E+01    0.2500000000000000E+01    0.0000000000000000E+00
    0.2500000000000000E+01    0.2500000000000000E+01    0.0000000000000000E+00
    0.3750000000000000E+01    0.2500000000000000E+01    0.0000000000000000E+00
    0.5000000000000000E+01    0.2500000000000000E+01    0.0000000000000000E+00
    0.5000000000000000E+01    0.1250000000000000E+01    0.0000000000000000E+00
    0.5000000000000000E+01    0.0000000000000000E+00    0.0000000000000000E+00
    0.5000000000000000E+01   -0.1250000000000000E+01    0.0000000000000000E+00
    0.5000000000000000E+01   -0.2500000000000000E+01    0.0000000000000000E+00
    0.3750000000000000E+01   -0.2500000000000000E+01    0.0000000000000000E+00
    0.2500000000000000E+01   -0.2500000000000000E+01    0.0000000000000000E+00
    0.1250000000000000E+01   -0.2500000000000000E+01    0.0000000000000000E+00
    0.0000000000000000E+00   -0.2500000000000000E+01    0.0000000000000000E+00
    0.0000000000000000E+00   -0.1250000000000000E+01    0.0000000000000000E+00
    0.0000000000000000E+00    0.0000000000000000E+00    0.0000000000000000E+00
    0.0000000000000000E+00    0.1250000000000000E+01    0.0000000000000000E+00
    0.9058375365086910E+00    0.1578994732800803E+01    0.0000000000000000E+00
    0.3982050490726493E+01   -0.1583989954232354E+01    0.0000000000000000E+00
    0.4033849428301197E+01    0.1453322699199022E+01    0.0000000000000000E+00
    0.1040505887381675E+01   -0.1479596339503735E+01    0.0000000000000000E+00
    0.1099454400140349E+01   -0.3227322616384110E+00    0.0000000000000000E+00
    0.7354504170366591E+00    0.6593508822075582E+00    0.0000000000000000E+00
    0.1622302608453282E+01    0.8256214013940779E+00    0.0000000000000000E+00
    0.2145871574390382E+01   -0.1650070333782557E+01    0.0000000000000000E+00
    0.4086422318222992E+01   -0.4612828702537229E+00    0.0000000000000000E+00
    0.2979540174134984E+01   -0.8579242121530853E+00    0.0000000000000000E+00
    0.3045064261640043E+01   -0.1836846154397680E+01    0.0000000000000000E+00
    0.3428197553792836E+01    0.3508002863614053E+00    0.0000000000000000E+00
    0.4309693860063405E+01    0.5185680230613409E+00    0.0000000000000000E+00
    0.1827272193562204E+01    0.1738996113203182E+01    0.0000000000000000E+00
    0.2808563282768077E+01    0.1325493893339706E+01    0.0000000000000000E+00
    0.1895995683864404E+01   -0.8731419609589618E+00    0.0000000000000000E+00
    0.2273179336307740E+01    0.4906150219227333E-01    0.0000000000000000E+00
    0.5000000000000000E+01    0.2500000000000000E+01    0.1250000000000000E+01
    0.5000000000000000E+01    0.2500000000000000E+01    0.2500000000000000E+01
    0.5000000000000000E+01    0.2500000000000000E+01    0.3750000000000000E+01
    0.5000000000000000E+01    0.2500000000000000E+01    0.5000000000000000E+01
    0.3750000000000000E+01    0.2500000000000000E+01    0.5000000000000000E+01
    0.2500000000000000E+01    0.2500000000000000E+01    0.5000000000000000E+01
    0.1250000000000000E+01    0.2500000000000000E+01    0.5000000000000000E+01
    0.0000000000000000E+00    0.2500000000000000E+01    0.5000000000000000E+01
    0.0000000000000000E+00    0.2500000000000000E+01    0.3750000000000000E+01
    0.0000000000000000E+00    0.2500000000000000E+01    0.2500000000000000E+01
    0.0000000000000000E+00    0.2500000000000000E+01    0.1250000000000000E+01
    0.9631080833812172E+00    0.2500000000000000E+01    0.9613285771248219E+00
    0.3981732467264904E+01    0.2500000000000000E+01    0.4069753913607991E+01
    0.4035525118777670E+01    0.2500000000000000E+01    0.1012015867579395E+01
    0.9641717640894248E+00    0.2500000000000000E+01    0.3972455192261839E+01
    0.1547743040396780E+01    0.2500000000000000E+01    0.2928177746738678E+01
    0.6985170616192014E+00    0.2500000000000000E+01    0.3068281976055466E+01
    0.8931277594515110E+00    0.2500000000000000E+01    0.2052465503257726E+01
    0.2183293750162785E+01    0.2500000000000000E+01    0.3959073795658649E+01
    0.3855333506014705E+01    0.2500000000000000E+01    0.2931218481500625E+01
    0.3152495579421047E+01    0.2500000000000000E+01    0.3635850502723324E+01
    0.3103247580566054E+01    0.2500000000000000E+01    0.4331682712472464E+01
    0.3266837581688852E+01    0.2500000000000000E+01    0.1886092433583972E+01
    0.4231539241296245E+01    0.2500000000000000E+01    0.1915865356532799E+01
    0.1909741006522088E+01    0.2500000000000000E+01    0.7170024419130505E+00
    0.2880784107213163E+01    0.2500000000000000E+01    0.9046598906449592E+00
    0.2014316024535771E+01    0.2500000000000000E+01    0.1762464314805728E+01
    0.2670003247036656E+01    0.2500000000000000E+01    0.2850479545835163E+01
    0.5000000000000000E+01    0.1250000000000000E+01    0.5000000000000000E+01
    0.5000000000000000E+01    0.0000000000000000E+00    0.5000000000000000E+01
    0.5000000000000000E+01   -0.1250000000000000E+01    0.5000000000000000E+01
    0.5000000000000000E+01   -0.2500000000000000E+01    0.5000000000000000E+01
    0.5000000000000000E+01   -0.2500000000000000E+01    0.3750000000000000E+01
    0.5000000000000000E+01   -0.2500000000000000E+01    0.2500000000000000E+01
    0.5000000000000000E+01   -0.2500000000000000E+01    0.1250000000000000E+01
    0.5000000000000000E+01    0.1578994732800803E+01    0.9058375365086910E+00
    0.5000000000000000E+01   -0.1583989954232354E+01    0.3982050490726493E+01
    0.5000000000000000E+01    0.1453322699199022E+01    0.4033849428301197E+01
    0.5000000000000000E+01   -0.1479596339503735E+01    0.1040505887381675E+01
    0.5000000000000000E+01   -0.3227322616384110E+00    0.1099454400140349E+01
    0.5000000000000000E+01    0.6593508822075582E+00    0.7354504170366591E+00
    0.5000000000000000E+01    0.8256214013940779E+00    0.1622302608453282E+01
    0.5000000000000000E+01   -0.1650070333782557E+01    0.2145871574390382E+01
    0.5000000000000000E+01   -0.4612828702537229E+00    0.4086422318222992E+01
    0.5000000000000000E+01   -0.8579242121530853E+00    0.2979540174134984E+01
    0.5000000000000000E+01   -0.1836846154397680E+01    0.3045064261640043E+01
    0.5000000000000000E+01    0.3508002863614053E+00    0.3428197553792836E+01
    0.5000000000000000E+01    0.5185680230613409E+00    0.4309693860063405E+01
    0.5000000000000000E+01    0.1738996113203182E+01    0.1827272193562204E+01
    0.5000000000000000E+01    0.1325493893339706E+01    0.2808563282768077E+01
    0.5000000000000000E+01   -0.8731419609589618E+00    0.1895995683864404E+01
    0.5000000000000000E+01    0.4906150219227333E-01    0.2273179336307740E+01
    0.0000000000000000E+00    0.1250000000000000E+01    0.5000000000000000E+01
    0.0000000000000000E+00    0.0000000000000000E+00    0.5000000000000000E+01
    0.0000000000000000E+00   -0.1250000000000000E+01    0.5000000000000000E+01
    0.0000000000000000E+00   -0.2500000000000000E+01    0.5000000000000000E+01
    0.1250000000000000E+01   -0.2500000000000000E+01    0.5000000000000000E+01
    0.2500000000000000E+01   -0.2500000000000000E+01    0.5000000000000000E+01
    0.3750000000000000E+01   -0.2500000000000000E+01    0.5000000000000000E+01
    0.4042003247744892E+01    0.1558308132739014E+01    0.5000000000000000E+01
    0.9304122287900499E+00   -0.1548001304379777E+01    0.5000000000000000E+01
    0.1037243024609388E+01    0.1462892710085612E+01    0.5000000000000000E+01
    0.3946240828834967E+01   -0.1445243809615570E+01    0.5000000000000000E+01
    0.4092527262848217E+01   -0.3455338993778935E+00    0.5000000000000000E+01
    0.4293103109154542E+01    0.6277660831404320E+00    0.5000000000000000E+01
    0.3241512314643519E+01    0.7429886854239611E+00    0.5000000000000000E+01
    0.2844289952419609E+01   -0.1588117879734118E+01    0.5000000000000000E+01
    0.7159905765450471E+00   -0.6002320124191652E+00    0.5000000000000000E+01
    0.1754341919796891E+01   -0.7398147869923652E+00    0.5000000000000000E+01
    0.1870296826774691E+01   -0.1788622905643739E+01    0.5000000000000000E+01
    0.9220614901912976E+00    0.3083720183248586E+00    0.5000000000000000E+01
    0.3101523624086016E+01    0.1777901774806180E+01    0.5000000000000000E+01
    0.2192512063922564E+01    0.1576861561598471E+01    0.5000000000000000E+01
    0.2024793420196460E+01    0.4773861992750707E+00    0.5000000000000000E+01
    0.2990627757741975E+01   -0.4878110785814084E+00    0.5000000000000000E+01
    0.0000000000000000E+00   -0.2500000000000000E+01    0.1250000000000000E+01
    0.0000000000000000E+00   -0.2500000000000000E+01    0.2500000000000000E+01
    0.0000000000000000E+00   -0.2500000000000000E+01    0.3750000000000000E+01
    0.0000000000000000E+00    0.1558308132739014E+01    0.4042003247744892E+01
    0.0000000000000000E+00   -0.1548001304379777E+01    0.9304122287900499E+00
    0.0000000000000000E+00    0.1462892710085612E+01    0.1037243024609388E+01
    0.0000000000000000E+00   -0.1445243809615570E+01    0.3946240828834967E+01
    0.0000000000000000E+00   -0.3455338993778935E+00    0.4092527262848217E+01
    0.0000000000000000E+00    0.6277660831404320E+00    0.4293103109154542E+01
    0.0000000000000000E+00    0.7429886854239611E+00    0.3241512314643519E+01
    0.0000000000000000E+00   -0.1588117879734118E+01    0.2844289952419609E+01
    0.0000000000000000E+00   -0.6002320124191652E+00    0.7159905765450471E+00
    0.0000000000000000E+00   -0.7398147869923652E+00    0.1754341919796891E+01
    0.0000000000000000E+00   -0.1788622905643739E+01    0.1870296826774691E+01
    0.0000000000000000E+00    0.3083720183248586E+00    0.9220614901912976E+00
    0.0000000000000000E+00    0.1777901774806180E+01    0.3101523624086016E+01
    0.0000000000000000E+00    0.1576861561598471E+01    0.2192512063922564E+01
[...]
POINT_DATA 213
SCALARS rho double 1
LOOKUP_TABLE default
   0.1344271449481010E+01
   0.9569758915090717E+00
   0.9462964199942975E+00
   0.9418612718804131E+00
   0.8437304900210927E+00
   0.7738004321749808E+00
   0.7629818919818033E+00
   0.7664577916027796E+00
   0.8307874043080207E+00
   0.9352972563273103E+00
   0.9342219821102421E+00
   0.9617195283841276E+00
   0.1449457451673650E+01
   0.1494090643699776E+01
   0.1644667276147435E+01
   0.1425832049093673E+01
   0.1009014435302862E+01
   0.9508810862103908E+00
   0.9436508501492125E+00
   0.9581561033002068E+00
   0.9415852462527134E+00
   0.1036377240375227E+01
   0.9256161100220656E+00
   0.9322349870107471E+00
   0.9537479576635908E+00
   0.9518769565782442E+00
   0.9348583126983294E+00
   0.9564028417861519E+00
   0.9376098401087354E+00
   0.9300661525099077E+00
   0.9445157492991659E+00
   0.8863506519477488E+00
   0.9423579969765519E+00
   0.9635003082805735E+00
   0.1008299039482373E+01
   0.1006735291822471E+01
   0.1001964617665440E+01
   0.1003219581567524E+01
   0.1004132053993982E+01
   0.1005228602951834E+01
   0.1004260408264568E+01
   0.1008308189993960E+01
   0.1023893137978430E+01
   0.1063553956074608E+01
   0.1019182513273769E+01
   0.1001780766428170E+01
   0.9643309943331682E+00
   0.1005283709002868E+01
   0.1000721163301342E+01
   0.1008742083828575E+01
   0.1008078083663901E+01
   0.1002349807131658E+01
   0.9979986848117147E+00
   0.1000583560955096E+01
   0.1001620123672512E+01
   0.9826893073532654E+00
   0.9842439642791315E+00
   0.9833314036598981E+00
   0.9788207413010498E+00
   0.9902638161388541E+00
   0.9934561553292537E+00
   0.1002011751743031E+01
   0.1002134465735862E+01
   0.1002276326550809E+01
   0.1001794758390362E+01
   0.1009778638905887E+01
   0.1006429109024260E+01
   0.9558786960786668E+00
   0.9249398412010719E+00
   0.1007036755536034E+01
   0.1004504925170582E+01
   0.9143642076264260E+00
   0.9089667860434271E+00
   0.8751688902114639E+00
   0.9767271885179120E+00
   0.1000452621143560E+01
   0.1005831087461412E+01
   0.1012882803225357E+01
   0.1011618951282522E+01
   0.1010438648579531E+01
   0.1005468280909902E+01
   0.9907612679436368E+00
   0.1005140325679864E+01
   0.9860567246207905E+00
   0.1005609737635086E+01
   0.1004248005729758E+01
   0.1002888437714598E+01
   0.1003345420471272E+01
   0.1003992731896332E+01
   0.1005101716194834E+01
   0.1003211645189703E+01
   0.1002663159994390E+01
   0.1002586231512524E+01
   0.1004060870969496E+01
   0.1004320346060183E+01
   0.1001641920419283E+01
   0.1002273116055553E+01
   0.1002543475697098E+01
   0.1003469520874867E+01
   0.1003372640303964E+01
   0.1003232230068731E+01
   0.1004423863489293E+01
   0.1004313070876158E+01
   0.1003659849427324E+01
   0.1003723103973010E+01
   0.1004329726472058E+01
   0.1004465021918560E+01
   0.1003623375363626E+01
   0.1064422801032855E+01
   0.1028473621441048E+01
   0.1009586657353018E+01
   0.1006638837502853E+01
   0.1163935522338593E+01
   0.1086087969823573E+01
   0.1007893419300523E+01
   0.1007245533334929E+01
   0.1006798074168853E+01
   0.1013018286991577E+01
   0.1019384609552247E+01
   0.1235203669738466E+01
   0.1032529466774163E+01
   0.1046681191639058E+01
   0.1200953642408235E+01
   0.1014718916060390E+01
   0.1032291153277989E+01
   0.1028095236759868E+01
   0.1014628639856446E+01
   0.1029216893260122E+01
   0.1001994816406896E+01
   0.9606929196647087E+00
   0.1006852582830619E+01
   0.1001327193351717E+01
   0.1010821905405042E+01
   0.1012246098896538E+01
   0.1000946006954876E+01
   0.9979121234098175E+00
   0.9980632372921174E+00
   0.1001184143402092E+01
   0.9841362011913295E+00
   0.9814879615521026E+00
   0.9648483321744642E+00
   0.9680877128964059E+00
   0.9914124472192157E+00
   0.9910858388738278E+00
   0.9925545095913703E+00
   0.1001727533889360E+01
   0.9993409402182587E+00
   0.9941410835154730E+00
   0.1007038753602186E+01
   0.1022539494130506E+01
   0.1001088098511167E+01
   0.1008798496288535E+01
   0.1004773846118662E+01
   0.1009050237477489E+01
   0.9966470332403105E+00
   0.1004988557943107E+01
   0.1003325535205790E+01
   0.9949431085464534E+00
   0.9832680782084808E+00
   0.9943957455112334E+00
   0.9973420656314086E+00
   0.9932190085551361E+00
   0.1001306487168216E+01
   0.1003001636976272E+01
   0.1002183579660368E+01
   0.9947078545014120E+00
   0.9937965521469850E+00
   0.1004867865550866E+01
   0.1020077607437800E+01
   0.1005364552425812E+01
   0.9816998152638384E+00
   0.1004973031264094E+01
   0.1012382323434558E+01
   0.9871424295773272E+00
   0.9551513534485017E+00
   0.9865075700216623E+00
   0.9864532950083069E+00
   0.9918946943727489E+00
   0.9933508198283082E+00
   0.9954406189258294E+00
   0.1037336789704919E+01
   0.1033536797909119E+01
   0.1001443320811035E+01
   0.1001930499790541E+01
   0.9912478515931994E+00
   0.9910920509402943E+00
   0.9648489990444497E+00
   0.9933282604812420E+00
   0.1006058638640942E+01
   0.1001954027115892E+01
   0.9908735804735387E+00
   0.9740945213254106E+00
   0.9418802141486664E+00
   0.9819379691867804E+00
   0.9794803560580641E+00
   0.9704172061463746E+00
   0.9720478946553534E+00
   0.9557351702761947E+00
   0.9496731212992741E+00
   0.9528673571447313E+00
   0.1002659534050964E+01
   0.1002471631959596E+01
   0.1000509329296508E+01
   0.1001677321736874E+01
   0.9607931434284405E+00
   0.9491625506065727E+00
   0.9584503067974406E+00
   0.1001121207777750E+01
   0.1000496140584322E+01
   0.1001156644185359E+01
   0.9807376183663591E+00
   0.9806000808537261E+00
   0.9628476108742342E+00
SCALARS u double 1
LOOKUP_TABLE default
   0.0000000000000000E+00
   0.0000000000000000E+00
   0.0000000000000000E+00
   0.0000000000000000E+00
   0.0000000000000000E+00
   0.0000000000000000E+00
   0.0000000000000000E+00
   0.0000000000000000E+00
   0.0000000000000000E+00
   0.0000000000000000E+00
   0.0000000000000000E+00
   0.0000000000000000E+00
   0.0000000000000000E+00
   0.0000000000000000E+00
   0.0000000000000000E+00
   0.0000000000000000E+00
   0.0000000000000000E+00
   0.0000000000000000E+00
   0.0000000000000000E+00
   0.0000000000000000E+00
   0.0000000000000000E+00
   0.0000000000000000E+00
   0.0000000000000000E+00
   0.0000000000000000E+00
   0.0000000000000000E+00
   0.0000000000000000E+00
   0.0000000000000000E+00
   0.0000000000000000E+00
   0.0000000000000000E+00
   0.0000000000000000E+00
   0.0000000000000000E+00
   0.0000000000000000E+00
   0.0000000000000000E+00
   0.4950176832506775E+00
   0.5338221300828218E+00
   0.5183269247409256E+00
   0.4930649880357788E+00
   0.4847578719968206E+00
   0.4867666424072500E+00
   0.4890763583346773E+00
   0.4957848880269694E+00
   0.4898301883939474E+00
   0.4717388493670264E+00
   0.4454814153819595E+00
   0.4833907048647005E+00
   0.5098397461690229E+00
   0.4390712700200529E+00
   0.4949403964736722E+00
   0.5225330362436321E+00
   0.4962454545743190E+00
   0.5226154963585494E+00
   0.5038881742877945E+00
   0.5646883608801546E+00
   0.5247509156477895E+00
   0.4991466119210732E+00
   0.5730561900841807E+00
   0.5696051096005266E+00
   0.3737941449584004E+00
   0.3998658124605791E+00
   0.5599326587175135E+00
   0.5564587630362821E+00
   0.4942627333404475E+00
   0.4948659466722131E+00
   0.4925735874435229E+00
   0.4914269544064458E+00
   0.5162356851341813E+00
   0.5361798305821446E+00
   0.4947413356360003E+00
   0.4524112202861812E+00
   0.5128777325993285E+00
   0.5117942040583754E+00
   0.4783517504930431E+00
   0.4931696656102006E+00
   0.4603173593012125E+00
   0.5244892720378438E+00
   0.5297434248084487E+00
   0.5129579301067539E+00
   0.5328358320150390E+00
   0.5308941037718082E+00
   0.5309856170753797E+00
   0.5063656735640926E+00
   0.5282461955525616E+00
   0.5410312730826673E+00
   0.5361261481243479E+00
   0.5374105276807893E+00
   0.4965364818615675E+00
   0.4975340903888268E+00
   0.4963842644431353E+00
   0.4955220267455852E+00
   0.4904581830813551E+00
   0.4903044385064393E+00
   0.4862182764148743E+00
   0.4854049562148781E+00
   0.4932164387881945E+00
   0.4909833312274272E+00
   0.4832194696700861E+00
   0.4872622778112383E+00
   0.4880124911013803E+00
   0.4872445932134005E+00
   0.4882696669200449E+00
   0.4952597556430678E+00
   0.4900967167625325E+00
   0.4904000090405902E+00
   0.4944232925516715E+00
   0.4868002481098013E+00
   0.4892385983947330E+00
   0.4881393369843806E+00
   0.4878457829096332E+00
   0.4446866579242864E+00
   0.4700028779896620E+00
   0.4891999056333598E+00
   0.4885247843617162E+00
   0.4506533043429569E+00
   0.4687378565592983E+00
   0.4877010456614411E+00
   0.4868353683221581E+00
   0.4908994715893432E+00
   0.4793551576489716E+00
   0.4658071746717340E+00
   0.3792725227123269E+00
   0.4901596529939509E+00
   0.4486686689914173E+00
   0.4436137389966959E+00
   0.4845147241040607E+00
   0.4621822645105032E+00
   0.4665749534178564E+00
   0.4748140299119786E+00
   0.4894494216051773E+00
   0.5085556973683377E+00
   0.4315073869411508E+00
   0.4927349360883754E+00
   0.5318289234038523E+00
   0.4913399195853347E+00
   0.5207019993068025E+00
   0.5060964599278730E+00
   0.5688797395450100E+00
   0.5273992817920365E+00
   0.5015044841351214E+00
   0.5821790085930523E+00
   0.5689618251353028E+00
   0.3406394442037478E+00
   0.3789869410108831E+00
   0.5751958206842700E+00
   0.5666485493328125E+00
   0.5704108782977232E+00
   0.5291056376003255E+00
   0.5451902710823394E+00
   0.5718804315001558E+00
   0.5389079125553859E+00
   0.5475507504576765E+00
   0.5821713868826104E+00
   0.4925601784183737E+00
   0.5042157545951562E+00
   0.4961735435862912E+00
   0.5565207962866802E+00
   0.4758845212852019E+00
   0.4950268383263202E+00
   0.5498525443150979E+00
   0.5891202295935833E+00
   0.5841957608990823E+00
   0.5469097664364239E+00
   0.5805417617808825E+00
   0.5106251438144110E+00
   0.5030200512750720E+00
   0.5033624679573444E+00
   0.5676446096660225E+00
   0.5563943082609694E+00
   0.4947255973049675E+00
   0.5505243828504962E+00
   0.5510857281377008E+00
   0.5657350949540161E+00
   0.4920070017396266E+00
   0.4927299096345391E+00
   0.3865140567682114E+00
   0.3687754531917907E+00
   0.5574921716708925E+00
   0.5763755545253691E+00
   0.4194304389881728E+00
   0.5824843240091326E+00
   0.4265209611199902E+00
   0.5392799843559599E+00
   0.5012032759506917E+00
   0.5119513208013113E+00
   0.5049119463304540E+00
   0.5751974973807793E+00
   0.5876371360366096E+00
   0.5379907804190847E+00
   0.5677472540303278E+00
   0.5351248666887781E+00
   0.5338056379664395E+00
   0.5580313798354817E+00
   0.5512707859979045E+00
   0.4261852750700777E+00
   0.5273356176641670E+00
   0.5795712528924278E+00
   0.3318687131145933E+00
   0.4760283322365406E+00
   0.5446196252368196E+00
   0.4798331896492675E+00
   0.3005293504848690E+00
   0.5031051137972299E+00
   0.5017115977381947E+00
   0.5129033210819486E+00
   0.5414840108436845E+00
   0.3437603851553515E+00
   0.3397710712280058E+00
   0.3189928566759080E+00
   0.5065936051753084E+00
   0.5123483779921689E+00
   0.5330313519309597E+00
   0.5879310000323592E+00
   0.4644180532781645E+00
   0.3531270506226616E+00
SCALARS v double 1
LOOKUP_TABLE default
   0.0000000000000000E+00
   0.0000000000000000E+00
   0.0000000000000000E+00
   0.0000000000000000E+00
   0.0000000000000000E+00
   0.0000000000000000E+00
   0.0000000000000000E+00
   0.0000000000000000E+00
   0.0000000000000000E+00
   0.0000000000000000E+00
   0.0000000000000000E+00
   0.0000000000000000E+00
   0.0000000000000000E+00
   0.0000000000000000E+00
   0.0000000000000000E+00
   0.0000000000000000E+00
   0.0000000000000000E+00
   0.0000000000000000E+00
   0.0000000000000000E+00
   0.0000000000000000E+00
   0.0000000000000000E+00
   0.0000000000000000E+00
   0.0000000000000000E+00
   0.0000000000000000E+00
   0.0000000000000000E+00
   0.0000000000000000E+00
   0.0000000000000000E+00
   0.0000000000000000E+00
   0.0000000000000000E+00
   0.0000000000000000E+00
   0.0000000000000000E+00
   0.0000000000000000E+00
   0.0000000000000000E+00
   0.0000000000000000E+00
   0.0000000000000000E+00
   0.0000000000000000E+00
   0.0000000000000000E+00
   0.0000000000000000E+00
   0.0000000000000000E+00
   0.0000000000000000E+00
   0.0000000000000000E+00
   0.0000000000000000E+00
   0.0000000000000000E+00
   0.0000000000000000E+00
   0.0000000000000000E+00
   0.0000000000000000E+00
   0.0000000000000000E+00
   0.0000000000000000E+00
   0.0000000000000000E+00
   0.0000000000000000E+00
   0.0000000000000000E+00
   0.0000000000000000E+00
   0.0000000000000000E+00
   0.0000000000000000E+00
   0.0000000000000000E+00
   0.0000000000000000E+00
   0.0000000000000000E+00
   0.0000000000000000E+00
   0.0000000000000000E+00
   0.0000000000000000E+00
   0.0000000000000000E+00
   0.7970254967072086E-03
  -0.1329294640528253E-02
  -0.1332592722912989E-02
   0.0000000000000000E+00
   0.0000000000000000E+00
   0.0000000000000000E+00
   0.0000000000000000E+00
  -0.1922562577059840E-01
   0.4770618160435428E-03
   0.2183360162699839E-02
   0.1427333018112396E-01
  -0.6488282117147133E-02
  -0.7821623102235354E-02
  -0.1327725064116701E-01
   0.4914481804526154E-02
   0.6907121686773110E-03
   0.3434418433959254E-02
   0.1920847392147693E-02
   0.3147960207965856E-02
   0.1704778351999008E-02
  -0.7316187412832027E-02
  -0.7701903521617223E-04
   0.4468738037286591E-02
  -0.4387156495934999E-03
  -0.6383742816553923E-04
  -0.1963394591965209E-03
   0.8071268033571523E-03
   0.0000000000000000E+00
   0.0000000000000000E+00
   0.0000000000000000E+00
   0.0000000000000000E+00
   0.4257020592170199E-03
   0.1616304636569935E-02
  -0.1297550943820336E-02
  -0.1022774940278834E-02
  -0.2134342358313778E-02
  -0.1064012606470400E-02
  -0.8200064067565889E-03
  -0.7617032824800851E-03
   0.5202259266792724E-04
  -0.6244091778594337E-03
   0.7916469211271392E-03
  -0.1745238506912586E-02
   0.2747128712971982E-03
  -0.8939747105766199E-04
  -0.9424310096548523E-03
  -0.1100227506413057E-02
   0.0000000000000000E+00
   0.0000000000000000E+00
   0.0000000000000000E+00
  -0.1061759102945957E-02
  -0.7641128847155677E-02
   0.1860854757293347E-01
  -0.2834554155194667E-04
  -0.1383129151974669E-02
  -0.2035122971677168E-02
  -0.5666383182355213E-02
  -0.1585210202227170E-02
  -0.5947016486508983E-02
  -0.4160601906664698E-02
   0.1565614820527563E-02
   0.3329524830490427E-01
   0.3055141363836145E-04
  -0.2766884863240133E-02
   0.3566484715900674E-02
   0.3596189374098072E-03
   0.0000000000000000E+00
   0.0000000000000000E+00
   0.0000000000000000E+00
   0.0000000000000000E+00
   0.0000000000000000E+00
   0.0000000000000000E+00
   0.0000000000000000E+00
   0.0000000000000000E+00
   0.0000000000000000E+00
   0.0000000000000000E+00
   0.0000000000000000E+00
   0.0000000000000000E+00
   0.0000000000000000E+00
   0.0000000000000000E+00
   0.0000000000000000E+00
   0.0000000000000000E+00
   0.0000000000000000E+00
   0.5047032579543805E-02
   0.3230791958613807E-02
   0.8149134293401455E-02
   0.6168366998421894E-02
   0.1122928641932032E-01
   0.1429277502250128E-01
  -0.2038826786305971E-03
   0.5118221837491056E-02
   0.2914950547914010E-02
   0.3373611841471650E-02
   0.3728336438307658E-02
  -0.1465719872334857E-01
  -0.6159699926672511E-03
   0.6651630352304600E-02
   0.1542014250829440E-02
   0.1969646526343514E-02
   0.4266273533484449E-02
  -0.2790960951493682E-02
   0.1226887061812349E-02
   0.2819172486890100E-02
   0.1497449158875190E-02
   0.2575339043622177E-02
   0.2030646448005278E-02
   0.2118046071650353E-02
   0.8700410481303537E-02
  -0.3733396983483962E-02
   0.6241189121045832E-02
   0.2516488818596857E-04
  -0.3854044908237069E-03
  -0.1674679014467113E-01
  -0.4881976925861681E-02
  -0.4720000827256609E-02
   0.3445223057335376E-02
  -0.6135724110845233E-02
   0.9934520589129536E-04
  -0.3291372932809818E-01
  -0.3046196728816525E-02
   0.4722743219998635E-02
   0.9228367764001734E-03
   0.2112175226642408E-02
   0.4518755697485374E-02
   0.2720465289986049E-02
   0.3212576504259953E-02
   0.5200804226679502E-02
   0.1941838963859956E-02
   0.7315897365277628E-03
  -0.2555237749668007E-04
  -0.5374632817138899E-02
  -0.6959591108029625E-02
  -0.9443816254360416E-03
   0.1105268432505414E-02
  -0.2080554142502159E-02
  -0.3200035931871538E-02
  -0.2527833394157439E-02
  -0.4115193601356985E-02
  -0.7593954954591537E-02
  -0.1985686405440834E-02
   0.6240402786769952E-03
  -0.2239081913569441E-03
   0.1216949768653183E-02
  -0.3483958336645273E-02
   0.5229139879455225E-02
  -0.8487626039350420E-02
   0.2315169242746347E-04
  -0.3395192914235466E-03
   0.2542663547592458E-02
   0.1663457702833874E-02
   0.2021438732275976E-02
  -0.5620784016465073E-02
SCALARS w double 1
LOOKUP_TABLE default
   0.0000000000000000E+00
   0.0000000000000000E+00
   0.0000000000000000E+00
   0.0000000000000000E+00
   0.0000000000000000E+00
   0.0000000000000000E+00
   0.0000000000000000E+00
   0.0000000000000000E+00
   0.0000000000000000E+00
   0.0000000000000000E+00
   0.0000000000000000E+00
   0.0000000000000000E+00
   0.0000000000000000E+00
   0.0000000000000000E+00
   0.0000000000000000E+00
   0.0000000000000000E+00
   0.0000000000000000E+00
   0.0000000000000000E+00
   0.0000000000000000E+00
   0.0000000000000000E+00
   0.0000000000000000E+00
   0.0000000000000000E+00
   0.0000000000000000E+00
   0.0000000000000000E+00
   0.0000000000000000E+00
   0.0000000000000000E+00
   0.0000000000000000E+00
   0.0000000000000000E+00
   0.0000000000000000E+00
   0.0000000000000000E+00
   0.0000000000000000E+00
   0.0000000000000000E+00
   0.0000000000000000E+00
  -0.1007612286456029E+00
  -0.4249297114483275E-01
   0.7371986795946240E-03
   0.5725799898790517E-02
   0.5699058043671145E-03
   0.1609783173488134E-02
   0.3375073098834456E-02
   0.2371773678823147E-02
   0.4590624806251778E-03
   0.3518225893785123E-02
   0.4521817583918360E-01
   0.6522937823707135E-01
   0.8689297796890024E-03
  -0.2261151823913688E-01
   0.4316553580724592E-02
   0.1358734842030979E-01
   0.1039452555531937E-01
   0.4900548415657751E-01
   0.2437443590937651E-02
  -0.6509940980131580E-02
  -0.7012226641166454E-03
   0.3411017136175340E-03
   0.3904107432003163E-02
  -0.3893254290469286E-01
   0.1798168102843374E-01
   0.1119638178803673E-01
   0.3403773259535140E-01
   0.8438810297274869E-02
   0.4937312217443132E-02
   0.4970345550343569E-02
   0.4871517448260341E-02
   0.6027191751254186E-02
   0.2599191859124559E-02
  -0.4144429581110985E-01
  -0.9954261847051990E-01
  -0.1121678217111726E+00
   0.5070875100574876E-02
   0.4230770721171843E-02
  -0.1004732302783278E+00
  -0.9895252488093625E-01
  -0.9875450931981518E-01
  -0.9462509594617775E-01
  -0.6807133810350012E-01
   0.5154922224451909E-02
  -0.1935330739298079E-01
  -0.1575800282304337E-01
  -0.6002862322025153E-02
   0.6819057379698841E-02
  -0.8010050786312908E-01
  -0.2781092446522063E-01
  -0.8096457339744138E-01
  -0.5873277545872315E-01
   0.3083625716027617E-02
   0.2685146498379200E-02
   0.2640431210364163E-02
   0.3450191952650087E-02
   0.4007083849826226E-02
   0.1201214370670434E-02
  -0.1438845948194205E-03
   0.2039877280840659E-02
   0.4895693675215028E-02
   0.3857385665891412E-02
   0.1114201996007413E-02
   0.1182682047393547E-02
   0.1465296221000527E-02
  -0.1653633080916652E-04
   0.8996630824539458E-04
   0.4386667926132373E-02
   0.2715724309641259E-02
   0.2322755369469198E-02
   0.5010601102789424E-02
   0.1071689427410908E-02
   0.2712217793304723E-02
   0.2013964151802209E-02
   0.2879093795368727E-04
   0.8374614355966993E-01
   0.2793870733789685E-02
  -0.8346628030034171E-03
  -0.1492945303311504E-03
   0.1409540847893846E+00
   0.1239332958985426E+00
  -0.1219093285011528E-02
  -0.4381936065981933E-02
  -0.3043057664408879E-03
  -0.6512246787896959E-02
  -0.1949570296645308E-02
   0.1557630975753322E+00
   0.7489979208098729E-01
   0.2550174918479114E-01
   0.1656445123311118E+00