title="tecplot geometry and solution file"
variables = x y z rho u v w p mach temperature
zone t="boundary 1 bc-1", solutiontime= 0.3000000E+02, strandid=1001, i=32, j=46, f=feblock
  0.000000000000E+00  0.000000000000E+00  0.000000000000E+00  0.000000000000E+00  0.000000000000E+00  0.000000000000E+00  0.000000000000E+00
  0.000000000000E+00  0.000000000000E+00  0.000000000000E+00  0.000000000000E+00  0.000000000000E+00  0.000000000000E+00  0.000000000000E+00
  0.000000000000E+00  0.000000000000E+00  0.000000000000E+00  0.000000000000E+00  0.000000000000E+00  0.000000000000E+00  0.000000000000E+00
  0.000000000000E+00  0.000000000000E+00  0.000000000000E+00  0.000000000000E+00  0.000000000000E+00  0.000000000000E+00  0.000000000000E+00
  0.000000000000E+00  0.000000000000E+00  0.000000000000E+00  0.000000000000E+00
  0.250000000000E+01  0.250000000000E+01  0.125000000000E+01  0.146289271009E+01  0.157686156160E+01  0.308372018325E+00  0.000000000000E+00
 -0.125000000000E+01 -0.600232012419E+00  0.250000000000E+01  0.477386199275E+00  0.742988685424E+00 -0.739814786992E+00  0.177790177481E+01
  0.155830813274E+01  0.250000000000E+01 -0.250000000000E+01 -0.154800130438E+01 -0.487811078581E+00  0.250000000000E+01  0.627766083140E+00
 -0.345533899378E+00 -0.178862290564E+01 -0.158811787973E+01  0.125000000000E+01 -0.250000000000E+01 -0.144524380962E+01  0.000000000000E+00
 -0.125000000000E+01 -0.250000000000E+01 -0.250000000000E+01 -0.250000000000E+01
  0.000000000000E+00  0.125000000000E+01  0.000000000000E+00  0.103724302461E+01  0.219251206392E+01  0.922061490191E+00  0.000000000000E+00
  0.000000000000E+00  0.715990576545E+00  0.250000000000E+01  0.202479342020E+01  0.324151231464E+01  0.175434191980E+01  0.310152362409E+01
  0.404200324774E+01  0.375000000000E+01  0.000000000000E+00  0.930412228790E+00  0.299062775774E+01  0.500000000000E+01  0.429310310915E+01
  0.409252726285E+01  0.187029682677E+01  0.284428995242E+01  0.500000000000E+01  0.125000000000E+01  0.394624082883E+01  0.500000000000E+01
  0.500000000000E+01  0.250000000000E+01  0.375000000000E+01  0.500000000000E+01
  0.134427120847E+01  0.106355337944E+01  0.142583183001E+01  0.108608762449E+01  0.103229060213E+01  0.120095338316E+01  0.164466686727E+01
  0.149409013875E+01  0.123520338803E+01  0.102389267988E+01  0.102809468298E+01  0.101301783273E+01  0.103252921020E+01  0.101471847590E+01
  0.100663847936E+01  0.100830781975E+01  0.144945702812E+01  0.116393504787E+01  0.101462809005E+01  0.100426007867E+01  0.100679777129E+01
  0.100724510279E+01  0.104668059822E+01  0.101938406296E+01  0.100424766513E+01  0.106442280591E+01  0.100789301842E+01  0.100288822790E+01
  0.100334523371E+01  0.102847313687E+01  0.100958633685E+01  0.100399293490E+01
  0.000000000000E+00  0.445482009093E+00  0.000000000000E+00  0.468737737915E+00  0.462182942064E+00  0.443614218308E+00  0.000000000000E+00
  0.000000000000E+00  0.379272885686E+00  0.471739271431E+00  0.466575693020E+00  0.479355714325E+00  0.490159750597E+00  0.484515186857E+00
  0.488524405490E+00  0.489830825220E+00  0.000000000000E+00  0.450654222610E+00  0.474814731520E+00  0.495785238637E+00  0.490899381139E+00
  0.486835557985E+00  0.448669240548E+00  0.465807889273E+00  0.496536816650E+00  0.444686413452E+00  0.487701104012E+00  0.497534334247E+00
  0.496384326362E+00  0.470003391053E+00  0.489200218536E+00  0.495522109398E+00
  0.000000000000E+00  0.000000000000E+00  0.000000000000E+00  0.186086033652E-01 -0.276691070738E-02  0.332951066244E-01  0.000000000000E+00
  0.000000000000E+00 -0.594712674174E-02  0.000000000000E+00  0.356640479928E-02 -0.566633202876E-02 -0.416070568894E-02  0.305673582583E-04
 -0.106165695738E-02  0.000000000000E+00  0.000000000000E+00 -0.764121928202E-02  0.359683816559E-03  0.000000000000E+00 -0.203492638250E-02
 -0.138317020992E-02  0.156558514498E-02 -0.158520431261E-02 -0.634634445451E-04  0.000000000000E+00 -0.283713900196E-04 -0.196313362901E-03
  0.807242058442E-03  0.000000000000E+00  0.000000000000E+00  0.000000000000E+00
  0.000000000000E+00  0.452184654320E-01  0.000000000000E+00  0.123932977518E+00  0.247646622352E-01  0.165644445843E+00  0.000000000000E+00
  0.000000000000E+00  0.155763018781E+00  0.351819570907E-02  0.259784070795E-01 -0.651227653640E-02  0.748997092579E-01  0.371831586179E-02
 -0.149392616271E-03  0.458690575750E-03  0.000000000000E+00  0.140954002881E+00 -0.808568051100E-02  0.237161037181E-02 -0.304072415433E-03
 -0.438187303285E-02  0.255018604383E-01 -0.194954198889E-02  0.308350480135E-02  0.837460364157E-01 -0.121907946310E-02  0.268489510463E-02
  0.264017887145E-02  0.279392054778E-02 -0.834874466913E-03  0.344925351043E-02
  0.960184401769E+00  0.782340138050E+00  0.101844189467E+01  0.808726232203E+00  0.746125385228E+00  0.879446185456E+00  0.117475196499E+01
  0.106719888402E+01  0.916619813267E+00  0.737394761997E+00  0.743553488248E+00  0.725758743681E+00  0.757454828267E+00  0.729187894088E+00
  0.720784623928E+00  0.722781357488E+00  0.103531891336E+01  0.858316782722E+00  0.728064561338E+00  0.718614925862E+00  0.721013056969E+00
  0.721151172624E+00  0.760018281355E+00  0.732627920460E+00  0.718530835151E+00  0.791042941660E+00  0.722107560814E+00  0.717199162958E+00
  0.717636661501E+00  0.741799245641E+00  0.724056263807E+00  0.718400655843E+00
  0.000000000000E+00  0.441238959322E+00  0.000000000000E+00  0.475214846836E+00  0.460124412212E+00  0.468828258256E+00  0.000000000000E+00
  0.000000000000E+00  0.402302845981E+00  0.469815441343E+00  0.464411893457E+00  0.478714636714E+00  0.489298401133E+00  0.483069062846E+00
  0.487929751379E+00  0.488962306260E+00  0.000000000000E+00  0.464776563627E+00  0.473796390604E+00  0.495346987103E+00  0.490266071647E+00
  0.486286308742E+00  0.445718212005E+00  0.464383015557E+00  0.496127757219E+00  0.443623932337E+00  0.486964554541E+00  0.497246546414E+00
  0.496059357829E+00  0.467732911162E+00  0.488212429171E+00  0.495098383633E+00
  0.999990295117E+00  0.102982719480E+01  0.999990758053E+00  0.104247272462E+01  0.101190065779E+01  0.102520603789E+01  0.999991416938E+00
  0.999992168392E+00  0.103891209416E+01  0.100826257193E+01  0.101252822408E+01  0.100300528611E+01  0.102702833886E+01  0.100605544885E+01
  0.100244377121E+01  0.100355653370E+01  0.999992721820E+00  0.103239738163E+01  0.100459507860E+01  0.100179317845E+01  0.100260281512E+01
  0.100234951640E+01  0.101657143135E+01  0.100617532283E+01  0.100168833261E+01  0.104043253506E+01  0.100303362228E+01  0.100118717142E+01
  0.100134160441E+01  0.100976769024E+01  0.100405357355E+01  0.100176095191E+01
        12        19        11        11
        11         5        12        12
        10        14         5         5
        19        13        11        11
        19        24        13        13
        30        23        24        24
        19        12        22        22
        28        22        21        21
        11        13         6         6
         7         6         9         9
        15        12        14        14
        18        13        23        23
        15        25        21        21
        27        19        22        22
        18         8         9         9
        27        31        24        24
         4        11         6         6
         5        14        12        12
         4         2         5         5
        21        12        15        15
        14        16        15        15
        24        19        27        27
        22        29        27        27
        23        26        18        18
        17         8        18        18
         5        11         4         4
         6         3         4         4
        26        23        30        30
         5         2        10        10
        16        14        10        10
         3         6         7         7
        21        25        28        28
        29        22        28        28
         6        13         9         9
         2         4         1         1
        31        27        32        32
        25        15        20        20
        24        23        13        13
         8         7         9         9
        13        18         9         9
        31        30        24        24
        12        21        22        22
        29        32        27        27
         3         1         4         4
        26        17        18        18
        16        20        15        15
zone t="boundary 2 bc-2", solutiontime= 0.3000000E+02, strandid=1002, i=33, j=48, f=feblock
  0.500000000000E+01  0.375000000000E+01  0.250000000000E+01  0.288078410721E+01  0.125000000000E+01  0.190974100652E+01  0.326683758169E+01
  0.201431602454E+01  0.000000000000E+00  0.963108083381E+00  0.500000000000E+01  0.403552511878E+01  0.423153924130E+01  0.500000000000E+01
  0.385533350601E+01  0.500000000000E+01  0.398173246726E+01  0.315249557942E+01  0.267000324704E+01  0.154774304040E+01  0.218329375016E+01
  0.893127759452E+00  0.000000000000E+00  0.698517061619E+00  0.964171764089E+00  0.310324758057E+01  0.000000000000E+00  0.000000000000E+00
  0.125000000000E+01  0.500000000000E+01  0.375000000000E+01  0.250000000000E+01  0.000000000000E+00
 -0.250000000000E+01 -0.250000000000E+01 -0.250000000000E+01 -0.250000000000E+01 -0.250000000000E+01 -0.250000000000E+01 -0.250000000000E+01
 -0.250000000000E+01 -0.250000000000E+01 -0.250000000000E+01 -0.250000000000E+01 -0.250000000000E+01 -0.250000000000E+01 -0.250000000000E+01
 -0.250000000000E+01 -0.250000000000E+01 -0.250000000000E+01 -0.250000000000E+01 -0.250000000000E+01 -0.250000000000E+01 -0.250000000000E+01
 -0.250000000000E+01 -0.250000000000E+01 -0.250000000000E+01 -0.250000000000E+01 -0.250000000000E+01 -0.250000000000E+01 -0.250000000000E+01
 -0.250000000000E+01 -0.250000000000E+01 -0.250000000000E+01 -0.250000000000E+01 -0.250000000000E+01
  0.000000000000E+00  0.000000000000E+00  0.000000000000E+00  0.904659890645E+00  0.000000000000E+00  0.717002441913E+00  0.188609243358E+01
  0.176246431481E+01  0.000000000000E+00  0.961328577125E+00  0.125000000000E+01  0.101201586758E+01  0.191586535653E+01  0.250000000000E+01
  0.293121848150E+01  0.375000000000E+01  0.406975391361E+01  0.363585050272E+01  0.285047954584E+01  0.292817774674E+01  0.395907379566E+01
  0.205246550326E+01  0.125000000000E+01  0.306828197606E+01  0.397245519226E+01  0.433168271247E+01  0.250000000000E+01  0.375000000000E+01
  0.500000000000E+01  0.500000000000E+01  0.500000000000E+01  0.500000000000E+01  0.500000000000E+01
  0.830787062911E+00  0.935297145433E+00  0.934221470241E+00  0.968087273646E+00  0.961718889608E+00  0.964848095562E+00  0.984135704417E+00
  0.991412151753E+00  0.144945702812E+01  0.102921645055E+01  0.955878533390E+00  0.960693593490E+00  0.981487645370E+00  0.100642877086E+01
  0.997911858484E+00  0.100978038058E+01  0.100199531367E+01  0.998062611848E+00  0.991085526952E+00  0.100132671880E+01  0.100094552130E+01
  0.101224568235E+01  0.106442280591E+01  0.101082128384E+01  0.100685200174E+01  0.100118341096E+01  0.102847313687E+01  0.100958633685E+01
  0.100510125220E+01  0.100179258845E+01  0.100266100001E+01  0.100321124558E+01  0.100399293490E+01
  0.000000000000E+00  0.000000000000E+00  0.000000000000E+00  0.378986744403E+00  0.000000000000E+00  0.340639658676E+00  0.582178729308E+00
  0.575196125954E+00  0.000000000000E+00  0.489449751630E+00  0.494740393096E+00  0.431507184336E+00  0.568960879928E+00  0.536179921463E+00
  0.568880597847E+00  0.516236782855E+00  0.508560964529E+00  0.527401878914E+00  0.566649023383E+00  0.531829595195E+00  0.506098823213E+00
  0.520702323507E+00  0.444686413452E+00  0.491340585260E+00  0.492735629069E+00  0.501507735464E+00  0.470003391053E+00  0.489200218536E+00
  0.490458802017E+00  0.491425943662E+00  0.486215870198E+00  0.490305794578E+00  0.495522109398E+00
  0.000000000000E+00  0.000000000000E+00  0.000000000000E+00  0.000000000000E+00  0.000000000000E+00  0.000000000000E+00  0.000000000000E+00
  0.000000000000E+00  0.000000000000E+00  0.000000000000E+00  0.000000000000E+00  0.000000000000E+00  0.000000000000E+00  0.000000000000E+00
  0.000000000000E+00  0.000000000000E+00  0.000000000000E+00  0.000000000000E+00  0.000000000000E+00  0.000000000000E+00  0.000000000000E+00
  0.000000000000E+00  0.000000000000E+00  0.000000000000E+00  0.000000000000E+00  0.000000000000E+00  0.000000000000E+00  0.000000000000E+00
  0.000000000000E+00  0.000000000000E+00  0.000000000000E+00  0.000000000000E+00  0.000000000000E+00
  0.000000000000E+00  0.000000000000E+00  0.000000000000E+00 -0.229664627578E-02  0.000000000000E+00  0.183566373733E-01  0.121123910719E-01
  0.454986537657E-01  0.000000000000E+00  0.870790381737E-01 -0.995419272692E-01 -0.211866940585E-01 -0.306434869987E-01 -0.414440983700E-01
 -0.137784887658E-02  0.260092689592E-02  0.610320180826E-03  0.504303377889E-03  0.150971557737E-01  0.284026593802E-01  0.564171085418E-02
  0.553420924634E-01  0.837460364157E-01  0.110441679689E-01  0.679149116534E-02 -0.758256577179E-03  0.279392054778E-02 -0.834874466913E-03
  0.400605791400E-02  0.602956850583E-02 -0.143186009601E-03  0.120031551821E-02  0.344925351043E-02
  0.593415466049E+00  0.668065174223E+00  0.667296741551E+00  0.684257289302E+00  0.686937349928E+00  0.679200913049E+00  0.695811323427E+00
  0.702343383457E+00  0.103531891336E+01  0.723694313442E+00  0.672591473641E+00  0.675702595840E+00  0.694092985633E+00  0.720959767060E+00
  0.712691050163E+00  0.724771831463E+00  0.716580007947E+00  0.713298190209E+00  0.706429141974E+00  0.717736799588E+00  0.715375917195E+00
  0.730937224015E+00  0.791042941660E+00  0.724372301026E+00  0.721010154986E+00  0.715456483833E+00  0.741799245641E+00  0.724056263807E+00
  0.719312437599E+00  0.715891167693E+00  0.716607630878E+00  0.717367565471E+00  0.718400655843E+00
  0.000000000000E+00  0.000000000000E+00  0.000000000000E+00  0.380991701011E+00  0.000000000000E+00  0.343630111597E+00  0.585285868100E+00
  0.579373677197E+00  0.000000000000E+00  0.501056427653E+00  0.508459333137E+00  0.435373029772E+00  0.572639048574E+00  0.537002156784E+00
  0.568923426809E+00  0.514995282676E+00  0.508252845108E+00  0.527255581393E+00  0.567447224482E+00  0.531657854993E+00  0.505983499467E+00
  0.520795965022E+00  0.443623932337E+00  0.490664431422E+00  0.492156614330E+00  0.501394222443E+00  0.467732911162E+00  0.488212429171E+00
  0.490003434441E+00  0.491351351175E+00  0.486072978099E+00  0.490037862547E+00  0.495098383633E+00
  0.999993487570E+00  0.999993690219E+00  0.999993543213E+00  0.989539095390E+00  0.999993137591E+00  0.985524335533E+00  0.989838950488E+00
  0.991798148834E+00  0.999992721820E+00  0.984411042283E+00  0.985091756123E+00  0.984688188395E+00  0.990058493828E+00  0.100289628348E+01
  0.999855309610E+00  0.100485272200E+01  0.100121427460E+01  0.100055593150E+01  0.997896520399E+00  0.100350015689E+01  0.100058021417E+01
  0.101093255468E+01  0.104043253506E+01  0.100326461032E+01  0.100254477842E+01  0.100045512780E+01  0.100976769024E+01  0.100405357355E+01
  0.100192633373E+01  0.100045423207E+01  0.100058811824E+01  0.100109981430E+01  0.100176095191E+01
        15         7        19        19
         8        20        19        19
        18        19        21        21
         7         4         8         8
         3         6         4         4
        19         7         8         8
        19        18        15        15
        14        13        15        15
         8        22        20        20
        27        24        22        22
        19        20        21        21
        32        26        21        21
        17        18        26        26
        17        16        15        15
        25        29        21        21
        12         7        13        13
        10         8         6         6
        25        20        24        24
         4         6         8         8
        12         2         4         4
        10        23        22        22
        26        31        17        17
        30        16        17        17
         4         7        12        12
        13        11        12        12
        21        20        25        25
        24        28        25        25
        22         8        10        10
         6         5        10        10
        31        26        32        32
         4         2         3         3
         5         6         3         3
        11        13        14        14
        22        23        27        27
        28        24        27        27
        15        13         7         7
         2        12         1         1
        29        25        33        33
        23        10         9         9
        21        26        18        18
        16        14        15        15
        18        17        15        15
        29        32        21        21
        22        24        20        20
        28        33        25        25
        11         1        12        12
        31        30        17        17
         5         9        10        10
zone t="boundary 3 bc-3", solutiontime= 0.3000000E+02, strandid=1003, i=33, j=48, f=feblock
  0.375000000000E+01  0.250000000000E+01  0.500000000000E+01  0.403552511878E+01  0.288078410721E+01  0.125000000000E+01  0.190974100652E+01
  0.500000000000E+01  0.326683758169E+01  0.423153924130E+01  0.201431602454E+01  0.000000000000E+00  0.963108083381E+00  0.500000000000E+01
  0.267000324704E+01  0.385533350601E+01  0.893127759452E+00  0.154774304040E+01  0.000000000000E+00  0.500000000000E+01  0.315249557942E+01
  0.218329375016E+01  0.398173246726E+01  0.000000000000E+00  0.698517061619E+00  0.964171764089E+00  0.125000000000E+01  0.000000000000E+00
  0.500000000000E+01  0.310324758057E+01  0.250000000000E+01  0.375000000000E+01  0.000000000000E+00
  0.250000000000E+01  0.250000000000E+01  0.250000000000E+01  0.250000000000E+01  0.250000000000E+01  0.250000000000E+01  0.250000000000E+01
  0.250000000000E+01  0.250000000000E+01  0.250000000000E+01  0.250000000000E+01  0.250000000000E+01  0.250000000000E+01  0.250000000000E+01
  0.250000000000E+01  0.250000000000E+01  0.250000000000E+01  0.250000000000E+01  0.250000000000E+01  0.250000000000E+01  0.250000000000E+01
  0.250000000000E+01  0.250000000000E+01  0.250000000000E+01  0.250000000000E+01  0.250000000000E+01  0.250000000000E+01  0.250000000000E+01
  0.250000000000E+01  0.250000000000E+01  0.250000000000E+01  0.250000000000E+01  0.250000000000E+01
  0.000000000000E+00  0.000000000000E+00  0.000000000000E+00  0.101201586758E+01  0.904659890645E+00  0.000000000000E+00  0.717002441913E+00
  0.125000000000E+01  0.188609243358E+01  0.191586535653E+01  0.176246431481E+01  0.000000000000E+00  0.961328577125E+00  0.250000000000E+01
  0.285047954584E+01  0.293121848150E+01  0.205246550326E+01  0.292817774674E+01  0.125000000000E+01  0.375000000000E+01  0.363585050272E+01
  0.395907379566E+01  0.406975391361E+01  0.250000000000E+01  0.306828197606E+01  0.397245519226E+01  0.500000000000E+01  0.375000000000E+01
  0.500000000000E+01  0.433168271247E+01  0.500000000000E+01  0.500000000000E+01  0.500000000000E+01
  0.941860796961E+00  0.946295849150E+00  0.843730469129E+00  0.964337075421E+00  0.978822846694E+00  0.956975365774E+00  0.983330916269E+00
  0.963504939635E+00  0.982688815684E+00  0.984244430394E+00  0.990263116153E+00  0.134427120847E+01  0.101918219897E+01  0.100829754702E+01
  0.993455633396E+00  0.997997647830E+00  0.100807761544E+01  0.100072059483E+01  0.106355337944E+01  0.100673652454E+01  0.100058280580E+01
  0.100234908106E+01  0.100178182822E+01  0.102389267988E+01  0.100874162849E+01  0.100528322375E+01  0.100522801711E+01  0.100830781975E+01
  0.100196259779E+01  0.100161970009E+01  0.100413152331E+01  0.100321754207E+01  0.100426007867E+01
  0.000000000000E+00  0.000000000000E+00  0.000000000000E+00  0.439068932974E+00  0.399864956548E+00  0.000000000000E+00  0.373794148078E+00
  0.495011013540E+00  0.573056275943E+00  0.569603264792E+00  0.559933349022E+00  0.000000000000E+00  0.483390969382E+00  0.533822545237E+00
  0.556459191132E+00  0.564688377410E+00  0.522616033479E+00  0.522533646047E+00  0.445482009093E+00  0.518327220247E+00  0.524751690682E+00
  0.503888983349E+00  0.509844833999E+00  0.471739271431E+00  0.496246055921E+00  0.494940663121E+00  0.489078139779E+00  0.489830825220E+00
  0.493066874496E+00  0.499150324721E+00  0.486770865060E+00  0.484761548332E+00  0.495785238637E+00
  0.000000000000E+00  0.000000000000E+00  0.000000000000E+00  0.000000000000E+00  0.000000000000E+00  0.000000000000E+00  0.000000000000E+00
  0.000000000000E+00  0.000000000000E+00  0.000000000000E+00  0.000000000000E+00  0.000000000000E+00  0.000000000000E+00  0.000000000000E+00
  0.000000000000E+00  0.000000000000E+00  0.000000000000E+00  0.000000000000E+00  0.000000000000E+00  0.000000000000E+00  0.000000000000E+00
  0.000000000000E+00  0.000000000000E+00  0.000000000000E+00  0.000000000000E+00  0.000000000000E+00  0.000000000000E+00  0.000000000000E+00
  0.000000000000E+00  0.000000000000E+00  0.000000000000E+00  0.000000000000E+00  0.000000000000E+00
  0.000000000000E+00  0.000000000000E+00  0.000000000000E+00 -0.226116407082E-01  0.111963994669E-01  0.000000000000E+00  0.179817060818E-01
 -0.100759849062E+00  0.390462476337E-02 -0.389310683591E-01  0.340378044946E-01  0.000000000000E+00  0.652294163761E-01 -0.424919831521E-01
  0.843937173879E-02 -0.650843291453E-02  0.490054413143E-01  0.135871895414E-01  0.452184654320E-01  0.738593509911E-03 -0.699696133969E-03
  0.243773737009E-02  0.869599214421E-03  0.351819570907E-02  0.103942853461E-01  0.431637951224E-02  0.337408239574E-02  0.458690575750E-03
  0.573084158883E-02  0.341275813499E-03  0.160752421123E-02  0.570181411266E-03  0.237161037181E-02
  0.672750540165E+00  0.675918447728E+00  0.602658369312E+00  0.676093504524E+00  0.691308527547E+00  0.683546879043E+00  0.690066233816E+00
  0.677276452214E+00  0.695201564114E+00  0.696250846027E+00  0.703343679439E+00  0.960184401769E+00  0.719725943121E+00  0.722865734140E+00
  0.709447212113E+00  0.713700751562E+00  0.726066943473E+00  0.716602405873E+00  0.782340138050E+00  0.722285095845E+00  0.716127924711E+00
  0.716550995735E+00  0.716545806602E+00  0.737394761997E+00  0.722682435159E+00  0.719440785565E+00  0.719565398479E+00  0.722781357488E+00
  0.716029319683E+00  0.715846789572E+00  0.718145985537E+00  0.717061415061E+00  0.718614925862E+00
  0.000000000000E+00  0.000000000000E+00  0.000000000000E+00  0.443766881008E+00  0.402286631988E+00  0.000000000000E+00  0.377550348372E+00
  0.509225888317E+00  0.575832234740E+00  0.573705598853E+00  0.562554716579E+00  0.000000000000E+00  0.490563634648E+00  0.534527373027E+00
  0.556587487122E+00  0.564391360821E+00  0.522731093935E+00  0.522052644869E+00  0.441238959322E+00  0.517182743484E+00  0.524229465818E+00
  0.503688312997E+00  0.509494185937E+00  0.469815441343E+00  0.495615089014E+00  0.494484090218E+00  0.488564295229E+00  0.488962306260E+00
  0.492982489097E+00  0.499009518453E+00  0.486465290684E+00  0.484600467063E+00  0.495346987103E+00
  0.999989339475E+00  0.999989408882E+00  0.999989626910E+00  0.981535326660E+00  0.988771299970E+00  0.999989827206E+00  0.982469595289E+00
  0.984101891018E+00  0.990427665631E+00  0.990354788238E+00  0.994363149705E+00  0.999990295117E+00  0.988651804742E+00  0.100368391333E+01
  0.999768951497E+00  0.100118577870E+01  0.100834866810E+01  0.100252095680E+01  0.102982719480E+01  0.100443274832E+01  0.100199512603E+01
  0.100082038582E+01  0.100137984238E+01  0.100826257193E+01  0.100298766368E+01  0.100192371264E+01  0.100215228856E+01  0.100355653370E+01
  0.100047751260E+01  0.100056489036E+01  0.100126761924E+01  0.100066629519E+01  0.100179317845E+01
        15         9        16        16
        15        18        11        11
        22        15        21        21
        11         5         9         9
         5         7         2         2
        11         9        15        15
        16        21        15        15
        16        10        14        14
        18        17        11        11
        17        25        24        24
        22        18        15        15
        22        30        31        31
        30        21        23        23
        16        20        23        23
        22        27        26        26
        10         9         4         4
         7        11        13        13
        25        18        26        26
        11         7         5         5
         5         1         4         4
        17        19        13        13
        23        32        30        30
        23        20        29        29
         4         9         5         5
         4         8        10        10
        26        18        22        22
        26        28        25        25
        13        11        17        17
        13         6         7         7
        31        30        32        32
         2         1         5         5
         2         7         6         6
        14        10         8         8
        24        19        17        17
        24        25        28        28
         9        10        16        16
         3         4         1         1
        33        26        27        27
        12        13        19        19
        21        30        22        22
        16        14        20        20
        16        23        21        21
        22        31        27        27
        18        25        17        17
        26        33        28        28
         4         3         8         8
        23        29        32        32
        13        12         6         6
zone t="boundary 4 bc-4", solutiontime= 0.3000000E+02, strandid=1004, i=32, j=46, f=feblock
  0.125000000000E+01  0.219251206392E+01  0.103724302461E+01  0.500000000000E+01  0.250000000000E+01  0.375000000000E+01  0.404200324774E+01
  0.500000000000E+01  0.000000000000E+00  0.310152362409E+01  0.202479342020E+01  0.324151231464E+01  0.922061490191E+00  0.000000000000E+00
  0.299062775774E+01  0.394624082883E+01  0.500000000000E+01  0.409252726285E+01  0.500000000000E+01  0.429310310915E+01  0.175434191980E+01
  0.284428995242E+01  0.000000000000E+00  0.000000000000E+00  0.715990576545E+00  0.930412228790E+00  0.125000000000E+01  0.187029682677E+01
  0.500000000000E+01  0.375000000000E+01  0.250000000000E+01  0.000000000000E+00
  0.250000000000E+01  0.157686156160E+01  0.146289271009E+01  0.250000000000E+01  0.250000000000E+01  0.250000000000E+01  0.155830813274E+01
  0.125000000000E+01  0.250000000000E+01  0.177790177481E+01  0.477386199275E+00  0.742988685424E+00  0.308372018325E+00  0.125000000000E+01
 -0.487811078581E+00 -0.144524380962E+01 -0.125000000000E+01 -0.345533899378E+00  0.000000000000E+00  0.627766083140E+00 -0.739814786992E+00
 -0.158811787973E+01  0.000000000000E+00 -0.125000000000E+01 -0.600232012419E+00 -0.154800130438E+01 -0.250000000000E+01 -0.178862290564E+01
 -0.250000000000E+01 -0.250000000000E+01 -0.250000000000E+01 -0.250000000000E+01
  0.500000000000E+01  0.500000000000E+01  0.500000000000E+01  0.500000000000E+01  0.500000000000E+01  0.500000000000E+01  0.500000000000E+01
  0.500000000000E+01  0.500000000000E+01  0.500000000000E+01  0.500000000000E+01  0.500000000000E+01  0.500000000000E+01  0.500000000000E+01
  0.500000000000E+01  0.500000000000E+01  0.500000000000E+01  0.500000000000E+01  0.500000000000E+01  0.500000000000E+01  0.500000000000E+01
  0.500000000000E+01  0.500000000000E+01  0.500000000000E+01  0.500000000000E+01  0.500000000000E+01  0.500000000000E+01  0.500000000000E+01
  0.500000000000E+01  0.500000000000E+01  0.500000000000E+01  0.500000000000E+01
  0.100522801711E+01  0.100432870184E+01  0.100431975039E+01  0.100196259779E+01  0.100413152331E+01  0.100321754207E+01  0.100258235259E+01
  0.100200856747E+01  0.100426007867E+01  0.100372244718E+01  0.100446418985E+01  0.100346787975E+01  0.100365957741E+01  0.100424766513E+01
  0.100362226647E+01  0.100163979852E+01  0.100227386845E+01  0.100226992392E+01  0.100213193767E+01  0.100253969902E+01  0.100442335606E+01
  0.100337175512E+01  0.100288822790E+01  0.100334523371E+01  0.100323184062E+01  0.100406047893E+01  0.100510125220E+01  0.100431286965E+01
  0.100179258845E+01  0.100266100001E+01  0.100321124558E+01  0.100399293490E+01
  0.489078139779E+00  0.489240916188E+00  0.490984451273E+00  0.493066874496E+00  0.486770865060E+00  0.484761548332E+00  0.485407220003E+00
  0.494264600791E+00  0.495785238637E+00  0.486804665078E+00  0.488140547477E+00  0.487247724165E+00  0.494423962564E+00  0.496536816650E+00
  0.487846408223E+00  0.483216499075E+00  0.492572279575E+00  0.487262589841E+00  0.494866961681E+00  0.488014800259E+00  0.490097608750E+00
  0.488269032727E+00  0.497534334247E+00  0.496384326362E+00  0.495260238984E+00  0.493217223430E+00  0.490458802017E+00  0.490400896590E+00
  0.491425943662E+00  0.486215870198E+00  0.490305794578E+00  0.495522109398E+00
  0.000000000000E+00 -0.897817348745E-04 -0.129723494329E-02  0.000000000000E+00  0.000000000000E+00  0.000000000000E+00  0.425104152470E-03
  0.797901807425E-03  0.000000000000E+00  0.273708612043E-03 -0.942062607288E-03 -0.819989544317E-03 -0.174501757798E-02 -0.634634445451E-04
 -0.109817396621E-02 -0.102090041899E-02 -0.133122616905E-02 -0.213268912069E-02 -0.132840490173E-02 -0.106355846144E-02 -0.623729765568E-03
 -0.760449282988E-03 -0.196313362901E-03  0.807242058442E-03  0.519904880859E-04  0.161651604247E-02  0.000000000000E+00  0.791730012478E-03
  0.000000000000E+00  0.000000000000E+00  0.000000000000E+00  0.000000000000E+00