title="tecplot geometry and solution file"
variables = x y z rho u v w p mach temperature
zone t="boundary 1 bc-1", solutiontime= 0.1000000E+02, strandid=1001, i=32, j=46, f=feblock
  0.000000000000E+00  0.000000000000E+00  0.000000000000E+00  0.000000000000E+00  0.000000000000E+00  0.000000000000E+00  0.000000000000E+00
  0.000000000000E+00  0.000000000000E+00  0.000000000000E+00  0.000000000000E+00  0.000000000000E+00  0.000000000000E+00  0.000000000000E+00
  0.000000000000E+00  0.000000000000E+00  0.000000000000E+00  0.000000000000E+00  0.000000000000E+00  0.000000000000E+00  0.000000000000E+00
  0.000000000000E+00  0.000000000000E+00  0.000000000000E+00  0.000000000000E+00  0.000000000000E+00  0.000000000000E+00  0.000000000000E+00
  0.000000000000E+00  0.000000000000E+00  0.000000000000E+00  0.000000000000E+00
  0.250000000000E+01  0.250000000000E+01  0.125000000000E+01  0.146289271009E+01  0.157686156160E+01  0.308372018325E+00  0.000000000000E+00
 -0.125000000000E+01 -0.600232012419E+00  0.250000000000E+01  0.477386199275E+00  0.742988685424E+00 -0.739814786992E+00  0.177790177481E+01
  0.155830813274E+01  0.250000000000E+01 -0.250000000000E+01 -0.154800130438E+01 -0.487811078581E+00  0.250000000000E+01  0.627766083140E+00
 -0.345533899378E+00 -0.178862290564E+01 -0.158811787973E+01  0.125000000000E+01 -0.250000000000E+01 -0.144524380962E+01  0.000000000000E+00
 -0.125000000000E+01 -0.250000000000E+01 -0.250000000000E+01 -0.250000000000E+01
  0.000000000000E+00  0.125000000000E+01  0.000000000000E+00  0.103724302461E+01  0.219251206392E+01  0.922061490191E+00  0.000000000000E+00
  0.000000000000E+00  0.715990576545E+00  0.250000000000E+01  0.202479342020E+01  0.324151231464E+01  0.175434191980E+01  0.310152362409E+01
  0.404200324774E+01  0.375000000000E+01  0.000000000000E+00  0.930412228790E+00  0.299062775774E+01  0.500000000000E+01  0.429310310915E+01
  0.409252726285E+01  0.187029682677E+01  0.284428995242E+01  0.500000000000E+01  0.125000000000E+01  0.394624082883E+01  0.500000000000E+01
  0.500000000000E+01  0.250000000000E+01  0.375000000000E+01  0.500000000000E+01
  0.134396596053E+01  0.106288564916E+01  0.142567198598E+01  0.108605535143E+01  0.103189236848E+01  0.120046100789E+01  0.164280958879E+01
  0.149231920071E+01  0.123491055388E+01  0.102374887844E+01  0.102837514230E+01  0.101298494134E+01  0.103298018515E+01  0.101450435628E+01
  0.100651933228E+01  0.100815139839E+01  0.144786901096E+01  0.116338097920E+01  0.101484578831E+01  0.100300465263E+01  0.100671153768E+01
  0.100730254181E+01  0.104658363815E+01  0.101925944776E+01  0.100388286072E+01  0.106492802075E+01  0.100782012633E+01  0.100321537366E+01
  0.100342413901E+01  0.102865083045E+01  0.100953790985E+01  0.100373853218E+01
  0.000000000000E+00  0.446358084203E+00  0.000000000000E+00  0.467563571694E+00  0.463486932908E+00  0.444133045762E+00  0.000000000000E+00
  0.000000000000E+00  0.379418337139E+00  0.472067248583E+00  0.467067893480E+00  0.479430321042E+00  0.489673706188E+00  0.484504446477E+00
  0.488023432575E+00  0.489656768645E+00  0.000000000000E+00  0.450854198756E+00  0.474819009208E+00  0.496307945413E+00  0.491007076118E+00
  0.486784670476E+00  0.449354221258E+00  0.466800966699E+00  0.497492500316E+00  0.445302537982E+00  0.487563809851E+00  0.498116300928E+00
  0.496793354564E+00  0.469844688780E+00  0.489158519105E+00  0.495744169088E+00
  0.000000000000E+00  0.000000000000E+00  0.000000000000E+00  0.175477640588E-01 -0.213729967200E-02  0.327979537203E-01  0.000000000000E+00
  0.000000000000E+00 -0.650328179505E-02  0.000000000000E+00  0.411727315288E-02 -0.522545164118E-02 -0.408068571638E-02  0.340392737327E-04
 -0.824514652145E-03  0.000000000000E+00  0.000000000000E+00 -0.784096060450E-02  0.397529888465E-03  0.000000000000E+00 -0.213224067404E-02
 -0.139207596883E-02  0.163781911481E-02 -0.186754344249E-02 -0.433573571643E-03  0.000000000000E+00 -0.230329811055E-03 -0.412220791392E-03
  0.823832782192E-03  0.000000000000E+00  0.000000000000E+00  0.000000000000E+00
  0.000000000000E+00  0.455578361911E-01  0.000000000000E+00  0.122821575587E+00  0.248513824347E-01  0.165555764039E+00  0.000000000000E+00
  0.000000000000E+00  0.156229719560E+00  0.371051004371E-02  0.269604581815E-01 -0.607265844726E-02  0.753301363110E-01  0.395709262537E-02
  0.296501339882E-03  0.875249833596E-03  0.000000000000E+00  0.140694084885E+00 -0.764474786481E-02  0.449760172978E-02  0.193802405728E-03
 -0.422693398229E-02  0.257869998422E-01 -0.140660121618E-02  0.448025856491E-02  0.843971818151E-01 -0.110385046447E-02  0.318264152525E-02
  0.318167033163E-02  0.268924867691E-02 -0.853215989649E-03  0.445298682028E-02
  0.959966371828E+00  0.781902653553E+00  0.101832772383E+01  0.808257918492E+00  0.745947924552E+00  0.879213444560E+00  0.117342534984E+01
  0.106593393932E+01  0.916233369197E+00  0.737246062663E+00  0.743709019880E+00  0.725752188331E+00  0.757527695932E+00  0.729039699882E+00
  0.720574106521E+00  0.722624471703E+00  0.103418462411E+01  0.857886472620E+00  0.728168401506E+00  0.718031343602E+00  0.721005193075E+00
  0.721150997602E+00  0.759976945934E+00  0.732624392130E+00  0.718477302349E+00  0.791195134496E+00  0.722071716127E+00  0.717593508232E+00
  0.717814525377E+00  0.741827108415E+00  0.723983027227E+00  0.718433596849E+00
  0.000000000000E+00  0.442116500300E+00  0.000000000000E+00  0.473917813287E+00  0.461385999639E+00  0.469208363427E+00  0.000000000000E+00
  0.000000000000E+00  0.402654370330E+00  0.470157920376E+00  0.464974771049E+00  0.478772748865E+00  0.488971294363E+00  0.483058360984E+00
  0.487471345214E+00  0.488804262256E+00  0.000000000000E+00  0.464897233036E+00  0.473810440171E+00  0.495775218270E+00  0.490355655423E+00
  0.486248062910E+00  0.446404319923E+00  0.465344796486E+00  0.497021629740E+00  0.444398664001E+00  0.486821726523E+00  0.497775581779E+00
  0.496429309522E+00  0.467605982158E+00  0.488183827360E+00  0.495254121035E+00
  0.999990297395E+00  0.102989791596E+01  0.999990760417E+00  0.104190001403E+01  0.101205040978E+01  0.102535510466E+01  0.999991417744E+00
  0.999992169465E+00  0.103872034525E+01  0.100820084833E+01  0.101246382278E+01  0.100302879361E+01  0.102667872003E+01  0.100606327959E+01
  0.100226962044E+01  0.100349437792E+01  0.999992722271E+00  0.103237123792E+01  0.100452282884E+01  0.100223252046E+01  0.100267776073E+01
  0.100229211656E+01  0.101661031715E+01  0.100629349204E+01  0.100197768350E+01  0.104013902040E+01  0.100305637501E+01  0.100141100097E+01
  0.100151102257E+01  0.100963118002E+01  0.100400017496E+01  0.100206079904E+01
        12        19        11        11
        11         5        12        12
        10        14         5         5
        19        13        11        11
        19        24        13        13
        30        23        24        24
        19        12        22        22
        28        22        21        21
        11        13         6         6
         7         6         9         9
        15        12        14        14
        18        13        23        23
        15        25        21        21
        27        19        22        22
        18         8         9         9
        27        31        24        24
         4        11         6         6
         5        14        12        12
         4         2         5         5
        21        12        15        15
        14        16        15        15
        24        19        27        27
        22        29        27        27
        23        26        18        18
        17         8        18        18
         5        11         4         4
         6         3         4         4
        26        23        30        30
         5         2        10        10
        16        14        10        10
         3         6         7         7
        21        25        28        28
        29        22        28        28
         6        13         9         9
         2         4         1         1
        31        27        32        32
        25        15        20        20
        24        23        13        13
         8         7         9         9
        13        18         9         9
        31        30        24        24
        12        21        22        22
        29        32        27        27
         3         1         4         4
        26        17        18        18
        16        20        15        15
zone t="boundary 2 bc-2", solutiontime= 0.1000000E+02, strandid=1002, i=33, j=48, f=feblock
  0.500000000000E+01  0.375000000000E+01  0.250000000000E+01  0.288078410721E+01  0.125000000000E+01  0.190974100652E+01  0.326683758169E+01
  0.201431602454E+01  0.000000000000E+00  0.963108083381E+00  0.500000000000E+01  0.403552511878E+01  0.423153924130E+01  0.500000000000E+01
  0.385533350601E+01  0.500000000000E+01  0.398173246726E+01  0.315249557942E+01  0.267000324704E+01  0.154774304040E+01  0.218329375016E+01
  0.893127759452E+00  0.000000000000E+00  0.698517061619E+00  0.964171764089E+00  0.310324758057E+01  0.000000000000E+00  0.000000000000E+00
  0.125000000000E+01  0.500000000000E+01  0.375000000000E+01  0.250000000000E+01  0.000000000000E+00
 -0.250000000000E+01 -0.250000000000E+01 -0.250000000000E+01 -0.250000000000E+01 -0.250000000000E+01 -0.250000000000E+01 -0.250000000000E+01
 -0.250000000000E+01 -0.250000000000E+01 -0.250000000000E+01 -0.250000000000E+01 -0.250000000000E+01 -0.250000000000E+01 -0.250000000000E+01
 -0.250000000000E+01 -0.250000000000E+01 -0.250000000000E+01 -0.250000000000E+01 -0.250000000000E+01 -0.250000000000E+01 -0.250000000000E+01
 -0.250000000000E+01 -0.250000000000E+01 -0.250000000000E+01 -0.250000000000E+01 -0.250000000000E+01 -0.250000000000E+01 -0.250000000000E+01
 -0.250000000000E+01 -0.250000000000E+01 -0.250000000000E+01 -0.250000000000E+01 -0.250000000000E+01
  0.000000000000E+00  0.000000000000E+00  0.000000000000E+00  0.904659890645E+00  0.000000000000E+00  0.717002441913E+00  0.188609243358E+01
  0.176246431481E+01  0.000000000000E+00  0.961328577125E+00  0.125000000000E+01  0.101201586758E+01  0.191586535653E+01  0.250000000000E+01
  0.293121848150E+01  0.375000000000E+01  0.406975391361E+01  0.363585050272E+01  0.285047954584E+01  0.292817774674E+01  0.395907379566E+01
  0.205246550326E+01  0.125000000000E+01  0.306828197606E+01  0.397245519226E+01  0.433168271247E+01  0.250000000000E+01  0.375000000000E+01
  0.500000000000E+01  0.500000000000E+01  0.500000000000E+01  0.500000000000E+01  0.500000000000E+01
  0.831661436970E+00  0.936966368366E+00  0.935439892223E+00  0.968890272288E+00  0.961482410002E+00  0.965361380364E+00  0.983820446947E+00
  0.991386731962E+00  0.144786901096E+01  0.102907330676E+01  0.955962007004E+00  0.962140180784E+00  0.980840724100E+00  0.100469969118E+01
  0.997287245338E+00  0.100954410902E+01  0.100208040740E+01  0.997824967612E+00  0.991303373740E+00  0.100153796184E+01  0.100104792523E+01
  0.101224890500E+01  0.106492802075E+01  0.101060544599E+01  0.100680713418E+01  0.100111654505E+01  0.102865083045E+01  0.100953790985E+01
  0.100528166179E+01  0.100485028601E+01  0.100458056022E+01  0.100326515569E+01  0.100373853218E+01
  0.000000000000E+00  0.000000000000E+00  0.000000000000E+00  0.379919181450E+00  0.000000000000E+00  0.341371341972E+00  0.580277455379E+00
  0.573749134803E+00  0.000000000000E+00  0.489361755152E+00  0.495708956516E+00  0.433926271280E+00  0.567786547457E+00  0.535919241663E+00
  0.567029682465E+00  0.516413509656E+00  0.508659607577E+00  0.528316798616E+00  0.566434142112E+00  0.532986089337E+00  0.506500476326E+00
  0.520722450263E+00  0.445302537982E+00  0.491840784477E+00  0.492647481665E+00  0.501420832543E+00  0.469844688780E+00  0.489158519105E+00
  0.487891502972E+00  0.491895270105E+00  0.485574443699E+00  0.487618503881E+00  0.495744169088E+00
  0.000000000000E+00  0.000000000000E+00  0.000000000000E+00  0.000000000000E+00  0.000000000000E+00  0.000000000000E+00  0.000000000000E+00
  0.000000000000E+00  0.000000000000E+00  0.000000000000E+00  0.000000000000E+00  0.000000000000E+00  0.000000000000E+00  0.000000000000E+00
  0.000000000000E+00  0.000000000000E+00  0.000000000000E+00  0.000000000000E+00  0.000000000000E+00  0.000000000000E+00  0.000000000000E+00
  0.000000000000E+00  0.000000000000E+00  0.000000000000E+00  0.000000000000E+00  0.000000000000E+00  0.000000000000E+00  0.000000000000E+00
  0.000000000000E+00  0.000000000000E+00  0.000000000000E+00  0.000000000000E+00  0.000000000000E+00
  0.000000000000E+00  0.000000000000E+00  0.000000000000E+00 -0.228787932001E-02  0.000000000000E+00  0.184382857665E-01  0.114382302509E-01
  0.449169451071E-01  0.000000000000E+00  0.866356551538E-01 -0.969155023769E-01 -0.217476932149E-01 -0.302169870431E-01 -0.405210239965E-01
 -0.573483598602E-03  0.169108779140E-02  0.185159885562E-02  0.180640712699E-02  0.153246135530E-01  0.288066146686E-01  0.614076673392E-02
  0.554070032810E-01  0.843971818151E-01  0.111772456137E-01  0.660675938618E-02  0.136110888680E-04  0.268924867691E-02 -0.853215989649E-03
  0.370763156398E-02  0.566397774277E-02  0.102422985849E-02  0.914522410629E-03  0.445298682028E-02
  0.594040014977E+00  0.669257470757E+00  0.668167038466E+00  0.684522147033E+00  0.686768438319E+00  0.679274482082E+00  0.695948790973E+00
  0.702390535608E+00  0.103418462411E+01  0.723545578941E+00  0.672749974408E+00  0.676346069087E+00  0.693934730464E+00  0.719881930976E+00
  0.712449311122E+00  0.724516416931E+00  0.716380700614E+00  0.713137898020E+00  0.706611877482E+00  0.717766786416E+00  0.715686147590E+00
  0.730918887718E+00  0.791195134496E+00  0.724241150757E+00  0.721036354470E+00  0.715447349714E+00  0.741827108415E+00  0.723983027227E+00
  0.719780796852E+00  0.717936722127E+00  0.717572519514E+00  0.717293655770E+00  0.718433596849E+00
  0.000000000000E+00  0.000000000000E+00  0.000000000000E+00  0.382013423281E+00  0.000000000000E+00  0.344443443128E+00  0.583210475328E+00
  0.577852563800E+00  0.000000000000E+00  0.500907654948E+00  0.508863959680E+00  0.437956902933E+00  0.571314386292E+00  0.536612405684E+00
  0.566989667763E+00  0.515198322129E+00  0.508446729490E+00  0.528169557372E+00  0.567227284357E+00  0.532877371376E+00  0.506306946001E+00
  0.520830059234E+00  0.444398664001E+00  0.491158714277E+00  0.492046175027E+00  0.501293225723E+00  0.467605982158E+00  0.488183827360E+00
  0.487321451050E+00  0.491863973393E+00  0.485570456646E+00  0.487389639726E+00  0.495254121035E+00
  0.999993487732E+00  0.999993693151E+00  0.999993544887E+00  0.989101690105E+00  0.999993139390E+00  0.985107022363E+00  0.990351756141E+00
  0.991890165713E+00  0.999992722271E+00  0.984345628113E+00  0.985237862248E+00  0.984144011064E+00  0.990485609721E+00  0.100312034752E+01
  0.100014217592E+01  0.100473369577E+01  0.100085080344E+01  0.100056932792E+01  0.997935298801E+00  0.100333041709E+01  0.100091172597E+01
  0.101090397604E+01  0.104013902040E+01  0.100329719683E+01  0.100262588731E+01  0.100050917603E+01  0.100963118002E+01  0.100400017496E+01
  0.100239878424E+01  0.100025986455E+01  0.100002087149E+01  0.100094288372E+01  0.100206079904E+01
        15         7        19        19
         8        20        19        19
        18        19        21        21
         7         4         8         8
         3         6         4         4
        19         7         8         8
        19        18        15        15
        14        13        15        15
         8        22        20        20
        27        24        22        22
        19        20        21        21
        32        26        21        21
        17        18        26        26
        17        16        15        15
        25        29        21        21
        12         7        13        13
        10         8         6         6
        25        20        24        24
         4         6         8         8
        12         2         4         4
        10        23        22        22
        26        31        17        17
        30        16        17        17
         4         7        12        12
        13        11        12        12
        21        20        25        25
        24        28        25        25
        22         8        10        10
         6         5        10        10
        31        26        32        32
         4         2         3         3
         5         6         3         3
        11        13        14        14
        22        23        27        27
        28        24        27        27
        15        13         7         7
         2        12         1         1
        29        25        33        33
        23        10         9         9
        21        26        18        18
        16        14        15        15
        18        17        15        15
        29        32        21        21
        22        24        20        20
        28        33        25        25
        11         1        12        12
        31        30        17        17
         5         9        10        10
zone t="boundary 3 bc-3", solutiontime= 0.1000000E+02, strandid=1003, i=33, j=48, f=feblock
  0.375000000000E+01  0.250000000000E+01  0.500000000000E+01  0.403552511878E+01  0.288078410721E+01  0.125000000000E+01  0.190974100652E+01
  0.500000000000E+01  0.326683758169E+01  0.423153924130E+01  0.201431602454E+01  0.000000000000E+00  0.963108083381E+00  0.500000000000E+01
  0.267000324704E+01  0.385533350601E+01  0.893127759452E+00  0.154774304040E+01  0.000000000000E+00  0.500000000000E+01  0.315249557942E+01
  0.218329375016E+01  0.398173246726E+01  0.000000000000E+00  0.698517061619E+00  0.964171764089E+00  0.125000000000E+01  0.000000000000E+00
  0.500000000000E+01  0.310324758057E+01  0.250000000000E+01  0.375000000000E+01  0.000000000000E+00
  0.250000000000E+01  0.250000000000E+01  0.250000000000E+01  0.250000000000E+01  0.250000000000E+01  0.250000000000E+01  0.250000000000E+01
  0.250000000000E+01  0.250000000000E+01  0.250000000000E+01  0.250000000000E+01  0.250000000000E+01  0.250000000000E+01  0.250000000000E+01
  0.250000000000E+01  0.250000000000E+01  0.250000000000E+01  0.250000000000E+01  0.250000000000E+01  0.250000000000E+01  0.250000000000E+01
  0.250000000000E+01  0.250000000000E+01  0.250000000000E+01  0.250000000000E+01  0.250000000000E+01  0.250000000000E+01  0.250000000000E+01
  0.250000000000E+01  0.250000000000E+01  0.250000000000E+01  0.250000000000E+01  0.250000000000E+01
  0.000000000000E+00  0.000000000000E+00  0.000000000000E+00  0.101201586758E+01  0.904659890645E+00  0.000000000000E+00  0.717002441913E+00
  0.125000000000E+01  0.188609243358E+01  0.191586535653E+01  0.176246431481E+01  0.000000000000E+00  0.961328577125E+00  0.250000000000E+01
  0.285047954584E+01  0.293121848150E+01  0.205246550326E+01  0.292817774674E+01  0.125000000000E+01  0.375000000000E+01  0.363585050272E+01
  0.395907379566E+01  0.406975391361E+01  0.250000000000E+01  0.306828197606E+01  0.397245519226E+01  0.500000000000E+01  0.375000000000E+01
  0.500000000000E+01  0.433168271247E+01  0.500000000000E+01  0.500000000000E+01  0.500000000000E+01
  0.943813143306E+00  0.947744846192E+00  0.844100947795E+00  0.965891853761E+00  0.980212804999E+00  0.957697273673E+00  0.984138050597E+00
  0.964121945375E+00  0.982837218936E+00  0.984087814125E+00  0.990552180642E+00  0.134396596053E+01  0.101911328571E+01  0.100729640036E+01
  0.993499827667E+00  0.997601423727E+00  0.100791843006E+01  0.100077530999E+01  0.106288564916E+01  0.100618477849E+01  0.100059357142E+01
  0.100249419954E+01  0.100182781999E+01  0.102374887844E+01  0.100882730625E+01  0.100540993531E+01  0.100528491050E+01  0.100815139839E+01
  0.100457495934E+01  0.100186529207E+01  0.100461052692E+01  0.100575142309E+01  0.100300465263E+01
  0.000000000000E+00  0.000000000000E+00  0.000000000000E+00  0.440750670844E+00  0.400715097559E+00  0.000000000000E+00  0.373002526195E+00
  0.495608828502E+00  0.571962655366E+00  0.568806566192E+00  0.558798817871E+00  0.000000000000E+00  0.482764916861E+00  0.533602897017E+00
  0.556443598066E+00  0.564022265284E+00  0.522725277440E+00  0.522941483456E+00  0.446358084203E+00  0.518445048385E+00  0.525239884576E+00
  0.503208373355E+00  0.508924008369E+00  0.472067248583E+00  0.496211333000E+00  0.494405917739E+00  0.486389738705E+00  0.489656768645E+00
  0.493313380599E+00  0.498020318393E+00  0.483717032509E+00  0.484198149197E+00  0.496307945413E+00
  0.000000000000E+00  0.000000000000E+00  0.000000000000E+00  0.000000000000E+00  0.000000000000E+00  0.000000000000E+00  0.000000000000E+00
  0.000000000000E+00  0.000000000000E+00  0.000000000000E+00  0.000000000000E+00  0.000000000000E+00  0.000000000000E+00  0.000000000000E+00
  0.000000000000E+00  0.000000000000E+00  0.000000000000E+00  0.000000000000E+00  0.000000000000E+00  0.000000000000E+00  0.000000000000E+00
  0.000000000000E+00  0.000000000000E+00  0.000000000000E+00  0.000000000000E+00  0.000000000000E+00  0.000000000000E+00  0.000000000000E+00
  0.000000000000E+00  0.000000000000E+00  0.000000000000E+00  0.000000000000E+00  0.000000000000E+00
  0.000000000000E+00  0.000000000000E+00  0.000000000000E+00 -0.224687351247E-01  0.108026778882E-01  0.000000000000E+00  0.177288213455E-01
 -0.979338787883E-01  0.370529226668E-02 -0.377253753125E-01  0.330651305946E-01  0.000000000000E+00  0.645451356645E-01 -0.415865209902E-01
  0.829503203707E-02 -0.598356764241E-02  0.483632369462E-01  0.130696352057E-01  0.455578361911E-01 -0.264320214799E-03 -0.367168847045E-03
  0.204215327623E-02  0.141795274592E-02  0.371051004371E-02  0.101472432674E-01  0.438344302560E-02  0.369810933391E-02  0.875249833596E-03
  0.477696888794E-02  0.686634635555E-03  0.206694620613E-02  0.233653091777E-02  0.449760172978E-02
  0.674145060089E+00  0.676953434601E+00  0.602922995037E+00  0.676678163283E+00  0.691682242172E+00  0.684062523647E+00  0.690393835573E+00
  0.677703156079E+00  0.695241263338E+00  0.696246675965E+00  0.703454748880E+00  0.959966371828E+00  0.719436802954E+00  0.722257078280E+00
  0.709528161062E+00  0.713538717329E+00  0.725990278076E+00  0.716689662893E+00  0.781902653553E+00  0.721786776116E+00  0.716089330984E+00
  0.716741608708E+00  0.716386817187E+00  0.737246062663E+00  0.722653236685E+00  0.719586081725E+00  0.719926510537E+00  0.722624471703E+00
  0.717629868377E+00  0.715881564329E+00  0.718220945483E+00  0.718281779856E+00  0.718031343602E+00
  0.000000000000E+00  0.000000000000E+00  0.000000000000E+00  0.445621076130E+00  0.403307517514E+00  0.000000000000E+00  0.376805574781E+00
  0.509259155974E+00  0.574759020382E+00  0.572781580740E+00  0.561398214723E+00  0.000000000000E+00  0.489929847625E+00  0.534197490350E+00
  0.556550352399E+00  0.563671954024E+00  0.522766424848E+00  0.522429138010E+00  0.442116500300E+00  0.517336571424E+00  0.524733798149E+00
  0.502975745767E+00  0.508643334843E+00  0.470157920376E+00  0.495606378338E+00  0.493931723416E+00  0.485773072906E+00  0.488804262256E+00
  0.493310272847E+00  0.497929128639E+00  0.483505207677E+00  0.484241567227E+00  0.495775218270E+00
  0.999989341977E+00  0.999989408805E+00  0.999989628323E+00  0.980802793716E+00  0.987902967704E+00  0.999989829179E+00  0.982129864013E+00
  0.984091714811E+00  0.990334665721E+00  0.990506469403E+00  0.994229953433E+00  0.999990297395E+00  0.988321453817E+00  0.100383552371E+01
  0.999838548356E+00  0.100135603308E+01  0.100840143309E+01  0.100258821140E+01  0.102989791596E+01  0.100429017430E+01  0.100193034616E+01
  0.100094170385E+01  0.100111169210E+01  0.100820084833E+01  0.100286196170E+01  0.100199976053E+01  0.100259847156E+01  0.100349437792E+01
  0.100010636975E+01  0.100036821117E+01  0.100089467184E+01  0.999843966123E+00  0.100223252046E+01
        15         9        16        16
        15        18        11        11
        22        15        21        21
        11         5         9         9
         5         7         2         2
        11         9        15        15
        16        21        15        15
        16        10        14        14
        18        17        11        11
        17        25        24        24
        22        18        15        15
        22        30        31        31
        30        21        23        23
        16        20        23        23
        22        27        26        26
        10         9         4         4
         7        11        13        13
        25        18        26        26
        11         7         5         5
         5         1         4         4
        17        19        13        13
        23        32        30        30
        23        20        29        29
         4         9         5         5
         4         8        10        10
        26        18        22        22
        26        28        25        25
        13        11        17        17
        13         6         7         7
        31        30        32        32
         2         1         5         5
         2         7         6         6
        14        10         8         8
        24        19        17        17
        24        25        28        28
         9        10        16        16
         3         4         1         1
        33        26        27        27
        12        13        19        19
        21        30        22        22
        16        14        20        20
        16        23        21        21
        22        31        27        27
        18        25        17        17
        26        33        28        28
         4         3         8         8
        23        29        32        32
        13        12         6         6
zone t="boundary 4 bc-4", solutiontime= 0.1000000E+02, strandid=1004, i=32, j=46, f=feblock
  0.125000000000E+01  0.219251206392E+01  0.103724302461E+01  0.500000000000E+01  0.250000000000E+01  0.375000000000E+01  0.404200324774E+01
  0.500000000000E+01  0.000000000000E+00  0.310152362409E+01  0.202479342020E+01  0.324151231464E+01  0.922061490191E+00  0.000000000000E+00
  0.299062775774E+01  0.394624082883E+01  0.500000000000E+01  0.409252726285E+01  0.500000000000E+01  0.429310310915E+01  0.175434191980E+01
  0.284428995242E+01  0.000000000000E+00  0.000000000000E+00  0.715990576545E+00  0.930412228790E+00  0.125000000000E+01  0.187029682677E+01
  0.500000000000E+01  0.375000000000E+01  0.250000000000E+01  0.000000000000E+00
  0.250000000000E+01  0.157686156160E+01  0.146289271009E+01  0.250000000000E+01  0.250000000000E+01  0.250000000000E+01  0.155830813274E+01
  0.125000000000E+01  0.250000000000E+01  0.177790177481E+01  0.477386199275E+00  0.742988685424E+00  0.308372018325E+00  0.125000000000E+01
 -0.487811078581E+00 -0.144524380962E+01 -0.125000000000E+01 -0.345533899378E+00  0.000000000000E+00  0.627766083140E+00 -0.739814786992E+00
 -0.158811787973E+01  0.000000000000E+00 -0.125000000000E+01 -0.600232012419E+00 -0.154800130438E+01 -0.250000000000E+01 -0.178862290564E+01
 -0.250000000000E+01 -0.250000000000E+01 -0.250000000000E+01 -0.250000000000E+01
  0.500000000000E+01  0.500000000000E+01  0.500000000000E+01  0.500000000000E+01  0.500000000000E+01  0.500000000000E+01  0.500000000000E+01
  0.500000000000E+01  0.500000000000E+01  0.500000000000E+01  0.500000000000E+01  0.500000000000E+01  0.500000000000E+01  0.500000000000E+01
  0.500000000000E+01  0.500000000000E+01  0.500000000000E+01  0.500000000000E+01  0.500000000000E+01  0.500000000000E+01  0.500000000000E+01
  0.500000000000E+01  0.500000000000E+01  0.500000000000E+01  0.500000000000E+01  0.500000000000E+01  0.500000000000E+01  0.500000000000E+01
  0.500000000000E+01  0.500000000000E+01  0.500000000000E+01  0.500000000000E+01
  0.100528491050E+01  0.100481213325E+01  0.100454652535E+01  0.100457495934E+01  0.100461052692E+01  0.100575142309E+01  0.100519642951E+01
  0.100477824498E+01  0.100300465263E+01  0.100530973334E+01  0.100474175802E+01  0.100468643186E+01  0.100353625070E+01  0.100388286072E+01
  0.100466978723E+01  0.100338589046E+01  0.100511432139E+01  0.100451939772E+01  0.100476718930E+01  0.100579165778E+01  0.100440679787E+01
  0.100395541126E+01  0.100321537366E+01  0.100342413901E+01  0.100313593352E+01  0.100406071947E+01  0.100528166179E+01  0.100421777884E+01
  0.100485028601E+01  0.100458056022E+01  0.100326515569E+01  0.100373853218E+01
  0.486389738705E+00  0.486750333586E+00  0.489155376240E+00  0.493313380599E+00  0.483717032509E+00  0.484198149197E+00  0.486438078498E+00
  0.494607020524E+00  0.496307945413E+00  0.484748996556E+00  0.486074181541E+00  0.486482034765E+00  0.493033311382E+00  0.497492500316E+00
  0.486347332189E+00  0.485257156478E+00  0.493788706926E+00  0.488630692548E+00  0.495402089072E+00  0.489159304464E+00  0.487288273610E+00
  0.486488460401E+00  0.498116300928E+00  0.496793354564E+00  0.494574763586E+00  0.491698256104E+00  0.487891502972E+00  0.487577204956E+00
  0.491895270105E+00  0.485574443699E+00  0.487618503881E+00  0.495744169088E+00
  0.000000000000E+00  0.267010235888E-03 -0.143245430067E-02  0.000000000000E+00  0.000000000000E+00  0.000000000000E+00  0.771315330666E-03
  0.111094482545E-02  0.000000000000E+00  0.657713554897E-03 -0.412214331817E-03  0.157036906167E-03 -0.200982278616E-02 -0.433573571643E-03
 -0.404175305183E-03 -0.183068200284E-03 -0.225623093818E-03 -0.636822893694E-03  0.889406427196E-04  0.155443863166E-06 -0.581287622332E-03
 -0.128132606337E-03 -0.412220791392E-03  0.823832782192E-03 -0.198090648859E-03  0.144685556302E-02  0.000000000000E+00  0.818727382451E-03
  0.000000000000E+00  0.000000000000E+00  0.000000000000E+00  0.000000000000E+00