title="tecplot geometry and solution file"
variables = x y z rho u v w p mach temperature
zone t="boundary 1 bc-1", solutiontime= 0.4000000E+02, strandid=1001, i=32, j=46, f=feblock
  0.000000000000E+00  0.000000000000E+00  0.000000000000E+00  0.000000000000E+00  0.000000000000E+00  0.000000000000E+00  0.000000000000E+00
  0.000000000000E+00  0.000000000000E+00  0.000000000000E+00  0.000000000000E+00  0.000000000000E+00  0.000000000000E+00  0.000000000000E+00
  0.000000000000E+00  0.000000000000E+00  0.000000000000E+00  0.000000000000E+00  0.000000000000E+00  0.000000000000E+00  0.000000000000E+00
  0.000000000000E+00  0.000000000000E+00  0.000000000000E+00  0.000000000000E+00  0.000000000000E+00  0.000000000000E+00  0.000000000000E+00
  0.000000000000E+00  0.000000000000E+00  0.000000000000E+00  0.000000000000E+00
  0.250000000000E+01  0.250000000000E+01  0.125000000000E+01  0.146289271009E+01  0.157686156160E+01  0.308372018325E+00  0.000000000000E+00
 -0.125000000000E+01 -0.600232012419E+00  0.250000000000E+01  0.477386199275E+00  0.742988685424E+00 -0.739814786992E+00  0.177790177481E+01
  0.155830813274E+01  0.250000000000E+01 -0.250000000000E+01 -0.154800130438E+01 -0.487811078581E+00  0.250000000000E+01  0.627766083140E+00
 -0.345533899378E+00 -0.178862290564E+01 -0.158811787973E+01  0.125000000000E+01 -0.250000000000E+01 -0.144524380962E+01  0.000000000000E+00
 -0.125000000000E+01 -0.250000000000E+01 -0.250000000000E+01 -0.250000000000E+01
  0.000000000000E+00  0.125000000000E+01  0.000000000000E+00  0.103724302461E+01  0.219251206392E+01  0.922061490191E+00  0.000000000000E+00
  0.000000000000E+00  0.715990576545E+00  0.250000000000E+01  0.202479342020E+01  0.324151231464E+01  0.175434191980E+01  0.310152362409E+01
  0.404200324774E+01  0.375000000000E+01  0.000000000000E+00  0.930412228790E+00  0.299062775774E+01  0.500000000000E+01  0.429310310915E+01
  0.409252726285E+01  0.187029682677E+01  0.284428995242E+01  0.500000000000E+01  0.125000000000E+01  0.394624082883E+01  0.500000000000E+01
  0.500000000000E+01  0.250000000000E+01  0.375000000000E+01  0.500000000000E+01
  0.134427145342E+01  0.106355395283E+01  0.142583204948E+01  0.108608796616E+01  0.103229115021E+01  0.120095364464E+01  0.164466727443E+01
  0.149409064071E+01  0.123520366927E+01  0.102389313737E+01  0.102809523357E+01  0.101301828579E+01  0.103252946722E+01  0.101471891388E+01
  0.100663883731E+01  0.100830818662E+01  0.144945745458E+01  0.116393551735E+01  0.101462863651E+01  0.100426040732E+01  0.100679807574E+01
  0.100724553376E+01  0.104668118756E+01  0.101938460437E+01  0.100424800546E+01  0.106442281114E+01  0.100789341666E+01  0.100288844245E+01
  0.100334542189E+01  0.102847361805E+01  0.100958665602E+01  0.100399273866E+01
  0.000000000000E+00  0.445481419867E+00  0.000000000000E+00  0.468737854277E+00  0.462182267239E+00  0.443613739916E+00  0.000000000000E+00
  0.000000000000E+00  0.379272524128E+00  0.471738848748E+00  0.466574961228E+00  0.479355161083E+00  0.490159648366E+00  0.484514726154E+00
  0.488524773365E+00  0.489830199992E+00  0.000000000000E+00  0.450653321801E+00  0.474814037012E+00  0.495784876033E+00  0.490899460190E+00
  0.486835364467E+00  0.448668672920E+00  0.465807186568E+00  0.496536483225E+00  0.444686633644E+00  0.487701037103E+00  0.497534086425E+00
  0.496384260304E+00  0.470002882716E+00  0.489199908092E+00  0.495522029659E+00
  0.000000000000E+00  0.000000000000E+00  0.000000000000E+00  0.186085527625E-01 -0.276688292939E-02  0.332952467439E-01  0.000000000000E+00
  0.000000000000E+00 -0.594701794236E-02  0.000000000000E+00  0.356648594011E-02 -0.566637990585E-02 -0.416060354859E-02  0.305534860408E-04
 -0.106176516645E-02  0.000000000000E+00  0.000000000000E+00 -0.764112751216E-02  0.359619712330E-03  0.000000000000E+00 -0.203512851137E-02
 -0.138313244185E-02  0.156561561816E-02 -0.158521316860E-02 -0.638395973964E-04  0.000000000000E+00 -0.283451017871E-04 -0.196341516413E-03
  0.807127122516E-03  0.000000000000E+00  0.000000000000E+00  0.000000000000E+00
  0.000000000000E+00  0.452181798986E-01  0.000000000000E+00  0.123933294062E+00  0.247647190145E-01  0.165644512010E+00  0.000000000000E+00
  0.000000000000E+00  0.155763096942E+00  0.351822662685E-02  0.259783163644E-01 -0.651224840808E-02  0.748997896762E-01  0.371839406795E-02
 -0.149291997293E-03  0.459058873679E-03  0.000000000000E+00  0.140954083793E+00 -0.808565727498E-02  0.237176898963E-02 -0.304298809148E-03
 -0.438193698458E-02  0.255017506350E-01 -0.194957187493E-02  0.308362262341E-02  0.837461354338E-01 -0.121909286925E-02  0.268513923695E-02
  0.264043136822E-02  0.279386969392E-02 -0.834665065251E-03  0.345018559221E-02
  0.960184576733E+00  0.782340561755E+00  0.101844205144E+01  0.808726656003E+00  0.746125889953E+00  0.879446499077E+00  0.117475225582E+01
  0.106719924256E+01  0.916620146398E+00  0.737395237812E+00  0.743553970414E+00  0.725759209664E+00  0.757455248952E+00  0.729188341547E+00
  0.720785046096E+00  0.722781669365E+00  0.103531921798E+01  0.858317140190E+00  0.728065070181E+00  0.718615291881E+00  0.721013448201E+00
  0.721151586940E+00  0.760018783765E+00  0.732628400406E+00  0.718531161378E+00  0.791043236366E+00  0.722107947370E+00  0.717199386616E+00
  0.717636872667E+00  0.741799734045E+00  0.724056578530E+00  0.718400640131E+00
  0.000000000000E+00  0.441238352703E+00  0.000000000000E+00  0.475214984458E+00  0.460123711716E+00  0.468827816676E+00  0.000000000000E+00
  0.000000000000E+00  0.402302518161E+00  0.469814974020E+00  0.464411136736E+00  0.478714037942E+00  0.489298237580E+00  0.483068560182E+00
  0.487930062869E+00  0.488961665949E+00  0.000000000000E+00  0.464775736856E+00  0.473795659365E+00  0.495346580488E+00  0.490266092685E+00
  0.486286080271E+00  0.445717622019E+00  0.464382286388E+00  0.496127396302E+00  0.443624080899E+00  0.486964453630E+00  0.497246275726E+00
  0.496059266505E+00  0.467732360435E+00  0.488212090064E+00  0.495098267476E+00
  0.999990295117E+00  0.102982719733E+01  0.999990758053E+00  0.104247294297E+01  0.101190080504E+01  0.102520618027E+01  0.999991416938E+00
  0.999992168392E+00  0.103891223520E+01  0.100826277202E+01  0.101252833842E+01  0.100300548152E+01  0.102702865361E+01  0.100605563196E+01
  0.100244400189E+01  0.100355660158E+01  0.999992721820E+00  0.103239739518E+01  0.100459523966E+01  0.100179336086E+01  0.100260305597E+01
  0.100234966339E+01  0.101657153097E+01  0.100617544759E+01  0.100168844794E+01  0.104043291756E+01  0.100303376291E+01  0.100118726946E+01
  0.100134171126E+01  0.100976788265E+01  0.100405369257E+01  0.100176112581E+01
        12        19        11        11
        11         5        12        12
        10        14         5         5
        19        13        11        11
        19        24        13        13
        30        23        24        24
        19        12        22        22
        28        22        21        21
        11        13         6         6
         7         6         9         9
        15        12        14        14
        18        13        23        23
        15        25        21        21
        27        19        22        22
        18         8         9         9
        27        31        24        24
         4        11         6         6
         5        14        12        12
         4         2         5         5
        21        12        15        15
        14        16        15        15
        24        19        27        27
        22        29        27        27
        23        26        18        18
        17         8        18        18
         5        11         4         4
         6         3         4         4
        26        23        30        30
         5         2        10        10
        16        14        10        10
         3         6         7         7
        21        25        28        28
        29        22        28        28
         6        13         9         9
         2         4         1         1
        31        27        32        32
        25        15        20        20
        24        23        13        13
         8         7         9         9
        13        18         9         9
        31        30        24        24
        12        21        22        22
        29        32        27        27
         3         1         4         4
        26        17        18        18
        16        20        15        15
zone t="boundary 2 bc-2", solutiontime= 0.4000000E+02, strandid=1002, i=33, j=48, f=feblock
  0.500000000000E+01  0.375000000000E+01  0.250000000000E+01  0.288078410721E+01  0.125000000000E+01  0.190974100652E+01  0.326683758169E+01
  0.201431602454E+01  0.000000000000E+00  0.963108083381E+00  0.500000000000E+01  0.403552511878E+01  0.423153924130E+01  0.500000000000E+01
  0.385533350601E+01  0.500000000000E+01  0.398173246726E+01  0.315249557942E+01  0.267000324704E+01  0.154774304040E+01  0.218329375016E+01
  0.893127759452E+00  0.000000000000E+00  0.698517061619E+00  0.964171764089E+00  0.310324758057E+01  0.000000000000E+00  0.000000000000E+00
  0.125000000000E+01  0.500000000000E+01  0.375000000000E+01  0.250000000000E+01  0.000000000000E+00
 -0.250000000000E+01 -0.250000000000E+01 -0.250000000000E+01 -0.250000000000E+01 -0.250000000000E+01 -0.250000000000E+01 -0.250000000000E+01
 -0.250000000000E+01 -0.250000000000E+01 -0.250000000000E+01 -0.250000000000E+01 -0.250000000000E+01 -0.250000000000E+01 -0.250000000000E+01
 -0.250000000000E+01 -0.250000000000E+01 -0.250000000000E+01 -0.250000000000E+01 -0.250000000000E+01 -0.250000000000E+01 -0.250000000000E+01
 -0.250000000000E+01 -0.250000000000E+01 -0.250000000000E+01 -0.250000000000E+01 -0.250000000000E+01 -0.250000000000E+01 -0.250000000000E+01
 -0.250000000000E+01 -0.250000000000E+01 -0.250000000000E+01 -0.250000000000E+01 -0.250000000000E+01
  0.000000000000E+00  0.000000000000E+00  0.000000000000E+00  0.904659890645E+00  0.000000000000E+00  0.717002441913E+00  0.188609243358E+01
  0.176246431481E+01  0.000000000000E+00  0.961328577125E+00  0.125000000000E+01  0.101201586758E+01  0.191586535653E+01  0.250000000000E+01
  0.293121848150E+01  0.375000000000E+01  0.406975391361E+01  0.363585050272E+01  0.285047954584E+01  0.292817774674E+01  0.395907379566E+01
  0.205246550326E+01  0.125000000000E+01  0.306828197606E+01  0.397245519226E+01  0.433168271247E+01  0.250000000000E+01  0.375000000000E+01
  0.500000000000E+01  0.500000000000E+01  0.500000000000E+01  0.500000000000E+01  0.500000000000E+01
  0.830787409463E+00  0.935297261275E+00  0.934221979750E+00  0.968087715057E+00  0.961719526396E+00  0.964848339525E+00  0.984136205630E+00
  0.991412447319E+00  0.144945745458E+01  0.102921689101E+01  0.955878716622E+00  0.960692948888E+00  0.981487966356E+00  0.100642908931E+01
  0.997912114808E+00  0.100977868829E+01  0.100199484821E+01  0.998063219127E+00  0.991085841078E+00  0.100132719298E+01  0.100094599997E+01
  0.101224609747E+01  0.106442281114E+01  0.101082189990E+01  0.100685257811E+01  0.100118412844E+01  0.102847361805E+01  0.100958665602E+01
  0.100510171189E+01  0.100179475089E+01  0.100266311901E+01  0.100321164492E+01  0.100399273866E+01
  0.000000000000E+00  0.000000000000E+00  0.000000000000E+00  0.378986938456E+00  0.000000000000E+00  0.340639446252E+00  0.582179008062E+00
  0.575195822409E+00  0.000000000000E+00  0.489449422049E+00  0.494741307681E+00  0.431507394178E+00  0.568961809497E+00  0.536179840922E+00
  0.568879734213E+00  0.516235691457E+00  0.508555819167E+00  0.527399314338E+00  0.566648556774E+00  0.531828935090E+00  0.506096475820E+00
  0.520701996864E+00  0.444686633644E+00  0.491339928709E+00  0.492734940078E+00  0.501504526340E+00  0.470002882716E+00  0.489199908092E+00
  0.490458154822E+00  0.491426965690E+00  0.486218274373E+00  0.490304429868E+00  0.495522029659E+00
  0.000000000000E+00  0.000000000000E+00  0.000000000000E+00  0.000000000000E+00  0.000000000000E+00  0.000000000000E+00  0.000000000000E+00
  0.000000000000E+00  0.000000000000E+00  0.000000000000E+00  0.000000000000E+00  0.000000000000E+00  0.000000000000E+00  0.000000000000E+00
  0.000000000000E+00  0.000000000000E+00  0.000000000000E+00  0.000000000000E+00  0.000000000000E+00  0.000000000000E+00  0.000000000000E+00
  0.000000000000E+00  0.000000000000E+00  0.000000000000E+00  0.000000000000E+00  0.000000000000E+00  0.000000000000E+00  0.000000000000E+00
  0.000000000000E+00  0.000000000000E+00  0.000000000000E+00  0.000000000000E+00  0.000000000000E+00
  0.000000000000E+00  0.000000000000E+00  0.000000000000E+00 -0.229668915192E-02  0.000000000000E+00  0.183565264820E-01  0.121122200398E-01
  0.454986556950E-01  0.000000000000E+00  0.870789632253E-01 -0.995426033180E-01 -0.211865034046E-01 -0.306441330351E-01 -0.414442966531E-01
 -0.137879723824E-02  0.259922308259E-02  0.609521068214E-03  0.503605298756E-03  0.150967390616E-01  0.284025713691E-01  0.564165152472E-02
  0.553419853368E-01  0.837461354338E-01  0.110441034363E-01  0.679168612749E-02 -0.758101981106E-03  0.279386969392E-02 -0.834665065251E-03
  0.400707438444E-02  0.602725413384E-02 -0.143896396379E-03  0.120117131102E-02  0.345018559221E-02
  0.593415713584E+00  0.668065256967E+00  0.667297105484E+00  0.684257572365E+00  0.686937804774E+00  0.679201333697E+00  0.695811644888E+00
  0.702343850647E+00  0.103531921798E+01  0.723694675147E+00  0.672591699950E+00  0.675702735491E+00  0.694093187877E+00  0.720959953202E+00
  0.712691285990E+00  0.724770860588E+00  0.716580556672E+00  0.713298978005E+00  0.706429553998E+00  0.717737236853E+00  0.715376597511E+00
  0.730937672749E+00  0.791043236366E+00  0.724372845311E+00  0.721010715985E+00  0.715457525843E+00  0.741799734045E+00  0.724056578530E+00
  0.719312937016E+00  0.715892793443E+00  0.716608872484E+00  0.717367929091E+00  0.718400640131E+00
  0.000000000000E+00  0.000000000000E+00  0.000000000000E+00  0.380991904399E+00  0.000000000000E+00  0.343629828951E+00  0.585286158487E+00
  0.579373267169E+00  0.000000000000E+00  0.501056069378E+00  0.508460334059E+00  0.435373040510E+00  0.572640026575E+00  0.537002107493E+00
  0.568922544353E+00  0.514994098765E+00  0.508247389268E+00  0.527252886109E+00  0.567446670883E+00  0.531657156225E+00  0.505981032632E+00
  0.520795577636E+00  0.443624080899E+00  0.490663739840E+00  0.492155878364E+00  0.501390828355E+00  0.467732360435E+00  0.488212090064E+00
  0.490002738135E+00  0.491352316904E+00  0.486075474315E+00  0.490036474021E+00  0.495098267476E+00
  0.999993487570E+00  0.999993690219E+00  0.999993543213E+00  0.989539053550E+00  0.999993137591E+00  0.985524696705E+00  0.989838903670E+00
  0.991798512884E+00  0.999992721820E+00  0.984411113006E+00  0.985091898748E+00  0.984689052608E+00  0.990058458522E+00  0.100289622508E+01
  0.999855383635E+00  0.100485305997E+01  0.100121550638E+01  0.100055642776E+01  0.997896786137E+00  0.100350029305E+01  0.100058068722E+01
  0.101093276073E+01  0.104043291756E+01  0.100326475271E+01  0.100254498456E+01  0.100045586794E+01  0.100976788265E+01  0.100405369257E+01
  0.100192657113E+01  0.100045434449E+01  0.100058773726E+01  0.100109992325E+01  0.100176112581E+01
        15         7        19        19
         8        20        19        19
        18        19        21        21
         7         4         8         8
         3         6         4         4
        19         7         8         8
        19        18        15        15
        14        13        15        15
         8        22        20        20
        27        24        22        22
        19        20        21        21
        32        26        21        21
        17        18        26        26
        17        16        15        15
        25        29        21        21
        12         7        13        13
        10         8         6         6
        25        20        24        24
         4         6         8         8
        12         2         4         4
        10        23        22        22
        26        31        17        17
        30        16        17        17
         4         7        12        12
        13        11        12        12
        21        20        25        25
        24        28        25        25
        22         8        10        10
         6         5        10        10
        31        26        32        32
         4         2         3         3
         5         6         3         3
        11        13        14        14
        22        23        27        27
        28        24        27        27
        15        13         7         7
         2        12         1         1
        29        25        33        33
        23        10         9         9
        21        26        18        18
        16        14        15        15
        18        17        15        15
        29        32        21        21
        22        24        20        20
        28        33        25        25
        11         1        12        12
        31        30        17        17
         5         9        10        10
zone t="boundary 3 bc-3", solutiontime= 0.4000000E+02, strandid=1003, i=33, j=48, f=feblock
  0.375000000000E+01  0.250000000000E+01  0.500000000000E+01  0.403552511878E+01  0.288078410721E+01  0.125000000000E+01  0.190974100652E+01
  0.500000000000E+01  0.326683758169E+01  0.423153924130E+01  0.201431602454E+01  0.000000000000E+00  0.963108083381E+00  0.500000000000E+01
  0.267000324704E+01  0.385533350601E+01  0.893127759452E+00  0.154774304040E+01  0.000000000000E+00  0.500000000000E+01  0.315249557942E+01
  0.218329375016E+01  0.398173246726E+01  0.000000000000E+00  0.698517061619E+00  0.964171764089E+00  0.125000000000E+01  0.000000000000E+00
  0.500000000000E+01  0.310324758057E+01  0.250000000000E+01  0.375000000000E+01  0.000000000000E+00
  0.250000000000E+01  0.250000000000E+01  0.250000000000E+01  0.250000000000E+01  0.250000000000E+01  0.250000000000E+01  0.250000000000E+01
  0.250000000000E+01  0.250000000000E+01  0.250000000000E+01  0.250000000000E+01  0.250000000000E+01  0.250000000000E+01  0.250000000000E+01
  0.250000000000E+01  0.250000000000E+01  0.250000000000E+01  0.250000000000E+01  0.250000000000E+01  0.250000000000E+01  0.250000000000E+01
  0.250000000000E+01  0.250000000000E+01  0.250000000000E+01  0.250000000000E+01  0.250000000000E+01  0.250000000000E+01  0.250000000000E+01
  0.250000000000E+01  0.250000000000E+01  0.250000000000E+01  0.250000000000E+01  0.250000000000E+01
  0.000000000000E+00  0.000000000000E+00  0.000000000000E+00  0.101201586758E+01  0.904659890645E+00  0.000000000000E+00  0.717002441913E+00
  0.125000000000E+01  0.188609243358E+01  0.191586535653E+01  0.176246431481E+01  0.000000000000E+00  0.961328577125E+00  0.250000000000E+01
  0.285047954584E+01  0.293121848150E+01  0.205246550326E+01  0.292817774674E+01  0.125000000000E+01  0.375000000000E+01  0.363585050272E+01
  0.395907379566E+01  0.406975391361E+01  0.250000000000E+01  0.306828197606E+01  0.397245519226E+01  0.500000000000E+01  0.375000000000E+01
  0.500000000000E+01  0.433168271247E+01  0.500000000000E+01  0.500000000000E+01  0.500000000000E+01
  0.941861281365E+00  0.946296414602E+00  0.843730533020E+00  0.964331301467E+00  0.978820820591E+00  0.956975889060E+00  0.983331397080E+00
  0.963500546985E+00  0.982689288937E+00  0.984244007356E+00  0.990263805477E+00  0.134427145342E+01  0.101918251640E+01  0.100829901689E+01
  0.993456152180E+00  0.997998675053E+00  0.100807808282E+01  0.100072116079E+01  0.106355395283E+01  0.100673528644E+01  0.100058356039E+01
  0.100234980425E+01  0.100178078386E+01  0.102389313737E+01  0.100874208210E+01  0.100528370723E+01  0.100522859504E+01  0.100830818662E+01
  0.100196466895E+01  0.100162011138E+01  0.100413203163E+01  0.100321958514E+01  0.100426040732E+01
  0.000000000000E+00  0.000000000000E+00  0.000000000000E+00  0.439071219146E+00  0.399865796370E+00  0.000000000000E+00  0.373794139390E+00
  0.495017408594E+00  0.573056194242E+00  0.569605084632E+00  0.559932666898E+00  0.000000000000E+00  0.483390703030E+00  0.533822151580E+00
  0.556458768840E+00  0.564688347750E+00  0.522615499091E+00  0.522533043509E+00  0.445481419867E+00  0.518326868970E+00  0.524750893819E+00
  0.503888155751E+00  0.509839691024E+00  0.471738848748E+00  0.496245460531E+00  0.494940392982E+00  0.489076365200E+00  0.489830199992E+00
  0.493065117390E+00  0.499146578291E+00  0.486766687074E+00  0.484758134220E+00  0.495784876033E+00
  0.000000000000E+00  0.000000000000E+00  0.000000000000E+00  0.000000000000E+00  0.000000000000E+00  0.000000000000E+00  0.000000000000E+00
  0.000000000000E+00  0.000000000000E+00  0.000000000000E+00  0.000000000000E+00  0.000000000000E+00  0.000000000000E+00  0.000000000000E+00
  0.000000000000E+00  0.000000000000E+00  0.000000000000E+00  0.000000000000E+00  0.000000000000E+00  0.000000000000E+00  0.000000000000E+00
  0.000000000000E+00  0.000000000000E+00  0.000000000000E+00  0.000000000000E+00  0.000000000000E+00  0.000000000000E+00  0.000000000000E+00
  0.000000000000E+00  0.000000000000E+00  0.000000000000E+00  0.000000000000E+00  0.000000000000E+00
  0.000000000000E+00  0.000000000000E+00  0.000000000000E+00 -0.226115388659E-01  0.111963783678E-01  0.000000000000E+00  0.179816812727E-01
 -0.100761165931E+00  0.390410975048E-02 -0.389325097589E-01  0.340377349707E-01  0.000000000000E+00  0.652293811418E-01 -0.424929260950E-01
  0.843880716985E-02 -0.650992500373E-02  0.490054864799E-01  0.135873402835E-01  0.452181798986E-01  0.737188016652E-03 -0.701209266369E-03
  0.243744186509E-02  0.868952925350E-03  0.351822662685E-02  0.103945233053E-01  0.431655191290E-02  0.337507104873E-02  0.459058873679E-03
  0.572581293354E-02  0.341134909248E-03  0.160978883437E-02  0.569844406088E-03  0.237176898963E-02
  0.672750886164E+00  0.675918851618E+00  0.602658414948E+00  0.676093764373E+00  0.691308917334E+00  0.683547252815E+00  0.690066484416E+00
  0.677274957628E+00  0.695201830674E+00  0.696250880122E+00  0.703344069836E+00  0.960184576733E+00  0.719726359280E+00  0.722866634591E+00
  0.709447754664E+00  0.713700947749E+00  0.726067413258E+00  0.716602920253E+00  0.782340561755E+00  0.722284526567E+00  0.716128633837E+00
  0.716551643259E+00  0.716546536961E+00  0.737395237812E+00  0.722682909543E+00  0.719441261473E+00  0.719566087717E+00  0.722781669365E+00
  0.716030233843E+00  0.715847819618E+00  0.718146761432E+00  0.717062457507E+00  0.718615291881E+00
  0.000000000000E+00  0.000000000000E+00  0.000000000000E+00  0.443767766432E+00  0.402286945872E+00  0.000000000000E+00  0.377550362163E+00
  0.509231871131E+00  0.575832177384E+00  0.573707384703E+00  0.562554069226E+00  0.000000000000E+00  0.490563299007E+00  0.534527112703E+00
  0.556586988768E+00  0.564391561255E+00  0.522730520356E+00  0.522052007463E+00  0.441238352703E+00  0.517182276778E+00  0.524228609888E+00
  0.503687438442E+00  0.509488520188E+00  0.469814974020E+00  0.495614448384E+00  0.494483777211E+00  0.488562435871E+00  0.488961665949E+00
  0.492980868949E+00  0.499005516425E+00  0.486460983186E+00  0.484597194891E+00  0.495346580488E+00
  0.999989339475E+00  0.999989408882E+00  0.999989626910E+00  0.981541580868E+00  0.988773904179E+00  0.999989827206E+00  0.982469471688E+00
  0.984104205905E+00  0.990427568410E+00  0.990355262400E+00  0.994363009457E+00  0.999990295117E+00  0.988652068478E+00  0.100368370045E+01
  0.999769193990E+00  0.100118502341E+01  0.100834885301E+01  0.100252110944E+01  0.102982719733E+01  0.100443319194E+01  0.100199536257E+01
  0.100082056813E+01  0.100138190701E+01  0.100826277202E+01  0.100298787105E+01  0.100192389354E+01  0.100215267231E+01  0.100355660158E+01
  0.100047672183E+01  0.100056591923E+01  0.100126819415E+01  0.100066571206E+01  0.100179336086E+01
        15         9        16        16
        15        18        11        11
        22        15        21        21
        11         5         9         9
         5         7         2         2
        11         9        15        15
        16        21        15        15
        16        10        14        14
        18        17        11        11
        17        25        24        24
        22        18        15        15
        22        30        31        31
        30        21        23        23
        16        20        23        23
        22        27        26        26
        10         9         4         4
         7        11        13        13
        25        18        26        26
        11         7         5         5
         5         1         4         4
        17        19        13        13
        23        32        30        30
        23        20        29        29
         4         9         5         5
         4         8        10        10
        26        18        22        22
        26        28        25        25
        13        11        17        17
        13         6         7         7
        31        30        32        32
         2         1         5         5
         2         7         6         6
        14        10         8         8
        24        19        17        17
        24        25        28        28
         9        10        16        16
         3         4         1         1
        33        26        27        27
        12        13        19        19
        21        30        22        22
        16        14        20        20
        16        23        21        21
        22        31        27        27
        18        25        17        17
        26        33        28        28
         4         3         8         8
        23        29        32        32
        13        12         6         6
zone t="boundary 4 bc-4", solutiontime= 0.4000000E+02, strandid=1004, i=32, j=46, f=feblock
  0.125000000000E+01  0.219251206392E+01  0.103724302461E+01  0.500000000000E+01  0.250000000000E+01  0.375000000000E+01  0.404200324774E+01
  0.500000000000E+01  0.000000000000E+00  0.310152362409E+01  0.202479342020E+01  0.324151231464E+01  0.922061490191E+00  0.000000000000E+00
  0.299062775774E+01  0.394624082883E+01  0.500000000000E+01  0.409252726285E+01  0.500000000000E+01  0.429310310915E+01  0.175434191980E+01
  0.284428995242E+01  0.000000000000E+00  0.000000000000E+00  0.715990576545E+00  0.930412228790E+00  0.125000000000E+01  0.187029682677E+01
  0.500000000000E+01  0.375000000000E+01  0.250000000000E+01  0.000000000000E+00
  0.250000000000E+01  0.157686156160E+01  0.146289271009E+01  0.250000000000E+01  0.250000000000E+01  0.250000000000E+01  0.155830813274E+01
  0.125000000000E+01  0.250000000000E+01  0.177790177481E+01  0.477386199275E+00  0.742988685424E+00  0.308372018325E+00  0.125000000000E+01
 -0.487811078581E+00 -0.144524380962E+01 -0.125000000000E+01 -0.345533899378E+00  0.000000000000E+00  0.627766083140E+00 -0.739814786992E+00
 -0.158811787973E+01  0.000000000000E+00 -0.125000000000E+01 -0.600232012419E+00 -0.154800130438E+01 -0.250000000000E+01 -0.178862290564E+01
 -0.250000000000E+01 -0.250000000000E+01 -0.250000000000E+01 -0.250000000000E+01
  0.500000000000E+01  0.500000000000E+01  0.500000000000E+01  0.500000000000E+01  0.500000000000E+01  0.500000000000E+01  0.500000000000E+01
  0.500000000000E+01  0.500000000000E+01  0.500000000000E+01  0.500000000000E+01  0.500000000000E+01  0.500000000000E+01  0.500000000000E+01
  0.500000000000E+01  0.500000000000E+01  0.500000000000E+01  0.500000000000E+01  0.500000000000E+01  0.500000000000E+01  0.500000000000E+01
  0.500000000000E+01  0.500000000000E+01  0.500000000000E+01  0.500000000000E+01  0.500000000000E+01  0.500000000000E+01  0.500000000000E+01
  0.500000000000E+01  0.500000000000E+01  0.500000000000E+01  0.500000000000E+01
  0.100522859504E+01  0.100432970621E+01  0.100432033569E+01  0.100196466895E+01  0.100413203163E+01  0.100321958514E+01  0.100258621574E+01
  0.100201176946E+01  0.100426040732E+01  0.100372311453E+01  0.100446501487E+01  0.100346948564E+01  0.100365984159E+01  0.100424800546E+01
  0.100362337163E+01  0.100164187648E+01  0.100227629282E+01  0.100227307823E+01  0.100213446103E+01  0.100254342941E+01  0.100442384607E+01
  0.100337262221E+01  0.100288844245E+01  0.100334542189E+01  0.100323222670E+01  0.100406087333E+01  0.100510171189E+01  0.100431306260E+01
  0.100179475089E+01  0.100266311901E+01  0.100321164492E+01  0.100399273866E+01
  0.489076365200E+00  0.489238645529E+00  0.490983350691E+00  0.493065117390E+00  0.486766687074E+00  0.484758134220E+00  0.485405273940E+00
  0.494262909367E+00  0.495784876033E+00  0.486800373330E+00  0.488139374464E+00  0.487244732705E+00  0.494423309710E+00  0.496536483225E+00
  0.487845849037E+00  0.483219501314E+00  0.492573615375E+00  0.487262430972E+00  0.494866055978E+00  0.488012747638E+00  0.490096725306E+00
  0.488269663899E+00  0.497534086425E+00  0.496384260304E+00  0.495259765761E+00  0.493216444553E+00  0.490458154822E+00  0.490399993792E+00
  0.491426965690E+00  0.486218274373E+00  0.490304429868E+00  0.495522029659E+00
  0.000000000000E+00 -0.893844081077E-04 -0.129754350275E-02  0.000000000000E+00  0.000000000000E+00  0.000000000000E+00  0.425650475938E-03
  0.796987646860E-03  0.000000000000E+00  0.274721882196E-03 -0.942409159812E-03 -0.819935573693E-03 -0.174524228830E-02 -0.638395973964E-04
 -0.110015121146E-02 -0.102270858642E-02 -0.133249459861E-02 -0.213420496003E-02 -0.132921259295E-02 -0.106395897713E-02 -0.624383273928E-03
 -0.761653759785E-03 -0.196341516413E-03  0.807127122516E-03  0.520228336517E-04  0.161631425332E-02  0.000000000000E+00  0.791664146597E-03
  0.000000000000E+00  0.000000000000E+00  0.000000000000E+00  0.000000000000E+00