# vtk DataFile Version 2.0
FUN3D:global_image_vtk
ASCII
DATASET UNSTRUCTURED_GRID
POINTS 213 double
    0.0000000000000000E+00    0.2500000000000000E+01    0.0000000000000000E+00
    0.1250000000000000E+01    0.2500000000000000E+01    0.0000000000000000E+00
    0.2500000000000000E+01    0.2500000000000000E+01    0.0000000000000000E+00
    0.3750000000000000E+01    0.2500000000000000E+01    0.0000000000000000E+00
    0.5000000000000000E+01    0.2500000000000000E+01    0.0000000000000000E+00
    0.5000000000000000E+01    0.1250000000000000E+01    0.0000000000000000E+00
    0.5000000000000000E+01    0.0000000000000000E+00    0.0000000000000000E+00
    0.5000000000000000E+01   -0.1250000000000000E+01    0.0000000000000000E+00
    0.5000000000000000E+01   -0.2500000000000000E+01    0.0000000000000000E+00
    0.3750000000000000E+01   -0.2500000000000000E+01    0.0000000000000000E+00
    0.2500000000000000E+01   -0.2500000000000000E+01    0.0000000000000000E+00
    0.1250000000000000E+01   -0.2500000000000000E+01    0.0000000000000000E+00
    0.0000000000000000E+00   -0.2500000000000000E+01    0.0000000000000000E+00
    0.0000000000000000E+00   -0.1250000000000000E+01    0.0000000000000000E+00
    0.0000000000000000E+00    0.0000000000000000E+00    0.0000000000000000E+00
    0.0000000000000000E+00    0.1250000000000000E+01    0.0000000000000000E+00
    0.9058375365086910E+00    0.1578994732800803E+01    0.0000000000000000E+00
    0.3982050490726493E+01   -0.1583989954232354E+01    0.0000000000000000E+00
    0.4033849428301197E+01    0.1453322699199022E+01    0.0000000000000000E+00
    0.1040505887381675E+01   -0.1479596339503735E+01    0.0000000000000000E+00
    0.1099454400140349E+01   -0.3227322616384110E+00    0.0000000000000000E+00
    0.7354504170366591E+00    0.6593508822075582E+00    0.0000000000000000E+00
    0.1622302608453282E+01    0.8256214013940779E+00    0.0000000000000000E+00
    0.2145871574390382E+01   -0.1650070333782557E+01    0.0000000000000000E+00
    0.4086422318222992E+01   -0.4612828702537229E+00    0.0000000000000000E+00
    0.2979540174134984E+01   -0.8579242121530853E+00    0.0000000000000000E+00
    0.3045064261640043E+01   -0.1836846154397680E+01    0.0000000000000000E+00
    0.3428197553792836E+01    0.3508002863614053E+00    0.0000000000000000E+00
    0.4309693860063405E+01    0.5185680230613409E+00    0.0000000000000000E+00
    0.1827272193562204E+01    0.1738996113203182E+01    0.0000000000000000E+00
    0.2808563282768077E+01    0.1325493893339706E+01    0.0000000000000000E+00
    0.1895995683864404E+01   -0.8731419609589618E+00    0.0000000000000000E+00
    0.2273179336307740E+01    0.4906150219227333E-01    0.0000000000000000E+00
    0.5000000000000000E+01    0.2500000000000000E+01    0.1250000000000000E+01
    0.5000000000000000E+01    0.2500000000000000E+01    0.2500000000000000E+01
    0.5000000000000000E+01    0.2500000000000000E+01    0.3750000000000000E+01
    0.5000000000000000E+01    0.2500000000000000E+01    0.5000000000000000E+01
    0.3750000000000000E+01    0.2500000000000000E+01    0.5000000000000000E+01
    0.2500000000000000E+01    0.2500000000000000E+01    0.5000000000000000E+01
    0.1250000000000000E+01    0.2500000000000000E+01    0.5000000000000000E+01
    0.0000000000000000E+00    0.2500000000000000E+01    0.5000000000000000E+01
    0.0000000000000000E+00    0.2500000000000000E+01    0.3750000000000000E+01
    0.0000000000000000E+00    0.2500000000000000E+01    0.2500000000000000E+01
    0.0000000000000000E+00    0.2500000000000000E+01    0.1250000000000000E+01
    0.9631080833812172E+00    0.2500000000000000E+01    0.9613285771248219E+00
    0.3981732467264904E+01    0.2500000000000000E+01    0.4069753913607991E+01
    0.4035525118777670E+01    0.2500000000000000E+01    0.1012015867579395E+01
    0.9641717640894248E+00    0.2500000000000000E+01    0.3972455192261839E+01
    0.1547743040396780E+01    0.2500000000000000E+01    0.2928177746738678E+01
    0.6985170616192014E+00    0.2500000000000000E+01    0.3068281976055466E+01
    0.8931277594515110E+00    0.2500000000000000E+01    0.2052465503257726E+01
    0.2183293750162785E+01    0.2500000000000000E+01    0.3959073795658649E+01
    0.3855333506014705E+01    0.2500000000000000E+01    0.2931218481500625E+01
    0.3152495579421047E+01    0.2500000000000000E+01    0.3635850502723324E+01
    0.3103247580566054E+01    0.2500000000000000E+01    0.4331682712472464E+01
    0.3266837581688852E+01    0.2500000000000000E+01    0.1886092433583972E+01
    0.4231539241296245E+01    0.2500000000000000E+01    0.1915865356532799E+01
    0.1909741006522088E+01    0.2500000000000000E+01    0.7170024419130505E+00
    0.2880784107213163E+01    0.2500000000000000E+01    0.9046598906449592E+00
    0.2014316024535771E+01    0.2500000000000000E+01    0.1762464314805728E+01
    0.2670003247036656E+01    0.2500000000000000E+01    0.2850479545835163E+01
    0.5000000000000000E+01    0.1250000000000000E+01    0.5000000000000000E+01
    0.5000000000000000E+01    0.0000000000000000E+00    0.5000000000000000E+01
    0.5000000000000000E+01   -0.1250000000000000E+01    0.5000000000000000E+01
    0.5000000000000000E+01   -0.2500000000000000E+01    0.5000000000000000E+01
    0.5000000000000000E+01   -0.2500000000000000E+01    0.3750000000000000E+01
    0.5000000000000000E+01   -0.2500000000000000E+01    0.2500000000000000E+01
    0.5000000000000000E+01   -0.2500000000000000E+01    0.1250000000000000E+01
    0.5000000000000000E+01    0.1578994732800803E+01    0.9058375365086910E+00
    0.5000000000000000E+01   -0.1583989954232354E+01    0.3982050490726493E+01
    0.5000000000000000E+01    0.1453322699199022E+01    0.4033849428301197E+01
    0.5000000000000000E+01   -0.1479596339503735E+01    0.1040505887381675E+01
    0.5000000000000000E+01   -0.3227322616384110E+00    0.1099454400140349E+01
    0.5000000000000000E+01    0.6593508822075582E+00    0.7354504170366591E+00
    0.5000000000000000E+01    0.8256214013940779E+00    0.1622302608453282E+01
    0.5000000000000000E+01   -0.1650070333782557E+01    0.2145871574390382E+01
    0.5000000000000000E+01   -0.4612828702537229E+00    0.4086422318222992E+01
    0.5000000000000000E+01   -0.8579242121530853E+00    0.2979540174134984E+01
    0.5000000000000000E+01   -0.1836846154397680E+01    0.3045064261640043E+01
    0.5000000000000000E+01    0.3508002863614053E+00    0.3428197553792836E+01
    0.5000000000000000E+01    0.5185680230613409E+00    0.4309693860063405E+01
    0.5000000000000000E+01    0.1738996113203182E+01    0.1827272193562204E+01
    0.5000000000000000E+01    0.1325493893339706E+01    0.2808563282768077E+01
    0.5000000000000000E+01   -0.8731419609589618E+00    0.1895995683864404E+01
    0.5000000000000000E+01    0.4906150219227333E-01    0.2273179336307740E+01
    0.0000000000000000E+00    0.1250000000000000E+01    0.5000000000000000E+01
    0.0000000000000000E+00    0.0000000000000000E+00    0.5000000000000000E+01
    0.0000000000000000E+00   -0.1250000000000000E+01    0.5000000000000000E+01
    0.0000000000000000E+00   -0.2500000000000000E+01    0.5000000000000000E+01
    0.1250000000000000E+01   -0.2500000000000000E+01    0.5000000000000000E+01
    0.2500000000000000E+01   -0.2500000000000000E+01    0.5000000000000000E+01
    0.3750000000000000E+01   -0.2500000000000000E+01    0.5000000000000000E+01
    0.4042003247744892E+01    0.1558308132739014E+01    0.5000000000000000E+01
    0.9304122287900499E+00   -0.1548001304379777E+01    0.5000000000000000E+01
    0.1037243024609388E+01    0.1462892710085612E+01    0.5000000000000000E+01
    0.3946240828834967E+01   -0.1445243809615570E+01    0.5000000000000000E+01
    0.4092527262848217E+01   -0.3455338993778935E+00    0.5000000000000000E+01
    0.4293103109154542E+01    0.6277660831404320E+00    0.5000000000000000E+01
    0.3241512314643519E+01    0.7429886854239611E+00    0.5000000000000000E+01
    0.2844289952419609E+01   -0.1588117879734118E+01    0.5000000000000000E+01
    0.7159905765450471E+00   -0.6002320124191652E+00    0.5000000000000000E+01
    0.1754341919796891E+01   -0.7398147869923652E+00    0.5000000000000000E+01
    0.1870296826774691E+01   -0.1788622905643739E+01    0.5000000000000000E+01
    0.9220614901912976E+00    0.3083720183248586E+00    0.5000000000000000E+01
    0.3101523624086016E+01    0.1777901774806180E+01    0.5000000000000000E+01
    0.2192512063922564E+01    0.1576861561598471E+01    0.5000000000000000E+01
    0.2024793420196460E+01    0.4773861992750707E+00    0.5000000000000000E+01
    0.2990627757741975E+01   -0.4878110785814084E+00    0.5000000000000000E+01
    0.0000000000000000E+00   -0.2500000000000000E+01    0.1250000000000000E+01
    0.0000000000000000E+00   -0.2500000000000000E+01    0.2500000000000000E+01
    0.0000000000000000E+00   -0.2500000000000000E+01    0.3750000000000000E+01
    0.0000000000000000E+00    0.1558308132739014E+01    0.4042003247744892E+01
    0.0000000000000000E+00   -0.1548001304379777E+01    0.9304122287900499E+00
    0.0000000000000000E+00    0.1462892710085612E+01    0.1037243024609388E+01
    0.0000000000000000E+00   -0.1445243809615570E+01    0.3946240828834967E+01
    0.0000000000000000E+00   -0.3455338993778935E+00    0.4092527262848217E+01
    0.0000000000000000E+00    0.6277660831404320E+00    0.4293103109154542E+01
    0.0000000000000000E+00    0.7429886854239611E+00    0.3241512314643519E+01
    0.0000000000000000E+00   -0.1588117879734118E+01    0.2844289952419609E+01
    0.0000000000000000E+00   -0.6002320124191652E+00    0.7159905765450471E+00
    0.0000000000000000E+00   -0.7398147869923652E+00    0.1754341919796891E+01
    0.0000000000000000E+00   -0.1788622905643739E+01    0.1870296826774691E+01
    0.0000000000000000E+00    0.3083720183248586E+00    0.9220614901912976E+00
    0.0000000000000000E+00    0.1777901774806180E+01    0.3101523624086016E+01
    0.0000000000000000E+00    0.1576861561598471E+01    0.2192512063922564E+01
[...]
POINT_DATA 213
SCALARS rho double 1
LOOKUP_TABLE default
   0.1344271449478007E+01
   0.9569758915042538E+00
   0.9462964199805639E+00
   0.9418612718295242E+00
   0.8437304899305724E+00
   0.7738004321645310E+00
   0.7629818919757321E+00
   0.7664577916007643E+00
   0.8307874043060840E+00
   0.9352972563208045E+00
   0.9342219821043254E+00
   0.9617195283758674E+00
   0.1449457451663219E+01
   0.1494090643695710E+01
   0.1644667276140951E+01
   0.1425832049092137E+01
   0.1009014435297561E+01
   0.9508810862068816E+00
   0.9436508501062061E+00
   0.9581561032911599E+00
   0.9415852462477028E+00
   0.1036377240371325E+01
   0.9256161100134654E+00
   0.9322349870048942E+00
   0.9537479576605056E+00
   0.9518769565714712E+00
   0.9348583126923620E+00
   0.9564028417734302E+00
   0.9376098401128375E+00
   0.9300661525007977E+00
   0.9445157492772323E+00
   0.8863506519417593E+00
   0.9423579969698272E+00
   0.9635003079572065E+00
   0.1008299039507720E+01
   0.1006735291837503E+01
   0.1001964617616923E+01
   0.1003219581540958E+01
   0.1004132053979444E+01
   0.1005228602953447E+01
   0.1004260408267768E+01
   0.1008308189988790E+01
   0.1023893137974618E+01
   0.1063553956070536E+01
   0.1019182513268611E+01
   0.1001780766436102E+01
   0.9643309938720775E+00
   0.1005283708998328E+01
   0.1000721163292560E+01
   0.1008742083823422E+01
   0.1008078083657978E+01
   0.1002349807124809E+01
   0.9979986848149899E+00
   0.1000583560947101E+01
   0.1001620123666777E+01
   0.9826893073723316E+00
   0.9842439642400131E+00
   0.9833314036651378E+00
   0.9788207412516527E+00
   0.9902638161414834E+00
   0.9934561553193720E+00
   0.1002011751671518E+01
   0.1002134465681233E+01
   0.1002276326544744E+01
   0.1001794758383310E+01
   0.1009778638885886E+01
   0.1006429109020403E+01
   0.9558786960492894E+00
   0.9249398411092231E+00
   0.1007036755523592E+01
   0.1004504925172101E+01
   0.9143642076336262E+00
   0.9089667860359626E+00
   0.8751688902550989E+00
   0.9767271885473217E+00
   0.1000452621145692E+01
   0.1005831087459999E+01
   0.1012882803232322E+01
   0.1011618951281928E+01
   0.1010438648585407E+01
   0.1005468280911022E+01
   0.9907612680002726E+00
   0.1005140325680728E+01
   0.9860567246234313E+00
   0.1005609737623069E+01
   0.1004248005730981E+01
   0.1002888437715960E+01
   0.1003345420469719E+01
   0.1003992731894329E+01
   0.1005101716193433E+01
   0.1003211645186957E+01
   0.1002663160002863E+01
   0.1002586231461423E+01
   0.1004060870964856E+01
   0.1004320346059242E+01
   0.1001641920429852E+01
   0.1002273116027853E+01
   0.1002543475631279E+01
   0.1003469520859298E+01
   0.1003372640305695E+01
   0.1003232230064757E+01
   0.1004423863487642E+01
   0.1004313070878251E+01
   0.1003659849422419E+01
   0.1003723103970812E+01
   0.1004329726464322E+01
   0.1004465021912682E+01
   0.1003623375374544E+01
   0.1064422801014240E+01
   0.1028473621440874E+01
   0.1009586657349117E+01
   0.1006638837500182E+01
   0.1163935522345080E+01
   0.1086087969829483E+01
   0.1007893419297701E+01
   0.1007245533335532E+01
   0.1006798074170525E+01
   0.1013018286985375E+01
   0.1019384609550926E+01
   0.1235203669734953E+01
   0.1032529466766416E+01
   0.1046681191637183E+01
   0.1200953642402145E+01
   0.1014718916057128E+01
   0.1032291153272799E+01
   0.1028095236752060E+01
   0.1014628639853298E+01
   0.1029216893255421E+01
   0.1001994816396117E+01
   0.9606929196340864E+00
   0.1006852582827155E+01
   0.1001327193344317E+01
   0.1010821905402563E+01
   0.1012246098891576E+01
   0.1000946006954614E+01
   0.9979121234055114E+00
   0.9980632372962701E+00
   0.1001184143403671E+01
   0.9841362011837220E+00
   0.9814879615383727E+00
   0.9648483321614626E+00
   0.9680877128803500E+00
   0.9914124472151782E+00
   0.9910858388696697E+00
   0.9925545095886306E+00
   0.1001727533886611E+01
   0.9993409402130179E+00
   0.9941410835094237E+00
   0.1007038753598346E+01
   0.1022539494126302E+01
   0.1001088098505989E+01
   0.1008798496285050E+01
   0.1004773846113286E+01
   0.1009050237471772E+01
   0.9966470332338075E+00
   0.1004988557938522E+01
   0.1003325535203402E+01
   0.9949431085443320E+00
   0.9832680781887043E+00
   0.9943957454948879E+00
   0.9973420656246484E+00
   0.9932190085572038E+00
   0.1001306487159726E+01
   0.1003001636972404E+01
   0.1002183579653574E+01
   0.9947078544990196E+00
   0.9937965521428621E+00
   0.1004867865548625E+01
   0.1020077607432351E+01
   0.1005364552420861E+01
   0.9816998152593076E+00
   0.1004973031261860E+01
   0.1012382323431864E+01
   0.9871424295652657E+00
   0.9551513534426043E+00
   0.9865075700182140E+00
   0.9864532949981402E+00
   0.9918946943772226E+00
   0.9933508198209018E+00
   0.9954406189215302E+00
   0.1037336789702747E+01
   0.1033536797906603E+01
   0.1001443320808384E+01
   0.1001930499786483E+01
   0.9912478515952120E+00
   0.9910920509382339E+00
   0.9648489990455872E+00
   0.9933282604822793E+00
   0.1006058638638211E+01
   0.1001954027109355E+01
   0.9908735804705793E+00
   0.9740945213747738E+00
   0.9418802141300395E+00
   0.9819379691710716E+00
   0.9794803560585822E+00
   0.9704172061498889E+00
   0.9720478946523833E+00
   0.9557351702578217E+00
   0.9496731213001470E+00
   0.9528673571484162E+00
   0.1002659534050534E+01
   0.1002471631959209E+01
   0.1000509329291295E+01
   0.1001677321728781E+01
   0.9607931434281587E+00
   0.9491625506061925E+00
   0.9584503068031643E+00
   0.1001121207774437E+01
   0.1000496140584895E+01
   0.1001156644173155E+01
   0.9807376183622737E+00
   0.9806000808525748E+00
   0.9628476108675186E+00
SCALARS u double 1
LOOKUP_TABLE default
   0.0000000000000000E+00
   0.0000000000000000E+00
   0.0000000000000000E+00
   0.0000000000000000E+00
   0.0000000000000000E+00
   0.0000000000000000E+00
   0.0000000000000000E+00
   0.0000000000000000E+00
   0.0000000000000000E+00
   0.0000000000000000E+00
   0.0000000000000000E+00
   0.0000000000000000E+00
   0.0000000000000000E+00
   0.0000000000000000E+00
   0.0000000000000000E+00
   0.0000000000000000E+00
   0.0000000000000000E+00
   0.0000000000000000E+00
   0.0000000000000000E+00
   0.0000000000000000E+00
   0.0000000000000000E+00
   0.0000000000000000E+00
   0.0000000000000000E+00
   0.0000000000000000E+00
   0.0000000000000000E+00
   0.0000000000000000E+00
   0.0000000000000000E+00
   0.0000000000000000E+00
   0.0000000000000000E+00
   0.0000000000000000E+00
   0.0000000000000000E+00
   0.0000000000000000E+00
   0.0000000000000000E+00
   0.4950176835926044E+00
   0.5338221300468938E+00
   0.5183269247658219E+00
   0.4930649880188886E+00
   0.4847578719462768E+00
   0.4867666423833376E+00
   0.4890763583473223E+00
   0.4957848880427724E+00
   0.4898301883943829E+00
   0.4717388493712663E+00
   0.4454814153863381E+00
   0.4833907048663335E+00
   0.5098397462667844E+00
   0.4390712699842887E+00
   0.4949403964824299E+00
   0.5225330362509226E+00
   0.4962454545786520E+00
   0.5226154963645940E+00
   0.5038881743119948E+00
   0.5646883608961435E+00
   0.5247509156860308E+00
   0.4991466119587478E+00
   0.5730561900921763E+00
   0.5696051096298019E+00
   0.3737941449494087E+00
   0.3998658123970273E+00
   0.5599326587168993E+00
   0.5564587630580963E+00
   0.4942627332958505E+00
   0.4948659466133850E+00
   0.4925735874256340E+00
   0.4914269544074830E+00
   0.5162356851376747E+00
   0.5361798305817158E+00
   0.4947413356671959E+00
   0.4524112203577703E+00
   0.5128777326106307E+00
   0.5117942040991703E+00
   0.4783517504805394E+00
   0.4931696656066420E+00
   0.4603173592536145E+00
   0.5244892720108018E+00
   0.5297434248053950E+00
   0.5129579301311115E+00
   0.5328358320164582E+00
   0.5308941037696336E+00
   0.5309856170943360E+00
   0.5063656735772677E+00
   0.5282461954778291E+00
   0.5410312730790429E+00
   0.5361261481190824E+00
   0.5374105276854665E+00
   0.4965364818668312E+00
   0.4975340903952809E+00
   0.4963842644465266E+00
   0.4955220267507605E+00
   0.4904581830912786E+00
   0.4903044384960187E+00
   0.4862182764126269E+00
   0.4854049561132922E+00
   0.4932164387899019E+00
   0.4909833312227994E+00
   0.4832194696405924E+00
   0.4872622777041093E+00
   0.4880124909512852E+00
   0.4872445931297751E+00
   0.4882696669173354E+00
   0.4952597556458964E+00
   0.4900967167582861E+00
   0.4904000090423620E+00
   0.4944232925472926E+00
   0.4868002480722277E+00
   0.4892385983700296E+00
   0.4881393369427205E+00
   0.4878457828579077E+00
   0.4446866579587363E+00
   0.4700028779889194E+00
   0.4891999056372670E+00
   0.4885247843604572E+00
   0.4506533043269318E+00
   0.4687378565494010E+00
   0.4877010456685843E+00
   0.4868353683264569E+00
   0.4908994715974634E+00
   0.4793551576541594E+00
   0.4658071746695229E+00
   0.3792725227164540E+00
   0.4901596530034616E+00
   0.4486686689938866E+00
   0.4436137390078629E+00
   0.4845147241076424E+00
   0.4621822645193378E+00
   0.4665749534241492E+00
   0.4748140299141972E+00
   0.4894494216108999E+00
   0.5085556973397356E+00
   0.4315073869454069E+00
   0.4927349360933185E+00
   0.5318289234015502E+00
   0.4913399195852196E+00
   0.5207019993139488E+00
   0.5060964599288420E+00
   0.5688797395437717E+00
   0.5273992817842742E+00
   0.5015044841234149E+00
   0.5821790085995409E+00
   0.5689618251423187E+00
   0.3406394442058935E+00
   0.3789869410156130E+00
   0.5751958206922839E+00
   0.5666485493323167E+00
   0.5704108783033363E+00
   0.5291056376079593E+00
   0.5451902710888632E+00
   0.5718804315052807E+00
   0.5389079125605419E+00
   0.5475507504646402E+00
   0.5821713868891965E+00
   0.4925601784241883E+00
   0.5042157546117423E+00
   0.4961735435918284E+00
   0.5565207962889895E+00
   0.4758845212871600E+00
   0.4950268383292342E+00
   0.5498525443317519E+00
   0.5891202296069330E+00
   0.5841957609155161E+00
   0.5469097664572968E+00
   0.5805417617824581E+00
   0.5106251438302651E+00
   0.5030200512880802E+00
   0.5033624679870699E+00
   0.5676446096681802E+00
   0.5563943082746000E+00
   0.4947255973132413E+00
   0.5505243828557626E+00
   0.5510857281414062E+00
   0.5657350949583463E+00
   0.4920070017462878E+00
   0.4927299096375594E+00
   0.3865140567825420E+00
   0.3687754531990684E+00
   0.5574921716770598E+00
   0.5763755545328159E+00
   0.4194304389853507E+00
   0.5824843240165410E+00
   0.4265209611267067E+00
   0.5392799843580963E+00
   0.5012032759531404E+00
   0.5119513208573010E+00
   0.5049119463506447E+00
   0.5751974973912788E+00
   0.5876371360373899E+00
   0.5379907804220221E+00
   0.5677472540323729E+00
   0.5351248666891019E+00
   0.5338056379943307E+00
   0.5580313798391282E+00
   0.5512707860015573E+00
   0.4261852751065479E+00
   0.5273356176652400E+00
   0.5795712528967283E+00
   0.3318687131184284E+00
   0.4760283322395804E+00
   0.5446196252428380E+00
   0.4798331896480695E+00
   0.3005293504810464E+00
   0.5031051137983276E+00
   0.5017115977468259E+00
   0.5129033211038124E+00
   0.5414840108760852E+00
   0.3437603851871617E+00
   0.3397710712271925E+00
   0.3189928566771171E+00
   0.5065936051767780E+00
   0.5123483779798595E+00
   0.5330313519475685E+00
   0.5879310000351186E+00
   0.4644180532810251E+00
   0.3531270506304272E+00
SCALARS v double 1
LOOKUP_TABLE default
   0.0000000000000000E+00
   0.0000000000000000E+00
   0.0000000000000000E+00
   0.0000000000000000E+00
   0.0000000000000000E+00
   0.0000000000000000E+00
   0.0000000000000000E+00
   0.0000000000000000E+00
   0.0000000000000000E+00
   0.0000000000000000E+00
   0.0000000000000000E+00
   0.0000000000000000E+00
   0.0000000000000000E+00
   0.0000000000000000E+00
   0.0000000000000000E+00
   0.0000000000000000E+00
   0.0000000000000000E+00
   0.0000000000000000E+00
   0.0000000000000000E+00
   0.0000000000000000E+00
   0.0000000000000000E+00
   0.0000000000000000E+00
   0.0000000000000000E+00
   0.0000000000000000E+00
   0.0000000000000000E+00
   0.0000000000000000E+00
   0.0000000000000000E+00
   0.0000000000000000E+00
   0.0000000000000000E+00
   0.0000000000000000E+00
   0.0000000000000000E+00
   0.0000000000000000E+00
   0.0000000000000000E+00
   0.0000000000000000E+00
   0.0000000000000000E+00
   0.0000000000000000E+00
   0.0000000000000000E+00
   0.0000000000000000E+00
   0.0000000000000000E+00
   0.0000000000000000E+00
   0.0000000000000000E+00
   0.0000000000000000E+00
   0.0000000000000000E+00
   0.0000000000000000E+00
   0.0000000000000000E+00
   0.0000000000000000E+00
   0.0000000000000000E+00
   0.0000000000000000E+00
   0.0000000000000000E+00
   0.0000000000000000E+00
   0.0000000000000000E+00
   0.0000000000000000E+00
   0.0000000000000000E+00
   0.0000000000000000E+00
   0.0000000000000000E+00
   0.0000000000000000E+00
   0.0000000000000000E+00
   0.0000000000000000E+00
   0.0000000000000000E+00
   0.0000000000000000E+00
   0.0000000000000000E+00
   0.7970254513198381E-03
  -0.1329294690588011E-02
  -0.1332592753344834E-02
   0.0000000000000000E+00
   0.0000000000000000E+00
   0.0000000000000000E+00
   0.0000000000000000E+00
  -0.1922562563004198E-01
   0.4770618236708003E-03
   0.2183360175225076E-02
   0.1427333017733943E-01
  -0.6488282108285630E-02
  -0.7821623020400915E-02
  -0.1327725060248208E-01
   0.4914481803654376E-02
   0.6907122091194378E-03
   0.3434418452020470E-02
   0.1920847399631627E-02
   0.3147960236648476E-02
   0.1704778377018201E-02
  -0.7316187348482031E-02
  -0.7701903057696510E-04
   0.4468738041594507E-02
  -0.4387156502706033E-03
  -0.6383742656147148E-04
  -0.1963394584471460E-03
   0.8071268016528068E-03
   0.0000000000000000E+00
   0.0000000000000000E+00
   0.0000000000000000E+00
   0.0000000000000000E+00
   0.4257020222930872E-03
   0.1616304636484349E-02
  -0.1297550946285676E-02
  -0.1022774981259042E-02
  -0.2134342412980673E-02
  -0.1064012662624955E-02
  -0.8200064301915576E-03
  -0.7617033223534466E-03
   0.5202259034643569E-04
  -0.6244091942779332E-03
   0.7916469210836619E-03
  -0.1745238509605267E-02
   0.2747128654936593E-03
  -0.8939747369959718E-04
  -0.9424310130736425E-03
  -0.1100227545896200E-02
   0.0000000000000000E+00
   0.0000000000000000E+00
   0.0000000000000000E+00
  -0.1061759099997311E-02
  -0.7641128851393872E-02
   0.1860854756985495E-01
  -0.2834554291616910E-04
  -0.1383129150871907E-02
  -0.2035122968641621E-02
  -0.5666383183730332E-02
  -0.1585210198641718E-02
  -0.5947016485102054E-02
  -0.4160601904189937E-02
   0.1565614821185981E-02
   0.3329524830347709E-01
   0.3055141299964975E-04
  -0.2766884863580221E-02
   0.3566484713836432E-02
   0.3596189370614825E-03
   0.0000000000000000E+00
   0.0000000000000000E+00
   0.0000000000000000E+00
   0.0000000000000000E+00
   0.0000000000000000E+00
   0.0000000000000000E+00
   0.0000000000000000E+00
   0.0000000000000000E+00
   0.0000000000000000E+00
   0.0000000000000000E+00
   0.0000000000000000E+00
   0.0000000000000000E+00
   0.0000000000000000E+00
   0.0000000000000000E+00
   0.0000000000000000E+00
   0.0000000000000000E+00
   0.0000000000000000E+00
   0.5047032581562505E-02
   0.3230791961430859E-02
   0.8149134295670647E-02
   0.6168366997758508E-02
   0.1122928641842263E-01
   0.1429277502073673E-01
  -0.2038826795425585E-03
   0.5118221839481197E-02
   0.2914950550386363E-02
   0.3373611842330832E-02
   0.3728336436462485E-02
  -0.1465719872546667E-01
  -0.6159699883076640E-03
   0.6651630357118003E-02
   0.1542014239092802E-02
   0.1969646522496286E-02
   0.4266273546857030E-02
  -0.2790960968412941E-02
   0.1226887079560302E-02
   0.2819172494806929E-02
   0.1497449165901314E-02
   0.2575339051345670E-02
   0.2030646459041206E-02
   0.2118046073579218E-02
   0.8700410481362508E-02
  -0.3733396982376824E-02
   0.6241189119714718E-02
   0.2516489002922945E-04
  -0.3854044895045395E-03
  -0.1674679014972674E-01
  -0.4881976926420490E-02
  -0.4720000828424535E-02
   0.3445223055761304E-02
  -0.6135724119081153E-02
   0.9934520151036748E-04
  -0.3291372932945285E-01
  -0.3046196727665603E-02
   0.4722743219072496E-02
   0.9228368060503744E-03
   0.2112175237117108E-02
   0.4518755700619286E-02
   0.2720465295308743E-02
   0.3212576503093458E-02
   0.5200804230014274E-02
   0.1941838973270993E-02
   0.7315897607824387E-03
  -0.2555237366130477E-04
  -0.5374632807393739E-02
  -0.6959591048737969E-02
  -0.9443816454584354E-03
   0.1105268430022634E-02
  -0.2080554142835755E-02
  -0.3200035931680542E-02
  -0.2527833399893143E-02
  -0.4115193599682889E-02
  -0.7593954950191015E-02
  -0.1985686403548067E-02
   0.6240402902266503E-03
  -0.2239081639550210E-03
   0.1216949787352834E-02
  -0.3483958321856780E-02
   0.5229139897151386E-02
  -0.8487626036957083E-02
   0.2315170823564569E-04
  -0.3395192808299199E-03
   0.2542663554300026E-02
   0.1663457704585074E-02
   0.2021438732132722E-02
  -0.5620784006188973E-02
SCALARS w double 1
LOOKUP_TABLE default
   0.0000000000000000E+00
   0.0000000000000000E+00
   0.0000000000000000E+00
   0.0000000000000000E+00
   0.0000000000000000E+00
   0.0000000000000000E+00
   0.0000000000000000E+00
   0.0000000000000000E+00
   0.0000000000000000E+00
   0.0000000000000000E+00
   0.0000000000000000E+00
   0.0000000000000000E+00
   0.0000000000000000E+00
   0.0000000000000000E+00
   0.0000000000000000E+00
   0.0000000000000000E+00
   0.0000000000000000E+00
   0.0000000000000000E+00
   0.0000000000000000E+00
   0.0000000000000000E+00
   0.0000000000000000E+00
   0.0000000000000000E+00
   0.0000000000000000E+00
   0.0000000000000000E+00
   0.0000000000000000E+00
   0.0000000000000000E+00
   0.0000000000000000E+00
   0.0000000000000000E+00
   0.0000000000000000E+00
   0.0000000000000000E+00
   0.0000000000000000E+00
   0.0000000000000000E+00
   0.0000000000000000E+00
  -0.1007612287593380E+00
  -0.4249297120670378E-01
   0.7371987065916108E-03
   0.5725799947623438E-02
   0.5699057970350799E-03
   0.1609783179655249E-02
   0.3375073087055671E-02
   0.2371773673472740E-02
   0.4590624798261035E-03
   0.3518225893577654E-02
   0.4521817584054338E-01
   0.6522937823740839E-01
   0.8689297775998018E-03
  -0.2261151820431300E-01
   0.4316553574957317E-02
   0.1358734842435451E-01
   0.1039452555588468E-01
   0.4900548415774067E-01
   0.2437443586316309E-02
  -0.6509940985399008E-02
  -0.7012226558123589E-03
   0.3411017162848775E-03
   0.3904107444096848E-02
  -0.3893254294375576E-01
   0.1798168102994396E-01
   0.1119638181330484E-01
   0.3403773261050773E-01
   0.8438810302903691E-02
   0.4937312282982013E-02
   0.4970345587687199E-02
   0.4871517423612729E-02
   0.6027191721405831E-02
   0.2599191838230948E-02
  -0.4144429581483550E-01
  -0.9954261847439196E-01
  -0.1121678217240314E+00
   0.5070875091990187E-02
   0.4230770775049188E-02
  -0.1004732302772075E+00
  -0.9895252488843087E-01
  -0.9875450932382686E-01
  -0.9462509596910307E-01
  -0.6807133810358953E-01
   0.5154922244803661E-02
  -0.1935330737721710E-01
  -0.1575800281943629E-01
  -0.6002862299844903E-02
   0.6819057437208139E-02
  -0.8010050794201072E-01
  -0.2781092446449358E-01
  -0.8096457339679665E-01
  -0.5873277545959225E-01
   0.3083625714868668E-02
   0.2685146492311756E-02
   0.2640431205306627E-02
   0.3450191949332626E-02
   0.4007083846717618E-02
   0.1201214386111976E-02
  -0.1438845904388503E-03
   0.2039877309866100E-02
   0.4895693676524051E-02
   0.3857385658214332E-02
   0.1114201963486987E-02
   0.1182682057481108E-02
   0.1465296262638367E-02
  -0.1653633611857178E-04
   0.8996631006824547E-04
   0.4386667926373712E-02
   0.2715724309082550E-02
   0.2322755366376556E-02
   0.5010601106206601E-02
   0.1071689405956809E-02
   0.2712217794668482E-02
   0.2013964155815906E-02
   0.2879091533453103E-04
   0.8374614357463228E-01
   0.2793870734130909E-02
  -0.8346628031342513E-03
  -0.1492945334622940E-03
   0.1409540847886312E+00
   0.1239332958955770E+00
  -0.1219093285900165E-02
  -0.4381936070515923E-02
  -0.3043057696328691E-03
  -0.6512246789538339E-02
  -0.1949570297175708E-02
   0.1557630975751405E+00
   0.7489979208065058E-01
   0.2550174918410969E-01
   0.1656445123304830E+00