# vtk DataFile Version 2.0
FUN3D:global_image_vtk
ASCII
DATASET UNSTRUCTURED_GRID
POINTS 213 double
    0.0000000000000000E+00    0.2500000000000000E+01    0.0000000000000000E+00
    0.1250000000000000E+01    0.2500000000000000E+01    0.0000000000000000E+00
    0.2500000000000000E+01    0.2500000000000000E+01    0.0000000000000000E+00
    0.3750000000000000E+01    0.2500000000000000E+01    0.0000000000000000E+00
    0.5000000000000000E+01    0.2500000000000000E+01    0.0000000000000000E+00
    0.5000000000000000E+01    0.1250000000000000E+01    0.0000000000000000E+00
    0.5000000000000000E+01    0.0000000000000000E+00    0.0000000000000000E+00
    0.5000000000000000E+01   -0.1250000000000000E+01    0.0000000000000000E+00
    0.5000000000000000E+01   -0.2500000000000000E+01    0.0000000000000000E+00
    0.3750000000000000E+01   -0.2500000000000000E+01    0.0000000000000000E+00
    0.2500000000000000E+01   -0.2500000000000000E+01    0.0000000000000000E+00
    0.1250000000000000E+01   -0.2500000000000000E+01    0.0000000000000000E+00
    0.0000000000000000E+00   -0.2500000000000000E+01    0.0000000000000000E+00
    0.0000000000000000E+00   -0.1250000000000000E+01    0.0000000000000000E+00
    0.0000000000000000E+00    0.0000000000000000E+00    0.0000000000000000E+00
    0.0000000000000000E+00    0.1250000000000000E+01    0.0000000000000000E+00
    0.9058375365086910E+00    0.1578994732800803E+01    0.0000000000000000E+00
    0.3982050490726493E+01   -0.1583989954232354E+01    0.0000000000000000E+00
    0.4033849428301197E+01    0.1453322699199022E+01    0.0000000000000000E+00
    0.1040505887381675E+01   -0.1479596339503735E+01    0.0000000000000000E+00
    0.1099454400140349E+01   -0.3227322616384110E+00    0.0000000000000000E+00
    0.7354504170366591E+00    0.6593508822075582E+00    0.0000000000000000E+00
    0.1622302608453282E+01    0.8256214013940779E+00    0.0000000000000000E+00
    0.2145871574390382E+01   -0.1650070333782557E+01    0.0000000000000000E+00
    0.4086422318222992E+01   -0.4612828702537229E+00    0.0000000000000000E+00
    0.2979540174134984E+01   -0.8579242121530853E+00    0.0000000000000000E+00
    0.3045064261640043E+01   -0.1836846154397680E+01    0.0000000000000000E+00
    0.3428197553792836E+01    0.3508002863614053E+00    0.0000000000000000E+00
    0.4309693860063405E+01    0.5185680230613409E+00    0.0000000000000000E+00
    0.1827272193562204E+01    0.1738996113203182E+01    0.0000000000000000E+00
    0.2808563282768077E+01    0.1325493893339706E+01    0.0000000000000000E+00
    0.1895995683864404E+01   -0.8731419609589618E+00    0.0000000000000000E+00
    0.2273179336307740E+01    0.4906150219227333E-01    0.0000000000000000E+00
    0.5000000000000000E+01    0.2500000000000000E+01    0.1250000000000000E+01
    0.5000000000000000E+01    0.2500000000000000E+01    0.2500000000000000E+01
    0.5000000000000000E+01    0.2500000000000000E+01    0.3750000000000000E+01
    0.5000000000000000E+01    0.2500000000000000E+01    0.5000000000000000E+01
    0.3750000000000000E+01    0.2500000000000000E+01    0.5000000000000000E+01
    0.2500000000000000E+01    0.2500000000000000E+01    0.5000000000000000E+01
    0.1250000000000000E+01    0.2500000000000000E+01    0.5000000000000000E+01
    0.0000000000000000E+00    0.2500000000000000E+01    0.5000000000000000E+01
    0.0000000000000000E+00    0.2500000000000000E+01    0.3750000000000000E+01
    0.0000000000000000E+00    0.2500000000000000E+01    0.2500000000000000E+01
    0.0000000000000000E+00    0.2500000000000000E+01    0.1250000000000000E+01
    0.9631080833812172E+00    0.2500000000000000E+01    0.9613285771248219E+00
    0.3981732467264904E+01    0.2500000000000000E+01    0.4069753913607991E+01
    0.4035525118777670E+01    0.2500000000000000E+01    0.1012015867579395E+01
    0.9641717640894248E+00    0.2500000000000000E+01    0.3972455192261839E+01
    0.1547743040396780E+01    0.2500000000000000E+01    0.2928177746738678E+01
    0.6985170616192014E+00    0.2500000000000000E+01    0.3068281976055466E+01
    0.8931277594515110E+00    0.2500000000000000E+01    0.2052465503257726E+01
    0.2183293750162785E+01    0.2500000000000000E+01    0.3959073795658649E+01
    0.3855333506014705E+01    0.2500000000000000E+01    0.2931218481500625E+01
    0.3152495579421047E+01    0.2500000000000000E+01    0.3635850502723324E+01
    0.3103247580566054E+01    0.2500000000000000E+01    0.4331682712472464E+01
    0.3266837581688852E+01    0.2500000000000000E+01    0.1886092433583972E+01
    0.4231539241296245E+01    0.2500000000000000E+01    0.1915865356532799E+01
    0.1909741006522088E+01    0.2500000000000000E+01    0.7170024419130505E+00
    0.2880784107213163E+01    0.2500000000000000E+01    0.9046598906449592E+00
    0.2014316024535771E+01    0.2500000000000000E+01    0.1762464314805728E+01
    0.2670003247036656E+01    0.2500000000000000E+01    0.2850479545835163E+01
    0.5000000000000000E+01    0.1250000000000000E+01    0.5000000000000000E+01
    0.5000000000000000E+01    0.0000000000000000E+00    0.5000000000000000E+01
    0.5000000000000000E+01   -0.1250000000000000E+01    0.5000000000000000E+01
    0.5000000000000000E+01   -0.2500000000000000E+01    0.5000000000000000E+01
    0.5000000000000000E+01   -0.2500000000000000E+01    0.3750000000000000E+01
    0.5000000000000000E+01   -0.2500000000000000E+01    0.2500000000000000E+01
    0.5000000000000000E+01   -0.2500000000000000E+01    0.1250000000000000E+01
    0.5000000000000000E+01    0.1578994732800803E+01    0.9058375365086910E+00
    0.5000000000000000E+01   -0.1583989954232354E+01    0.3982050490726493E+01
    0.5000000000000000E+01    0.1453322699199022E+01    0.4033849428301197E+01
    0.5000000000000000E+01   -0.1479596339503735E+01    0.1040505887381675E+01
    0.5000000000000000E+01   -0.3227322616384110E+00    0.1099454400140349E+01
    0.5000000000000000E+01    0.6593508822075582E+00    0.7354504170366591E+00
    0.5000000000000000E+01    0.8256214013940779E+00    0.1622302608453282E+01
    0.5000000000000000E+01   -0.1650070333782557E+01    0.2145871574390382E+01
    0.5000000000000000E+01   -0.4612828702537229E+00    0.4086422318222992E+01
    0.5000000000000000E+01   -0.8579242121530853E+00    0.2979540174134984E+01
    0.5000000000000000E+01   -0.1836846154397680E+01    0.3045064261640043E+01
    0.5000000000000000E+01    0.3508002863614053E+00    0.3428197553792836E+01
    0.5000000000000000E+01    0.5185680230613409E+00    0.4309693860063405E+01
    0.5000000000000000E+01    0.1738996113203182E+01    0.1827272193562204E+01
    0.5000000000000000E+01    0.1325493893339706E+01    0.2808563282768077E+01
    0.5000000000000000E+01   -0.8731419609589618E+00    0.1895995683864404E+01
    0.5000000000000000E+01    0.4906150219227333E-01    0.2273179336307740E+01
    0.0000000000000000E+00    0.1250000000000000E+01    0.5000000000000000E+01
    0.0000000000000000E+00    0.0000000000000000E+00    0.5000000000000000E+01
    0.0000000000000000E+00   -0.1250000000000000E+01    0.5000000000000000E+01
    0.0000000000000000E+00   -0.2500000000000000E+01    0.5000000000000000E+01
    0.1250000000000000E+01   -0.2500000000000000E+01    0.5000000000000000E+01
    0.2500000000000000E+01   -0.2500000000000000E+01    0.5000000000000000E+01
    0.3750000000000000E+01   -0.2500000000000000E+01    0.5000000000000000E+01
    0.4042003247744892E+01    0.1558308132739014E+01    0.5000000000000000E+01
    0.9304122287900499E+00   -0.1548001304379777E+01    0.5000000000000000E+01
    0.1037243024609388E+01    0.1462892710085612E+01    0.5000000000000000E+01
    0.3946240828834967E+01   -0.1445243809615570E+01    0.5000000000000000E+01
    0.4092527262848217E+01   -0.3455338993778935E+00    0.5000000000000000E+01
    0.4293103109154542E+01    0.6277660831404320E+00    0.5000000000000000E+01
    0.3241512314643519E+01    0.7429886854239611E+00    0.5000000000000000E+01
    0.2844289952419609E+01   -0.1588117879734118E+01    0.5000000000000000E+01
    0.7159905765450471E+00   -0.6002320124191652E+00    0.5000000000000000E+01
    0.1754341919796891E+01   -0.7398147869923652E+00    0.5000000000000000E+01
    0.1870296826774691E+01   -0.1788622905643739E+01    0.5000000000000000E+01
    0.9220614901912976E+00    0.3083720183248586E+00    0.5000000000000000E+01
    0.3101523624086016E+01    0.1777901774806180E+01    0.5000000000000000E+01
    0.2192512063922564E+01    0.1576861561598471E+01    0.5000000000000000E+01
    0.2024793420196460E+01    0.4773861992750707E+00    0.5000000000000000E+01
    0.2990627757741975E+01   -0.4878110785814084E+00    0.5000000000000000E+01
    0.0000000000000000E+00   -0.2500000000000000E+01    0.1250000000000000E+01
    0.0000000000000000E+00   -0.2500000000000000E+01    0.2500000000000000E+01
    0.0000000000000000E+00   -0.2500000000000000E+01    0.3750000000000000E+01
    0.0000000000000000E+00    0.1558308132739014E+01    0.4042003247744892E+01
    0.0000000000000000E+00   -0.1548001304379777E+01    0.9304122287900499E+00
    0.0000000000000000E+00    0.1462892710085612E+01    0.1037243024609388E+01
    0.0000000000000000E+00   -0.1445243809615570E+01    0.3946240828834967E+01
    0.0000000000000000E+00   -0.3455338993778935E+00    0.4092527262848217E+01
    0.0000000000000000E+00    0.6277660831404320E+00    0.4293103109154542E+01
    0.0000000000000000E+00    0.7429886854239611E+00    0.3241512314643519E+01
    0.0000000000000000E+00   -0.1588117879734118E+01    0.2844289952419609E+01
    0.0000000000000000E+00   -0.6002320124191652E+00    0.7159905765450471E+00
    0.0000000000000000E+00   -0.7398147869923652E+00    0.1754341919796891E+01
    0.0000000000000000E+00   -0.1788622905643739E+01    0.1870296826774691E+01
    0.0000000000000000E+00    0.3083720183248586E+00    0.9220614901912976E+00
    0.0000000000000000E+00    0.1777901774806180E+01    0.3101523624086016E+01
    0.0000000000000000E+00    0.1576861561598471E+01    0.2192512063922564E+01
[...]
POINT_DATA 213
SCALARS rho double 1
LOOKUP_TABLE default
   0.1344267019423322E+01
   0.9569620351153143E+00
   0.9462826837860164E+00
   0.9418683873801537E+00
   0.8437288293484949E+00
   0.7737785048750697E+00
   0.7629655384460982E+00
   0.7664232007641794E+00
   0.8307795797085458E+00
   0.9352921300272441E+00
   0.9341975964199714E+00
   0.9617063690592682E+00
   0.1449458147420188E+01
   0.1494082263432927E+01
   0.1644657582640549E+01
   0.1425833251235946E+01
   0.1009002247480757E+01
   0.9508646805238871E+00
   0.9436502680092076E+00
   0.9581489107111051E+00
   0.9415724182357077E+00
   0.1036366302411552E+01
   0.9255999323712268E+00
   0.9322179657898081E+00
   0.9537387322803458E+00
   0.9518642157847653E+00
   0.9348365675430081E+00
   0.9563935009190135E+00
   0.9376030657678934E+00
   0.9300514005458189E+00
   0.9445029160321935E+00
   0.8863352798072692E+00
   0.9423501381533458E+00
   0.9635378221553862E+00
   0.1008308816482488E+01
   0.1006769192158428E+01
   0.1001857477693454E+01
   0.1003124459585631E+01
   0.1004093803124754E+01
   0.1005222970160486E+01
   0.1004259124356396E+01
   0.1008292614935720E+01
   0.1023882348436705E+01
   0.1063537224091172E+01
   0.1019173467673808E+01
   0.1001771535154686E+01
   0.9644010184437612E+00
   0.1005265186793924E+01
   0.1000700066604698E+01
   0.1008724216637132E+01
   0.1008060749790494E+01
   0.1002336141763123E+01
   0.9980001410082662E+00
   0.1000580101731293E+01
   0.1001603197600326E+01
   0.9826720319917910E+00
   0.9842340563918002E+00
   0.9833218577522825E+00
   0.9788541676576518E+00
   0.9902494661214182E+00
   0.9934419870165146E+00
   0.1001926398345767E+01
   0.1002058846543552E+01
   0.1002230166337469E+01
   0.1001729288541876E+01
   0.1009794417364949E+01
   0.1006420935302882E+01
   0.9558518590532802E+00
   0.9249384808978164E+00
   0.1007036466063960E+01
   0.1004507811467586E+01
   0.9143645057295867E+00
   0.9089893972104711E+00
   0.8751868736174432E+00
   0.9766925965712202E+00
   0.1000419764317316E+01
   0.1005832486391522E+01
   0.1012901387211977E+01
   0.1011639591860269E+01
   0.1010468740920888E+01
   0.1005447286694474E+01
   0.9907369312433162E+00
   0.1005160984520207E+01
   0.9860350808370433E+00
   0.1005591815426873E+01
   0.1004242228893485E+01
   0.1002869574475154E+01
   0.1003327521044674E+01
   0.1003986596446873E+01
   0.1005087302013046E+01
   0.1003200196865516E+01
   0.1002632328645433E+01
   0.1002499085361666E+01
   0.1004049300949638E+01
   0.1004298169928268E+01
   0.1001608577425002E+01
   0.1002211484008833E+01
   0.1002464942792051E+01
   0.1003437273443691E+01
   0.1003363256792319E+01
   0.1003220434428284E+01
   0.1004417354639838E+01
   0.1004307316087004E+01
   0.1003649598189692E+01
   0.1003660288193887E+01
   0.1004304100073146E+01
   0.1004446788351361E+01
   0.1003592197517788E+01
   0.1064415892663637E+01
   0.1028463303587215E+01
   0.1009570538122681E+01
   0.1006630233269390E+01
   0.1163915952551380E+01
   0.1086088956686738E+01
   0.1007875703647889E+01
   0.1007229067580387E+01
   0.1006789465720516E+01
   0.1013007951388137E+01
   0.1019369739522612E+01
   0.1235197106383168E+01
   0.1032525198356217E+01
   0.1046663651414778E+01
   0.1200941085058533E+01
   0.1014711034633277E+01
   0.1032275203697458E+01
   0.1028080402664795E+01
   0.1014614953072956E+01
   0.1029208802966522E+01
   0.1001987058679464E+01
   0.9607032373053626E+00
   0.1006839686222668E+01
   0.1001310168494318E+01
   0.1010807273894778E+01
   0.1012236439550154E+01
   0.1000934542412362E+01
   0.9979042888624791E+00
   0.9980562527953258E+00
   0.1001168934306782E+01
   0.9841073312098836E+00
   0.9814616486190751E+00
   0.9648470905254677E+00
   0.9680776376257186E+00
   0.9914092090561671E+00
   0.9910730729095165E+00
   0.9925395475844451E+00
   0.1001710413935271E+01
   0.9993232977875087E+00
   0.9941281322782006E+00
   0.1007024421253444E+01
   0.1022528039315140E+01
   0.1001086544731117E+01
   0.1008782630229496E+01
   0.1004757533117040E+01
   0.1009029262087048E+01
   0.9966337571125171E+00
   0.1004979679577866E+01
   0.1003316804862481E+01
   0.9949326954635154E+00
   0.9832512908894977E+00
   0.9943801868120434E+00
   0.9973370813635696E+00
   0.9931993230942580E+00
   0.1001297996925397E+01
   0.1002993522597062E+01
   0.1002168356790130E+01
   0.9947060779252183E+00
   0.9937906937882465E+00
   0.1004853217441305E+01
   0.1020064253347644E+01
   0.1005353752882809E+01
   0.9816911515461332E+00
   0.1004961378820485E+01
   0.1012366190491141E+01
   0.9871320579218285E+00
   0.9551461657807100E+00
   0.9864982444970524E+00
   0.9864417858172705E+00
   0.9918881090431109E+00
   0.9933389890542315E+00
   0.9954305791630286E+00
   0.1037328900914242E+01
   0.1033524496943160E+01
   0.1001426029628754E+01
   0.1001912801930013E+01
   0.9912324224662205E+00
   0.9910790415680467E+00
   0.9648200239176121E+00
   0.9933159689084254E+00
   0.1006058190770008E+01
   0.1001951445848752E+01
   0.9908606842587712E+00
   0.9740756605346153E+00
   0.9418723957579556E+00
   0.9819200920006242E+00
   0.9794670297490132E+00
   0.9704193773417196E+00
   0.9720239423459753E+00
   0.9557222769176278E+00
   0.9496779690486404E+00
   0.9528788119719924E+00
   0.1002641724885150E+01
   0.1002466661051982E+01
   0.1000501761035141E+01
   0.1001691470532524E+01
   0.9607697490573247E+00
   0.9492033430779594E+00
   0.9584631987653424E+00
   0.1001115862928518E+01
   0.1000492359790182E+01
   0.1001169299601268E+01
   0.9807286208724284E+00
   0.9805902051934086E+00
   0.9628514396090542E+00
SCALARS u double 1
LOOKUP_TABLE default
   0.0000000000000000E+00
   0.0000000000000000E+00
   0.0000000000000000E+00
   0.0000000000000000E+00
   0.0000000000000000E+00
   0.0000000000000000E+00
   0.0000000000000000E+00
   0.0000000000000000E+00
   0.0000000000000000E+00
   0.0000000000000000E+00
   0.0000000000000000E+00
   0.0000000000000000E+00
   0.0000000000000000E+00
   0.0000000000000000E+00
   0.0000000000000000E+00
   0.0000000000000000E+00
   0.0000000000000000E+00
   0.0000000000000000E+00
   0.0000000000000000E+00
   0.0000000000000000E+00
   0.0000000000000000E+00
   0.0000000000000000E+00
   0.0000000000000000E+00
   0.0000000000000000E+00
   0.0000000000000000E+00
   0.0000000000000000E+00
   0.0000000000000000E+00
   0.0000000000000000E+00
   0.0000000000000000E+00
   0.0000000000000000E+00
   0.0000000000000000E+00
   0.0000000000000000E+00
   0.0000000000000000E+00
   0.4949278825130561E+00
   0.5338112574645830E+00
   0.5183807331462661E+00
   0.4930034841829695E+00
   0.4845359638259672E+00
   0.4867358492825426E+00
   0.4891296826045772E+00
   0.4958382994052186E+00
   0.4898330491569668E+00
   0.4717517662062584E+00
   0.4455021590588328E+00
   0.4833967749723546E+00
   0.5099454998989288E+00
   0.4390219932059556E+00
   0.4949635058686478E+00
   0.5225566255535804E+00
   0.4962573743689731E+00
   0.5226346093042777E+00
   0.5039535200327954E+00
   0.5647638575128686E+00
   0.5248437877841110E+00
   0.4992291380199634E+00
   0.5730321158617268E+00
   0.5695644888592846E+00
   0.3737818151315612E+00
   0.3998085537394641E+00
   0.5599353498053397E+00
   0.5565001966327771E+00
   0.4941813992368373E+00
   0.4948052120517120E+00
   0.4925088040386902E+00
   0.4913885557672027E+00
   0.5162950048776885E+00
   0.5361795628657781E+00
   0.4947210275157909E+00
   0.4523786171094061E+00
   0.5129045063417934E+00
   0.5118476410831686E+00
   0.4783159222930326E+00
   0.4931484074812731E+00
   0.4602858052302208E+00
   0.5245013190110832E+00
   0.5297469836680857E+00
   0.5129821423484479E+00
   0.5328335669736222E+00
   0.5309087783372110E+00
   0.5310009739702486E+00
   0.5063871073537836E+00
   0.5282251785616419E+00
   0.5410274027799716E+00
   0.5361270551686568E+00
   0.5374182781635335E+00
   0.4965531454101295E+00
   0.4975464780989388E+00
   0.4963925669934754E+00
   0.4955397963908861E+00
   0.4904527081461474E+00
   0.4902488182631131E+00
   0.4860455915129197E+00
   0.4851910955721677E+00
   0.4932252260471348E+00
   0.4910081429660625E+00
   0.4830821635691414E+00
   0.4871170092960833E+00
   0.4878477586472985E+00
   0.4871553981657131E+00
   0.4881579532149367E+00
   0.4952683139411936E+00
   0.4900944235835312E+00
   0.4903796499851442E+00
   0.4944436876326105E+00
   0.4866873870106421E+00
   0.4892339650566874E+00
   0.4881387701286912E+00
   0.4877631456624972E+00
   0.4446943043211874E+00
   0.4700133569679117E+00
   0.4892142241298092E+00
   0.4885079333988788E+00
   0.4506815291627626E+00
   0.4687225018944127E+00
   0.4877080640086660E+00
   0.4868379883350571E+00
   0.4909073556971324E+00
   0.4793680993959034E+00
   0.4658289086627746E+00
   0.3792814394430700E+00
   0.4901621220553404E+00
   0.4486862228260635E+00
   0.4436310715507674E+00
   0.4845238723124575E+00
   0.4622157389569186E+00
   0.4665991076055707E+00
   0.4748309154699278E+00
   0.4894644237790748E+00
   0.5086550539169989E+00
   0.4314870146200965E+00
   0.4927489957397685E+00
   0.5318444358769983E+00
   0.4913494631804411E+00
   0.5207125672520491E+00
   0.5061666751679955E+00
   0.5689355774936924E+00
   0.5274827394586672E+00
   0.5015535827662250E+00
   0.5821440461235344E+00
   0.5689329850596690E+00
   0.3406475285252957E+00
   0.3789657075776352E+00
   0.5751939190676640E+00
   0.5666642868610047E+00
   0.5704151782735234E+00
   0.5291209051221246E+00
   0.5452011431688598E+00
   0.5718763411904624E+00
   0.5389245375960626E+00
   0.5475596038537668E+00
   0.5821760120284525E+00
   0.4925752681316269E+00
   0.5042528468038767E+00
   0.4961885202051171E+00
   0.5565263684239572E+00
   0.4758940631113803E+00
   0.4950522656510418E+00
   0.5498882796339469E+00
   0.5891054194709933E+00
   0.5842296313460066E+00
   0.5469767085281809E+00
   0.5805360494157541E+00
   0.5106923147454183E+00
   0.5030846380005978E+00
   0.5034173152359083E+00
   0.5676683823600185E+00
   0.5564306285356188E+00
   0.4947552083999435E+00
   0.5505317347090566E+00
   0.5510885864322456E+00
   0.5657340316913422E+00
   0.4920277497769842E+00
   0.4927385197245236E+00
   0.3865374070327540E+00
   0.3688047608159303E+00
   0.5574785248671442E+00
   0.5763755110304422E+00
   0.4194224113329471E+00
   0.5824673330246198E+00
   0.4265483714661248E+00
   0.5392952490793947E+00
   0.5012211006277958E+00
   0.5120001187974568E+00
   0.5049940152652557E+00
   0.5751857645914724E+00
   0.5876531093778162E+00
   0.5379510671751651E+00
   0.5677452006526406E+00
   0.5351892300963730E+00
   0.5338507263073118E+00
   0.5580391326015505E+00
   0.5512159831495989E+00
   0.4261539327013670E+00
   0.5273063724771030E+00
   0.5795607658928553E+00
   0.3319009013885763E+00
   0.4760038866399890E+00
   0.5446177407303213E+00
   0.4798246973644202E+00
   0.3005436018756265E+00
   0.5031224200562573E+00
   0.5017683485868536E+00
   0.5129547810162813E+00
   0.5415535060893760E+00
   0.3437629128472239E+00
   0.3398105916097527E+00
   0.3189704040204679E+00
   0.5066520737981892E+00
   0.5124251026819389E+00
   0.5331277801953980E+00
   0.5879313268800870E+00
   0.4644225946061371E+00
   0.3531739647338942E+00
SCALARS v double 1
LOOKUP_TABLE default
   0.0000000000000000E+00
   0.0000000000000000E+00
   0.0000000000000000E+00
   0.0000000000000000E+00
   0.0000000000000000E+00
   0.0000000000000000E+00
   0.0000000000000000E+00
   0.0000000000000000E+00
   0.0000000000000000E+00
   0.0000000000000000E+00
   0.0000000000000000E+00
   0.0000000000000000E+00
   0.0000000000000000E+00
   0.0000000000000000E+00
   0.0000000000000000E+00
   0.0000000000000000E+00
   0.0000000000000000E+00
   0.0000000000000000E+00
   0.0000000000000000E+00
   0.0000000000000000E+00
   0.0000000000000000E+00
   0.0000000000000000E+00
   0.0000000000000000E+00
   0.0000000000000000E+00
   0.0000000000000000E+00
   0.0000000000000000E+00
   0.0000000000000000E+00
   0.0000000000000000E+00
   0.0000000000000000E+00
   0.0000000000000000E+00
   0.0000000000000000E+00
   0.0000000000000000E+00
   0.0000000000000000E+00
   0.0000000000000000E+00
   0.0000000000000000E+00
   0.0000000000000000E+00
   0.0000000000000000E+00
   0.0000000000000000E+00
   0.0000000000000000E+00
   0.0000000000000000E+00
   0.0000000000000000E+00
   0.0000000000000000E+00
   0.0000000000000000E+00
   0.0000000000000000E+00
   0.0000000000000000E+00
   0.0000000000000000E+00
   0.0000000000000000E+00
   0.0000000000000000E+00
   0.0000000000000000E+00
   0.0000000000000000E+00
   0.0000000000000000E+00
   0.0000000000000000E+00
   0.0000000000000000E+00
   0.0000000000000000E+00
   0.0000000000000000E+00
   0.0000000000000000E+00
   0.0000000000000000E+00
   0.0000000000000000E+00
   0.0000000000000000E+00
   0.0000000000000000E+00
   0.0000000000000000E+00
   0.8482662924652555E-03
  -0.1304809196879823E-02
  -0.1340582193992912E-02
   0.0000000000000000E+00
   0.0000000000000000E+00
   0.0000000000000000E+00
   0.0000000000000000E+00
  -0.1923078250022882E-01
   0.4847958016310870E-03
   0.2195886881442665E-02
   0.1426111869543883E-01
  -0.6492474413034007E-02
  -0.7805616392841115E-02
  -0.1326830785255362E-01
   0.4917522478824450E-02
   0.7041412280712557E-03
   0.3452769861522259E-02
   0.1930187694838307E-02
   0.3168879605260353E-02
   0.1729140245587491E-02
  -0.7321897643713766E-02
  -0.7611059318200872E-04
   0.4468149188228065E-02
  -0.4237847523875916E-03
  -0.6678085454459235E-04
  -0.1962045246537347E-03
   0.8183880692042654E-03
   0.0000000000000000E+00
   0.0000000000000000E+00
   0.0000000000000000E+00
   0.0000000000000000E+00
   0.4671037531238205E-03
   0.1639442485975361E-02
  -0.1311299487711072E-02
  -0.1035797636968356E-02
  -0.2155056654049135E-02
  -0.1051923481701620E-02
  -0.8338626365093395E-03
  -0.7493787480925645E-03
   0.6587514605239154E-04
  -0.5940800750747238E-03
   0.8051523415384690E-03
  -0.1744965082736882E-02
   0.2675505903207486E-03
  -0.1031848545139460E-03
  -0.9479563138792343E-03
  -0.1104273208665266E-02
   0.0000000000000000E+00
   0.0000000000000000E+00
   0.0000000000000000E+00
  -0.1062547028811917E-02
  -0.7643247078470131E-02
   0.1860875961199880E-01
  -0.2860875555395051E-04
  -0.1392507848575419E-02
  -0.2043723417842092E-02
  -0.5677095906817638E-02
  -0.1593403458453717E-02
  -0.5949644094268669E-02
  -0.4165078112745684E-02
   0.1565902371140229E-02
   0.3329587449187738E-01
   0.2717120435955495E-04
  -0.2767415654239587E-02
   0.3563870340749844E-02
   0.3507527695029799E-03
   0.0000000000000000E+00
   0.0000000000000000E+00
   0.0000000000000000E+00
   0.0000000000000000E+00
   0.0000000000000000E+00
   0.0000000000000000E+00
   0.0000000000000000E+00
   0.0000000000000000E+00
   0.0000000000000000E+00
   0.0000000000000000E+00
   0.0000000000000000E+00
   0.0000000000000000E+00
   0.0000000000000000E+00
   0.0000000000000000E+00
   0.0000000000000000E+00
   0.0000000000000000E+00
   0.0000000000000000E+00
   0.5062168317222154E-02
   0.3232573624070895E-02
   0.8161448060605826E-02
   0.6169393882456757E-02
   0.1123167017545917E-01
   0.1429342659977550E-01
  -0.2049567525549394E-03
   0.5112349510124127E-02
   0.2924181927694413E-02
   0.3374560091963096E-02
   0.3731860044333880E-02
  -0.1466846469369120E-01
  -0.6098932816749904E-03
   0.6672313343778633E-02
   0.1543590767496814E-02
   0.1983929080124109E-02
   0.4297978802332149E-02
  -0.2770261851774059E-02
   0.1248641026924457E-02
   0.2837719058775406E-02
   0.1523869546986625E-02
   0.2602701639631356E-02
   0.2047987059722117E-02
   0.2124922802112909E-02
   0.8698335891238024E-02
  -0.3737753672684176E-02
   0.6242120487167755E-02
   0.3334276896343369E-04
  -0.3946629286893140E-03
  -0.1677884921653168E-01
  -0.4892218024703557E-02
  -0.4720315727695007E-02
   0.3447899658544252E-02
  -0.6151600239368313E-02
   0.9568128887581050E-04
  -0.3292955323285023E-01
  -0.3045441304085741E-02
   0.4726500246577393E-02
   0.9418248226530616E-03
   0.2128824204789222E-02
   0.4537397708880526E-02
   0.2724989712031679E-02
   0.3212934109910940E-02
   0.5207172719799724E-02
   0.1947749599409263E-02
   0.7433350227826504E-03
  -0.2612152912051401E-04
  -0.5378989404553101E-02
  -0.6963751451009693E-02
  -0.9632106752953542E-03
   0.1118466653767455E-02
  -0.2075607380962523E-02
  -0.3192058369916932E-02
  -0.2523485646626336E-02
  -0.4120845506109934E-02
  -0.7597846744519395E-02
  -0.1995693173126994E-02
   0.6427049507716596E-03
  -0.2129251437489245E-03
   0.1239494481243800E-02
  -0.3507952826559192E-02
   0.5219762393036753E-02
  -0.8489354632918935E-02
   0.2876553131564964E-04
  -0.3440166978727032E-03
   0.2559417522429471E-02
   0.1663761872921404E-02
   0.2025161906209050E-02
  -0.5634429979849841E-02
SCALARS w double 1
LOOKUP_TABLE default
   0.0000000000000000E+00
   0.0000000000000000E+00
   0.0000000000000000E+00
   0.0000000000000000E+00
   0.0000000000000000E+00
   0.0000000000000000E+00
   0.0000000000000000E+00
   0.0000000000000000E+00
   0.0000000000000000E+00
   0.0000000000000000E+00
   0.0000000000000000E+00
   0.0000000000000000E+00
   0.0000000000000000E+00
   0.0000000000000000E+00
   0.0000000000000000E+00
   0.0000000000000000E+00
   0.0000000000000000E+00
   0.0000000000000000E+00
   0.0000000000000000E+00
   0.0000000000000000E+00
   0.0000000000000000E+00
   0.0000000000000000E+00
   0.0000000000000000E+00
   0.0000000000000000E+00
   0.0000000000000000E+00
   0.0000000000000000E+00
   0.0000000000000000E+00
   0.0000000000000000E+00
   0.0000000000000000E+00
   0.0000000000000000E+00
   0.0000000000000000E+00
   0.0000000000000000E+00
   0.0000000000000000E+00
  -0.1007682218550948E+00
  -0.4250163507783845E-01
   0.8003979340770402E-03
   0.5838626794912141E-02
   0.6843979414654699E-03
   0.1636366222560996E-02
   0.3339558940551496E-02
   0.2343076572839897E-02
   0.4494777607290782E-03
   0.3515597909071818E-02
   0.4522733800788397E-01
   0.6522545491208857E-01
   0.9260774553054237E-03
  -0.2263933836352804E-01
   0.4312180659419140E-02
   0.1361076529587654E-01
   0.1039593150428050E-01
   0.4901013772581264E-01
   0.2440223442313981E-02
  -0.6507074452570425E-02
  -0.6965272720967350E-03
   0.3399678187619038E-03
   0.3907621569301024E-02
  -0.3895810423401773E-01
   0.1798256902857650E-01
   0.1120032623196681E-01
   0.3404880343158128E-01
   0.8456289111760310E-02
   0.4998654433460141E-02
   0.5009528761043483E-02
   0.4891472010236881E-02
   0.6070359938286940E-02
   0.2618934351418031E-02
  -0.4147031444415232E-01
  -0.9954686068431474E-01
  -0.1121627049651183E+00
   0.5101983445601910E-02
   0.4315345444201488E-02
  -0.1004494773308417E+00
  -0.9891172121931782E-01
  -0.9872416116059438E-01
  -0.9459750157219640E-01
  -0.6807735161070856E-01
   0.5209471495198369E-02
  -0.1933491739202142E-01
  -0.1576566114167885E-01
  -0.5957717628452136E-02
   0.6898337139132603E-02
  -0.8011052329850048E-01
  -0.2780051352469977E-01
  -0.8093431465720966E-01
  -0.5870810866932791E-01
   0.3061935697075089E-02
   0.2691047473380418E-02
   0.2653917944004140E-02
   0.3447456505267212E-02
   0.4000659204672706E-02
   0.1202943485763775E-02
  -0.1419855791729105E-03
   0.2129885319848986E-02
   0.4886461261691765E-02
   0.3841657410022993E-02
   0.1118130842654779E-02
   0.1225644589984973E-02
   0.1515727703914804E-02
   0.1565630200753000E-05
   0.7662058970752662E-04
   0.4380883705617772E-02
   0.2696883132628333E-02
   0.2314565736481073E-02
   0.4995452177141873E-02
   0.1138644524205700E-02
   0.2713089176397889E-02
   0.1994183748260582E-02
   0.4315638079842836E-04
   0.8373818424520273E-01
   0.2783369676420273E-02
  -0.8384869590292548E-03
  -0.1612721641744931E-03
   0.1409485926561678E+00
   0.1239155931736581E+00
  -0.1198499634412141E-02
  -0.4382545470172099E-02
  -0.3167620412814311E-03
  -0.6515694335745339E-02
  -0.1956923937303038E-02
   0.1557643580368652E+00
   0.7489214626902890E-01
   0.2549333467860902E-01
   0.1656404339699791E+00