title="tecplot geometry and solution file"
variables = x y z rho u v w p mach temperature
zone t="boundary 1 bc-1", solutiontime= 0.5000000E+02, strandid=1001, i=32, j=46, f=feblock
  0.000000000000E+00  0.000000000000E+00  0.000000000000E+00  0.000000000000E+00  0.000000000000E+00  0.000000000000E+00  0.000000000000E+00
  0.000000000000E+00  0.000000000000E+00  0.000000000000E+00  0.000000000000E+00  0.000000000000E+00  0.000000000000E+00  0.000000000000E+00
  0.000000000000E+00  0.000000000000E+00  0.000000000000E+00  0.000000000000E+00  0.000000000000E+00  0.000000000000E+00  0.000000000000E+00
  0.000000000000E+00  0.000000000000E+00  0.000000000000E+00  0.000000000000E+00  0.000000000000E+00  0.000000000000E+00  0.000000000000E+00
  0.000000000000E+00  0.000000000000E+00  0.000000000000E+00  0.000000000000E+00
  0.250000000000E+01  0.250000000000E+01  0.125000000000E+01  0.146289271009E+01  0.157686156160E+01  0.308372018325E+00  0.000000000000E+00
 -0.125000000000E+01 -0.600232012419E+00  0.250000000000E+01  0.477386199275E+00  0.742988685424E+00 -0.739814786992E+00  0.177790177481E+01
  0.155830813274E+01  0.250000000000E+01 -0.250000000000E+01 -0.154800130438E+01 -0.487811078581E+00  0.250000000000E+01  0.627766083140E+00
 -0.345533899378E+00 -0.178862290564E+01 -0.158811787973E+01  0.125000000000E+01 -0.250000000000E+01 -0.144524380962E+01  0.000000000000E+00
 -0.125000000000E+01 -0.250000000000E+01 -0.250000000000E+01 -0.250000000000E+01
  0.000000000000E+00  0.125000000000E+01  0.000000000000E+00  0.103724302461E+01  0.219251206392E+01  0.922061490191E+00  0.000000000000E+00
  0.000000000000E+00  0.715990576545E+00  0.250000000000E+01  0.202479342020E+01  0.324151231464E+01  0.175434191980E+01  0.310152362409E+01
  0.404200324774E+01  0.375000000000E+01  0.000000000000E+00  0.930412228790E+00  0.299062775774E+01  0.500000000000E+01  0.429310310915E+01
  0.409252726285E+01  0.187029682677E+01  0.284428995242E+01  0.500000000000E+01  0.125000000000E+01  0.394624082883E+01  0.500000000000E+01
  0.500000000000E+01  0.250000000000E+01  0.375000000000E+01  0.500000000000E+01
  0.134427144971E+01  0.106355395610E+01  0.142583204923E+01  0.108608796967E+01  0.103229115340E+01  0.120095364255E+01  0.164466727629E+01
  0.149409064377E+01  0.123520366982E+01  0.102389313809E+01  0.102809523694E+01  0.101301828713E+01  0.103252946695E+01  0.101471891615E+01
  0.100663883754E+01  0.100830819007E+01  0.144945745195E+01  0.116393552217E+01  0.101462863994E+01  0.100426040818E+01  0.100679807415E+01
  0.100724553329E+01  0.104668119162E+01  0.101938460956E+01  0.100424800578E+01  0.106442280143E+01  0.100789341923E+01  0.100288843765E+01
  0.100334542032E+01  0.102847362142E+01  0.100958665739E+01  0.100399273190E+01
  0.000000000000E+00  0.445481415384E+00  0.000000000000E+00  0.468737856703E+00  0.462182264325E+00  0.443613738776E+00  0.000000000000E+00
  0.000000000000E+00  0.379272522617E+00  0.471738849239E+00  0.466574953352E+00  0.479355157570E+00  0.490159652769E+00  0.484514724014E+00
  0.488524784220E+00  0.489830188499E+00  0.000000000000E+00  0.450653304782E+00  0.474814029902E+00  0.495784887552E+00  0.490899471282E+00
  0.486835368178E+00  0.448668668993E+00  0.465807174834E+00  0.496536481758E+00  0.444686657071E+00  0.487701045408E+00  0.497534090276E+00
  0.496384264371E+00  0.470002878043E+00  0.489199905587E+00  0.495522026695E+00
  0.000000000000E+00  0.000000000000E+00  0.000000000000E+00  0.186085476548E-01 -0.276688485054E-02  0.332952482803E-01  0.000000000000E+00
  0.000000000000E+00 -0.594701653164E-02  0.000000000000E+00  0.356648477051E-02 -0.566638313753E-02 -0.416060194771E-02  0.305514331097E-04
 -0.106175918028E-02  0.000000000000E+00  0.000000000000E+00 -0.764112873567E-02  0.359618935160E-03  0.000000000000E+00 -0.203512306102E-02
 -0.138312920205E-02  0.156561481128E-02 -0.158521031423E-02 -0.638374785201E-04  0.000000000000E+00 -0.283455391618E-04 -0.196339537080E-03
  0.807126761008E-03  0.000000000000E+00  0.000000000000E+00  0.000000000000E+00
  0.000000000000E+00  0.452181758380E-01  0.000000000000E+00  0.123933295890E+00  0.247647171053E-01  0.165644512354E+00  0.000000000000E+00
  0.000000000000E+00  0.155763097583E+00  0.351822586000E-02  0.259783174020E-01 -0.651224677832E-02  0.748997920610E-01  0.371839290718E-02
 -0.149294459839E-03  0.459062422452E-03  0.000000000000E+00  0.140954084799E+00 -0.808565308428E-02  0.237177359563E-02 -0.304305734908E-03
 -0.438193608211E-02  0.255017491619E-01 -0.194957034983E-02  0.308362548332E-02  0.837461431686E-01 -0.121909319274E-02  0.268514645398E-02
  0.264043141622E-02  0.279387064451E-02 -0.834662795572E-03  0.345019204826E-02
  0.960184574082E+00  0.782340562410E+00  0.101844205126E+01  0.808726658253E+00  0.746125892399E+00  0.879446499829E+00  0.117475225715E+01
  0.106719924474E+01  0.916620147791E+00  0.737395239129E+00  0.743553973090E+00  0.725759211615E+00  0.757455251183E+00  0.729188343871E+00
  0.720785048366E+00  0.722781671078E+00  0.103531921609E+01  0.858317141391E+00  0.728065073547E+00  0.718615293828E+00  0.721013448833E+00
  0.721151587193E+00  0.760018786603E+00  0.732628403677E+00  0.718531161693E+00  0.791043235886E+00  0.722107949849E+00  0.717199383023E+00
  0.717636870824E+00  0.741799737588E+00  0.724056580196E+00  0.718400634677E+00
  0.000000000000E+00  0.441238348398E+00  0.000000000000E+00  0.475214987126E+00  0.460123708689E+00  0.468827815241E+00  0.000000000000E+00
  0.000000000000E+00  0.402302516794E+00  0.469814974247E+00  0.464411128895E+00  0.478714034123E+00  0.489298241431E+00  0.483068557809E+00
  0.487930072983E+00  0.488961654736E+00  0.000000000000E+00  0.464775721825E+00  0.473795651907E+00  0.495346591561E+00  0.490266103143E+00
  0.486286083761E+00  0.445717618078E+00  0.464382274819E+00  0.496127394825E+00  0.443624102982E+00  0.486964461709E+00  0.497246279668E+00
  0.496059270820E+00  0.467732355440E+00  0.488212087328E+00  0.495098264774E+00
  0.999990295117E+00  0.102982719503E+01  0.999990758053E+00  0.104247294250E+01  0.101190080523E+01  0.102520618293E+01  0.999991416938E+00
  0.999992168392E+00  0.103891223631E+01  0.100826277311E+01  0.101252833874E+01  0.100300548289E+01  0.102702865691E+01  0.100605563292E+01
  0.100244400483E+01  0.100355660053E+01  0.999992721820E+00  0.103239739234E+01  0.100459524090E+01  0.100179336272E+01  0.100260305843E+01
  0.100234966421E+01  0.101657153082E+01  0.100617544696E+01  0.100168844805E+01  0.104043292642E+01  0.100303376379E+01  0.100118726923E+01
  0.100134171025E+01  0.100976788417E+01  0.100405369352E+01  0.100176112495E+01
        12        19        11        11
        11         5        12        12
        10        14         5         5
        19        13        11        11
        19        24        13        13
        30        23        24        24
        19        12        22        22
        28        22        21        21
        11        13         6         6
         7         6         9         9
        15        12        14        14
        18        13        23        23
        15        25        21        21
        27        19        22        22
        18         8         9         9
        27        31        24        24
         4        11         6         6
         5        14        12        12
         4         2         5         5
        21        12        15        15
        14        16        15        15
        24        19        27        27
        22        29        27        27
        23        26        18        18
        17         8        18        18
         5        11         4         4
         6         3         4         4
        26        23        30        30
         5         2        10        10
        16        14        10        10
         3         6         7         7
        21        25        28        28
        29        22        28        28
         6        13         9         9
         2         4         1         1
        31        27        32        32
        25        15        20        20
        24        23        13        13
         8         7         9         9
        13        18         9         9
        31        30        24        24
        12        21        22        22
        29        32        27        27
         3         1         4         4
        26        17        18        18
        16        20        15        15
zone t="boundary 2 bc-2", solutiontime= 0.5000000E+02, strandid=1002, i=33, j=48, f=feblock
  0.500000000000E+01  0.375000000000E+01  0.250000000000E+01  0.288078410721E+01  0.125000000000E+01  0.190974100652E+01  0.326683758169E+01
  0.201431602454E+01  0.000000000000E+00  0.963108083381E+00  0.500000000000E+01  0.403552511878E+01  0.423153924130E+01  0.500000000000E+01
  0.385533350601E+01  0.500000000000E+01  0.398173246726E+01  0.315249557942E+01  0.267000324704E+01  0.154774304040E+01  0.218329375016E+01
  0.893127759452E+00  0.000000000000E+00  0.698517061619E+00  0.964171764089E+00  0.310324758057E+01  0.000000000000E+00  0.000000000000E+00
  0.125000000000E+01  0.500000000000E+01  0.375000000000E+01  0.250000000000E+01  0.000000000000E+00
 -0.250000000000E+01 -0.250000000000E+01 -0.250000000000E+01 -0.250000000000E+01 -0.250000000000E+01 -0.250000000000E+01 -0.250000000000E+01
 -0.250000000000E+01 -0.250000000000E+01 -0.250000000000E+01 -0.250000000000E+01 -0.250000000000E+01 -0.250000000000E+01 -0.250000000000E+01
 -0.250000000000E+01 -0.250000000000E+01 -0.250000000000E+01 -0.250000000000E+01 -0.250000000000E+01 -0.250000000000E+01 -0.250000000000E+01
 -0.250000000000E+01 -0.250000000000E+01 -0.250000000000E+01 -0.250000000000E+01 -0.250000000000E+01 -0.250000000000E+01 -0.250000000000E+01
 -0.250000000000E+01 -0.250000000000E+01 -0.250000000000E+01 -0.250000000000E+01 -0.250000000000E+01
  0.000000000000E+00  0.000000000000E+00  0.000000000000E+00  0.904659890645E+00  0.000000000000E+00  0.717002441913E+00  0.188609243358E+01
  0.176246431481E+01  0.000000000000E+00  0.961328577125E+00  0.125000000000E+01  0.101201586758E+01  0.191586535653E+01  0.250000000000E+01
  0.293121848150E+01  0.375000000000E+01  0.406975391361E+01  0.363585050272E+01  0.285047954584E+01  0.292817774674E+01  0.395907379566E+01
  0.205246550326E+01  0.125000000000E+01  0.306828197606E+01  0.397245519226E+01  0.433168271247E+01  0.250000000000E+01  0.375000000000E+01
  0.500000000000E+01  0.500000000000E+01  0.500000000000E+01  0.500000000000E+01  0.500000000000E+01
  0.830787404530E+00  0.935297256489E+00  0.934221982145E+00  0.968087713237E+00  0.961719528543E+00  0.964848332586E+00  0.984136201344E+00
  0.991412447327E+00  0.144945745195E+01  0.102921689335E+01  0.955878696784E+00  0.960692920345E+00  0.981487961903E+00  0.100642910916E+01
  0.997912123491E+00  0.100977863982E+01  0.100199481685E+01  0.998063237092E+00  0.991085838945E+00  0.100132719341E+01  0.100094600691E+01
  0.101224609898E+01  0.106442280143E+01  0.101082190540E+01  0.100685258283E+01  0.100118414320E+01  0.102847362142E+01  0.100958665739E+01
  0.100510171618E+01  0.100179475831E+01  0.100266315910E+01  0.100321164522E+01  0.100399273190E+01
  0.000000000000E+00  0.000000000000E+00  0.000000000000E+00  0.378986940793E+00  0.000000000000E+00  0.340639444128E+00  0.582179008417E+00
  0.575195820407E+00  0.000000000000E+00  0.489449421486E+00  0.494741334962E+00  0.431507387042E+00  0.568961825025E+00  0.536179830619E+00
  0.568879739697E+00  0.516235685087E+00  0.508555698965E+00  0.527399282556E+00  0.566648549467E+00  0.531828923562E+00  0.506096460417E+00
  0.520701999156E+00  0.444686657071E+00  0.491339919650E+00  0.492734936029E+00  0.501504484914E+00  0.470002878043E+00  0.489199905587E+00
  0.490458182932E+00  0.491426954044E+00  0.486218275599E+00  0.490304438595E+00  0.495522026695E+00
  0.000000000000E+00  0.000000000000E+00  0.000000000000E+00  0.000000000000E+00  0.000000000000E+00  0.000000000000E+00  0.000000000000E+00
  0.000000000000E+00  0.000000000000E+00  0.000000000000E+00  0.000000000000E+00  0.000000000000E+00  0.000000000000E+00  0.000000000000E+00
  0.000000000000E+00  0.000000000000E+00  0.000000000000E+00  0.000000000000E+00  0.000000000000E+00  0.000000000000E+00  0.000000000000E+00
  0.000000000000E+00  0.000000000000E+00  0.000000000000E+00  0.000000000000E+00  0.000000000000E+00  0.000000000000E+00  0.000000000000E+00
  0.000000000000E+00  0.000000000000E+00  0.000000000000E+00  0.000000000000E+00  0.000000000000E+00
  0.000000000000E+00  0.000000000000E+00  0.000000000000E+00 -0.229669073972E-02  0.000000000000E+00  0.183565246604E-01  0.121122188246E-01
  0.454986545172E-01  0.000000000000E+00  0.870789633187E-01 -0.995426183686E-01 -0.211864967293E-01 -0.306441469384E-01 -0.414442956369E-01
 -0.137882982205E-02  0.259919304048E-02  0.609480515337E-03  0.503573528134E-03  0.150967305529E-01  0.284025722779E-01  0.564163888651E-02
  0.553419833210E-01  0.837461431686E-01  0.110441021858E-01  0.679169191425E-02 -0.758115364921E-03  0.279387064451E-02 -0.834662795572E-03
  0.400708366486E-02  0.602719331783E-02 -0.143884231489E-03  0.120121369479E-02  0.345019204826E-02
  0.593415710061E+00  0.668065253548E+00  0.667297107195E+00  0.684257572543E+00  0.686937806307E+00  0.679201335841E+00  0.695811645513E+00
  0.702343853256E+00  0.103531921609E+01  0.723694676395E+00  0.672591691112E+00  0.675702734364E+00  0.694093188958E+00  0.720959962630E+00
  0.712691281974E+00  0.724770830498E+00  0.716580562928E+00  0.713298991880E+00  0.706429557636E+00  0.717737239044E+00  0.715376602471E+00
  0.730937675054E+00  0.791043235886E+00  0.724372849967E+00  0.721010721415E+00  0.715457540583E+00  0.741799737588E+00  0.724056580196E+00
  0.719312938118E+00  0.715892799205E+00  0.716608904469E+00  0.717367939362E+00  0.718400634677E+00
  0.000000000000E+00  0.000000000000E+00  0.000000000000E+00  0.380991906351E+00  0.000000000000E+00  0.343629824937E+00  0.585286157280E+00
  0.579373263998E+00  0.000000000000E+00  0.501056068973E+00  0.508460362061E+00  0.435373026893E+00  0.572640041166E+00  0.537002098939E+00
  0.568922553994E+00  0.514994090589E+00  0.508247258917E+00  0.527252853923E+00  0.567446661271E+00  0.531657144084E+00  0.505981017093E+00
  0.520795579258E+00  0.443624102982E+00  0.490663730526E+00  0.492155873700E+00  0.501390785489E+00  0.467732355440E+00  0.488212087328E+00
  0.490002766964E+00  0.491352304356E+00  0.486075474409E+00  0.490036479412E+00  0.495098264774E+00
  0.999993487570E+00  0.999993690219E+00  0.999993543213E+00  0.989539055669E+00  0.999993137591E+00  0.985524706903E+00  0.989838908870E+00
  0.991798516561E+00  0.999992721820E+00  0.984411112467E+00  0.985091906249E+00  0.984689080222E+00  0.990058464555E+00  0.100289621842E+01
  0.999855369302E+00  0.100485306649E+01  0.100121554646E+01  0.100055642921E+01  0.997896793424E+00  0.100350029569E+01  0.100058068722E+01
  0.101093276240E+01  0.104043292642E+01  0.100326475370E+01  0.100254498741E+01  0.100045587380E+01  0.100976788417E+01  0.100405369352E+01
  0.100192656838E+01  0.100045434514E+01  0.100058774190E+01  0.100109993728E+01  0.100176112495E+01
        15         7        19        19
         8        20        19        19
        18        19        21        21
         7         4         8         8
         3         6         4         4
        19         7         8         8
        19        18        15        15
        14        13        15        15
         8        22        20        20
        27        24        22        22
        19        20        21        21
        32        26        21        21
        17        18        26        26
        17        16        15        15
        25        29        21        21
        12         7        13        13
        10         8         6         6
        25        20        24        24
         4         6         8         8
        12         2         4         4
        10        23        22        22
        26        31        17        17
        30        16        17        17
         4         7        12        12
        13        11        12        12
        21        20        25        25
        24        28        25        25
        22         8        10        10
         6         5        10        10
        31        26        32        32
         4         2         3         3
         5         6         3         3
        11        13        14        14
        22        23        27        27
        28        24        27        27
        15        13         7         7
         2        12         1         1
        29        25        33        33
        23        10         9         9
        21        26        18        18
        16        14        15        15
        18        17        15        15
        29        32        21        21
        22        24        20        20
        28        33        25        25
        11         1        12        12
        31        30        17        17
         5         9        10        10
zone t="boundary 3 bc-3", solutiontime= 0.5000000E+02, strandid=1003, i=33, j=48, f=feblock
  0.375000000000E+01  0.250000000000E+01  0.500000000000E+01  0.403552511878E+01  0.288078410721E+01  0.125000000000E+01  0.190974100652E+01
  0.500000000000E+01  0.326683758169E+01  0.423153924130E+01  0.201431602454E+01  0.000000000000E+00  0.963108083381E+00  0.500000000000E+01
  0.267000324704E+01  0.385533350601E+01  0.893127759452E+00  0.154774304040E+01  0.000000000000E+00  0.500000000000E+01  0.315249557942E+01
  0.218329375016E+01  0.398173246726E+01  0.000000000000E+00  0.698517061619E+00  0.964171764089E+00  0.125000000000E+01  0.000000000000E+00
  0.500000000000E+01  0.310324758057E+01  0.250000000000E+01  0.375000000000E+01  0.000000000000E+00
  0.250000000000E+01  0.250000000000E+01  0.250000000000E+01  0.250000000000E+01  0.250000000000E+01  0.250000000000E+01  0.250000000000E+01
  0.250000000000E+01  0.250000000000E+01  0.250000000000E+01  0.250000000000E+01  0.250000000000E+01  0.250000000000E+01  0.250000000000E+01
  0.250000000000E+01  0.250000000000E+01  0.250000000000E+01  0.250000000000E+01  0.250000000000E+01  0.250000000000E+01  0.250000000000E+01
  0.250000000000E+01  0.250000000000E+01  0.250000000000E+01  0.250000000000E+01  0.250000000000E+01  0.250000000000E+01  0.250000000000E+01
  0.250000000000E+01  0.250000000000E+01  0.250000000000E+01  0.250000000000E+01  0.250000000000E+01
  0.000000000000E+00  0.000000000000E+00  0.000000000000E+00  0.101201586758E+01  0.904659890645E+00  0.000000000000E+00  0.717002441913E+00
  0.125000000000E+01  0.188609243358E+01  0.191586535653E+01  0.176246431481E+01  0.000000000000E+00  0.961328577125E+00  0.250000000000E+01
  0.285047954584E+01  0.293121848150E+01  0.205246550326E+01  0.292817774674E+01  0.125000000000E+01  0.375000000000E+01  0.363585050272E+01
  0.395907379566E+01  0.406975391361E+01  0.250000000000E+01  0.306828197606E+01  0.397245519226E+01  0.500000000000E+01  0.375000000000E+01
  0.500000000000E+01  0.433168271247E+01  0.500000000000E+01  0.500000000000E+01  0.500000000000E+01
  0.941861272515E+00  0.946296420113E+00  0.843730491972E+00  0.964331006654E+00  0.978820743760E+00  0.956975891641E+00  0.983331403523E+00
  0.963500317220E+00  0.982689306731E+00  0.984243965611E+00  0.990263815958E+00  0.134427144971E+01  0.101918251345E+01  0.100829903916E+01
  0.993456155400E+00  0.997998684828E+00  0.100807808380E+01  0.100072116344E+01  0.106355395610E+01  0.100673529110E+01  0.100058356140E+01
  0.100234980730E+01  0.100178076615E+01  0.102389313809E+01  0.100874208392E+01  0.100528370904E+01  0.100522860304E+01  0.100830819007E+01
  0.100196461981E+01  0.100162012366E+01  0.100413205364E+01  0.100321958209E+01  0.100426040818E+01
  0.000000000000E+00  0.000000000000E+00  0.000000000000E+00  0.439071269148E+00  0.399865812728E+00  0.000000000000E+00  0.373794144899E+00
  0.495017673286E+00  0.573056189817E+00  0.569605108976E+00  0.559932658677E+00  0.000000000000E+00  0.483390704786E+00  0.533822131113E+00
  0.556458762774E+00  0.564688361318E+00  0.522615496215E+00  0.522533036089E+00  0.445481415384E+00  0.518326923513E+00  0.524750914815E+00
  0.503888173936E+00  0.509839741706E+00  0.471738849239E+00  0.496245454514E+00  0.494940396290E+00  0.489076358898E+00  0.489830188499E+00
  0.493064989608E+00  0.499146610133E+00  0.486766642950E+00  0.484757875383E+00  0.495784887552E+00
  0.000000000000E+00  0.000000000000E+00  0.000000000000E+00  0.000000000000E+00  0.000000000000E+00  0.000000000000E+00  0.000000000000E+00
  0.000000000000E+00  0.000000000000E+00  0.000000000000E+00  0.000000000000E+00  0.000000000000E+00  0.000000000000E+00  0.000000000000E+00
  0.000000000000E+00  0.000000000000E+00  0.000000000000E+00  0.000000000000E+00  0.000000000000E+00  0.000000000000E+00  0.000000000000E+00
  0.000000000000E+00  0.000000000000E+00  0.000000000000E+00  0.000000000000E+00  0.000000000000E+00  0.000000000000E+00  0.000000000000E+00
  0.000000000000E+00  0.000000000000E+00  0.000000000000E+00  0.000000000000E+00  0.000000000000E+00
  0.000000000000E+00  0.000000000000E+00  0.000000000000E+00 -0.226115190315E-01  0.111963814258E-01  0.000000000000E+00  0.179816810030E-01
 -0.100761226013E+00  0.390410751821E-02 -0.389325416258E-01  0.340377325163E-01  0.000000000000E+00  0.652293782612E-01 -0.424929692407E-01
  0.843881020235E-02 -0.650994061722E-02  0.490054841408E-01  0.135873483875E-01  0.452181758380E-01  0.737198121552E-03 -0.701223024393E-03
  0.243744352943E-02  0.868930399911E-03  0.351822586000E-02  0.103945255443E-01  0.431655372475E-02  0.337507286190E-02  0.459062422452E-03
  0.572579792747E-02  0.341102350968E-03  0.160978424708E-02  0.569905756291E-03  0.237177359563E-02
  0.672750879842E+00  0.675918855554E+00  0.602658385629E+00  0.676093765438E+00  0.691308921558E+00  0.683547254659E+00  0.690066482694E+00
  0.677274864411E+00  0.695201828246E+00  0.696250866669E+00  0.703344068840E+00  0.960184574082E+00  0.719726359117E+00  0.722866646175E+00
  0.709447759231E+00  0.713700946843E+00  0.726067414123E+00  0.716602922847E+00  0.782340562410E+00  0.722284531945E+00  0.716128637279E+00
  0.716551643898E+00  0.716546536710E+00  0.737395239129E+00  0.722682911064E+00  0.719441264248E+00  0.719566095345E+00  0.722781671078E+00
  0.716030183447E+00  0.715847822460E+00  0.718146783099E+00  0.717062470501E+00  0.718615293828E+00
  0.000000000000E+00  0.000000000000E+00  0.000000000000E+00  0.443767747622E+00  0.402286945385E+00  0.000000000000E+00  0.377550369410E+00
  0.509232118997E+00  0.575832179142E+00  0.573707404669E+00  0.562554064223E+00  0.000000000000E+00  0.490563299716E+00  0.534527097377E+00
  0.556586981858E+00  0.564391578117E+00  0.522730517229E+00  0.522052000013E+00  0.441238348398E+00  0.517182330486E+00  0.524228629886E+00
  0.503687457167E+00  0.509488566381E+00  0.469814974247E+00  0.495614442350E+00  0.494483780022E+00  0.488562428941E+00  0.488961654736E+00
  0.492980746292E+00  0.499005550304E+00  0.486460937067E+00  0.484596931086E+00  0.495346591561E+00
  0.999989339475E+00  0.999989408882E+00  0.999989626910E+00  0.981541882488E+00  0.988773987834E+00  0.999989827206E+00  0.982469462799E+00
  0.984104305135E+00  0.990427547015E+00  0.990355285268E+00  0.994362997524E+00  0.999990295117E+00  0.988652071110E+00  0.100368369436E+01
  0.999769197185E+00  0.100118501233E+01  0.100834885324E+01  0.100252111042E+01  0.102982719503E+01  0.100443319477E+01  0.100199536638E+01
  0.100082056599E+01  0.100138192436E+01  0.100826277311E+01  0.100298787135E+01  0.100192389560E+01  0.100215267496E+01  0.100355660053E+01
  0.100047670048E+01  0.100056591094E+01  0.100126820242E+01  0.100066573323E+01  0.100179336272E+01
        15         9        16        16
        15        18        11        11
        22        15        21        21
        11         5         9         9
         5         7         2         2
        11         9        15        15
        16        21        15        15
        16        10        14        14
        18        17        11        11
        17        25        24        24
        22        18        15        15
        22        30        31        31
        30        21        23        23
        16        20        23        23
        22        27        26        26
        10         9         4         4
         7        11        13        13
        25        18        26        26
        11         7         5         5
         5         1         4         4
        17        19        13        13
        23        32        30        30
        23        20        29        29
         4         9         5         5
         4         8        10        10
        26        18        22        22
        26        28        25        25
        13        11        17        17
        13         6         7         7
        31        30        32        32
         2         1         5         5
         2         7         6         6
        14        10         8         8
        24        19        17        17
        24        25        28        28
         9        10        16        16
         3         4         1         1
        33        26        27        27
        12        13        19        19
        21        30        22        22
        16        14        20        20
        16        23        21        21
        22        31        27        27
        18        25        17        17
        26        33        28        28
         4         3         8         8
        23        29        32        32
        13        12         6         6
zone t="boundary 4 bc-4", solutiontime= 0.5000000E+02, strandid=1004, i=32, j=46, f=feblock
  0.125000000000E+01  0.219251206392E+01  0.103724302461E+01  0.500000000000E+01  0.250000000000E+01  0.375000000000E+01  0.404200324774E+01
  0.500000000000E+01  0.000000000000E+00  0.310152362409E+01  0.202479342020E+01  0.324151231464E+01  0.922061490191E+00  0.000000000000E+00
  0.299062775774E+01  0.394624082883E+01  0.500000000000E+01  0.409252726285E+01  0.500000000000E+01  0.429310310915E+01  0.175434191980E+01
  0.284428995242E+01  0.000000000000E+00  0.000000000000E+00  0.715990576545E+00  0.930412228790E+00  0.125000000000E+01  0.187029682677E+01
  0.500000000000E+01  0.375000000000E+01  0.250000000000E+01  0.000000000000E+00
  0.250000000000E+01  0.157686156160E+01  0.146289271009E+01  0.250000000000E+01  0.250000000000E+01  0.250000000000E+01  0.155830813274E+01
  0.125000000000E+01  0.250000000000E+01  0.177790177481E+01  0.477386199275E+00  0.742988685424E+00  0.308372018325E+00  0.125000000000E+01
 -0.487811078581E+00 -0.144524380962E+01 -0.125000000000E+01 -0.345533899378E+00  0.000000000000E+00  0.627766083140E+00 -0.739814786992E+00
 -0.158811787973E+01  0.000000000000E+00 -0.125000000000E+01 -0.600232012419E+00 -0.154800130438E+01 -0.250000000000E+01 -0.178862290564E+01
 -0.250000000000E+01 -0.250000000000E+01 -0.250000000000E+01 -0.250000000000E+01
  0.500000000000E+01  0.500000000000E+01  0.500000000000E+01  0.500000000000E+01  0.500000000000E+01  0.500000000000E+01  0.500000000000E+01
  0.500000000000E+01  0.500000000000E+01  0.500000000000E+01  0.500000000000E+01  0.500000000000E+01  0.500000000000E+01  0.500000000000E+01
  0.500000000000E+01  0.500000000000E+01  0.500000000000E+01  0.500000000000E+01  0.500000000000E+01  0.500000000000E+01  0.500000000000E+01
  0.500000000000E+01  0.500000000000E+01  0.500000000000E+01  0.500000000000E+01  0.500000000000E+01  0.500000000000E+01  0.500000000000E+01
  0.500000000000E+01  0.500000000000E+01  0.500000000000E+01  0.500000000000E+01
  0.100522860304E+01  0.100432972641E+01  0.100432034582E+01  0.100196461981E+01  0.100413205364E+01  0.100321958209E+01  0.100258623326E+01
  0.100201175435E+01  0.100426040818E+01  0.100372310384E+01  0.100446502195E+01  0.100346952083E+01  0.100365984933E+01  0.100424800578E+01
  0.100362337508E+01  0.100164191973E+01  0.100227632652E+01  0.100227311674E+01  0.100213446735E+01  0.100254347692E+01  0.100442386318E+01
  0.100337264000E+01  0.100288843765E+01  0.100334542032E+01  0.100323223017E+01  0.100406087110E+01  0.100510171618E+01  0.100431307077E+01
  0.100179475831E+01  0.100266315910E+01  0.100321164522E+01  0.100399273190E+01
  0.489076358898E+00  0.489238599723E+00  0.490983331810E+00  0.493064989608E+00  0.486766642950E+00  0.484757875383E+00  0.485404962233E+00
  0.494262736433E+00  0.495784887552E+00  0.486800249287E+00  0.488139338164E+00  0.487244596080E+00  0.494423293089E+00  0.496536481758E+00
  0.487845784473E+00  0.483219470506E+00  0.492573588016E+00  0.487262282134E+00  0.494865949272E+00  0.488012497453E+00  0.490096716872E+00
  0.488269666683E+00  0.497534090276E+00  0.496384264371E+00  0.495259755803E+00  0.493216438936E+00  0.490458182932E+00  0.490400009130E+00
  0.491426954044E+00  0.486218275599E+00  0.490304438595E+00  0.495522026695E+00
  0.000000000000E+00 -0.893973227275E-04 -0.129755083464E-02  0.000000000000E+00  0.000000000000E+00  0.000000000000E+00  0.425702063651E-03
  0.797025600210E-03  0.000000000000E+00  0.274713449529E-03 -0.942430813120E-03 -0.820004674691E-03 -0.174523847134E-02 -0.638374785201E-04
 -0.110022568563E-02 -0.102277310109E-02 -0.133259050498E-02 -0.213433860917E-02 -0.132929168809E-02 -0.106401014161E-02 -0.624408477207E-03
 -0.761701596932E-03 -0.196339537080E-03  0.807126761008E-03  0.520226573517E-04  0.161630474720E-02  0.000000000000E+00  0.791647258674E-03
  0.000000000000E+00  0.000000000000E+00  0.000000000000E+00  0.000000000000E+00