# vtk DataFile Version 2.0
FUN3D:global_image_vtk
ASCII
DATASET UNSTRUCTURED_GRID
POINTS 213 double
    0.0000000000000000E+00    0.2500000000000000E+01    0.0000000000000000E+00
    0.1250000000000000E+01    0.2500000000000000E+01    0.0000000000000000E+00
    0.2500000000000000E+01    0.2500000000000000E+01    0.0000000000000000E+00
    0.3750000000000000E+01    0.2500000000000000E+01    0.0000000000000000E+00
    0.5000000000000000E+01    0.2500000000000000E+01    0.0000000000000000E+00
    0.5000000000000000E+01    0.1250000000000000E+01    0.0000000000000000E+00
    0.5000000000000000E+01    0.0000000000000000E+00    0.0000000000000000E+00
    0.5000000000000000E+01   -0.1250000000000000E+01    0.0000000000000000E+00
    0.5000000000000000E+01   -0.2500000000000000E+01    0.0000000000000000E+00
    0.3750000000000000E+01   -0.2500000000000000E+01    0.0000000000000000E+00
    0.2500000000000000E+01   -0.2500000000000000E+01    0.0000000000000000E+00
    0.1250000000000000E+01   -0.2500000000000000E+01    0.0000000000000000E+00
    0.0000000000000000E+00   -0.2500000000000000E+01    0.0000000000000000E+00
    0.0000000000000000E+00   -0.1250000000000000E+01    0.0000000000000000E+00
    0.0000000000000000E+00    0.0000000000000000E+00    0.0000000000000000E+00
    0.0000000000000000E+00    0.1250000000000000E+01    0.0000000000000000E+00
    0.9058375365086910E+00    0.1578994732800803E+01    0.0000000000000000E+00
    0.3982050490726493E+01   -0.1583989954232354E+01    0.0000000000000000E+00
    0.4033849428301197E+01    0.1453322699199022E+01    0.0000000000000000E+00
    0.1040505887381675E+01   -0.1479596339503735E+01    0.0000000000000000E+00
    0.1099454400140349E+01   -0.3227322616384110E+00    0.0000000000000000E+00
    0.7354504170366591E+00    0.6593508822075582E+00    0.0000000000000000E+00
    0.1622302608453282E+01    0.8256214013940779E+00    0.0000000000000000E+00
    0.2145871574390382E+01   -0.1650070333782557E+01    0.0000000000000000E+00
    0.4086422318222992E+01   -0.4612828702537229E+00    0.0000000000000000E+00
    0.2979540174134984E+01   -0.8579242121530853E+00    0.0000000000000000E+00
    0.3045064261640043E+01   -0.1836846154397680E+01    0.0000000000000000E+00
    0.3428197553792836E+01    0.3508002863614053E+00    0.0000000000000000E+00
    0.4309693860063405E+01    0.5185680230613409E+00    0.0000000000000000E+00
    0.1827272193562204E+01    0.1738996113203182E+01    0.0000000000000000E+00
    0.2808563282768077E+01    0.1325493893339706E+01    0.0000000000000000E+00
    0.1895995683864404E+01   -0.8731419609589618E+00    0.0000000000000000E+00
    0.2273179336307740E+01    0.4906150219227333E-01    0.0000000000000000E+00
    0.5000000000000000E+01    0.2500000000000000E+01    0.1250000000000000E+01
    0.5000000000000000E+01    0.2500000000000000E+01    0.2500000000000000E+01
    0.5000000000000000E+01    0.2500000000000000E+01    0.3750000000000000E+01
    0.5000000000000000E+01    0.2500000000000000E+01    0.5000000000000000E+01
    0.3750000000000000E+01    0.2500000000000000E+01    0.5000000000000000E+01
    0.2500000000000000E+01    0.2500000000000000E+01    0.5000000000000000E+01
    0.1250000000000000E+01    0.2500000000000000E+01    0.5000000000000000E+01
    0.0000000000000000E+00    0.2500000000000000E+01    0.5000000000000000E+01
    0.0000000000000000E+00    0.2500000000000000E+01    0.3750000000000000E+01
    0.0000000000000000E+00    0.2500000000000000E+01    0.2500000000000000E+01
    0.0000000000000000E+00    0.2500000000000000E+01    0.1250000000000000E+01
    0.9631080833812172E+00    0.2500000000000000E+01    0.9613285771248219E+00
    0.3981732467264904E+01    0.2500000000000000E+01    0.4069753913607991E+01
    0.4035525118777670E+01    0.2500000000000000E+01    0.1012015867579395E+01
    0.9641717640894248E+00    0.2500000000000000E+01    0.3972455192261839E+01
    0.1547743040396780E+01    0.2500000000000000E+01    0.2928177746738678E+01
    0.6985170616192014E+00    0.2500000000000000E+01    0.3068281976055466E+01
    0.8931277594515110E+00    0.2500000000000000E+01    0.2052465503257726E+01
    0.2183293750162785E+01    0.2500000000000000E+01    0.3959073795658649E+01
    0.3855333506014705E+01    0.2500000000000000E+01    0.2931218481500625E+01
    0.3152495579421047E+01    0.2500000000000000E+01    0.3635850502723324E+01
    0.3103247580566054E+01    0.2500000000000000E+01    0.4331682712472464E+01
    0.3266837581688852E+01    0.2500000000000000E+01    0.1886092433583972E+01
    0.4231539241296245E+01    0.2500000000000000E+01    0.1915865356532799E+01
    0.1909741006522088E+01    0.2500000000000000E+01    0.7170024419130505E+00
    0.2880784107213163E+01    0.2500000000000000E+01    0.9046598906449592E+00
    0.2014316024535771E+01    0.2500000000000000E+01    0.1762464314805728E+01
    0.2670003247036656E+01    0.2500000000000000E+01    0.2850479545835163E+01
    0.5000000000000000E+01    0.1250000000000000E+01    0.5000000000000000E+01
    0.5000000000000000E+01    0.0000000000000000E+00    0.5000000000000000E+01
    0.5000000000000000E+01   -0.1250000000000000E+01    0.5000000000000000E+01
    0.5000000000000000E+01   -0.2500000000000000E+01    0.5000000000000000E+01
    0.5000000000000000E+01   -0.2500000000000000E+01    0.3750000000000000E+01
    0.5000000000000000E+01   -0.2500000000000000E+01    0.2500000000000000E+01
    0.5000000000000000E+01   -0.2500000000000000E+01    0.1250000000000000E+01
    0.5000000000000000E+01    0.1578994732800803E+01    0.9058375365086910E+00
    0.5000000000000000E+01   -0.1583989954232354E+01    0.3982050490726493E+01
    0.5000000000000000E+01    0.1453322699199022E+01    0.4033849428301197E+01
    0.5000000000000000E+01   -0.1479596339503735E+01    0.1040505887381675E+01
    0.5000000000000000E+01   -0.3227322616384110E+00    0.1099454400140349E+01
    0.5000000000000000E+01    0.6593508822075582E+00    0.7354504170366591E+00
    0.5000000000000000E+01    0.8256214013940779E+00    0.1622302608453282E+01
    0.5000000000000000E+01   -0.1650070333782557E+01    0.2145871574390382E+01
    0.5000000000000000E+01   -0.4612828702537229E+00    0.4086422318222992E+01
    0.5000000000000000E+01   -0.8579242121530853E+00    0.2979540174134984E+01
    0.5000000000000000E+01   -0.1836846154397680E+01    0.3045064261640043E+01
    0.5000000000000000E+01    0.3508002863614053E+00    0.3428197553792836E+01
    0.5000000000000000E+01    0.5185680230613409E+00    0.4309693860063405E+01
    0.5000000000000000E+01    0.1738996113203182E+01    0.1827272193562204E+01
    0.5000000000000000E+01    0.1325493893339706E+01    0.2808563282768077E+01
    0.5000000000000000E+01   -0.8731419609589618E+00    0.1895995683864404E+01
    0.5000000000000000E+01    0.4906150219227333E-01    0.2273179336307740E+01
    0.0000000000000000E+00    0.1250000000000000E+01    0.5000000000000000E+01
    0.0000000000000000E+00    0.0000000000000000E+00    0.5000000000000000E+01
    0.0000000000000000E+00   -0.1250000000000000E+01    0.5000000000000000E+01
    0.0000000000000000E+00   -0.2500000000000000E+01    0.5000000000000000E+01
    0.1250000000000000E+01   -0.2500000000000000E+01    0.5000000000000000E+01
    0.2500000000000000E+01   -0.2500000000000000E+01    0.5000000000000000E+01
    0.3750000000000000E+01   -0.2500000000000000E+01    0.5000000000000000E+01
    0.4042003247744892E+01    0.1558308132739014E+01    0.5000000000000000E+01
    0.9304122287900499E+00   -0.1548001304379777E+01    0.5000000000000000E+01
    0.1037243024609388E+01    0.1462892710085612E+01    0.5000000000000000E+01
    0.3946240828834967E+01   -0.1445243809615570E+01    0.5000000000000000E+01
    0.4092527262848217E+01   -0.3455338993778935E+00    0.5000000000000000E+01
    0.4293103109154542E+01    0.6277660831404320E+00    0.5000000000000000E+01
    0.3241512314643519E+01    0.7429886854239611E+00    0.5000000000000000E+01
    0.2844289952419609E+01   -0.1588117879734118E+01    0.5000000000000000E+01
    0.7159905765450471E+00   -0.6002320124191652E+00    0.5000000000000000E+01
    0.1754341919796891E+01   -0.7398147869923652E+00    0.5000000000000000E+01
    0.1870296826774691E+01   -0.1788622905643739E+01    0.5000000000000000E+01
    0.9220614901912976E+00    0.3083720183248586E+00    0.5000000000000000E+01
    0.3101523624086016E+01    0.1777901774806180E+01    0.5000000000000000E+01
    0.2192512063922564E+01    0.1576861561598471E+01    0.5000000000000000E+01
    0.2024793420196460E+01    0.4773861992750707E+00    0.5000000000000000E+01
    0.2990627757741975E+01   -0.4878110785814084E+00    0.5000000000000000E+01
    0.0000000000000000E+00   -0.2500000000000000E+01    0.1250000000000000E+01
    0.0000000000000000E+00   -0.2500000000000000E+01    0.2500000000000000E+01
    0.0000000000000000E+00   -0.2500000000000000E+01    0.3750000000000000E+01
    0.0000000000000000E+00    0.1558308132739014E+01    0.4042003247744892E+01
    0.0000000000000000E+00   -0.1548001304379777E+01    0.9304122287900499E+00
    0.0000000000000000E+00    0.1462892710085612E+01    0.1037243024609388E+01
    0.0000000000000000E+00   -0.1445243809615570E+01    0.3946240828834967E+01
    0.0000000000000000E+00   -0.3455338993778935E+00    0.4092527262848217E+01
    0.0000000000000000E+00    0.6277660831404320E+00    0.4293103109154542E+01
    0.0000000000000000E+00    0.7429886854239611E+00    0.3241512314643519E+01
    0.0000000000000000E+00   -0.1588117879734118E+01    0.2844289952419609E+01
    0.0000000000000000E+00   -0.6002320124191652E+00    0.7159905765450471E+00
    0.0000000000000000E+00   -0.7398147869923652E+00    0.1754341919796891E+01
    0.0000000000000000E+00   -0.1788622905643739E+01    0.1870296826774691E+01
    0.0000000000000000E+00    0.3083720183248586E+00    0.9220614901912976E+00
    0.0000000000000000E+00    0.1777901774806180E+01    0.3101523624086016E+01
    0.0000000000000000E+00    0.1576861561598471E+01    0.2192512063922564E+01
[...]
POINT_DATA 213
SCALARS rho double 1
LOOKUP_TABLE default
   0.1344271442892782E+01
   0.9569758899338475E+00
   0.9462964202771491E+00
   0.9418612699700134E+00
   0.8437304896616313E+00
   0.7738004302228275E+00
   0.7629818872500046E+00
   0.7664577896252104E+00
   0.8307874039367652E+00
   0.9352972534875126E+00
   0.9342219804250588E+00
   0.9617195267532028E+00
   0.1449457450339582E+01
   0.1494090640359847E+01
   0.1644667272711981E+01
   0.1425832041697283E+01
   0.1009014432778019E+01
   0.9508810833303011E+00
   0.9436508478895650E+00
   0.9581561014851585E+00
   0.9415852440535685E+00
   0.1036377237168673E+01
   0.9256161097035528E+00
   0.9322349846282902E+00
   0.9537479550298721E+00
   0.9518769553216173E+00
   0.9348583116988383E+00
   0.9564028404363698E+00
   0.9376098377547490E+00
   0.9300661508203377E+00
   0.9445157495751132E+00
   0.8863506516789296E+00
   0.9423579958217264E+00
   0.9635003165946538E+00
   0.1008299039101623E+01
   0.1006735291125903E+01
   0.1001964619742733E+01
   0.1003219581971231E+01
   0.1004132053503599E+01
   0.1005228602926303E+01
   0.1004260408088976E+01
   0.1008308189940684E+01
   0.1023893137777529E+01
   0.1063553955945809E+01
   0.1019182512631088E+01
   0.1001780766082301E+01
   0.9643310057451523E+00
   0.1005283708908181E+01
   0.1000721163351760E+01
   0.1008742083742317E+01
   0.1008078083707109E+01
   0.1002349807171554E+01
   0.9979986847917230E+00
   0.1000583561337530E+01
   0.1001620123545402E+01
   0.9826893064486391E+00
   0.9842439653264641E+00
   0.9833314023741972E+00
   0.9788207432902357E+00
   0.9902638156739265E+00
   0.9934561553398623E+00
   0.1002011754279187E+01
   0.1002134467281925E+01
   0.1002276326459373E+01
   0.1001794758220444E+01
   0.1009778639831604E+01
   0.1006429109222047E+01
   0.9558786963328795E+00
   0.9249398427630111E+00
   0.1007036756096968E+01
   0.1004504925215621E+01
   0.9143642067450148E+00
   0.9089667856574687E+00
   0.8751688878365470E+00
   0.9767271873363232E+00
   0.1000452621108656E+01
   0.1005831087810981E+01
   0.1012882803146403E+01
   0.1011618951443574E+01
   0.1010438648598044E+01
   0.1005468281480442E+01
   0.9907612666665138E+00
   0.1005140325693086E+01
   0.9860567245742109E+00
   0.1005609737819536E+01
   0.1004248005690319E+01
   0.1002888437564273E+01
   0.1003345420252909E+01
   0.1003992731822953E+01
   0.1005101716087523E+01
   0.1003211645104581E+01
   0.1002663159004635E+01
   0.1002586233137382E+01
   0.1004060871014382E+01
   0.1004320345725207E+01
   0.1001641919596646E+01
   0.1002273116615293E+01
   0.1002543476804859E+01
   0.1003469520684167E+01
   0.1003372639893107E+01
   0.1003232230086329E+01
   0.1004423863068089E+01
   0.1004313070662991E+01
   0.1003659849249438E+01
   0.1003723103718136E+01
   0.1004329726289486E+01
   0.1004465021807281E+01
   0.1003623374953257E+01
   0.1064422801256207E+01
   0.1028473621252727E+01
   0.1009586657273211E+01
   0.1006638837413589E+01
   0.1163935522169619E+01
   0.1086087969713549E+01
   0.1007893419117531E+01
   0.1007245533173085E+01
   0.1006798074042072E+01
   0.1013018286859737E+01
   0.1019384609356900E+01
   0.1235203669402601E+01
   0.1032529466991130E+01
   0.1046681191357343E+01
   0.1200953642285206E+01
   0.1014718915959133E+01
   0.1032291153040457E+01
   0.1028095236530005E+01
   0.1014628639711784E+01
   0.1029216893045237E+01
   0.1001994816761106E+01
   0.9606929194603266E+00
   0.1006852582714732E+01
   0.1001327193282679E+01
   0.1010821905249525E+01
   0.1012246098835377E+01
   0.1000946006783113E+01
   0.9979121234854039E+00
   0.9980632369960407E+00
   0.1001184143087170E+01
   0.9841362012348913E+00
   0.9814879617584191E+00
   0.9648483317913172E+00
   0.9680877124656631E+00
   0.9914124472225780E+00
   0.9910858388739684E+00
   0.9925545096401192E+00
   0.1001727533855002E+01
   0.9993409402676404E+00
   0.9941410836352598E+00
   0.1007038753730698E+01
   0.1022539494176865E+01
   0.1001088098489668E+01
   0.1008798496180165E+01
   0.1004773846080029E+01
   0.1009050237396822E+01
   0.9966470333036057E+00
   0.1004988556860431E+01
   0.1003325535106066E+01
   0.9949431085602104E+00
   0.9832680785321012E+00
   0.9943957458369311E+00
   0.9973420658709639E+00
   0.9932190084660337E+00
   0.1001306487223822E+01
   0.1003001636955996E+01
   0.1002183579615142E+01
   0.9947078545897061E+00
   0.9937965522043468E+00
   0.1004867865458851E+01
   0.1020077607500347E+01
   0.1005364552412262E+01
   0.9816998152465159E+00
   0.1004973031128336E+01
   0.1012382323273153E+01
   0.9871424290048436E+00
   0.9551513527204446E+00
   0.9865075698674468E+00
   0.9864532950328865E+00
   0.9918946932716178E+00
   0.9933508197855745E+00
   0.9954406178177353E+00
   0.1037336789679859E+01
   0.1033536797474936E+01
   0.1001443321186904E+01
   0.1001930499895073E+01
   0.9912478515379960E+00
   0.9910920509370086E+00
   0.9648489986474044E+00
   0.9933282604240722E+00
   0.1006058638756169E+01
   0.1001954027396844E+01
   0.9908735804284149E+00
   0.9740945198490676E+00
   0.9418802136228096E+00
   0.9819379687626167E+00
   0.9794803559182709E+00
   0.9704172054039710E+00
   0.9720478942107335E+00
   0.9557351703818454E+00
   0.9496731208225641E+00
   0.9528673563326450E+00
   0.1002659533830178E+01
   0.1002471631803753E+01
   0.1000509329280762E+01
   0.1001677321993315E+01
   0.9607931424100385E+00
   0.9491625497725603E+00
   0.9584503056628012E+00
   0.1001121207745716E+01
   0.1000496140384119E+01
   0.1001156644445945E+01
   0.9807376183554869E+00
   0.9806000804422751E+00
   0.9628476103858902E+00
SCALARS u double 1
LOOKUP_TABLE default
   0.0000000000000000E+00
   0.0000000000000000E+00
   0.0000000000000000E+00
   0.0000000000000000E+00
   0.0000000000000000E+00
   0.0000000000000000E+00
   0.0000000000000000E+00
   0.0000000000000000E+00
   0.0000000000000000E+00
   0.0000000000000000E+00
   0.0000000000000000E+00
   0.0000000000000000E+00
   0.0000000000000000E+00
   0.0000000000000000E+00
   0.0000000000000000E+00
   0.0000000000000000E+00
   0.0000000000000000E+00
   0.0000000000000000E+00
   0.0000000000000000E+00
   0.0000000000000000E+00
   0.0000000000000000E+00
   0.0000000000000000E+00
   0.0000000000000000E+00
   0.0000000000000000E+00
   0.0000000000000000E+00
   0.0000000000000000E+00
   0.0000000000000000E+00
   0.0000000000000000E+00
   0.0000000000000000E+00
   0.0000000000000000E+00
   0.0000000000000000E+00
   0.0000000000000000E+00
   0.0000000000000000E+00
   0.4950176737851847E+00
   0.5338221309931767E+00
   0.5183269233507954E+00
   0.4930649896062398E+00
   0.4847578755200072E+00
   0.4867666431279227E+00
   0.4890763590546287E+00
   0.4957848876496380E+00
   0.4898301886378545E+00
   0.4717388495329952E+00
   0.4454814156304635E+00
   0.4833907044203841E+00
   0.5098397417194160E+00
   0.4390712696325293E+00
   0.4949403964173834E+00
   0.5225330361579689E+00
   0.4962454546546063E+00
   0.5226154963159425E+00
   0.5038881740473549E+00
   0.5646883612531990E+00
   0.5247509148441641E+00
   0.4991466102415617E+00
   0.5730561898328734E+00
   0.5696051090900054E+00
   0.3737941446888280E+00
   0.3998658128324421E+00
   0.5599326585612139E+00
   0.5564587627595300E+00
   0.4942627364252811E+00
   0.4948659492639557E+00
   0.4925735880074461E+00
   0.4914269540628994E+00
   0.5162356849809656E+00
   0.5361798304681911E+00
   0.4947413353176362E+00
   0.4524112186372110E+00
   0.5128777321444183E+00
   0.5117942014860003E+00
   0.4783517512652500E+00
   0.4931696661120656E+00
   0.4603173614791925E+00
   0.5244892730077386E+00
   0.5297434247604215E+00
   0.5129579287681438E+00
   0.5328358318014489E+00
   0.5308941037674529E+00
   0.5309856158441122E+00
   0.5063656721959482E+00
   0.5282461970100479E+00
   0.5410312731867430E+00
   0.5361261481078161E+00
   0.5374105276282654E+00
   0.4965364818476500E+00
   0.4975340903567204E+00
   0.4963842644473249E+00
   0.4955220267750468E+00
   0.4904581830707764E+00
   0.4903044387558545E+00
   0.4862182757246633E+00
   0.4854049623501019E+00
   0.4932164390533150E+00
   0.4909833319491149E+00
   0.4832194706246088E+00
   0.4872622822385224E+00
   0.4880124975388729E+00
   0.4872445962468643E+00
   0.4882696668453828E+00
   0.4952597559089242E+00
   0.4900967170374690E+00
   0.4904000092899491E+00
   0.4944232932068289E+00
   0.4868002494514634E+00
   0.4892385998982542E+00
   0.4881393383466851E+00
   0.4878457846430668E+00
   0.4446866572631570E+00
   0.4700028782093540E+00
   0.4891999057019082E+00
   0.4885247843475042E+00
   0.4506533048257217E+00
   0.4687378568677447E+00
   0.4877010455233499E+00
   0.4868353682945639E+00
   0.4908994713853034E+00
   0.4793551578059762E+00
   0.4658071750327435E+00
   0.3792725228633655E+00
   0.4901596527618131E+00
   0.4486686692236762E+00
   0.4436137389187993E+00
   0.4845147242051756E+00
   0.4621822646381654E+00
   0.4665749536681014E+00
   0.4748140301192803E+00
   0.4894494215029138E+00
   0.5085556990009085E+00
   0.4315073873944743E+00
   0.4927349361510061E+00
   0.5318289236498097E+00
   0.4913399197878837E+00
   0.5207019992738926E+00
   0.5060964605321322E+00
   0.5688797397066746E+00
   0.5273992826182420E+00
   0.5015044850220743E+00
   0.5821790085565226E+00
   0.5689618251654703E+00
   0.3406394442569390E+00
   0.3789869410035120E+00
   0.5751958204733527E+00
   0.5666485495267923E+00
   0.5704108783016626E+00
   0.5291056375045368E+00
   0.5451902710723970E+00
   0.5718804314936732E+00
   0.5389079126383656E+00
   0.5475507504044932E+00
   0.5821713866657942E+00
   0.4925601784394130E+00
   0.5042157543370482E+00
   0.4961735436125939E+00
   0.5565207961478106E+00
   0.4758845205174915E+00
   0.4950268386196828E+00
   0.5498525440765881E+00
   0.5891202294702501E+00
   0.5841957609955305E+00
   0.5469097657036149E+00
   0.5805417619432010E+00
   0.5106251432171974E+00
   0.5030200510039110E+00
   0.5033624666705653E+00
   0.5676446094457946E+00
   0.5563943079084421E+00
   0.4947255972336457E+00
   0.5505243828493629E+00
   0.5510857280989524E+00
   0.5657350949495266E+00
   0.4920070017908892E+00
   0.4927299096932722E+00
   0.3865140564659433E+00
   0.3687754532110762E+00
   0.5574921716708541E+00
   0.5763755543538349E+00
   0.4194304388136436E+00
   0.5824843238186410E+00
   0.4265209606751684E+00
   0.5392799844222502E+00
   0.5012032760148973E+00
   0.5119513185866922E+00
   0.5049119459433996E+00
   0.5751974969580611E+00
   0.5876371360519763E+00
   0.5379907805557417E+00
   0.5677472538930102E+00
   0.5351248668400306E+00
   0.5338056371641193E+00
   0.5580313797327527E+00
   0.5512707858301954E+00
   0.4261852742663791E+00
   0.5273356175017299E+00
   0.5795712528474555E+00
   0.3318687133802316E+00
   0.4760283323775027E+00
   0.5446196253824721E+00
   0.4798331899586359E+00
   0.3005293508721711E+00
   0.5031051140078844E+00
   0.5017115976370248E+00
   0.5129033207117011E+00
   0.5414840094001591E+00
   0.3437603843989976E+00
   0.3397710720534513E+00
   0.3189928569318775E+00
   0.5065936056504384E+00
   0.5123483789675513E+00
   0.5330313512979314E+00
   0.5879309999944287E+00
   0.4644180533514824E+00
   0.3531270507920866E+00
SCALARS v double 1
LOOKUP_TABLE default
   0.0000000000000000E+00
   0.0000000000000000E+00
   0.0000000000000000E+00
   0.0000000000000000E+00
   0.0000000000000000E+00
   0.0000000000000000E+00
   0.0000000000000000E+00
   0.0000000000000000E+00
   0.0000000000000000E+00
   0.0000000000000000E+00
   0.0000000000000000E+00
   0.0000000000000000E+00
   0.0000000000000000E+00
   0.0000000000000000E+00
   0.0000000000000000E+00
   0.0000000000000000E+00
   0.0000000000000000E+00
   0.0000000000000000E+00
   0.0000000000000000E+00
   0.0000000000000000E+00
   0.0000000000000000E+00
   0.0000000000000000E+00
   0.0000000000000000E+00
   0.0000000000000000E+00
   0.0000000000000000E+00
   0.0000000000000000E+00
   0.0000000000000000E+00
   0.0000000000000000E+00
   0.0000000000000000E+00
   0.0000000000000000E+00
   0.0000000000000000E+00
   0.0000000000000000E+00
   0.0000000000000000E+00
   0.0000000000000000E+00
   0.0000000000000000E+00
   0.0000000000000000E+00
   0.0000000000000000E+00
   0.0000000000000000E+00
   0.0000000000000000E+00
   0.0000000000000000E+00
   0.0000000000000000E+00
   0.0000000000000000E+00
   0.0000000000000000E+00
   0.0000000000000000E+00
   0.0000000000000000E+00
   0.0000000000000000E+00
   0.0000000000000000E+00
   0.0000000000000000E+00
   0.0000000000000000E+00
   0.0000000000000000E+00
   0.0000000000000000E+00
   0.0000000000000000E+00
   0.0000000000000000E+00
   0.0000000000000000E+00
   0.0000000000000000E+00
   0.0000000000000000E+00
   0.0000000000000000E+00
   0.0000000000000000E+00
   0.0000000000000000E+00
   0.0000000000000000E+00
   0.0000000000000000E+00
   0.7970256128790816E-03
  -0.1329291668733948E-02
  -0.1332590492072243E-02
   0.0000000000000000E+00
   0.0000000000000000E+00
   0.0000000000000000E+00
   0.0000000000000000E+00
  -0.1922562913086552E-01
   0.4770616034070313E-03
   0.2183359828189471E-02
   0.1427333050834172E-01
  -0.6488281893410906E-02
  -0.7821624767837206E-02
  -0.1327725155939622E-01
   0.4914481635881211E-02
   0.6907109296346135E-03
   0.3434417480833701E-02
   0.1920846991163183E-02
   0.3147959034023611E-02
   0.1704777652629758E-02
  -0.7316189166552269E-02
  -0.7701941479517038E-04
   0.4468737904095537E-02
  -0.4387158608615335E-03
  -0.6383747292667795E-04
  -0.1963395361373055E-03
   0.8071267552719666E-03
   0.0000000000000000E+00
   0.0000000000000000E+00
   0.0000000000000000E+00
   0.0000000000000000E+00
   0.4257020607916451E-03
   0.1616304745245504E-02
  -0.1297550824388603E-02
  -0.1022773084099629E-02
  -0.2134338589611879E-02
  -0.1064010130416073E-02
  -0.8200046629830020E-03
  -0.7617015845390306E-03
   0.5202265803522270E-04
  -0.6244084667150591E-03
   0.7916472633121579E-03
  -0.1745238463252245E-02
   0.2747134488080937E-03
  -0.8939731626907881E-04
  -0.9424307997188692E-03
  -0.1100225661220632E-02
   0.0000000000000000E+00
   0.0000000000000000E+00
   0.0000000000000000E+00
  -0.1061759185618782E-02
  -0.7641128675127017E-02
   0.1860854776100230E-01
  -0.2834553417076017E-04
  -0.1383129191087784E-02
  -0.2035123051037683E-02
  -0.5666383133221885E-02
  -0.1585210324752743E-02
  -0.5947016517298602E-02
  -0.4160601876440215E-02
   0.1565614798753208E-02
   0.3329524844563398E-01
   0.3055142119614913E-04
  -0.2766884894951792E-02
   0.3566484808482429E-02
   0.3596189618630253E-03
   0.0000000000000000E+00
   0.0000000000000000E+00
   0.0000000000000000E+00
   0.0000000000000000E+00
   0.0000000000000000E+00
   0.0000000000000000E+00
   0.0000000000000000E+00
   0.0000000000000000E+00
   0.0000000000000000E+00
   0.0000000000000000E+00
   0.0000000000000000E+00
   0.0000000000000000E+00
   0.0000000000000000E+00
   0.0000000000000000E+00
   0.0000000000000000E+00
   0.0000000000000000E+00
   0.0000000000000000E+00
   0.5047032572583100E-02
   0.3230791906335840E-02
   0.8149134265637566E-02
   0.6168367067656074E-02
   0.1122928641842477E-01
   0.1429277510443787E-01
  -0.2038826508589795E-03
   0.5118221790545419E-02
   0.2914950473866497E-02
   0.3373611782074905E-02
   0.3728336469071774E-02
  -0.1465719855924585E-01
  -0.6159700743377167E-03
   0.6651630223169793E-02
   0.1542014566755199E-02
   0.1969646633238686E-02
   0.4266273065054775E-02
  -0.2790960677289738E-02
   0.1226886424532423E-02
   0.2819172297421500E-02
   0.1497448869384793E-02
   0.2575338541812249E-02
   0.2030646081725425E-02
   0.2118046044461894E-02
   0.8700410522544021E-02
  -0.3733396973528745E-02
   0.6241189162019075E-02
   0.2516482365458412E-04
  -0.3854045339735103E-03
  -0.1674679012806928E-01
  -0.4881976971134211E-02
  -0.4720000802337456E-02
   0.3445223054317804E-02
  -0.6135724011020666E-02
   0.9934523095426086E-04
  -0.3291372904568746E-01
  -0.3046196709036229E-02
   0.4722743236628794E-02
   0.9228359018387045E-03
   0.2112175005210712E-02
   0.4518755332128739E-02
   0.2720464997083571E-02
   0.3212576499881012E-02
   0.5200803978694254E-02
   0.1941838609490716E-02
   0.7315888103026868E-03
  -0.2555251627523002E-04
  -0.5374633011495298E-02
  -0.6959592274761401E-02
  -0.9443812131769507E-03
   0.1105268436656580E-02
  -0.2080554241195632E-02
  -0.3200036057673208E-02
  -0.2527833071938186E-02
  -0.4115193454864119E-02
  -0.7593954899659338E-02
  -0.1985686468812448E-02
   0.6240397874201146E-03
  -0.2239089902648855E-03
   0.1216949052375501E-02
  -0.3483958605832554E-02
   0.5229139766955554E-02
  -0.8487626114162879E-02
   0.2315110582904544E-04
  -0.3395196967363642E-03
   0.2542663293971391E-02
   0.1663457616372237E-02
   0.2021438699387678E-02
  -0.5620784189810419E-02
SCALARS w double 1
LOOKUP_TABLE default
   0.0000000000000000E+00
   0.0000000000000000E+00
   0.0000000000000000E+00
   0.0000000000000000E+00
   0.0000000000000000E+00
   0.0000000000000000E+00
   0.0000000000000000E+00
   0.0000000000000000E+00
   0.0000000000000000E+00
   0.0000000000000000E+00
   0.0000000000000000E+00
   0.0000000000000000E+00
   0.0000000000000000E+00
   0.0000000000000000E+00
   0.0000000000000000E+00
   0.0000000000000000E+00
   0.0000000000000000E+00
   0.0000000000000000E+00
   0.0000000000000000E+00
   0.0000000000000000E+00
   0.0000000000000000E+00
   0.0000000000000000E+00
   0.0000000000000000E+00
   0.0000000000000000E+00
   0.0000000000000000E+00
   0.0000000000000000E+00
   0.0000000000000000E+00
   0.0000000000000000E+00
   0.0000000000000000E+00
   0.0000000000000000E+00
   0.0000000000000000E+00
   0.0000000000000000E+00
   0.0000000000000000E+00
  -0.1007612265886172E+00
  -0.4249296965052727E-01
   0.7371979384661515E-03
   0.5725797896889279E-02
   0.5699056877820886E-03
   0.1609784140462260E-02
   0.3375072748099081E-02
   0.2371773547134770E-02
   0.4590624135965227E-03
   0.3518225874137042E-02
   0.4521817552392878E-01
   0.6522937760542899E-01
   0.8689302765296609E-03
  -0.2261151921268303E-01
   0.4316553632644624E-02
   0.1358734824103019E-01
   0.1039452544607173E-01
   0.4900548391702747E-01
   0.2437443401070920E-02
  -0.6509940852755874E-02
  -0.7012231811517168E-03
   0.3411022360959219E-03
   0.3904107301546044E-02
  -0.3893254198844231E-01
   0.1798168083841159E-01
   0.1119638143554602E-01
   0.3403773226859048E-01
   0.8438810008990702E-02
   0.4937310915373000E-02
   0.4970345584358393E-02
   0.4871518555882316E-02
   0.6027193309136469E-02
   0.2599192950324796E-02
  -0.4144429591033427E-01
  -0.9954261878454253E-01
  -0.1121678223771846E+00
   0.5070875777390996E-02
   0.4230769077623049E-02
  -0.1004732307730466E+00
  -0.9895252548547595E-01
  -0.9875451011207124E-01
  -0.9462509598895813E-01
  -0.6807133851524182E-01
   0.5154921683433432E-02
  -0.1935330824873094E-01
  -0.1575800300773635E-01
  -0.6002863389197503E-02
   0.6819056029323380E-02
  -0.8010050635719709E-01
  -0.2781092487613754E-01
  -0.8096457396917642E-01
  -0.5873277596956447E-01
   0.3083625439458637E-02
   0.2685146418909603E-02
   0.2640431373429975E-02
   0.3450192006241263E-02
   0.4007083563064483E-02
   0.1201213583987081E-02
  -0.1438843177947946E-03
   0.2039876018764825E-02
   0.4895693324023720E-02
   0.3857385787719316E-02
   0.1114203156681391E-02
   0.1182681588546823E-02
   0.1465296547377271E-02
  -0.1653567535881756E-04
   0.8996623684720821E-04
   0.4386667669526542E-02
   0.2715724556503045E-02
   0.2322755204483977E-02
   0.5010601016260378E-02
   0.1071689979190441E-02
   0.2712217953561840E-02
   0.2013964035611877E-02
   0.2879099123788348E-04
   0.8374614306081531E-01
   0.2793870641398669E-02
  -0.8346628016804126E-03
  -0.1492944874776953E-03
   0.1409540844337993E+00
   0.1239332949696419E+00
  -0.1219093209502583E-02
  -0.4381936091302645E-02
  -0.3043057553808308E-03
  -0.6512246804578468E-02
  -0.1949570353197624E-02
   0.1557630970428569E+00
   0.7489979194261046E-01
   0.2550174915038060E-01
   0.1656445116392604E+00