title="tecplot geometry and solution file"
variables = x y z rho u v w p mach temperature
zone t="boundary 1 bc-1", solutiontime= 0.3000000E+02, strandid=1001, i=32, j=46, f=feblock
  0.000000000000E+00  0.000000000000E+00  0.000000000000E+00  0.000000000000E+00  0.000000000000E+00  0.000000000000E+00  0.000000000000E+00
  0.000000000000E+00  0.000000000000E+00  0.000000000000E+00  0.000000000000E+00  0.000000000000E+00  0.000000000000E+00  0.000000000000E+00
  0.000000000000E+00  0.000000000000E+00  0.000000000000E+00  0.000000000000E+00  0.000000000000E+00  0.000000000000E+00  0.000000000000E+00
  0.000000000000E+00  0.000000000000E+00  0.000000000000E+00  0.000000000000E+00  0.000000000000E+00  0.000000000000E+00  0.000000000000E+00
  0.000000000000E+00  0.000000000000E+00  0.000000000000E+00  0.000000000000E+00
  0.250000000000E+01  0.250000000000E+01  0.125000000000E+01  0.146289271009E+01  0.157686156160E+01  0.308372018325E+00  0.000000000000E+00
 -0.125000000000E+01 -0.600232012419E+00  0.250000000000E+01  0.477386199275E+00  0.742988685424E+00 -0.739814786992E+00  0.177790177481E+01
  0.155830813274E+01  0.250000000000E+01 -0.250000000000E+01 -0.154800130438E+01 -0.487811078581E+00  0.250000000000E+01  0.627766083140E+00
 -0.345533899378E+00 -0.178862290564E+01 -0.158811787973E+01  0.125000000000E+01 -0.250000000000E+01 -0.144524380962E+01  0.000000000000E+00
 -0.125000000000E+01 -0.250000000000E+01 -0.250000000000E+01 -0.250000000000E+01
  0.000000000000E+00  0.125000000000E+01  0.000000000000E+00  0.103724302461E+01  0.219251206392E+01  0.922061490191E+00  0.000000000000E+00
  0.000000000000E+00  0.715990576545E+00  0.250000000000E+01  0.202479342020E+01  0.324151231464E+01  0.175434191980E+01  0.310152362409E+01
  0.404200324774E+01  0.375000000000E+01  0.000000000000E+00  0.930412228790E+00  0.299062775774E+01  0.500000000000E+01  0.429310310915E+01
  0.409252726285E+01  0.187029682677E+01  0.284428995242E+01  0.500000000000E+01  0.125000000000E+01  0.394624082883E+01  0.500000000000E+01
  0.500000000000E+01  0.250000000000E+01  0.375000000000E+01  0.500000000000E+01
  0.134427120165E+01  0.106355337929E+01  0.142583182247E+01  0.108608762454E+01  0.103229060177E+01  0.120095338289E+01  0.164466686369E+01
  0.149409013534E+01  0.123520338761E+01  0.102389267957E+01  0.102809468257E+01  0.101301783246E+01  0.103252921025E+01  0.101471847571E+01
  0.100663847924E+01  0.100830781962E+01  0.144945702651E+01  0.116393504787E+01  0.101462808982E+01  0.100426007858E+01  0.100679777118E+01
  0.100724510267E+01  0.104668059796E+01  0.101938406276E+01  0.100424766503E+01  0.106442280574E+01  0.100789301831E+01  0.100288822781E+01
  0.100334523364E+01  0.102847313671E+01  0.100958633674E+01  0.100399293482E+01
  0.000000000000E+00  0.445482009339E+00  0.000000000000E+00  0.468737738079E+00  0.462182942378E+00  0.443614218450E+00  0.000000000000E+00
  0.000000000000E+00  0.379272885932E+00  0.471739271725E+00  0.466575693336E+00  0.479355714562E+00  0.490159750590E+00  0.484515187048E+00
  0.488524405618E+00  0.489830825359E+00  0.000000000000E+00  0.450654222654E+00  0.474814731737E+00  0.495785238734E+00  0.490899381242E+00
  0.486835558101E+00  0.448669240779E+00  0.465807889471E+00  0.496536816740E+00  0.444686413644E+00  0.487701104127E+00  0.497534334328E+00
  0.496384326438E+00  0.470003391219E+00  0.489200218651E+00  0.495522109478E+00
  0.000000000000E+00  0.000000000000E+00  0.000000000000E+00  0.186086034713E-01 -0.276691075179E-02  0.332951067898E-01  0.000000000000E+00
  0.000000000000E+00 -0.594712672739E-02  0.000000000000E+00  0.356640483725E-02 -0.566633202446E-02 -0.416070561768E-02  0.305673463428E-04
 -0.106165696272E-02  0.000000000000E+00  0.000000000000E+00 -0.764121922146E-02  0.359683843257E-03  0.000000000000E+00 -0.203492637252E-02
 -0.138317019895E-02  0.156558513245E-02 -0.158520432313E-02 -0.634634389720E-04  0.000000000000E+00 -0.283713850178E-04 -0.196313361964E-03
  0.807242052704E-03  0.000000000000E+00  0.000000000000E+00  0.000000000000E+00
  0.000000000000E+00  0.452184651180E-01  0.000000000000E+00  0.123932976598E+00  0.247646621842E-01  0.165644445128E+00  0.000000000000E+00
  0.000000000000E+00  0.155763018242E+00  0.351819572320E-02  0.259784070475E-01 -0.651227656266E-02  0.748997091395E-01  0.371831583266E-02
 -0.149392643916E-03  0.458690566901E-03  0.000000000000E+00  0.140954002517E+00 -0.808568049760E-02  0.237161032331E-02 -0.304072435924E-03
 -0.438187304205E-02  0.255018604269E-01 -0.194954199225E-02  0.308350475749E-02  0.837460363079E-01 -0.121907947986E-02  0.268489506957E-02
  0.264017882867E-02  0.279392054466E-02 -0.834874473017E-03  0.344925346844E-02
  0.960184399086E+00  0.782340137776E+00  0.101844189170E+01  0.808726231942E+00  0.746125384902E+00  0.879446185082E+00  0.117475196338E+01
  0.106719888273E+01  0.916619812875E+00  0.737394761714E+00  0.743553487903E+00  0.725758743463E+00  0.757454828111E+00  0.729187893895E+00
  0.720784623803E+00  0.722781357352E+00  0.103531891268E+01  0.858316782544E+00  0.728064561154E+00  0.718614925771E+00  0.721013056857E+00
  0.721151172511E+00  0.760018281128E+00  0.732627920289E+00  0.718530835061E+00  0.791042941468E+00  0.722107560699E+00  0.717199162878E+00
  0.717636661429E+00  0.741799245470E+00  0.724056263690E+00  0.718400655766E+00
  0.000000000000E+00  0.441238959577E+00  0.000000000000E+00  0.475214846852E+00  0.460124412542E+00  0.468828258200E+00  0.000000000000E+00
  0.000000000000E+00  0.402302846021E+00  0.469815441655E+00  0.464411893784E+00  0.478714636959E+00  0.489298401169E+00  0.483069063056E+00
  0.487929751519E+00  0.488962306414E+00  0.000000000000E+00  0.464776563607E+00  0.473796390827E+00  0.495346987208E+00  0.490266071762E+00
  0.486286308869E+00  0.445718212243E+00  0.464383015763E+00  0.496127757317E+00  0.443623932521E+00  0.486964554668E+00  0.497246546502E+00
  0.496059357912E+00  0.467732911343E+00  0.488212429298E+00  0.495098383720E+00
  0.999990297395E+00  0.102982719459E+01  0.999990760417E+00  0.104247272424E+01  0.101190065770E+01  0.102520603768E+01  0.999991417744E+00
  0.999992169465E+00  0.103891209407E+01  0.100826257185E+01  0.101252822402E+01  0.100300528608E+01  0.102702833860E+01  0.100605544877E+01
  0.100244377116E+01  0.100355653363E+01  0.999992722271E+00  0.103239738142E+01  0.100459507857E+01  0.100179317842E+01  0.100260281507E+01
  0.100234951636E+01  0.101657143130E+01  0.100617532280E+01  0.100168833258E+01  0.104043253497E+01  0.100303362224E+01  0.100118717139E+01
  0.100134160438E+01  0.100976769017E+01  0.100405357350E+01  0.100176095188E+01
        12        19        11        11
        11         5        12        12
        10        14         5         5
        19        13        11        11
        19        24        13        13
        30        23        24        24
        19        12        22        22
        28        22        21        21
        11        13         6         6
         7         6         9         9
        15        12        14        14
        18        13        23        23
        15        25        21        21
        27        19        22        22
        18         8         9         9
        27        31        24        24
         4        11         6         6
         5        14        12        12
         4         2         5         5
        21        12        15        15
        14        16        15        15
        24        19        27        27
        22        29        27        27
        23        26        18        18
        17         8        18        18
         5        11         4         4
         6         3         4         4
        26        23        30        30
         5         2        10        10
        16        14        10        10
         3         6         7         7
        21        25        28        28
        29        22        28        28
         6        13         9         9
         2         4         1         1
        31        27        32        32
        25        15        20        20
        24        23        13        13
         8         7         9         9
        13        18         9         9
        31        30        24        24
        12        21        22        22
        29        32        27        27
         3         1         4         4
        26        17        18        18
        16        20        15        15
zone t="boundary 2 bc-2", solutiontime= 0.3000000E+02, strandid=1002, i=33, j=48, f=feblock
  0.500000000000E+01  0.375000000000E+01  0.250000000000E+01  0.288078410721E+01  0.125000000000E+01  0.190974100652E+01  0.326683758169E+01
  0.201431602454E+01  0.000000000000E+00  0.963108083381E+00  0.500000000000E+01  0.403552511878E+01  0.423153924130E+01  0.500000000000E+01
  0.385533350601E+01  0.500000000000E+01  0.398173246726E+01  0.315249557942E+01  0.267000324704E+01  0.154774304040E+01  0.218329375016E+01
  0.893127759452E+00  0.000000000000E+00  0.698517061619E+00  0.964171764089E+00  0.310324758057E+01  0.000000000000E+00  0.000000000000E+00
  0.125000000000E+01  0.500000000000E+01  0.375000000000E+01  0.250000000000E+01  0.000000000000E+00
 -0.250000000000E+01 -0.250000000000E+01 -0.250000000000E+01 -0.250000000000E+01 -0.250000000000E+01 -0.250000000000E+01 -0.250000000000E+01
 -0.250000000000E+01 -0.250000000000E+01 -0.250000000000E+01 -0.250000000000E+01 -0.250000000000E+01 -0.250000000000E+01 -0.250000000000E+01
 -0.250000000000E+01 -0.250000000000E+01 -0.250000000000E+01 -0.250000000000E+01 -0.250000000000E+01 -0.250000000000E+01 -0.250000000000E+01
 -0.250000000000E+01 -0.250000000000E+01 -0.250000000000E+01 -0.250000000000E+01 -0.250000000000E+01 -0.250000000000E+01 -0.250000000000E+01
 -0.250000000000E+01 -0.250000000000E+01 -0.250000000000E+01 -0.250000000000E+01 -0.250000000000E+01
  0.000000000000E+00  0.000000000000E+00  0.000000000000E+00  0.904659890645E+00  0.000000000000E+00  0.717002441913E+00  0.188609243358E+01
  0.176246431481E+01  0.000000000000E+00  0.961328577125E+00  0.125000000000E+01  0.101201586758E+01  0.191586535653E+01  0.250000000000E+01
  0.293121848150E+01  0.375000000000E+01  0.406975391361E+01  0.363585050272E+01  0.285047954584E+01  0.292817774674E+01  0.395907379566E+01
  0.205246550326E+01  0.125000000000E+01  0.306828197606E+01  0.397245519226E+01  0.433168271247E+01  0.250000000000E+01  0.375000000000E+01
  0.500000000000E+01  0.500000000000E+01  0.500000000000E+01  0.500000000000E+01  0.500000000000E+01
  0.830787062318E+00  0.935297142432E+00  0.934221468521E+00  0.968087272875E+00  0.961718887818E+00  0.964848094767E+00  0.984135704308E+00
  0.991412151649E+00  0.144945702651E+01  0.102921645024E+01  0.955878532939E+00  0.960693592606E+00  0.981487645226E+00  0.100642877093E+01
  0.997911858478E+00  0.100978038059E+01  0.100199531358E+01  0.998062611752E+00  0.991085526881E+00  0.100132671868E+01  0.100094552117E+01
  0.101224568220E+01  0.106442280574E+01  0.101082128369E+01  0.100685200162E+01  0.100118341085E+01  0.102847313671E+01  0.100958633674E+01
  0.100510125210E+01  0.100179258837E+01  0.100266099991E+01  0.100321124547E+01  0.100399293482E+01
  0.000000000000E+00  0.000000000000E+00  0.000000000000E+00  0.378986744614E+00  0.000000000000E+00  0.340639658806E+00  0.582178729448E+00
  0.575196126020E+00  0.000000000000E+00  0.489449751647E+00  0.494740393451E+00  0.431507184689E+00  0.568960880068E+00  0.536179921313E+00
  0.568880597856E+00  0.516236782749E+00  0.508560964565E+00  0.527401878976E+00  0.566649023443E+00  0.531829595282E+00  0.506098823329E+00
  0.520702323625E+00  0.444686413644E+00  0.491340585399E+00  0.492735629191E+00  0.501507735572E+00  0.470003391219E+00  0.489200218651E+00
  0.490458802155E+00  0.491425943681E+00  0.486215870324E+00  0.490305794739E+00  0.495522109478E+00
  0.000000000000E+00  0.000000000000E+00  0.000000000000E+00  0.000000000000E+00  0.000000000000E+00  0.000000000000E+00  0.000000000000E+00
  0.000000000000E+00  0.000000000000E+00  0.000000000000E+00  0.000000000000E+00  0.000000000000E+00  0.000000000000E+00  0.000000000000E+00
  0.000000000000E+00  0.000000000000E+00  0.000000000000E+00  0.000000000000E+00  0.000000000000E+00  0.000000000000E+00  0.000000000000E+00
  0.000000000000E+00  0.000000000000E+00  0.000000000000E+00  0.000000000000E+00  0.000000000000E+00  0.000000000000E+00  0.000000000000E+00
  0.000000000000E+00  0.000000000000E+00  0.000000000000E+00  0.000000000000E+00  0.000000000000E+00
  0.000000000000E+00  0.000000000000E+00  0.000000000000E+00 -0.229664626315E-02  0.000000000000E+00  0.183566374006E-01  0.121123909719E-01
  0.454986536937E-01  0.000000000000E+00  0.870790380590E-01 -0.995419276852E-01 -0.211866941473E-01 -0.306434872326E-01 -0.414440986434E-01
 -0.137784903480E-02  0.260092680577E-02  0.610320082176E-03  0.504303250167E-03  0.150971556546E-01  0.284026592855E-01  0.564171074631E-02
  0.553420923792E-01  0.837460363079E-01  0.110441679213E-01  0.679149109599E-02 -0.758256689146E-03  0.279392054466E-02 -0.834874473017E-03
  0.400605781222E-02  0.602956849716E-02 -0.143186095867E-03  0.120031540743E-02  0.344925346844E-02
  0.593415465722E+00  0.668065174039E+00  0.667296741440E+00  0.684257289130E+00  0.686937349886E+00  0.679200912944E+00  0.695811323285E+00
  0.702343383323E+00  0.103531891268E+01  0.723694313309E+00  0.672591473403E+00  0.675702595627E+00  0.694092985510E+00  0.720959767048E+00
  0.712691050076E+00  0.724771831439E+00  0.716580007873E+00  0.713298190104E+00  0.706429141854E+00  0.717736799453E+00  0.715375917079E+00
  0.730937223858E+00  0.791042941468E+00  0.724372300895E+00  0.721010154872E+00  0.715456483730E+00  0.741799245470E+00  0.724056263690E+00
  0.719312437501E+00  0.715891167629E+00  0.716607630784E+00  0.717367565358E+00  0.718400655766E+00
  0.000000000000E+00  0.000000000000E+00  0.000000000000E+00  0.380991701118E+00  0.000000000000E+00  0.343630111613E+00  0.585285868266E+00
  0.579373677283E+00  0.000000000000E+00  0.501056427622E+00  0.508459333541E+00  0.435373030000E+00  0.572639048735E+00  0.537002156677E+00
  0.568923426852E+00  0.514995282582E+00  0.508252845148E+00  0.527255581468E+00  0.567447224566E+00  0.531657855092E+00  0.505983499590E+00
  0.520795965148E+00  0.443623932521E+00  0.490664431568E+00  0.492156614462E+00  0.501394222559E+00  0.467732911343E+00  0.488212429298E+00
  0.490003434589E+00  0.491351351195E+00  0.486072978233E+00  0.490037862718E+00  0.495098383720E+00
  0.999993487732E+00  0.999993693151E+00  0.999993544887E+00  0.989539095930E+00  0.999993139390E+00  0.985524336192E+00  0.989838950395E+00
  0.991798148749E+00  0.999992722271E+00  0.984411042393E+00  0.985091756239E+00  0.984688188990E+00  0.990058493799E+00  0.100289628340E+01
  0.999855309494E+00  0.100485272195E+01  0.100121427458E+01  0.100055593145E+01  0.997896520302E+00  0.100350015683E+01  0.100058021413E+01
  0.101093255461E+01  0.104043253497E+01  0.100326461029E+01  0.100254477837E+01  0.100045512777E+01  0.100976769017E+01  0.100405357350E+01
  0.100192633369E+01  0.100045423206E+01  0.100058811821E+01  0.100109981426E+01  0.100176095188E+01
        15         7        19        19
         8        20        19        19
        18        19        21        21
         7         4         8         8
         3         6         4         4
        19         7         8         8
        19        18        15        15
        14        13        15        15
         8        22        20        20
        27        24        22        22
        19        20        21        21
        32        26        21        21
        17        18        26        26
        17        16        15        15
        25        29        21        21
        12         7        13        13
        10         8         6         6
        25        20        24        24
         4         6         8         8
        12         2         4         4
        10        23        22        22
        26        31        17        17
        30        16        17        17
         4         7        12        12
        13        11        12        12
        21        20        25        25
        24        28        25        25
        22         8        10        10
         6         5        10        10
        31        26        32        32
         4         2         3         3
         5         6         3         3
        11        13        14        14
        22        23        27        27
        28        24        27        27
        15        13         7         7
         2        12         1         1
        29        25        33        33
        23        10         9         9
        21        26        18        18
        16        14        15        15
        18        17        15        15
        29        32        21        21
        22        24        20        20
        28        33        25        25
        11         1        12        12
        31        30        17        17
         5         9        10        10
zone t="boundary 3 bc-3", solutiontime= 0.3000000E+02, strandid=1003, i=33, j=48, f=feblock
  0.375000000000E+01  0.250000000000E+01  0.500000000000E+01  0.403552511878E+01  0.288078410721E+01  0.125000000000E+01  0.190974100652E+01
  0.500000000000E+01  0.326683758169E+01  0.423153924130E+01  0.201431602454E+01  0.000000000000E+00  0.963108083381E+00  0.500000000000E+01
  0.267000324704E+01  0.385533350601E+01  0.893127759452E+00  0.154774304040E+01  0.000000000000E+00  0.500000000000E+01  0.315249557942E+01
  0.218329375016E+01  0.398173246726E+01  0.000000000000E+00  0.698517061619E+00  0.964171764089E+00  0.125000000000E+01  0.000000000000E+00
  0.500000000000E+01  0.310324758057E+01  0.250000000000E+01  0.375000000000E+01  0.000000000000E+00
  0.250000000000E+01  0.250000000000E+01  0.250000000000E+01  0.250000000000E+01  0.250000000000E+01  0.250000000000E+01  0.250000000000E+01
  0.250000000000E+01  0.250000000000E+01  0.250000000000E+01  0.250000000000E+01  0.250000000000E+01  0.250000000000E+01  0.250000000000E+01
  0.250000000000E+01  0.250000000000E+01  0.250000000000E+01  0.250000000000E+01  0.250000000000E+01  0.250000000000E+01  0.250000000000E+01
  0.250000000000E+01  0.250000000000E+01  0.250000000000E+01  0.250000000000E+01  0.250000000000E+01  0.250000000000E+01  0.250000000000E+01
  0.250000000000E+01  0.250000000000E+01  0.250000000000E+01  0.250000000000E+01  0.250000000000E+01
  0.000000000000E+00  0.000000000000E+00  0.000000000000E+00  0.101201586758E+01  0.904659890645E+00  0.000000000000E+00  0.717002441913E+00
  0.125000000000E+01  0.188609243358E+01  0.191586535653E+01  0.176246431481E+01  0.000000000000E+00  0.961328577125E+00  0.250000000000E+01
  0.285047954584E+01  0.293121848150E+01  0.205246550326E+01  0.292817774674E+01  0.125000000000E+01  0.375000000000E+01  0.363585050272E+01
  0.395907379566E+01  0.406975391361E+01  0.250000000000E+01  0.306828197606E+01  0.397245519226E+01  0.500000000000E+01  0.375000000000E+01
  0.500000000000E+01  0.433168271247E+01  0.500000000000E+01  0.500000000000E+01  0.500000000000E+01
  0.941860794417E+00  0.946295849314E+00  0.843730466819E+00  0.964337074512E+00  0.978822846225E+00  0.956975364067E+00  0.983330915121E+00
  0.963504939010E+00  0.982688815401E+00  0.984244430109E+00  0.990263115870E+00  0.134427120165E+01  0.101918219815E+01  0.100829754696E+01
  0.993455633336E+00  0.997997647793E+00  0.100807761534E+01  0.100072059474E+01  0.106355337929E+01  0.100673652457E+01  0.100058280574E+01
  0.100234908093E+01  0.100178182815E+01  0.102389267957E+01  0.100874162832E+01  0.100528322362E+01  0.100522801700E+01  0.100830781962E+01
  0.100196259772E+01  0.100161969997E+01  0.100413152318E+01  0.100321754195E+01  0.100426007858E+01
  0.000000000000E+00  0.000000000000E+00  0.000000000000E+00  0.439068933459E+00  0.399864956653E+00  0.000000000000E+00  0.373794147868E+00
  0.495011014039E+00  0.573056275959E+00  0.569603264906E+00  0.559933348907E+00  0.000000000000E+00  0.483390969017E+00  0.533822545117E+00
  0.556459191118E+00  0.564688377345E+00  0.522616033581E+00  0.522533646116E+00  0.445482009339E+00  0.518327220085E+00  0.524751690712E+00
  0.503888983461E+00  0.509844834012E+00  0.471739271725E+00  0.496246056061E+00  0.494940663248E+00  0.489078139936E+00  0.489830825359E+00
  0.493066874494E+00  0.499150324829E+00  0.486770865238E+00  0.484761548469E+00  0.495785238734E+00
  0.000000000000E+00  0.000000000000E+00  0.000000000000E+00  0.000000000000E+00  0.000000000000E+00  0.000000000000E+00  0.000000000000E+00
  0.000000000000E+00  0.000000000000E+00  0.000000000000E+00  0.000000000000E+00  0.000000000000E+00  0.000000000000E+00  0.000000000000E+00
  0.000000000000E+00  0.000000000000E+00  0.000000000000E+00  0.000000000000E+00  0.000000000000E+00  0.000000000000E+00  0.000000000000E+00
  0.000000000000E+00  0.000000000000E+00  0.000000000000E+00  0.000000000000E+00  0.000000000000E+00  0.000000000000E+00  0.000000000000E+00
  0.000000000000E+00  0.000000000000E+00  0.000000000000E+00  0.000000000000E+00  0.000000000000E+00
  0.000000000000E+00  0.000000000000E+00  0.000000000000E+00 -0.226116408895E-01  0.111963994767E-01  0.000000000000E+00  0.179817059173E-01
 -0.100759849638E+00  0.390462454667E-02 -0.389310687219E-01  0.340378042468E-01  0.000000000000E+00  0.652294157203E-01 -0.424919835620E-01
  0.843937154541E-02 -0.650843315012E-02  0.490054410905E-01  0.135871893949E-01  0.452184651180E-01  0.738593326824E-03 -0.699696290783E-03
  0.243773724172E-02  0.869599091055E-03  0.351819572320E-02  0.103942852478E-01  0.431637942013E-02  0.337408228197E-02  0.458690566901E-03
  0.573084155809E-02  0.341275698631E-03  0.160752410475E-02  0.570181342800E-03  0.237161032331E-02
  0.672750540030E+00  0.675918447793E+00  0.602658368513E+00  0.676093504272E+00  0.691308527403E+00  0.683546879173E+00  0.690066233837E+00
  0.677276451899E+00  0.695201563960E+00  0.696250845857E+00  0.703343679307E+00  0.960184399086E+00  0.719725943004E+00  0.722865734057E+00
  0.709447211986E+00  0.713700751455E+00  0.726066943264E+00  0.716602405730E+00  0.782340137776E+00  0.722285095810E+00  0.716127924599E+00
  0.716550995610E+00  0.716545806517E+00  0.737394761714E+00  0.722682434992E+00  0.719440785435E+00  0.719565398367E+00  0.722781357352E+00
  0.716029319624E+00  0.715846789458E+00  0.718145985411E+00  0.717061414957E+00  0.718614925771E+00
  0.000000000000E+00  0.000000000000E+00  0.000000000000E+00  0.443766881380E+00  0.402286632039E+00  0.000000000000E+00  0.377550347925E+00
  0.509225888879E+00  0.575832234736E+00  0.573705598979E+00  0.562554716421E+00  0.000000000000E+00  0.490563634038E+00  0.534527372954E+00
  0.556587487138E+00  0.564391360791E+00  0.522731094066E+00  0.522052644964E+00  0.441238959577E+00  0.517182743342E+00  0.524229465873E+00
  0.503688313120E+00  0.509494185963E+00  0.469815441655E+00  0.495615089165E+00  0.494484090357E+00  0.488564295396E+00  0.488962306414E+00
  0.492982489097E+00  0.499009518572E+00  0.486465290872E+00  0.484600467206E+00  0.495346987208E+00
  0.999989341977E+00  0.999989408805E+00  0.999989628323E+00  0.981535327218E+00  0.988771300238E+00  0.999989829179E+00  0.982469596467E+00
  0.984101891199E+00  0.990427665697E+00  0.990354788283E+00  0.994363149803E+00  0.999990297395E+00  0.988651805377E+00  0.100368391328E+01
  0.999768951378E+00  0.100118577859E+01  0.100834866790E+01  0.100252095669E+01  0.102982719459E+01  0.100443274825E+01  0.100199512593E+01
  0.100082038577E+01  0.100137984233E+01  0.100826257185E+01  0.100298766363E+01  0.100192371259E+01  0.100215228851E+01  0.100355653363E+01
  0.100047751258E+01  0.100056489032E+01  0.100126761920E+01  0.100066629516E+01  0.100179317842E+01
        15         9        16        16
        15        18        11        11
        22        15        21        21
        11         5         9         9
         5         7         2         2
        11         9        15        15
        16        21        15        15
        16        10        14        14
        18        17        11        11
        17        25        24        24
        22        18        15        15
        22        30        31        31
        30        21        23        23
        16        20        23        23
        22        27        26        26
        10         9         4         4
         7        11        13        13
        25        18        26        26
        11         7         5         5
         5         1         4         4
        17        19        13        13
        23        32        30        30
        23        20        29        29
         4         9         5         5
         4         8        10        10
        26        18        22        22
        26        28        25        25
        13        11        17        17
        13         6         7         7
        31        30        32        32
         2         1         5         5
         2         7         6         6
        14        10         8         8
        24        19        17        17
        24        25        28        28
         9        10        16        16
         3         4         1         1
        33        26        27        27
        12        13        19        19
        21        30        22        22
        16        14        20        20
        16        23        21        21
        22        31        27        27
        18        25        17        17
        26        33        28        28
         4         3         8         8
        23        29        32        32
        13        12         6         6
zone t="boundary 4 bc-4", solutiontime= 0.3000000E+02, strandid=1004, i=32, j=46, f=feblock
  0.125000000000E+01  0.219251206392E+01  0.103724302461E+01  0.500000000000E+01  0.250000000000E+01  0.375000000000E+01  0.404200324774E+01
  0.500000000000E+01  0.000000000000E+00  0.310152362409E+01  0.202479342020E+01  0.324151231464E+01  0.922061490191E+00  0.000000000000E+00
  0.299062775774E+01  0.394624082883E+01  0.500000000000E+01  0.409252726285E+01  0.500000000000E+01  0.429310310915E+01  0.175434191980E+01
  0.284428995242E+01  0.000000000000E+00  0.000000000000E+00  0.715990576545E+00  0.930412228790E+00  0.125000000000E+01  0.187029682677E+01
  0.500000000000E+01  0.375000000000E+01  0.250000000000E+01  0.000000000000E+00
  0.250000000000E+01  0.157686156160E+01  0.146289271009E+01  0.250000000000E+01  0.250000000000E+01  0.250000000000E+01  0.155830813274E+01
  0.125000000000E+01  0.250000000000E+01  0.177790177481E+01  0.477386199275E+00  0.742988685424E+00  0.308372018325E+00  0.125000000000E+01
 -0.487811078581E+00 -0.144524380962E+01 -0.125000000000E+01 -0.345533899378E+00  0.000000000000E+00  0.627766083140E+00 -0.739814786992E+00
 -0.158811787973E+01  0.000000000000E+00 -0.125000000000E+01 -0.600232012419E+00 -0.154800130438E+01 -0.250000000000E+01 -0.178862290564E+01
 -0.250000000000E+01 -0.250000000000E+01 -0.250000000000E+01 -0.250000000000E+01
  0.500000000000E+01  0.500000000000E+01  0.500000000000E+01  0.500000000000E+01  0.500000000000E+01  0.500000000000E+01  0.500000000000E+01
  0.500000000000E+01  0.500000000000E+01  0.500000000000E+01  0.500000000000E+01  0.500000000000E+01  0.500000000000E+01  0.500000000000E+01
  0.500000000000E+01  0.500000000000E+01  0.500000000000E+01  0.500000000000E+01  0.500000000000E+01  0.500000000000E+01  0.500000000000E+01
  0.500000000000E+01  0.500000000000E+01  0.500000000000E+01  0.500000000000E+01  0.500000000000E+01  0.500000000000E+01  0.500000000000E+01
  0.500000000000E+01  0.500000000000E+01  0.500000000000E+01  0.500000000000E+01
  0.100522801700E+01  0.100432870172E+01  0.100431975029E+01  0.100196259772E+01  0.100413152318E+01  0.100321754195E+01  0.100258235247E+01
  0.100200856740E+01  0.100426007858E+01  0.100372244705E+01  0.100446418972E+01  0.100346787961E+01  0.100365957733E+01  0.100424766503E+01
  0.100362226634E+01  0.100163979838E+01  0.100227386839E+01  0.100226992380E+01  0.100213193760E+01  0.100253969891E+01  0.100442335595E+01
  0.100337175501E+01  0.100288822781E+01  0.100334523364E+01  0.100323184054E+01  0.100406047884E+01  0.100510125210E+01  0.100431286954E+01
  0.100179258837E+01  0.100266099991E+01  0.100321124547E+01  0.100399293482E+01
  0.489078139936E+00  0.489240916363E+00  0.490984451412E+00  0.493066874494E+00  0.486770865238E+00  0.484761548469E+00  0.485407220119E+00
  0.494264600783E+00  0.495785238734E+00  0.486804665242E+00  0.488140547659E+00  0.487247724331E+00  0.494423962682E+00  0.496536816740E+00
  0.487846408392E+00  0.483216499193E+00  0.492572279566E+00  0.487262589945E+00  0.494866961673E+00  0.488014800345E+00  0.490097608916E+00
  0.488269032889E+00  0.497534334328E+00  0.496384326438E+00  0.495260239090E+00  0.493217223547E+00  0.490458802155E+00  0.490400896750E+00
  0.491425943681E+00  0.486215870324E+00  0.490305794739E+00  0.495522109478E+00
  0.000000000000E+00 -0.897817283971E-04 -0.129723493303E-02  0.000000000000E+00  0.000000000000E+00  0.000000000000E+00  0.425104149585E-03
  0.797901819999E-03  0.000000000000E+00  0.273708611341E-03 -0.942062593893E-03 -0.819989532630E-03 -0.174501756991E-02 -0.634634389720E-04
 -0.109817394188E-02 -0.102090040210E-02 -0.133122615624E-02 -0.213268910124E-02 -0.132840488248E-02 -0.106355845033E-02 -0.623729755098E-03
 -0.760449270659E-03 -0.196313361964E-03  0.807242052704E-03  0.519904887633E-04  0.161651604051E-02  0.000000000000E+00  0.791730017103E-03
  0.000000000000E+00  0.000000000000E+00  0.000000000000E+00  0.000000000000E+00