# vtk DataFile Version 2.0
FUN3D:global_image_vtk
ASCII
DATASET UNSTRUCTURED_GRID
POINTS 213 double
   -0.5474185441687781E-02    0.2504942092379412E+01    0.8088138598670450E-04
    0.1245420105183471E+01    0.2504942092379412E+01    0.1049425058013123E-03
    0.2497696593128780E+01    0.2504942092379412E+01    0.1106298164665744E-03
    0.3750591968915824E+01    0.2504942092379412E+01    0.1366499004944154E-03
    0.5003221831742151E+01    0.2504942092379412E+01    0.9718873038898199E-04
    0.5004677687979097E+01    0.1281291702167040E+01    0.1648053019384342E-03
    0.5004773173778115E+01    0.2775179906482870E-01    0.1908478008447574E-03
    0.5003582183341212E+01   -0.1225853008883529E+01    0.1617765204486562E-03
    0.5001953033742191E+01   -0.2496588915429510E+01    0.1087258890302547E-03
    0.3750349111606544E+01   -0.2496588915429510E+01    0.1468753696815793E-03
    0.2498611962994928E+01   -0.2496588915429510E+01    0.1013933264248214E-03
    0.1247176269333276E+01   -0.2496588915429510E+01    0.1118587619169645E-03
   -0.3383459865719235E-02   -0.2496588915429510E+01    0.8157259626494088E-04
   -0.4256768979765554E-02   -0.1225734311642590E+01    0.3515458742295174E-04
   -0.5251092448509215E-02    0.2619586024420431E-01    0.1043724387187876E-03
   -0.5675060312426794E-02    0.1278222069065707E+01    0.8324601702150256E-04
    0.9003214617952581E+00    0.1608980112280158E+01    0.8754140727677698E-04
    0.3983173210692289E+01   -0.1561211404840279E+01    0.1767116720370583E-03
    0.4035602539224469E+01    0.1486761030415520E+01    0.1718312862106615E-03
    0.1036614723302902E+01   -0.1455625929916848E+01    0.1057189301532904E-03
    0.1094353980630802E+01   -0.2964612010671852E+00    0.1265590236917256E-03
    0.7298410267480001E+00    0.6874689746719117E+00    0.1054598640544948E-03
    0.1617019159308944E+01    0.8553218024939370E+00    0.1534810904974378E-03
    0.2143200662875790E+01   -0.1627128009216730E+01    0.1616170425226803E-03
    0.4088840945400888E+01   -0.4351037825936264E+00    0.2724933294109107E-03
    0.2977917511248925E+01   -0.8334986483094501E+00    0.2255596931861307E-03
    0.3044093741383418E+01   -0.1814360225108581E+01    0.1622000112420481E-03
    0.3427867614805212E+01    0.3813909839972490E+00    0.2946955483430732E-03
    0.4313225855351749E+01    0.5489143376342496E+00    0.2318009573592354E-03
    0.1823033737597358E+01    0.1771265693544255E+01    0.1846202887151567E-03
    0.2806311652168375E+01    0.1358630373600680E+01    0.1948492163983802E-03
    0.1891861875936711E+01   -0.8481305365607547E+00    0.1680645501816154E-03
    0.2268769700166909E+01    0.7723791819196535E-01    0.2077307783085295E-03
    0.5000000000000000E+01    0.2504942092379412E+01    0.1250000000000000E+01
    0.5000000000000000E+01    0.2504942092379412E+01    0.2500000000000000E+01
    0.5000000000000000E+01    0.2504942092379412E+01    0.3750000000000000E+01
    0.5000000000000000E+01    0.2504942092379412E+01    0.5000000000000000E+01
    0.3750000000000000E+01    0.2504942092379412E+01    0.5000000000000000E+01
    0.2500000000000000E+01    0.2504942092379412E+01    0.5000000000000000E+01
    0.1250000000000000E+01    0.2504942092379412E+01    0.5000000000000000E+01
    0.0000000000000000E+00    0.2504942092379412E+01    0.5000000000000000E+01
    0.0000000000000000E+00    0.2504942092379412E+01    0.3750000000000000E+01
    0.0000000000000000E+00    0.2504942092379412E+01    0.2500000000000000E+01
    0.0000000000000000E+00    0.2504942092379412E+01    0.1250000000000000E+01
    0.9588960523194296E+00    0.2504942092379412E+01    0.9696533772899842E+00
    0.3981953152648400E+01    0.2504942092379412E+01    0.4070564006379008E+01
    0.4036122720370824E+01    0.2504942092379412E+01    0.1017568334018097E+01
    0.9637572679843217E+00    0.2504942092379412E+01    0.3973598333743666E+01
    0.1546540217021454E+01    0.2504942092379412E+01    0.2931570569004157E+01
    0.6973799556057413E+00    0.2504942092379412E+01    0.3070320162457475E+01
    0.8903742919605775E+00    0.2504942092379412E+01    0.2056562667654547E+01
    0.2183042032970629E+01    0.2504942092379412E+01    0.3960694675798557E+01
    0.3855845051203088E+01    0.2504942092379412E+01    0.2933250943972105E+01
    0.3152611478966366E+01    0.2504942092379412E+01    0.3637668684400750E+01
    0.3103307437094585E+01    0.2504942092379412E+01    0.4332607965243382E+01
    0.3266711405714076E+01    0.2504942092379412E+01    0.1889657252840618E+01
    0.4232537812533727E+01    0.2504942092379412E+01    0.1918627378881492E+01
    0.1905523031318268E+01    0.2504942092379412E+01    0.7226299809441210E+00
    0.2879768334359970E+01    0.2504942092379412E+01    0.9080954072529369E+00
    0.2012711726651318E+01    0.2504942092379412E+01    0.1767083097014219E+01
    0.2669681657974686E+01    0.2504942092379412E+01    0.2853394817061740E+01
    0.5000000000000000E+01    0.1250000000000000E+01    0.5000000000000000E+01
    0.5000000000000000E+01    0.0000000000000000E+00    0.5000000000000000E+01
    0.5000000000000000E+01   -0.1250000000000000E+01    0.5000000000000000E+01
    0.5000000000000000E+01   -0.2496588915429510E+01    0.5000000000000000E+01
    0.5000000000000000E+01   -0.2496588915429510E+01    0.3750000000000000E+01
    0.5000000000000000E+01   -0.2496588915429510E+01    0.2500000000000000E+01
    0.5000000000000000E+01   -0.2496588915429510E+01    0.1250000000000000E+01
    0.5000000000000000E+01    0.1578994732800803E+01    0.9058375365086910E+00
    0.5000000000000000E+01   -0.1583989954232354E+01    0.3982050490726493E+01
    0.5000000000000000E+01    0.1453322699199022E+01    0.4033849428301197E+01
    0.5000000000000000E+01   -0.1479596339503735E+01    0.1040505887381675E+01
    0.5000000000000000E+01   -0.3227322616384110E+00    0.1099454400140349E+01
    0.5000000000000000E+01    0.6593508822075582E+00    0.7354504170366591E+00
    0.5000000000000000E+01    0.8256214013940779E+00    0.1622302608453282E+01
    0.5000000000000000E+01   -0.1650070333782557E+01    0.2145871574390382E+01
    0.5000000000000000E+01   -0.4612828702537229E+00    0.4086422318222992E+01
    0.5000000000000000E+01   -0.8579242121530853E+00    0.2979540174134984E+01
    0.5000000000000000E+01   -0.1836846154397680E+01    0.3045064261640043E+01
    0.5000000000000000E+01    0.3508002863614053E+00    0.3428197553792836E+01
    0.5000000000000000E+01    0.5185680230613409E+00    0.4309693860063405E+01
    0.5000000000000000E+01    0.1738996113203182E+01    0.1827272193562204E+01
    0.5000000000000000E+01    0.1325493893339706E+01    0.2808563282768077E+01
    0.5000000000000000E+01   -0.8731419609589618E+00    0.1895995683864404E+01
    0.5000000000000000E+01    0.4906150219227333E-01    0.2273179336307740E+01
    0.0000000000000000E+00    0.1250000000000000E+01    0.5000000000000000E+01
    0.0000000000000000E+00    0.0000000000000000E+00    0.5000000000000000E+01
    0.0000000000000000E+00   -0.1250000000000000E+01    0.5000000000000000E+01
    0.0000000000000000E+00   -0.2496588915429510E+01    0.5000000000000000E+01
    0.1250000000000000E+01   -0.2496588915429510E+01    0.5000000000000000E+01
    0.2500000000000000E+01   -0.2496588915429510E+01    0.5000000000000000E+01
    0.3750000000000000E+01   -0.2496588915429510E+01    0.5000000000000000E+01
    0.4042003247744892E+01    0.1558308132739014E+01    0.5000000000000000E+01
    0.9304122287900499E+00   -0.1548001304379777E+01    0.5000000000000000E+01
    0.1037243024609388E+01    0.1462892710085612E+01    0.5000000000000000E+01
    0.3946240828834967E+01   -0.1445243809615570E+01    0.5000000000000000E+01
    0.4092527262848217E+01   -0.3455338993778935E+00    0.5000000000000000E+01
    0.4293103109154542E+01    0.6277660831404320E+00    0.5000000000000000E+01
    0.3241512314643519E+01    0.7429886854239611E+00    0.5000000000000000E+01
    0.2844289952419609E+01   -0.1588117879734118E+01    0.5000000000000000E+01
    0.7159905765450471E+00   -0.6002320124191652E+00    0.5000000000000000E+01
    0.1754341919796891E+01   -0.7398147869923652E+00    0.5000000000000000E+01
    0.1870296826774691E+01   -0.1788622905643739E+01    0.5000000000000000E+01
    0.9220614901912976E+00    0.3083720183248586E+00    0.5000000000000000E+01
    0.3101523624086016E+01    0.1777901774806180E+01    0.5000000000000000E+01
    0.2192512063922564E+01    0.1576861561598471E+01    0.5000000000000000E+01
    0.2024793420196460E+01    0.4773861992750707E+00    0.5000000000000000E+01
    0.2990627757741975E+01   -0.4878110785814084E+00    0.5000000000000000E+01
    0.0000000000000000E+00   -0.2496588915429510E+01    0.1250000000000000E+01
    0.0000000000000000E+00   -0.2496588915429510E+01    0.2500000000000000E+01
    0.0000000000000000E+00   -0.2496588915429510E+01    0.3750000000000000E+01
    0.0000000000000000E+00    0.1558308132739014E+01    0.4042003247744892E+01
    0.0000000000000000E+00   -0.1548001304379777E+01    0.9304122287900499E+00
    0.0000000000000000E+00    0.1462892710085612E+01    0.1037243024609388E+01
    0.0000000000000000E+00   -0.1445243809615570E+01    0.3946240828834967E+01
    0.0000000000000000E+00   -0.3455338993778935E+00    0.4092527262848217E+01
    0.0000000000000000E+00    0.6277660831404320E+00    0.4293103109154542E+01
    0.0000000000000000E+00    0.7429886854239611E+00    0.3241512314643519E+01
    0.0000000000000000E+00   -0.1588117879734118E+01    0.2844289952419609E+01
    0.0000000000000000E+00   -0.6002320124191652E+00    0.7159905765450471E+00
    0.0000000000000000E+00   -0.7398147869923652E+00    0.1754341919796891E+01
    0.0000000000000000E+00   -0.1788622905643739E+01    0.1870296826774691E+01
    0.0000000000000000E+00    0.3083720183248586E+00    0.9220614901912976E+00
    0.0000000000000000E+00    0.1777901774806180E+01    0.3101523624086016E+01
    0.0000000000000000E+00    0.1576861561598471E+01    0.2192512063922564E+01
[...]
POINT_DATA 213
SCALARS rho double 1
LOOKUP_TABLE default
   0.1346107953269639E+01
   0.9572034862921254E+00
   0.9461165408498600E+00
   0.9421719436306950E+00
   0.8436075861714493E+00
   0.7742021348877410E+00
   0.7627578484787679E+00
   0.7661550654737597E+00
   0.8310485062147503E+00
   0.9353547373526575E+00
   0.9343891269092447E+00
   0.9616161327331263E+00
   0.1448474819970118E+01
   0.1495419455426090E+01
   0.1646728924688816E+01
   0.1426610977784231E+01
   0.1009806753236642E+01
   0.9511447255378428E+00
   0.9438200644328237E+00
   0.9574644727038188E+00
   0.9414966256654630E+00
   0.1037118410104399E+01
   0.9258159748577280E+00
   0.9322395504273365E+00
   0.9538054810509752E+00
   0.9520449334929052E+00
   0.9351031499974451E+00
   0.9565494445128034E+00
   0.9378636481605596E+00
   0.9303454484664730E+00
   0.9446463035897151E+00
   0.8862347023986231E+00
   0.9424043555223712E+00
   0.9637059109268273E+00
   0.1008354787646304E+01
   0.1006713668722155E+01
   0.1001956910125128E+01
   0.1003215468917913E+01
   0.1004119564006087E+01
   0.1005207462232333E+01
   0.1004249627122403E+01
   0.1008267947968431E+01
   0.1023868976374317E+01
   0.1063754888666375E+01
   0.1019393768722682E+01
   0.1001778964956897E+01
   0.9645833320585853E+00
   0.1005262830140462E+01
   0.1000745159585381E+01
   0.1008696080185147E+01
   0.1008037476689749E+01
   0.1002353123151534E+01
   0.9980185126648746E+00
   0.1000592002792683E+01
   0.1001620202261400E+01
   0.9828034237642211E+00
   0.9843904146871347E+00
   0.9834130629618250E+00
   0.9790347696258132E+00
   0.9904750178639055E+00
   0.9935188107180145E+00
   0.1002005694576931E+01
   0.1002129679879181E+01
   0.1002270623201350E+01
   0.1001791396565716E+01
   0.1009817839135501E+01
   0.1006507626076007E+01
   0.9561123695921495E+00
   0.9252822441739732E+00
   0.1007054435421718E+01
   0.1004492765481671E+01
   0.9145127717354644E+00
   0.9091576574619369E+00
   0.8752464005037355E+00
   0.9767970669933126E+00
   0.1000540466177517E+01
   0.1005827573313355E+01
   0.1012896759067782E+01
   0.1011680807106663E+01
   0.1010416984916658E+01
   0.1005458150315282E+01
   0.9909162167798096E+00
   0.1005148536077870E+01
   0.9860888877490264E+00
   0.1005592200435184E+01
   0.1004239574090236E+01
   0.1002885747349042E+01
   0.1003349863147655E+01
   0.1003998152334232E+01
   0.1005114861447987E+01
   0.1003222791826234E+01
   0.1002666927371931E+01
   0.1002585613314616E+01
   0.1004068639912001E+01
   0.1004304379368139E+01
   0.1001641020822747E+01
   0.1002275905475146E+01
   0.1002542969026613E+01
   0.1003470329735635E+01
   0.1003379331666746E+01
   0.1003232735043564E+01
   0.1004429380360204E+01
   0.1004323817856538E+01
   0.1003652731032785E+01
   0.1003717885558702E+01
   0.1004318199196008E+01
   0.1004461716672987E+01
   0.1003628258624571E+01
   0.1064485249539242E+01
   0.1028441573403228E+01
   0.1009605542425666E+01
   0.1006626618853138E+01
   0.1163967025337103E+01
   0.1086026329069300E+01
   0.1007906674946929E+01
   0.1007251386102604E+01
   0.1006796143436300E+01
   0.1013053419805312E+01
   0.1019340240827516E+01
   0.1235122773380500E+01
   0.1032535310812932E+01
   0.1046564888258995E+01
   0.1201701540346810E+01
   0.1014671689475918E+01
   0.1032296951448405E+01
   0.1028221626126872E+01
   0.1014639962584709E+01
   0.1028986477653381E+01
   0.1002004163921373E+01
   0.9608154106234164E+00
   0.1006857478054694E+01
   0.1001324412834955E+01
   0.1010797627272471E+01
   0.1012230907757995E+01
   0.1000939072121259E+01
   0.9979355149175760E+00
   0.9980684156320681E+00
   0.1001191293085893E+01
   0.9842095603042497E+00
   0.9815225190442075E+00
   0.9648737567733454E+00
   0.9680939504564418E+00
   0.9914081023035672E+00
   0.9910909868818686E+00
   0.9925582206089416E+00
   0.1001726954111949E+01
   0.9993240219657472E+00
   0.9941429926039138E+00
   0.1006981982487269E+01
   0.1022612600750569E+01
   0.1001120309955351E+01
   0.1008783385885659E+01
   0.1004774228083918E+01
   0.1009029915741708E+01
   0.9967207465329374E+00
   0.1005570361208498E+01
   0.1003324267489144E+01
   0.9949841329603475E+00
   0.9833498903623490E+00
   0.9944488318603802E+00
   0.9973469074808667E+00
   0.9932496648279069E+00
   0.1001311076976645E+01
   0.1003000072315816E+01
   0.1002187719209283E+01
   0.9947118403630968E+00
   0.9937827811899446E+00
   0.1004861184406088E+01
   0.1020100854510377E+01
   0.1005336849007676E+01
   0.9817042544304960E+00
   0.1004974058680016E+01
   0.1012374049564088E+01
   0.9873716958633554E+00
   0.9551280326581641E+00
   0.9865249254196184E+00
   0.9865912618693585E+00
   0.9920061836945641E+00
   0.9934431820141335E+00
   0.9960677442930302E+00
   0.1037399775785363E+01
   0.1033160676717269E+01
   0.1001443335151141E+01
   0.1001927955771959E+01
   0.9912307504440638E+00
   0.9911139716778894E+00
   0.9649427090741897E+00
   0.9933785502672509E+00
   0.1006090843837409E+01
   0.1001962953663103E+01
   0.9908623331146709E+00
   0.9742169320532070E+00
   0.9420657570221519E+00
   0.9821538951872926E+00
   0.9794778395474818E+00
   0.9704366216838294E+00
   0.9720881001084917E+00
   0.9557896414056006E+00
   0.9498087528550370E+00
   0.9529905386765241E+00
   0.1002635182161047E+01
   0.1002474930947783E+01
   0.1000512803893936E+01
   0.1001674928352830E+01
   0.9610028705555786E+00
   0.9492451793199022E+00
   0.9586634578759035E+00
   0.1001121127742156E+01
   0.1000500943355273E+01
   0.1001159352135103E+01
   0.9807417216220695E+00
   0.9805563355375083E+00
   0.9629219466002250E+00
SCALARS u double 1
LOOKUP_TABLE default
   0.0000000000000000E+00
   0.0000000000000000E+00
   0.0000000000000000E+00
   0.0000000000000000E+00
   0.0000000000000000E+00
   0.0000000000000000E+00
   0.0000000000000000E+00
   0.0000000000000000E+00
   0.0000000000000000E+00
   0.0000000000000000E+00
   0.0000000000000000E+00
   0.0000000000000000E+00
   0.0000000000000000E+00
   0.0000000000000000E+00
   0.0000000000000000E+00
   0.0000000000000000E+00
   0.0000000000000000E+00
   0.0000000000000000E+00
   0.0000000000000000E+00
   0.0000000000000000E+00
   0.0000000000000000E+00
   0.0000000000000000E+00
   0.0000000000000000E+00
   0.0000000000000000E+00
   0.0000000000000000E+00
   0.0000000000000000E+00
   0.0000000000000000E+00
   0.0000000000000000E+00
   0.0000000000000000E+00
   0.0000000000000000E+00
   0.0000000000000000E+00
   0.0000000000000000E+00
   0.0000000000000000E+00
   0.4945906987292395E+00
   0.5336251910788822E+00
   0.5182743269613070E+00
   0.4930733220722731E+00
   0.4847791572349618E+00
   0.4868175428864114E+00
   0.4891448803607139E+00
   0.4958012516199177E+00
   0.4899013928469356E+00
   0.4718076890032321E+00
   0.4448878676855970E+00
   0.4844373257611017E+00
   0.5097754337965071E+00
   0.4401836328485754E+00
   0.4949589920593946E+00
   0.5223009668460163E+00
   0.4962753153951039E+00
   0.5223837522298517E+00
   0.5038176509298479E+00
   0.5644337305731878E+00
   0.5245902531314496E+00
   0.4991022541055787E+00
   0.5729202666182965E+00
   0.5693574291605783E+00
   0.3752193372901605E+00
   0.4003630291575044E+00
   0.5599397320054935E+00
   0.5562263462684248E+00
   0.4942659529798876E+00
   0.4948662092700498E+00
   0.4925605736952019E+00
   0.4913957234404192E+00
   0.5162608323646448E+00
   0.5363671733999744E+00
   0.4951364731461021E+00
   0.4520488673511205E+00
   0.5129014838865684E+00
   0.5117702063018438E+00
   0.4786306508779428E+00
   0.4931111308059338E+00
   0.4600263312450003E+00
   0.5242595690843949E+00
   0.5299948638379358E+00
   0.5129698589389864E+00
   0.5328927324546362E+00
   0.5309787190752181E+00
   0.5309762380791202E+00
   0.5063651478164234E+00
   0.5279527956217994E+00
   0.5409240680031717E+00
   0.5363716468496601E+00
   0.5374202225034590E+00
   0.4965362405001700E+00
   0.4975367401690580E+00
   0.4963815906906971E+00
   0.4955155937660505E+00
   0.4904178844566263E+00
   0.4902513716661984E+00
   0.4861586511764565E+00
   0.4854090463091218E+00
   0.4931964048221438E+00
   0.4910341091237470E+00
   0.4831647448593937E+00
   0.4872471772413045E+00
   0.4880047111057779E+00
   0.4872343682870962E+00
   0.4882157267494768E+00
   0.4952581858648296E+00
   0.4900730294900397E+00
   0.4903608226213073E+00
   0.4944360000879152E+00
   0.4868236451244256E+00
   0.4892759003272873E+00
   0.4881480246165624E+00
   0.4878258712102378E+00
   0.4449104328802440E+00
   0.4700138061444819E+00
   0.4891778136667092E+00
   0.4885971010729144E+00
   0.4510304187606493E+00
   0.4681802258351655E+00
   0.4876667582063422E+00
   0.4868264750367000E+00
   0.4909267598229240E+00
   0.4793951226424252E+00
   0.4657914008449161E+00
   0.3794395138943998E+00
   0.4903637923712337E+00
   0.4487974839928774E+00
   0.4432391673671678E+00
   0.4845721142834514E+00
   0.4621874501995332E+00
   0.4663613826921754E+00
   0.4747794137320317E+00
   0.4893815005055186E+00
   0.5085691741660699E+00
   0.4305371304231012E+00
   0.4927305161844141E+00
   0.5320334108210670E+00
   0.4913862176155896E+00
   0.5209476974093388E+00
   0.5061333446260126E+00
   0.5690659934556488E+00
   0.5275016944767020E+00
   0.5015056960384801E+00
   0.5821780096192388E+00
   0.5691760187905366E+00
   0.3403303561498877E+00
   0.3786149420043370E+00
   0.5753350058424678E+00
   0.5668548286560550E+00
   0.5703058491116191E+00
   0.5291884649119986E+00
   0.5449841522101657E+00
   0.5719106491112160E+00
   0.5385672481753845E+00
   0.5475909344766754E+00
   0.5821521290006342E+00
   0.4925323593243287E+00
   0.5041574842592005E+00
   0.4961298248651850E+00
   0.5562741265826870E+00
   0.4757840102675636E+00
   0.4950197928844729E+00
   0.5496189542773231E+00
   0.5889516237069811E+00
   0.5839552455897964E+00
   0.5468178922242146E+00
   0.5803876791339442E+00
   0.5106079658224529E+00
   0.5029565998725096E+00
   0.5033151257374687E+00
   0.5676214256076525E+00
   0.5564625287097544E+00
   0.4947149914101724E+00
   0.5506789900420693E+00
   0.5513584242025631E+00
   0.5658253199326669E+00
   0.4919972208490868E+00
   0.4927869039271401E+00
   0.3865380067583845E+00
   0.3687911980676430E+00
   0.5574398917266885E+00
   0.5761719285348095E+00
   0.4194269250339059E+00
   0.5822964224942252E+00
   0.4268175282422775E+00
   0.5397383690578680E+00
   0.5016141728210266E+00
   0.5119275610480206E+00
   0.5048481851168883E+00
   0.5752729362055538E+00
   0.5878359918602073E+00
   0.5382533398020678E+00
   0.5679684748437422E+00
   0.5352002015092404E+00
   0.5338442144136883E+00
   0.5582272239601055E+00
   0.5511423263297908E+00
   0.4256675746280116E+00
   0.5272849207729638E+00
   0.5796785988776073E+00
   0.3318308281555746E+00
   0.4761645886070225E+00
   0.5446507240536933E+00
   0.4800724148017484E+00
   0.3006196074423753E+00
   0.5031635730147628E+00
   0.5017201035775010E+00
   0.5129150795013296E+00
   0.5414139624721954E+00
   0.3435101297500460E+00
   0.3397979076454062E+00
   0.3190372947366227E+00
   0.5066205449984303E+00
   0.5123858069095030E+00
   0.5329092078080395E+00
   0.5881346677174978E+00
   0.4645022681358445E+00
   0.3529502448198147E+00
SCALARS v double 1
LOOKUP_TABLE default
   0.0000000000000000E+00
   0.0000000000000000E+00
   0.0000000000000000E+00
   0.0000000000000000E+00
   0.0000000000000000E+00
   0.0000000000000000E+00
   0.0000000000000000E+00
   0.0000000000000000E+00
   0.0000000000000000E+00
   0.0000000000000000E+00
   0.0000000000000000E+00
   0.0000000000000000E+00
   0.0000000000000000E+00
   0.0000000000000000E+00
   0.0000000000000000E+00
   0.0000000000000000E+00
   0.0000000000000000E+00
   0.0000000000000000E+00
   0.0000000000000000E+00
   0.0000000000000000E+00
   0.0000000000000000E+00
   0.0000000000000000E+00
   0.0000000000000000E+00
   0.0000000000000000E+00
   0.0000000000000000E+00
   0.0000000000000000E+00
   0.0000000000000000E+00
   0.0000000000000000E+00
   0.0000000000000000E+00
   0.0000000000000000E+00
   0.0000000000000000E+00
   0.0000000000000000E+00
   0.0000000000000000E+00
   0.0000000000000000E+00
   0.0000000000000000E+00
   0.0000000000000000E+00
   0.0000000000000000E+00
   0.0000000000000000E+00
   0.0000000000000000E+00
   0.0000000000000000E+00
   0.0000000000000000E+00
   0.0000000000000000E+00
   0.0000000000000000E+00
   0.0000000000000000E+00
   0.0000000000000000E+00
   0.0000000000000000E+00
   0.0000000000000000E+00
   0.0000000000000000E+00
   0.0000000000000000E+00
   0.0000000000000000E+00
   0.0000000000000000E+00
   0.0000000000000000E+00
   0.0000000000000000E+00
   0.0000000000000000E+00
   0.0000000000000000E+00
   0.0000000000000000E+00
   0.0000000000000000E+00
   0.0000000000000000E+00
   0.0000000000000000E+00
   0.0000000000000000E+00
   0.0000000000000000E+00
   0.8516650806129005E-03
  -0.1262881040575681E-02
  -0.1293077460441375E-02
   0.0000000000000000E+00
   0.0000000000000000E+00
   0.0000000000000000E+00
   0.0000000000000000E+00
  -0.1933289550717439E-01
   0.5045753759969015E-03
   0.2213347660044695E-02
   0.1420810631046152E-01
  -0.6733607106122789E-02
  -0.8155883120293164E-02
  -0.1324545174416750E-01
   0.5002512457246516E-02
   0.7358119597667789E-03
   0.3481122053901886E-02
   0.1949570808340883E-02
   0.3168991631413550E-02
   0.1755384533547385E-02
  -0.7290314331547193E-02
  -0.6620424597869872E-04
   0.4565254729802127E-02
  -0.4086131941436996E-03
  -0.6617991933276857E-04
  -0.2024165885239330E-03
   0.8054763177519229E-03
   0.0000000000000000E+00
   0.0000000000000000E+00
   0.0000000000000000E+00
   0.0000000000000000E+00
   0.4734131169296171E-03
   0.1623693661787257E-02
  -0.1273198808733487E-02
  -0.9969476688667040E-03
  -0.2075938198923951E-02
  -0.9966077838533928E-03
  -0.7512367639614523E-03
  -0.7418055394282303E-03
   0.6010703499084607E-04
  -0.5969519599494694E-03
   0.8033865863267280E-03
  -0.1730326568980957E-02
   0.3130993998625517E-03
  -0.5823394647792612E-04
  -0.8898082030521040E-03
  -0.1051110180734808E-02
   0.0000000000000000E+00
   0.0000000000000000E+00
   0.0000000000000000E+00
  -0.1035374238678120E-02
  -0.7791802534471602E-02
   0.1821120441533612E-01
  -0.2909967373287144E-04
  -0.1377043338670827E-02
  -0.2028124122284253E-02
  -0.5613279206642588E-02
  -0.1620472555050133E-02
  -0.6358967642796922E-02
  -0.4327628883634505E-02
   0.1516497796443116E-02
   0.3300069432197531E-01
   0.4398716944962078E-04
  -0.2766708912539746E-02
   0.3629324130651241E-02
   0.3918124435253859E-03
   0.0000000000000000E+00
   0.0000000000000000E+00
   0.0000000000000000E+00
   0.0000000000000000E+00
   0.0000000000000000E+00
   0.0000000000000000E+00
   0.0000000000000000E+00
   0.0000000000000000E+00
   0.0000000000000000E+00
   0.0000000000000000E+00
   0.0000000000000000E+00
   0.0000000000000000E+00
   0.0000000000000000E+00
   0.0000000000000000E+00
   0.0000000000000000E+00
   0.0000000000000000E+00
   0.0000000000000000E+00
   0.4996894483756416E-02
   0.3209992488378301E-02
   0.8121745940038373E-02
   0.6089634350657319E-02
   0.1117049710689425E-01
   0.1403196148445125E-01
  -0.3288318202784013E-03
   0.5160290689768132E-02
   0.2928854566220947E-02
   0.3376702801408488E-02
   0.3724197295304800E-02
  -0.1469876501549604E-01
  -0.6149939129438921E-03
   0.6637026144911652E-02
   0.1453446387116356E-02
   0.1957617449470976E-02
   0.4261361187066178E-02
  -0.2811531662540918E-02
   0.1265400525114904E-02
   0.2850317620780751E-02
   0.1533339852237591E-02
   0.2562399649931801E-02
   0.2009045507195396E-02
   0.2152869189061274E-02
   0.8578502973032909E-02
  -0.3835622536781202E-02
   0.6146399927491969E-02
   0.4608054484497801E-04
  -0.4248334990513285E-03
  -0.1674697237679273E-01
  -0.5004935293674784E-02
  -0.4835314820028223E-02
   0.3396900421270657E-02
  -0.6079526983806913E-02
   0.2532842158176013E-04
  -0.3285407328532069E-01
  -0.3188765316674130E-02
   0.4573379160871498E-02
   0.9670889279933168E-03
   0.2132548345186065E-02
   0.4531672678394895E-02
   0.2690966738873164E-02
   0.3250663224787881E-02
   0.5226497386127341E-02
   0.1957941165935299E-02
   0.7476729006633423E-03
  -0.6182393294320177E-04
  -0.5322384707219152E-02
  -0.6966873870371152E-02
  -0.9690873099381277E-03
   0.1057849910294296E-02
  -0.2117195095362259E-02
  -0.3223699601386725E-02
  -0.2538119536251241E-02
  -0.4117521391171585E-02
  -0.7559056878506150E-02
  -0.2014517308183095E-02
   0.6493157706738680E-03
  -0.1926730089016001E-03
   0.1227232247715418E-02
  -0.3504142445592757E-02
   0.4855199736049413E-02
  -0.8635043977511355E-02
   0.3146550942085046E-04
  -0.3340851261735164E-03
   0.2557893751137207E-02
   0.1609328496543621E-02
   0.2028416286372364E-02
  -0.5642827507815471E-02
SCALARS w double 1
LOOKUP_TABLE default
   0.0000000000000000E+00
   0.0000000000000000E+00
   0.0000000000000000E+00
   0.0000000000000000E+00
   0.0000000000000000E+00
   0.0000000000000000E+00
   0.0000000000000000E+00
   0.0000000000000000E+00
   0.0000000000000000E+00
   0.0000000000000000E+00
   0.0000000000000000E+00
   0.0000000000000000E+00
   0.0000000000000000E+00
   0.0000000000000000E+00
   0.0000000000000000E+00
   0.0000000000000000E+00
   0.0000000000000000E+00
   0.0000000000000000E+00
   0.0000000000000000E+00
   0.0000000000000000E+00
   0.0000000000000000E+00
   0.0000000000000000E+00
   0.0000000000000000E+00
   0.0000000000000000E+00
   0.0000000000000000E+00
   0.0000000000000000E+00
   0.0000000000000000E+00
   0.0000000000000000E+00
   0.0000000000000000E+00
   0.0000000000000000E+00
   0.0000000000000000E+00
   0.0000000000000000E+00
   0.0000000000000000E+00
  -0.1007310479819296E+00
  -0.4246330007826719E-01
   0.7127059392217336E-03
   0.5708941661983762E-02
   0.5680821380394825E-03
   0.1604194803404531E-02
   0.3371461868746812E-02
   0.2364161313369729E-02
   0.4710835169026063E-03
   0.3526993364432218E-02
   0.4532865555444530E-01
   0.6564285240413639E-01
   0.8382262317292480E-03
  -0.2265955082397716E-01
   0.4272502517316016E-02
   0.1342668816467463E-01
   0.1030038683065061E-01
   0.4871548650215408E-01
   0.2384268813428602E-02
  -0.6534547967785282E-02
  -0.7345974655317174E-03
   0.3061547691473072E-03
   0.3853408549172418E-02
  -0.3894028376277302E-01
   0.1818959172276809E-01
   0.1121942555405309E-01
   0.3396122512416757E-01
   0.8384693569587025E-02
   0.4929881767252999E-02
   0.4977621147706912E-02
   0.4903358366711887E-02
   0.6059036362396917E-02
   0.2701320476470741E-02
  -0.4126423332283490E-01
  -0.9925858885818904E-01
  -0.1120355969717247E+00
   0.5148409010626230E-02
   0.4216981043493199E-02
  -0.1002559265170450E+00
  -0.9892752681063216E-01
  -0.9835880434094676E-01
  -0.9444490447814867E-01
  -0.6789718878201702E-01
   0.5199207034751401E-02
  -0.1926969786149623E-01
  -0.1562761087689100E-01
  -0.5964800102533389E-02
   0.6825413015916520E-02
  -0.8000600666553566E-01
  -0.2776912117543676E-01
  -0.8085817286074393E-01
  -0.5863277501764567E-01
   0.3073882863677881E-02
   0.2684652485784579E-02
   0.2643994097296337E-02
   0.3455891350993512E-02
   0.3996702790386192E-02
   0.1198247461547743E-02
  -0.1349056925976574E-03
   0.2032060362270370E-02
   0.4892722910736815E-02
   0.3863622769909824E-02
   0.1127232695610257E-02
   0.1190610842533854E-02
   0.1463678871138544E-02
  -0.2289019396636734E-04
   0.9021397355145900E-04
   0.4386048245420932E-02
   0.2711282086485469E-02
   0.2315357066649722E-02
   0.5005861359157721E-02
   0.1067355998539325E-02
   0.2705946536394906E-02
   0.2009684766556889E-02
   0.3331553644530748E-04
   0.8386109523055546E-01
   0.2833977938487550E-02
  -0.8468057482884264E-03
  -0.1276272504092629E-03
   0.1410968222527295E+00
   0.1236583917040752E+00
  -0.1228591789039499E-02
  -0.4382967483825655E-02
  -0.2801574517820203E-03
  -0.6478080492154736E-02
  -0.1893620767458672E-02
   0.1559598212226540E+00
   0.7528197908571962E-01
   0.2567709257169165E-01
   0.1661257117842743E+00