title="tecplot geometry and solution file"
variables = x y z rho u v w p mach temperature
zone t="boundary 1 bc-1", solutiontime= 0.6000000E+02, strandid=1001, i=32, j=46, f=feblock
 -0.547418544169E-02  0.000000000000E+00 -0.567506031243E-02  0.000000000000E+00  0.000000000000E+00  0.000000000000E+00 -0.525109244851E-02
 -0.425676897977E-02  0.000000000000E+00  0.000000000000E+00  0.000000000000E+00  0.000000000000E+00  0.000000000000E+00  0.000000000000E+00
  0.000000000000E+00  0.000000000000E+00 -0.338345986572E-02  0.000000000000E+00  0.000000000000E+00  0.000000000000E+00  0.000000000000E+00
  0.000000000000E+00  0.000000000000E+00  0.000000000000E+00  0.000000000000E+00  0.000000000000E+00  0.000000000000E+00  0.000000000000E+00
  0.000000000000E+00  0.000000000000E+00  0.000000000000E+00  0.000000000000E+00
  0.250494209238E+01  0.250494209238E+01  0.127822206907E+01  0.146289271009E+01  0.157686156160E+01  0.308372018325E+00  0.261958602442E-01
 -0.122573431164E+01 -0.600232012419E+00  0.250494209238E+01  0.477386199275E+00  0.742988685424E+00 -0.739814786992E+00  0.177790177481E+01
  0.155830813274E+01  0.250494209238E+01 -0.249658891543E+01 -0.154800130438E+01 -0.487811078581E+00  0.250494209238E+01  0.627766083140E+00
 -0.345533899378E+00 -0.178862290564E+01 -0.158811787973E+01  0.125000000000E+01 -0.249658891543E+01 -0.144524380962E+01  0.000000000000E+00
 -0.125000000000E+01 -0.249658891543E+01 -0.249658891543E+01 -0.249658891543E+01
  0.808813859867E-04  0.125000000000E+01  0.832460170215E-04  0.103724302461E+01  0.219251206392E+01  0.922061490191E+00  0.104372438719E-03
  0.351545874230E-04  0.715990576545E+00  0.250000000000E+01  0.202479342020E+01  0.324151231464E+01  0.175434191980E+01  0.310152362409E+01
  0.404200324774E+01  0.375000000000E+01  0.815725962649E-04  0.930412228790E+00  0.299062775774E+01  0.500000000000E+01  0.429310310915E+01
  0.409252726285E+01  0.187029682677E+01  0.284428995242E+01  0.500000000000E+01  0.125000000000E+01  0.394624082883E+01  0.500000000000E+01
  0.500000000000E+01  0.250000000000E+01  0.375000000000E+01  0.500000000000E+01
  0.134610819741E+01  0.106375546507E+01  0.142661120003E+01  0.108602668441E+01  0.103229750274E+01  0.120170180394E+01  0.164672933575E+01
  0.149541996219E+01  0.123512306368E+01  0.102386944172E+01  0.102822218663E+01  0.101305388081E+01  0.103253557081E+01  0.101467213579E+01
  0.100662698372E+01  0.100826832569E+01  0.144847524736E+01  0.116396750051E+01  0.101464051950E+01  0.100424995990E+01  0.100679645280E+01
  0.100725182224E+01  0.104656549010E+01  0.101934079531E+01  0.100423992027E+01  0.106448525122E+01  0.100790708378E+01  0.100288596761E+01
  0.100335006130E+01  0.102844206416E+01  0.100960587035E+01  0.100399794218E+01
  0.000000000000E+00  0.444887276537E+00  0.000000000000E+00  0.468180326802E+00  0.462186778199E+00  0.443238684480E+00  0.000000000000E+00
  0.000000000000E+00  0.379439141062E+00  0.471807259532E+00  0.466360634888E+00  0.479394560289E+00  0.490363694173E+00  0.484571644116E+00
  0.488597472204E+00  0.489900746181E+00  0.000000000000E+00  0.451029496887E+00  0.474778705264E+00  0.495800903196E+00  0.490926846628E+00
  0.486826283097E+00  0.448796902119E+00  0.465790673808E+00  0.496535898592E+00  0.444910673503E+00  0.487666696174E+00  0.497536486269E+00
  0.496381521754E+00  0.470013285733E+00  0.489177495042E+00  0.495515502892E+00
  0.000000000000E+00  0.000000000000E+00  0.000000000000E+00  0.182111496389E-01 -0.276668109345E-02  0.330008309358E-01  0.000000000000E+00
  0.000000000000E+00 -0.635885879306E-02  0.000000000000E+00  0.362940198241E-02 -0.561333154067E-02 -0.432752954781E-02  0.439705935096E-04
 -0.103547359321E-02  0.000000000000E+00  0.000000000000E+00 -0.779171567587E-02  0.391746940277E-03  0.000000000000E+00 -0.202831412390E-02
 -0.137699771696E-02  0.151652803468E-02 -0.162047878800E-02 -0.665395361723E-04  0.000000000000E+00 -0.290738022209E-04 -0.202432764823E-03
  0.805361649211E-03  0.000000000000E+00  0.000000000000E+00  0.000000000000E+00
  0.000000000000E+00  0.453283750246E-01  0.000000000000E+00  0.123658709290E+00  0.245692420344E-01  0.166125780182E+00  0.000000000000E+00
  0.000000000000E+00  0.155959899157E+00  0.352702403990E-02  0.259078413926E-01 -0.647805118999E-02  0.752820694155E-01  0.371569955382E-02
 -0.127527740916E-03  0.471454402098E-03  0.000000000000E+00  0.141096904399E+00 -0.806996041539E-02  0.236433426506E-02 -0.280386284403E-03
 -0.438302447070E-02  0.256769828111E-01 -0.189364234474E-02  0.307401283757E-02  0.838612046440E-01 -0.122860122896E-02  0.268490811312E-02
  0.264424717356E-02  0.283393333920E-02 -0.846587424287E-03  0.345684888859E-02
  0.961496530634E+00  0.782491141065E+00  0.101899859045E+01  0.808635934661E+00  0.746113335065E+00  0.879959803326E+00  0.117622515033E+01
  0.106814875688E+01  0.916484171862E+00  0.737375272312E+00  0.743650979466E+00  0.725792792675E+00  0.757479364536E+00  0.729144502386E+00
  0.720777568079E+00  0.722747147607E+00  0.103461765067E+01  0.858092899524E+00  0.728072574534E+00  0.718602762535E+00  0.721012354600E+00
  0.721154298791E+00  0.759934148726E+00  0.732618494608E+00  0.718521954171E+00  0.790948766007E+00  0.722118114687E+00  0.717197478127E+00
  0.717641995203E+00  0.741773502085E+00  0.724071785971E+00  0.718406368456E+00
  0.000000000000E+00  0.440666205846E+00  0.000000000000E+00  0.474617229590E+00  0.460123119133E+00  0.468636760525E+00  0.000000000000E+00
  0.000000000000E+00  0.402549858405E+00  0.469884091480E+00  0.464193447350E+00  0.478749620667E+00  0.489549423813E+00  0.483128672464E+00
  0.488002268590E+00  0.489034111166E+00  0.000000000000E+00  0.465240578999E+00  0.473760505258E+00  0.495364299435E+00  0.490293377578E+00
  0.486277606025E+00  0.445854505846E+00  0.464358876466E+00  0.496127934517E+00  0.443900339456E+00  0.486930062057E+00  0.497248723368E+00
  0.496055923699E+00  0.467744046606E+00  0.488189261624E+00  0.495091102137E+00
  0.999990302029E+00  0.102983028850E+01  0.999990765945E+00  0.104241481796E+01  0.101187755111E+01  0.102516591105E+01  0.999991422219E+00
  0.999992174401E+00  0.103882591001E+01  0.100825880642E+01  0.101253540800E+01  0.100301664994E+01  0.102705528054E+01  0.100604152546E+01
  0.100244540593E+01  0.100354834211E+01  0.999992725853E+00  0.103209931446E+01  0.100459382881E+01  0.100178631588E+01  0.100260315144E+01
  0.100234717478E+01  0.101657069556E+01  0.100620508585E+01  0.100168367691E+01  0.104024764189E+01  0.100303428444E+01  0.100118707591E+01
  0.100134422873E+01  0.100976315450E+01  0.100405567176E+01  0.100176392160E+01
        12        19        11        11
        11         5        12        12
        10        14         5         5
        19        13        11        11
        19        24        13        13
        30        23        24        24
        19        12        22        22
        28        22        21        21
        11        13         6         6
         7         6         9         9
        15        12        14        14
        18        13        23        23
        15        25        21        21
        27        19        22        22
        18         8         9         9
        27        31        24        24
         4        11         6         6
         5        14        12        12
         4         2         5         5
        21        12        15        15
        14        16        15        15
        24        19        27        27
        22        29        27        27
        23        26        18        18
        17         8        18        18
         5        11         4         4
         6         3         4         4
        26        23        30        30
         5         2        10        10
        16        14        10        10
         3         6         7         7
        21        25        28        28
        29        22        28        28
         6        13         9         9
         2         4         1         1
        31        27        32        32
        25        15        20        20
        24        23        13        13
         8         7         9         9
        13        18         9         9
        31        30        24        24
        12        21        22        22
        29        32        27        27
         3         1         4         4
        26        17        18        18
        16        20        15        15
zone t="boundary 2 bc-2", solutiontime= 0.6000000E+02, strandid=1002, i=33, j=48, f=feblock
  0.500195303374E+01  0.375034911161E+01  0.249861196299E+01  0.288036734566E+01  0.124717626933E+01  0.190856777273E+01  0.326577224970E+01
  0.201394897544E+01 -0.338345986572E-02  0.962374694294E+00  0.500000000000E+01  0.403430242577E+01  0.423029585928E+01  0.500000000000E+01
  0.385439203550E+01  0.500000000000E+01  0.398133439140E+01  0.315200091163E+01  0.266958047473E+01  0.154798040522E+01  0.218327864976E+01
  0.893688570225E+00  0.000000000000E+00  0.699009793161E+00  0.964460908962E+00  0.310303675831E+01  0.000000000000E+00  0.000000000000E+00
  0.125000000000E+01  0.500000000000E+01  0.375000000000E+01  0.250000000000E+01  0.000000000000E+00
 -0.249658891543E+01 -0.249658891543E+01 -0.249658891543E+01 -0.249658891543E+01 -0.249658891543E+01 -0.249658891543E+01 -0.249658891543E+01
 -0.249658891543E+01 -0.249658891543E+01 -0.249658891543E+01 -0.249658891543E+01 -0.249658891543E+01 -0.249658891543E+01 -0.249658891543E+01
 -0.249658891543E+01 -0.249658891543E+01 -0.249658891543E+01 -0.249658891543E+01 -0.249658891543E+01 -0.249658891543E+01 -0.249658891543E+01
 -0.249658891543E+01 -0.249658891543E+01 -0.249658891543E+01 -0.249658891543E+01 -0.249658891543E+01 -0.249658891543E+01 -0.249658891543E+01
 -0.249658891543E+01 -0.249658891543E+01 -0.249658891543E+01 -0.249658891543E+01 -0.249658891543E+01
  0.108725889030E-03  0.146875369682E-03  0.101393326425E-03  0.901663864714E+00  0.111858761917E-03  0.714929129060E+00  0.188140690284E+01
  0.175892220389E+01  0.815725962649E-04  0.957504929232E+00  0.125000000000E+01  0.100596749761E+01  0.191313550013E+01  0.250000000000E+01
  0.292898123437E+01  0.375000000000E+01  0.406883381007E+01  0.363389311275E+01  0.284756896448E+01  0.292582334204E+01  0.395754070352E+01
  0.205027286588E+01  0.125000000000E+01  0.306703285013E+01  0.397155774618E+01  0.433068632667E+01  0.250000000000E+01  0.375000000000E+01
  0.500000000000E+01  0.500000000000E+01  0.500000000000E+01  0.500000000000E+01  0.500000000000E+01
  0.831048846681E+00  0.935354854512E+00  0.934389652781E+00  0.968094394915E+00  0.961616784049E+00  0.964874005424E+00  0.984210058799E+00
  0.991408408974E+00  0.144847524736E+01  0.102898692615E+01  0.956112527537E+00  0.960814738775E+00  0.981522828974E+00  0.100650795159E+01
  0.997935779516E+00  0.100981608935E+01  0.100200366513E+01  0.998069047003E+00  0.991091302337E+00  0.100132489266E+01  0.100093956509E+01
  0.101223133192E+01  0.106448525122E+01  0.101079826013E+01  0.100685806845E+01  0.100119203660E+01  0.102844206416E+01  0.100960587035E+01
  0.100511533969E+01  0.100179357780E+01  0.100266911976E+01  0.100322320396E+01  0.100399794218E+01
  0.000000000000E+00  0.000000000000E+00  0.000000000000E+00  0.378615132668E+00  0.000000000000E+00  0.340330137836E+00  0.582178280739E+00
  0.575334703815E+00  0.000000000000E+00  0.489381163345E+00  0.495137405863E+00  0.430537300033E+00  0.569176944632E+00  0.536367078574E+00
  0.569065110560E+00  0.516259717664E+00  0.508563867386E+00  0.527499055650E+00  0.566854336354E+00  0.532032720625E+00  0.506130938103E+00
  0.520947366741E+00  0.444910673503E+00  0.491385541507E+00  0.492729808516E+00  0.501502416268E+00  0.470013285733E+00  0.489177495042E+00
  0.490417264409E+00  0.491396775996E+00  0.486161136782E+00  0.490250032440E+00  0.495515502892E+00
  0.000000000000E+00  0.000000000000E+00  0.000000000000E+00  0.000000000000E+00  0.000000000000E+00  0.000000000000E+00  0.000000000000E+00
  0.000000000000E+00  0.000000000000E+00  0.000000000000E+00  0.000000000000E+00  0.000000000000E+00  0.000000000000E+00  0.000000000000E+00
  0.000000000000E+00  0.000000000000E+00  0.000000000000E+00  0.000000000000E+00  0.000000000000E+00  0.000000000000E+00  0.000000000000E+00
  0.000000000000E+00  0.000000000000E+00  0.000000000000E+00  0.000000000000E+00  0.000000000000E+00  0.000000000000E+00  0.000000000000E+00
  0.000000000000E+00  0.000000000000E+00  0.000000000000E+00  0.000000000000E+00  0.000000000000E+00
  0.000000000000E+00  0.000000000000E+00  0.000000000000E+00 -0.232908191840E-02  0.000000000000E+00  0.182353254662E-01  0.121235920559E-01
  0.453891554043E-01  0.000000000000E+00  0.867493379471E-01 -0.992592957972E-01 -0.210121648033E-01 -0.304697501435E-01 -0.412644635781E-01
 -0.132005924027E-02  0.269955784682E-02  0.637117253102E-03  0.535247383063E-03  0.151134078017E-01  0.283971481793E-01  0.565019579741E-02
  0.553958434310E-01  0.838612046440E-01  0.110560463864E-01  0.679114898839E-02 -0.740739040319E-03  0.283393333920E-02 -0.846587424287E-03
  0.399773579358E-02  0.605665219274E-02 -0.135627045438E-03  0.119915114897E-02  0.345684888859E-02
  0.593602454771E+00  0.668106397444E+00  0.667416872960E+00  0.684291404788E+00  0.686864421181E+00  0.679258544222E+00  0.695864179623E+00
  0.702291788346E+00  0.103461765067E+01  0.723389852979E+00  0.672789488328E+00  0.675870577835E+00  0.694123983200E+00  0.721038066204E+00
  0.712711424981E+00  0.724812421567E+00  0.716595366271E+00  0.713312878726E+00  0.706427909386E+00  0.717741407713E+00  0.715380851747E+00
  0.730906765594E+00  0.790948766007E+00  0.724365790269E+00  0.721017445343E+00  0.715471807346E+00  0.741773502085E+00  0.724071785971E+00
  0.719322135969E+00  0.715894732544E+00  0.716614380515E+00  0.717376649642E+00  0.718406368456E+00
  0.000000000000E+00  0.000000000000E+00  0.000000000000E+00  0.380610248103E+00  0.000000000000E+00  0.343302263154E+00  0.585285531524E+00
  0.579523928856E+00  0.000000000000E+00  0.500979793900E+00  0.508782820262E+00  0.434361602476E+00  0.572843996991E+00  0.537166661058E+00
  0.569106501445E+00  0.515013351848E+00  0.508252450544E+00  0.527349031994E+00  0.567655263405E+00  0.531857851834E+00  0.506012446927E+00
  0.521051128384E+00  0.443900339456E+00  0.490706186486E+00  0.492149791586E+00  0.501385668863E+00  0.467744046606E+00  0.488189261624E+00
  0.489962000937E+00  0.491321544614E+00  0.486017937673E+00  0.489981946315E+00  0.495091102137E+00
  0.999993490151E+00  0.999993694276E+00  0.999993545909E+00  0.989581152142E+00  0.999993142387E+00  0.985581492055E+00  0.989839356714E+00
  0.991729033952E+00  0.999992725853E+00  0.984216386465E+00  0.985140615285E+00  0.984808799015E+00  0.990067217790E+00  0.100292629689E+01
  0.999859926315E+00  0.100487346250E+01  0.100122738838E+01  0.100057008402E+01  0.997888964223E+00  0.100350842984E+01  0.100059307013E+01
  0.101090476017E+01  0.104024764189E+01  0.100327844475E+01  0.100254887467E+01  0.100046793589E+01  0.100976315450E+01  0.100405567176E+01
  0.100192579955E+01  0.100045822590E+01  0.100058943968E+01  0.100110055822E+01  0.100176392160E+01
        15         7        19        19
         8        20        19        19
        18        19        21        21
         7         4         8         8
         3         6         4         4
        19         7         8         8
        19        18        15        15
        14        13        15        15
         8        22        20        20
        27        24        22        22
        19        20        21        21
        32        26        21        21
        17        18        26        26
        17        16        15        15
        25        29        21        21
        12         7        13        13
        10         8         6         6
        25        20        24        24
         4         6         8         8
        12         2         4         4
        10        23        22        22
        26        31        17        17
        30        16        17        17
         4         7        12        12
        13        11        12        12
        21        20        25        25
        24        28        25        25
        22         8        10        10
         6         5        10        10
        31        26        32        32
         4         2         3         3
         5         6         3         3
        11        13        14        14
        22        23        27        27
        28        24        27        27
        15        13         7         7
         2        12         1         1
        29        25        33        33
        23        10         9         9
        21        26        18        18
        16        14        15        15
        18        17        15        15
        29        32        21        21
        22        24        20        20
        28        33        25        25
        11         1        12        12
        31        30        17        17
         5         9        10        10
zone t="boundary 3 bc-3", solutiontime= 0.6000000E+02, strandid=1003, i=33, j=48, f=feblock
  0.375059196892E+01  0.249769659313E+01  0.500322183174E+01  0.403612272037E+01  0.287976833436E+01  0.124542010518E+01  0.190552303132E+01
  0.500000000000E+01  0.326671140571E+01  0.423253781253E+01  0.201271172665E+01 -0.547418544169E-02  0.958896052319E+00  0.500000000000E+01
  0.266968165797E+01  0.385584505120E+01  0.890374291961E+00  0.154654021702E+01  0.000000000000E+00  0.500000000000E+01  0.315261147897E+01
  0.218304203297E+01  0.398195315265E+01  0.000000000000E+00  0.697379955606E+00  0.963757267984E+00  0.125000000000E+01  0.000000000000E+00
  0.500000000000E+01  0.310330743709E+01  0.250000000000E+01  0.375000000000E+01  0.000000000000E+00
  0.250494209238E+01  0.250494209238E+01  0.250494209238E+01  0.250494209238E+01  0.250494209238E+01  0.250494209238E+01  0.250494209238E+01
  0.250494209238E+01  0.250494209238E+01  0.250494209238E+01  0.250494209238E+01  0.250494209238E+01  0.250494209238E+01  0.250494209238E+01
  0.250494209238E+01  0.250494209238E+01  0.250494209238E+01  0.250494209238E+01  0.250494209238E+01  0.250494209238E+01  0.250494209238E+01
  0.250494209238E+01  0.250494209238E+01  0.250494209238E+01  0.250494209238E+01  0.250494209238E+01  0.250494209238E+01  0.250494209238E+01
  0.250494209238E+01  0.250494209238E+01  0.250494209238E+01  0.250494209238E+01  0.250494209238E+01
  0.136649900494E-03  0.110629816467E-03  0.971887303890E-04  0.101756833402E+01  0.908095407253E+00  0.104942505801E-03  0.722629980944E+00
  0.125000000000E+01  0.188965725284E+01  0.191862737888E+01  0.176708309701E+01  0.808813859867E-04  0.969653377290E+00  0.250000000000E+01
  0.285339481706E+01  0.293325094397E+01  0.205656266765E+01  0.293157056900E+01  0.125000000000E+01  0.375000000000E+01  0.363766868440E+01
  0.396069467580E+01  0.407056400638E+01  0.250000000000E+01  0.307032016246E+01  0.397359833374E+01  0.500000000000E+01  0.375000000000E+01
  0.500000000000E+01  0.433260796524E+01  0.500000000000E+01  0.500000000000E+01  0.500000000000E+01
  0.942172466235E+00  0.946117131250E+00  0.843607659358E+00  0.964577372945E+00  0.979032687395E+00  0.957204020775E+00  0.983413556944E+00
  0.963701338733E+00  0.982803921259E+00  0.984389963986E+00  0.990475725236E+00  0.134610819741E+01  0.101939409143E+01  0.100835627039E+01
  0.993519344281E+00  0.998019550657E+00  0.100803795046E+01  0.100074573580E+01  0.106375546507E+01  0.100671243099E+01  0.100059276610E+01
  0.100235385743E+01  0.100177790949E+01  0.102386944172E+01  0.100869654579E+01  0.100526332391E+01  0.100520805948E+01  0.100826832569E+01
  0.100195892882E+01  0.100162063739E+01  0.100412010964E+01  0.100321751731E+01  0.100424995990E+01
  0.000000000000E+00  0.000000000000E+00  0.000000000000E+00  0.440186037095E+00  0.400363957944E+00  0.000000000000E+00  0.375219331922E+00
  0.494597341495E+00  0.572920173932E+00  0.569359281263E+00  0.559939028363E+00  0.000000000000E+00  0.484437048963E+00  0.533624795624E+00
  0.556225899863E+00  0.564433693139E+00  0.522383211063E+00  0.522300352190E+00  0.444887276537E+00  0.518274037424E+00  0.524589460930E+00
  0.503816827568E+00  0.509770332781E+00  0.471807259532E+00  0.496274705559E+00  0.494958715371E+00  0.489143085609E+00  0.489900746181E+00
  0.493071424751E+00  0.499098513491E+00  0.486813278122E+00  0.484775428972E+00  0.495800903196E+00
  0.000000000000E+00  0.000000000000E+00  0.000000000000E+00  0.000000000000E+00  0.000000000000E+00  0.000000000000E+00  0.000000000000E+00
  0.000000000000E+00  0.000000000000E+00  0.000000000000E+00  0.000000000000E+00  0.000000000000E+00  0.000000000000E+00  0.000000000000E+00
  0.000000000000E+00  0.000000000000E+00  0.000000000000E+00  0.000000000000E+00  0.000000000000E+00  0.000000000000E+00  0.000000000000E+00
  0.000000000000E+00  0.000000000000E+00  0.000000000000E+00  0.000000000000E+00  0.000000000000E+00  0.000000000000E+00  0.000000000000E+00
  0.000000000000E+00  0.000000000000E+00  0.000000000000E+00  0.000000000000E+00  0.000000000000E+00
  0.000000000000E+00  0.000000000000E+00  0.000000000000E+00 -0.226594285580E-01  0.112193846130E-01  0.000000000000E+00  0.181895642955E-01
 -0.100732368834E+00  0.385286399228E-02 -0.389417284272E-01  0.339611323076E-01  0.000000000000E+00  0.656428119885E-01 -0.424642536821E-01
  0.838411378663E-02 -0.653604832855E-02  0.487155321399E-01  0.134268475547E-01  0.453283750246E-01  0.711322521084E-03 -0.736125723096E-03
  0.238397731607E-02  0.837561002577E-03  0.352702403990E-02  0.103006283914E-01  0.427267997859E-02  0.337245666375E-02  0.471454402098E-03
  0.570390221057E-02  0.305980087016E-03  0.160644983844E-02  0.567794813745E-03  0.236433426506E-02
  0.672973165045E+00  0.675790798624E+00  0.602570653385E+00  0.676155629037E+00  0.691393371192E+00  0.683710208577E+00  0.689988490900E+00
  0.677395930654E+00  0.695267858827E+00  0.696328679433E+00  0.703514398914E+00  0.961496530634E+00  0.719946073025E+00  0.722885122432E+00
  0.709495715012E+00  0.713707846609E+00  0.726005213286E+00  0.716614508824E+00  0.782491141065E+00  0.722258493922E+00  0.716132744376E+00
  0.716553858582E+00  0.716542442497E+00  0.737375272312E+00  0.722640581195E+00  0.719421877359E+00  0.719547975239E+00  0.722747147607E+00
  0.716025292550E+00  0.715847805362E+00  0.718137408422E+00  0.717062203883E+00  0.718602762535E+00
  0.000000000000E+00  0.000000000000E+00  0.000000000000E+00  0.444930417996E+00  0.402807364688E+00  0.000000000000E+00  0.379033909453E+00
  0.508818721835E+00  0.575701394311E+00  0.573472074095E+00  0.562547860153E+00  0.000000000000E+00  0.491637853489E+00  0.534336806568E+00
  0.556352181635E+00  0.564140549572E+00  0.522485296283E+00  0.521817731485E+00  0.440666205846E+00  0.517132975189E+00  0.524068292483E+00
  0.503616124352E+00  0.509419882038E+00  0.469884091480E+00  0.495645017283E+00  0.494503349506E+00  0.488630223707E+00  0.489034111166E+00
  0.492987209418E+00  0.498957578429E+00  0.486507813402E+00  0.484614067736E+00  0.495364299435E+00
  0.999989348900E+00  0.999989416558E+00  0.999989634258E+00  0.981380972853E+00  0.988680696908E+00  0.999989836266E+00  0.982276358140E+00
  0.984074904536E+00  0.990406103703E+00  0.990319067515E+00  0.994391011698E+00  0.999990302029E+00  0.988748621078E+00  0.100365238074E+01
  0.999773186838E+00  0.100117375917E+01  0.100830261216E+01  0.100251270275E+01  0.102983028850E+01  0.100441979294E+01  0.100199189530E+01
  0.100081961533E+01  0.100137905817E+01  0.100825880642E+01  0.100297440087E+01  0.100191721348E+01  0.100214791936E+01  0.100354834211E+01
  0.100047554919E+01  0.100056537386E+01  0.100126704180E+01  0.100066742069E+01  0.100178631588E+01
        15         9        16        16
        15        18        11        11
        22        15        21        21
        11         5         9         9
         5         7         2         2
        11         9        15        15
        16        21        15        15
        16        10        14        14
        18        17        11        11
        17        25        24        24
        22        18        15        15
        22        30        31        31
        30        21        23        23
        16        20        23        23
        22        27        26        26
        10         9         4         4
         7        11        13        13
        25        18        26        26
        11         7         5         5
         5         1         4         4
        17        19        13        13
        23        32        30        30
        23        20        29        29
         4         9         5         5
         4         8        10        10
        26        18        22        22
        26        28        25        25
        13        11        17        17
        13         6         7         7
        31        30        32        32
         2         1         5         5
         2         7         6         6
        14        10         8         8
        24        19        17        17
        24        25        28        28
         9        10        16        16
         3         4         1         1
        33        26        27        27
        12        13        19        19
        21        30        22        22
        16        14        20        20
        16        23        21        21
        22        31        27        27
        18        25        17        17
        26        33        28        28
         4         3         8         8
        23        29        32        32
        13        12         6         6
zone t="boundary 4 bc-4", solutiontime= 0.6000000E+02, strandid=1004, i=32, j=46, f=feblock
  0.125000000000E+01  0.219251206392E+01  0.103724302461E+01  0.500000000000E+01  0.250000000000E+01  0.375000000000E+01  0.404200324774E+01
  0.500000000000E+01  0.000000000000E+00  0.310152362409E+01  0.202479342020E+01  0.324151231464E+01  0.922061490191E+00  0.000000000000E+00
  0.299062775774E+01  0.394624082883E+01  0.500000000000E+01  0.409252726285E+01  0.500000000000E+01  0.429310310915E+01  0.175434191980E+01
  0.284428995242E+01  0.000000000000E+00  0.000000000000E+00  0.715990576545E+00  0.930412228790E+00  0.125000000000E+01  0.187029682677E+01
  0.500000000000E+01  0.375000000000E+01  0.250000000000E+01  0.000000000000E+00
  0.250494209238E+01  0.157686156160E+01  0.146289271009E+01  0.250494209238E+01  0.250494209238E+01  0.250494209238E+01  0.155830813274E+01
  0.125000000000E+01  0.250494209238E+01  0.177790177481E+01  0.477386199275E+00  0.742988685424E+00  0.308372018325E+00  0.125000000000E+01
 -0.487811078581E+00 -0.144524380962E+01 -0.125000000000E+01 -0.345533899378E+00  0.000000000000E+00  0.627766083140E+00 -0.739814786992E+00
 -0.158811787973E+01  0.000000000000E+00 -0.125000000000E+01 -0.600232012419E+00 -0.154800130438E+01 -0.249658891543E+01 -0.178862290564E+01
 -0.249658891543E+01 -0.249658891543E+01 -0.249658891543E+01 -0.249658891543E+01
  0.500000000000E+01  0.500000000000E+01  0.500000000000E+01  0.500000000000E+01  0.500000000000E+01  0.500000000000E+01  0.500000000000E+01
  0.500000000000E+01  0.500000000000E+01  0.500000000000E+01  0.500000000000E+01  0.500000000000E+01  0.500000000000E+01  0.500000000000E+01
  0.500000000000E+01  0.500000000000E+01  0.500000000000E+01  0.500000000000E+01  0.500000000000E+01  0.500000000000E+01  0.500000000000E+01
  0.500000000000E+01  0.500000000000E+01  0.500000000000E+01  0.500000000000E+01  0.500000000000E+01  0.500000000000E+01  0.500000000000E+01
  0.500000000000E+01  0.500000000000E+01  0.500000000000E+01  0.500000000000E+01
  0.100520805948E+01  0.100431923731E+01  0.100430498675E+01  0.100195892882E+01  0.100412010964E+01  0.100321751731E+01  0.100258950397E+01
  0.100200889317E+01  0.100424995990E+01  0.100371855527E+01  0.100446255698E+01  0.100347199535E+01  0.100365301455E+01  0.100423992027E+01
  0.100362939057E+01  0.100164315384E+01  0.100227308687E+01  0.100227913269E+01  0.100213223961E+01  0.100254677843E+01  0.100442989390E+01
  0.100338023517E+01  0.100288596761E+01  0.100335006130E+01  0.100323313450E+01  0.100406903674E+01  0.100511533969E+01  0.100432403389E+01
  0.100179357780E+01  0.100266911976E+01  0.100322320396E+01  0.100399794218E+01
  0.489143085609E+00  0.489273562839E+00  0.491032976431E+00  0.493071424751E+00  0.486813278122E+00  0.484775428972E+00  0.485406762220E+00
  0.494264081448E+00  0.495800903196E+00  0.486819186260E+00  0.488146805524E+00  0.487231248204E+00  0.494435310539E+00  0.496535898592E+00
  0.487825250017E+00  0.483167753881E+00  0.492561903422E+00  0.487246884331E+00  0.494865193672E+00  0.488002431027E+00  0.490072128387E+00
  0.488216395099E+00  0.497536486269E+00  0.496381521754E+00  0.495257687628E+00  0.493195606301E+00  0.490417264409E+00  0.490359939064E+00
  0.491396775996E+00  0.486161136782E+00  0.490250032440E+00  0.495515502892E+00
  0.000000000000E+00 -0.578654876164E-04 -0.127351968842E-02  0.000000000000E+00  0.000000000000E+00  0.000000000000E+00  0.474016643085E-03
  0.850807455073E-03  0.000000000000E+00  0.314094029053E-03 -0.890189722675E-03 -0.751272050500E-03 -0.173054557755E-02 -0.665395361723E-04
 -0.105319589451E-02 -0.998843555199E-03 -0.129446070069E-02 -0.207760495394E-02 -0.126376808287E-02 -0.997053720646E-03 -0.597641505898E-03
 -0.743089992053E-03 -0.202432764823E-03  0.805361649211E-03  0.601389560363E-04  0.162347609713E-02  0.000000000000E+00  0.803299841555E-03
  0.000000000000E+00  0.000000000000E+00  0.000000000000E+00  0.000000000000E+00