# vtk DataFile Version 2.0
FUN3D:global_image_vtk
ASCII
DATASET UNSTRUCTURED_GRID
POINTS 213 double
   -0.5474185441687819E-02    0.2504942092379412E+01    0.8088138598670508E-04
    0.1245420105183471E+01    0.2504942092379412E+01    0.1049425058013130E-03
    0.2497696593128780E+01    0.2504942092379412E+01    0.1106298164665751E-03
    0.3750591968915824E+01    0.2504942092379412E+01    0.1366499004944164E-03
    0.5003221831742151E+01    0.2504942092379412E+01    0.9718873038898271E-04
    0.5004677687979097E+01    0.1281291702167040E+01    0.1648053019384352E-03
    0.5004773173778115E+01    0.2775179906482888E-01    0.1908478008447586E-03
    0.5003582183341212E+01   -0.1225853008883529E+01    0.1617765204486573E-03
    0.5001953033742191E+01   -0.2496588915429510E+01    0.1087258890302554E-03
    0.3750349111606544E+01   -0.2496588915429510E+01    0.1468753696815804E-03
    0.2498611962994928E+01   -0.2496588915429510E+01    0.1013933264248222E-03
    0.1247176269333276E+01   -0.2496588915429510E+01    0.1118587619169652E-03
   -0.3383459865719258E-02   -0.2496588915429510E+01    0.8157259626494146E-04
   -0.4256768979765587E-02   -0.1225734311642590E+01    0.3515458742295200E-04
   -0.5251092448509245E-02    0.2619586024420446E-01    0.1043724387187882E-03
   -0.5675060312426831E-02    0.1278222069065707E+01    0.8324601702150314E-04
    0.9003214617952581E+00    0.1608980112280158E+01    0.8754140727677756E-04
    0.3983173210692289E+01   -0.1561211404840279E+01    0.1767116720370595E-03
    0.4035602539224469E+01    0.1486761030415520E+01    0.1718312862106626E-03
    0.1036614723302902E+01   -0.1455625929916848E+01    0.1057189301532911E-03
    0.1094353980630802E+01   -0.2964612010671852E+00    0.1265590236917267E-03
    0.7298410267480001E+00    0.6874689746719117E+00    0.1054598640544956E-03
    0.1617019159308944E+01    0.8553218024939370E+00    0.1534810904974389E-03
    0.2143200662875790E+01   -0.1627128009216730E+01    0.1616170425226812E-03
    0.4088840945400888E+01   -0.4351037825936264E+00    0.2724933294109128E-03
    0.2977917511248925E+01   -0.8334986483094501E+00    0.2255596931861322E-03
    0.3044093741383418E+01   -0.1814360225108581E+01    0.1622000112420493E-03
    0.3427867614805212E+01    0.3813909839972495E+00    0.2946955483430753E-03
    0.4313225855351749E+01    0.5489143376342496E+00    0.2318009573592368E-03
    0.1823033737597358E+01    0.1771265693544255E+01    0.1846202887151579E-03
    0.2806311652168375E+01    0.1358630373600680E+01    0.1948492163983813E-03
    0.1891861875936711E+01   -0.8481305365607547E+00    0.1680645501816166E-03
    0.2268769700166909E+01    0.7723791819196557E-01    0.2077307783085310E-03
    0.5000000000000000E+01    0.2504942092379412E+01    0.1250000000000000E+01
    0.5000000000000000E+01    0.2504942092379412E+01    0.2500000000000000E+01
    0.5000000000000000E+01    0.2504942092379412E+01    0.3750000000000000E+01
    0.5000000000000000E+01    0.2504942092379412E+01    0.5000000000000000E+01
    0.3750000000000000E+01    0.2504942092379412E+01    0.5000000000000000E+01
    0.2500000000000000E+01    0.2504942092379412E+01    0.5000000000000000E+01
    0.1250000000000000E+01    0.2504942092379412E+01    0.5000000000000000E+01
    0.0000000000000000E+00    0.2504942092379412E+01    0.5000000000000000E+01
    0.0000000000000000E+00    0.2504942092379412E+01    0.3750000000000000E+01
    0.0000000000000000E+00    0.2504942092379412E+01    0.2500000000000000E+01
    0.0000000000000000E+00    0.2504942092379412E+01    0.1250000000000000E+01
    0.9588960523194296E+00    0.2504942092379412E+01    0.9696533772899839E+00
    0.3981953152648399E+01    0.2504942092379412E+01    0.4070564006379006E+01
    0.4036122720370823E+01    0.2504942092379412E+01    0.1017568334018097E+01
    0.9637572679843209E+00    0.2504942092379412E+01    0.3973598333743666E+01
    0.1546540217021452E+01    0.2504942092379412E+01    0.2931570569004156E+01
    0.6973799556057403E+00    0.2504942092379412E+01    0.3070320162457474E+01
    0.8903742919605764E+00    0.2504942092379412E+01    0.2056562667654546E+01
    0.2183042032970627E+01    0.2504942092379412E+01    0.3960694675798555E+01
    0.3855845051203087E+01    0.2504942092379412E+01    0.2933250943972104E+01
    0.3152611478966365E+01    0.2504942092379412E+01    0.3637668684400747E+01
    0.3103307437094584E+01    0.2504942092379412E+01    0.4332607965243381E+01
    0.3266711405714075E+01    0.2504942092379412E+01    0.1889657252840617E+01
    0.4232537812533727E+01    0.2504942092379412E+01    0.1918627378881492E+01
    0.1905523031318268E+01    0.2504942092379412E+01    0.7226299809441208E+00
    0.2879768334359970E+01    0.2504942092379412E+01    0.9080954072529366E+00
    0.2012711726651317E+01    0.2504942092379412E+01    0.1767083097014218E+01
    0.2669681657974684E+01    0.2504942092379412E+01    0.2853394817061738E+01
    0.5000000000000000E+01    0.1250000000000000E+01    0.5000000000000000E+01
    0.5000000000000000E+01    0.0000000000000000E+00    0.5000000000000000E+01
    0.5000000000000000E+01   -0.1250000000000000E+01    0.5000000000000000E+01
    0.5000000000000000E+01   -0.2496588915429510E+01    0.5000000000000000E+01
    0.5000000000000000E+01   -0.2496588915429510E+01    0.3750000000000000E+01
    0.5000000000000000E+01   -0.2496588915429510E+01    0.2500000000000000E+01
    0.5000000000000000E+01   -0.2496588915429510E+01    0.1250000000000000E+01
    0.5000000000000000E+01    0.1578994732800803E+01    0.9058375365086910E+00
    0.5000000000000000E+01   -0.1583989954232354E+01    0.3982050490726493E+01
    0.5000000000000000E+01    0.1453322699199022E+01    0.4033849428301197E+01
    0.5000000000000000E+01   -0.1479596339503735E+01    0.1040505887381675E+01
    0.5000000000000000E+01   -0.3227322616384110E+00    0.1099454400140349E+01
    0.5000000000000000E+01    0.6593508822075582E+00    0.7354504170366591E+00
    0.5000000000000000E+01    0.8256214013940779E+00    0.1622302608453282E+01
    0.5000000000000000E+01   -0.1650070333782557E+01    0.2145871574390382E+01
    0.5000000000000000E+01   -0.4612828702537229E+00    0.4086422318222992E+01
    0.5000000000000000E+01   -0.8579242121530853E+00    0.2979540174134984E+01
    0.5000000000000000E+01   -0.1836846154397680E+01    0.3045064261640043E+01
    0.5000000000000000E+01    0.3508002863614053E+00    0.3428197553792836E+01
    0.5000000000000000E+01    0.5185680230613409E+00    0.4309693860063405E+01
    0.5000000000000000E+01    0.1738996113203182E+01    0.1827272193562204E+01
    0.5000000000000000E+01    0.1325493893339706E+01    0.2808563282768077E+01
    0.5000000000000000E+01   -0.8731419609589618E+00    0.1895995683864404E+01
    0.5000000000000000E+01    0.4906150219227333E-01    0.2273179336307740E+01
    0.0000000000000000E+00    0.1250000000000000E+01    0.5000000000000000E+01
    0.0000000000000000E+00    0.0000000000000000E+00    0.5000000000000000E+01
    0.0000000000000000E+00   -0.1250000000000000E+01    0.5000000000000000E+01
    0.0000000000000000E+00   -0.2496588915429510E+01    0.5000000000000000E+01
    0.1250000000000000E+01   -0.2496588915429510E+01    0.5000000000000000E+01
    0.2500000000000000E+01   -0.2496588915429510E+01    0.5000000000000000E+01
    0.3750000000000000E+01   -0.2496588915429510E+01    0.5000000000000000E+01
    0.4042003247744892E+01    0.1558308132739014E+01    0.5000000000000000E+01
    0.9304122287900499E+00   -0.1548001304379777E+01    0.5000000000000000E+01
    0.1037243024609388E+01    0.1462892710085612E+01    0.5000000000000000E+01
    0.3946240828834967E+01   -0.1445243809615570E+01    0.5000000000000000E+01
    0.4092527262848217E+01   -0.3455338993778935E+00    0.5000000000000000E+01
    0.4293103109154542E+01    0.6277660831404320E+00    0.5000000000000000E+01
    0.3241512314643519E+01    0.7429886854239611E+00    0.5000000000000000E+01
    0.2844289952419609E+01   -0.1588117879734118E+01    0.5000000000000000E+01
    0.7159905765450471E+00   -0.6002320124191652E+00    0.5000000000000000E+01
    0.1754341919796891E+01   -0.7398147869923652E+00    0.5000000000000000E+01
    0.1870296826774691E+01   -0.1788622905643739E+01    0.5000000000000000E+01
    0.9220614901912976E+00    0.3083720183248586E+00    0.5000000000000000E+01
    0.3101523624086016E+01    0.1777901774806180E+01    0.5000000000000000E+01
    0.2192512063922564E+01    0.1576861561598471E+01    0.5000000000000000E+01
    0.2024793420196460E+01    0.4773861992750707E+00    0.5000000000000000E+01
    0.2990627757741975E+01   -0.4878110785814084E+00    0.5000000000000000E+01
    0.0000000000000000E+00   -0.2496588915429510E+01    0.1250000000000000E+01
    0.0000000000000000E+00   -0.2496588915429510E+01    0.2500000000000000E+01
    0.0000000000000000E+00   -0.2496588915429510E+01    0.3750000000000000E+01
    0.0000000000000000E+00    0.1558308132739014E+01    0.4042003247744892E+01
    0.0000000000000000E+00   -0.1548001304379777E+01    0.9304122287900499E+00
    0.0000000000000000E+00    0.1462892710085612E+01    0.1037243024609388E+01
    0.0000000000000000E+00   -0.1445243809615570E+01    0.3946240828834967E+01
    0.0000000000000000E+00   -0.3455338993778935E+00    0.4092527262848217E+01
    0.0000000000000000E+00    0.6277660831404320E+00    0.4293103109154542E+01
    0.0000000000000000E+00    0.7429886854239611E+00    0.3241512314643519E+01
    0.0000000000000000E+00   -0.1588117879734118E+01    0.2844289952419609E+01
    0.0000000000000000E+00   -0.6002320124191652E+00    0.7159905765450471E+00
    0.0000000000000000E+00   -0.7398147869923652E+00    0.1754341919796891E+01
    0.0000000000000000E+00   -0.1788622905643739E+01    0.1870296826774691E+01
    0.0000000000000000E+00    0.3083720183248586E+00    0.9220614901912976E+00
    0.0000000000000000E+00    0.1777901774806180E+01    0.3101523624086016E+01
    0.0000000000000000E+00    0.1576861561598471E+01    0.2192512063922564E+01
[...]
POINT_DATA 213
SCALARS rho double 1
LOOKUP_TABLE default
   0.1345796423197053E+01
   0.9579407486401192E+00
   0.9475819187650748E+00
   0.9441088338687187E+00
   0.8439755129095184E+00
   0.7737479502153938E+00
   0.7627931189199783E+00
   0.7653518872788784E+00
   0.8319805114580925E+00
   0.9370815419648023E+00
   0.9356543606194013E+00
   0.9614102462075769E+00
   0.1446900248213035E+01
   0.1493663907186943E+01
   0.1644906123008240E+01
   0.1426459406018080E+01
   0.1010194654764039E+01
   0.9525885573295776E+00
   0.9453353558496723E+00
   0.9570918774924092E+00
   0.9405035872584446E+00
   0.1036252720357393E+01
   0.9262768511269019E+00
   0.9335712167552902E+00
   0.9553314163893751E+00
   0.9539181959780600E+00
   0.9363520426669890E+00
   0.9580441837380581E+00
   0.9388813221546911E+00
   0.9315310841002327E+00
   0.9462273693945357E+00
   0.8866204622816108E+00
   0.9438702702860204E+00
   0.9642819778035705E+00
   0.1007360356821173E+01
   0.1006143494284911E+01
   0.1004563411502610E+01
   0.1005766400926511E+01
   0.1004613844023929E+01
   0.1005277030880843E+01
   0.1003007858904038E+01
   0.1008120562590687E+01
   0.1023734381068391E+01
   0.1063100449644869E+01
   0.1019331506798053E+01
   0.1001833243559304E+01
   0.9660892255347189E+00
   0.1005400998159663E+01
   0.1000803382762793E+01
   0.1008792581865060E+01
   0.1007887268591438E+01
   0.1002506558660812E+01
   0.9976233308660831E+00
   0.1000595479911256E+01
   0.1001869209628551E+01
   0.9829482845608278E+00
   0.9842199946135255E+00
   0.9842401188018660E+00
   0.9804106766801663E+00
   0.9907751662334583E+00
   0.9935612395528756E+00
   0.1004738740928075E+01
   0.1004753230308524E+01
   0.1004862585565096E+01
   0.1004644006609652E+01
   0.1009703733991041E+01
   0.1004822795606956E+01
   0.9562084048650648E+00
   0.9260273054394057E+00
   0.1007887756649603E+01
   0.1004444074727937E+01
   0.9153029147294099E+00
   0.9098198000218654E+00
   0.8763404344030519E+00
   0.9758129900881813E+00
   0.9988241214050293E+00
   0.1006007606690210E+01
   0.1010869705747927E+01
   0.1010284058717827E+01
   0.1008961396494179E+01
   0.1005854784087392E+01
   0.9901460397758901E+00
   0.1003820690769573E+01
   0.9846744701150298E+00
   0.1002807069778570E+01
   0.1003886848059510E+01
   0.1003222594866325E+01
   0.1003439396279177E+01
   0.1003752733035125E+01
   0.1005307956334955E+01
   0.1003281714478640E+01
   0.1004431168776655E+01
   0.1005174243360780E+01
   0.1004083057791805E+01
   0.1004543411311139E+01
   0.1003228506750601E+01
   0.1004823605215569E+01
   0.1005925425922101E+01
   0.1004662971882708E+01
   0.1003931060241386E+01
   0.1003152765896765E+01
   0.1004443716308700E+01
   0.1004241330743289E+01
   0.1003545640300026E+01
   0.1005319460653249E+01
   0.1004827944551010E+01
   0.1004768227001401E+01
   0.1004576519082067E+01
   0.1065020374537024E+01
   0.1028630325131921E+01
   0.1009571065920498E+01
   0.1006516425705117E+01
   0.1163424271706621E+01
   0.1086000541625363E+01
   0.1007846147479914E+01
   0.1007321616940878E+01
   0.1006722083015680E+01
   0.1013029943474101E+01
   0.1019233663552724E+01
   0.1234840996837583E+01
   0.1032998186278475E+01
   0.1046487665114318E+01
   0.1201217685033646E+01
   0.1014468368213626E+01
   0.1031904705677704E+01
   0.1028504516254238E+01
   0.1014872091744376E+01
   0.1028859491566604E+01
   0.1002322899793687E+01
   0.9623148662745011E+00
   0.1006831220533227E+01
   0.1001562977062426E+01
   0.1010600100711416E+01
   0.1012254756461086E+01
   0.1001078333024078E+01
   0.9974435976484506E+00
   0.9979280781131571E+00
   0.1001172479473727E+01
   0.9839319620245107E+00
   0.9809353538988532E+00
   0.9654086842136262E+00
   0.9689207669806184E+00
   0.9914000087689671E+00
   0.9913568198538110E+00
   0.9924637597324283E+00
   0.1001957566762061E+01
   0.9994921373705654E+00
   0.9940739473580974E+00
   0.1006945246954069E+01
   0.1022310810173481E+01
   0.1000795585908501E+01
   0.1008915591003744E+01
   0.1004961747090424E+01
   0.1009082869716583E+01
   0.9968099258231119E+00
   0.1005574951271725E+01
   0.1003563480821569E+01
   0.9950236665329046E+00
   0.9828740262863784E+00
   0.9940411201808470E+00
   0.9970457163416165E+00
   0.9919328734881113E+00
   0.1001254172278196E+01
   0.1003190714893427E+01
   0.1002144643252749E+01
   0.9935975625577848E+00
   0.9936971284774337E+00
   0.1005130777534835E+01
   0.1019848409180812E+01
   0.1005414682799399E+01
   0.9817212226947604E+00
   0.1005166098914881E+01
   0.1012378266093461E+01
   0.9874660443414731E+00
   0.9550247401335533E+00
   0.9860950462280726E+00
   0.9867483666396915E+00
   0.9926536151811490E+00
   0.9932329828995989E+00
   0.9955419149579102E+00
   0.1037373469007075E+01
   0.1032653464725768E+01
   0.1001303264317192E+01
   0.1001999060389314E+01
   0.9898551580478610E+00
   0.9908225746478524E+00
   0.9647795646821379E+00
   0.9922284396135037E+00
   0.1005684137651667E+01
   0.1001678083532346E+01
   0.9910851341561735E+00
   0.9742316074626117E+00
   0.9425596105427062E+00
   0.9822244610499711E+00
   0.9791867084359367E+00
   0.9714211606779792E+00
   0.9721145923143208E+00
   0.9554880955966905E+00
   0.9504058275300833E+00
   0.9547192384769112E+00
   0.1002935141490716E+01
   0.1002577864646973E+01
   0.1000384864503862E+01
   0.1001016492041632E+01
   0.9618573535922822E+00
   0.9513111354481660E+00
   0.9605334654086183E+00
   0.1000956913760548E+01
   0.1000529650920499E+01
   0.1000897141158854E+01
   0.9809782820238283E+00
   0.9804973664801095E+00
   0.9641751161604740E+00
SCALARS u double 1
LOOKUP_TABLE default
   0.0000000000000000E+00
   0.0000000000000000E+00
   0.0000000000000000E+00
   0.0000000000000000E+00
   0.0000000000000000E+00
   0.0000000000000000E+00
   0.0000000000000000E+00
   0.0000000000000000E+00
   0.0000000000000000E+00
   0.0000000000000000E+00
   0.0000000000000000E+00
   0.0000000000000000E+00
   0.0000000000000000E+00
   0.0000000000000000E+00
   0.0000000000000000E+00
   0.0000000000000000E+00
   0.0000000000000000E+00
   0.0000000000000000E+00
   0.0000000000000000E+00
   0.0000000000000000E+00
   0.0000000000000000E+00
   0.0000000000000000E+00
   0.0000000000000000E+00
   0.0000000000000000E+00
   0.0000000000000000E+00
   0.0000000000000000E+00
   0.0000000000000000E+00
   0.0000000000000000E+00
   0.0000000000000000E+00
   0.0000000000000000E+00
   0.0000000000000000E+00
   0.0000000000000000E+00
   0.0000000000000000E+00
   0.4952165933777506E+00
   0.5334120113894509E+00
   0.5184094590759493E+00
   0.4933250711626579E+00
   0.4841849633578630E+00
   0.4837349950637409E+00
   0.4864491275491257E+00
   0.4963270754005102E+00
   0.4897274568509111E+00
   0.4721228301729588E+00
   0.4457498707178706E+00
   0.4838077853164083E+00
   0.5088582068940666E+00
   0.4418325799346426E+00
   0.4944157115364812E+00
   0.5227028618650515E+00
   0.4962293664047059E+00
   0.5224858990956546E+00
   0.5031273771998204E+00
   0.5637899857382053E+00
   0.5250832403569484E+00
   0.4979646719733205E+00
   0.5718289438239006E+00
   0.5685713690420593E+00
   0.3743951727587649E+00
   0.4011465115146053E+00
   0.5588032168527979E+00
   0.5562225233765162E+00
   0.4946213160548526E+00
   0.4954710548610195E+00
   0.4938204634328204E+00
   0.4919413312742834E+00
   0.5164427610278630E+00
   0.5361042117838070E+00
   0.4961282218901923E+00
   0.4527682515377338E+00
   0.5124492594042553E+00
   0.5107351552661404E+00
   0.4793106216023192E+00
   0.4944001334734924E+00
   0.4612387237787078E+00
   0.5255628232489139E+00
   0.5301258164444200E+00
   0.5123394377556885E+00
   0.5330691532153488E+00
   0.5310183159201803E+00
   0.5300887524569244E+00
   0.5056214423723127E+00
   0.5282701906803819E+00
   0.5402398001165728E+00
   0.5370520919938901E+00
   0.5378029483743509E+00
   0.4974855933837324E+00
   0.4981113787769423E+00
   0.4967791936927233E+00
   0.4957217206187747E+00
   0.4878214072269323E+00
   0.4875638661155285E+00
   0.4856397309559642E+00
   0.4864348882575769E+00
   0.4916527556357311E+00
   0.4891972445033711E+00
   0.4852673856689191E+00
   0.4884794573240784E+00
   0.4891680296247304E+00
   0.4864606902898683E+00
   0.4864740154081800E+00
   0.4945548298643862E+00
   0.4872414488400053E+00
   0.4875243061087484E+00
   0.4930303161266670E+00
   0.4847382615459843E+00
   0.4867608441527769E+00
   0.4860643531911953E+00
   0.4863533548477392E+00
   0.4455051309673087E+00
   0.4698425069483517E+00
   0.4891213544722040E+00
   0.4880913897537411E+00
   0.4512222744808328E+00
   0.4670109547840903E+00
   0.4875157504332033E+00
   0.4867654140567947E+00
   0.4910252417295415E+00
   0.4794583390834670E+00
   0.4667732189121693E+00
   0.3795688294690017E+00
   0.4898600359383884E+00
   0.4494663872299926E+00
   0.4437390673130480E+00
   0.4845559094640048E+00
   0.4634694349112743E+00
   0.4668526844602853E+00
   0.4747719690962549E+00
   0.4892771839418875E+00
   0.5085848706882824E+00
   0.4329909712865305E+00
   0.4926201861857776E+00
   0.5331487205225024E+00
   0.4918699930061137E+00
   0.5209482670752407E+00
   0.5064843993247038E+00
   0.5670736054177520E+00
   0.5282726012557950E+00
   0.5013454001429343E+00
   0.5802138023523521E+00
   0.5679473967711658E+00
   0.3410568600737849E+00
   0.3795470274553293E+00
   0.5738454429434378E+00
   0.5665498273843476E+00
   0.5692131098750460E+00
   0.5290699589467248E+00
   0.5445795044598986E+00
   0.5714623767576770E+00
   0.5384717714861400E+00
   0.5475121201036638E+00
   0.5819359697263506E+00
   0.4926883506186367E+00
   0.5037396808556714E+00
   0.4963200800930949E+00
   0.5558035163532111E+00
   0.4758202539289718E+00
   0.4944304292003218E+00
   0.5489959556572416E+00
   0.5871724298575473E+00
   0.5824855262361986E+00
   0.5458107267114457E+00
   0.5778161258850872E+00
   0.5101211443117050E+00
   0.5023828085050268E+00
   0.5027638582457374E+00
   0.5661936134277703E+00
   0.5559508658590908E+00
   0.4944630140968808E+00
   0.5502632776635561E+00
   0.5510511311561929E+00
   0.5652349274658771E+00
   0.4913383675733508E+00
   0.4931359521620283E+00
   0.3887995293817161E+00
   0.3712650573006865E+00
   0.5569118741168837E+00
   0.5751809063856835E+00
   0.4190417692379083E+00
   0.5812983803726077E+00
   0.4284874307164495E+00
   0.5395051701781913E+00
   0.5022143567428980E+00
   0.5109698297242943E+00
   0.5041437467841872E+00
   0.5729511440529156E+00
   0.5855262900106079E+00
   0.5379225149722604E+00
   0.5659510765030348E+00
   0.5353075680745822E+00
   0.5338073736370299E+00
   0.5574267923634605E+00
   0.5503759661913404E+00
   0.4273781123683152E+00
   0.5263118580513662E+00
   0.5780885407289615E+00
   0.3348534285819324E+00
   0.4757121496265462E+00
   0.5450328711486939E+00
   0.4814966065113206E+00
   0.3029311270169448E+00
   0.5042510895427686E+00
   0.5010525352821873E+00
   0.5127760196255985E+00
   0.5401955497326276E+00
   0.3460279988767037E+00
   0.3438018692534461E+00
   0.3212263338706332E+00
   0.5064027233468088E+00
   0.5130715863849378E+00
   0.5327365640929131E+00
   0.5868434266128979E+00
   0.4641954235702286E+00
   0.3571076766101647E+00
SCALARS v double 1
LOOKUP_TABLE default
   0.0000000000000000E+00
   0.0000000000000000E+00
   0.0000000000000000E+00
   0.0000000000000000E+00
   0.0000000000000000E+00
   0.0000000000000000E+00
   0.0000000000000000E+00
   0.0000000000000000E+00
   0.0000000000000000E+00
   0.0000000000000000E+00
   0.0000000000000000E+00
   0.0000000000000000E+00
   0.0000000000000000E+00
   0.0000000000000000E+00
   0.0000000000000000E+00
   0.0000000000000000E+00
   0.0000000000000000E+00
   0.0000000000000000E+00
   0.0000000000000000E+00
   0.0000000000000000E+00
   0.0000000000000000E+00
   0.0000000000000000E+00
   0.0000000000000000E+00
   0.0000000000000000E+00
   0.0000000000000000E+00
   0.0000000000000000E+00
   0.0000000000000000E+00
   0.0000000000000000E+00
   0.0000000000000000E+00
   0.0000000000000000E+00
   0.0000000000000000E+00
   0.0000000000000000E+00
   0.0000000000000000E+00
   0.0000000000000000E+00
   0.0000000000000000E+00
   0.0000000000000000E+00
   0.0000000000000000E+00
   0.0000000000000000E+00
   0.0000000000000000E+00
   0.0000000000000000E+00
   0.0000000000000000E+00
   0.0000000000000000E+00
   0.0000000000000000E+00
   0.0000000000000000E+00
   0.0000000000000000E+00
   0.0000000000000000E+00
   0.0000000000000000E+00
   0.0000000000000000E+00
   0.0000000000000000E+00
   0.0000000000000000E+00
   0.0000000000000000E+00
   0.0000000000000000E+00
   0.0000000000000000E+00
   0.0000000000000000E+00
   0.0000000000000000E+00
   0.0000000000000000E+00
   0.0000000000000000E+00
   0.0000000000000000E+00
   0.0000000000000000E+00
   0.0000000000000000E+00
   0.0000000000000000E+00
   0.1162594338029610E-02
   0.2003005181803706E-03
  -0.1953712922852235E-03
   0.0000000000000000E+00
   0.0000000000000000E+00
   0.0000000000000000E+00
   0.0000000000000000E+00
  -0.1831490461365224E-01
   0.5854648565824651E-03
   0.1912192612692973E-02
   0.1413616477172243E-01
  -0.6686960178800016E-02
  -0.6663418912944695E-02
  -0.1269896359638673E-01
   0.4492443019768461E-02
   0.9925054241112093E-03
   0.3055239403457094E-02
   0.1758065052653934E-02
   0.2500011292017898E-02
   0.1886925517555930E-02
  -0.7175713902453707E-02
  -0.7572988599159769E-03
   0.4003252640283664E-02
  -0.9991884056631335E-03
  -0.4394370257174406E-03
  -0.4242635763916647E-03
   0.8232778070576207E-03
   0.0000000000000000E+00
   0.0000000000000000E+00
   0.0000000000000000E+00
   0.0000000000000000E+00
   0.8172957608383163E-03
   0.1464143726475585E-02
  -0.1397605201606888E-02
  -0.1732357007981698E-03
  -0.6800288819613684E-03
   0.1766174696201765E-03
   0.2497829744809267E-03
  -0.7368718217218981E-04
  -0.1803395206615831E-03
  -0.5268305001134827E-03
   0.8449486369315197E-03
  -0.1981973476312340E-02
   0.6946309192553087E-03
   0.3122055171924630E-03
  -0.3375778760842578E-03
  -0.3645605961745691E-03
   0.0000000000000000E+00
   0.0000000000000000E+00
   0.0000000000000000E+00
  -0.7945395302017843E-03
  -0.8000882774506765E-02
   0.1715948017133510E-01
  -0.2240581402676695E-03
  -0.1376651464552680E-02
  -0.2118332771289614E-02
  -0.5169481247984767E-02
  -0.1896515477084917E-02
  -0.6931464020832032E-02
  -0.4248048442890216E-02
   0.1594249700948829E-02
   0.3250950788441959E-01
   0.4871833810399058E-04
  -0.2139648854542433E-02
   0.4178498941043212E-02
   0.4375174133233145E-03
   0.0000000000000000E+00
   0.0000000000000000E+00
   0.0000000000000000E+00
   0.0000000000000000E+00
   0.0000000000000000E+00
   0.0000000000000000E+00
   0.0000000000000000E+00
   0.0000000000000000E+00
   0.0000000000000000E+00
   0.0000000000000000E+00
   0.0000000000000000E+00
   0.0000000000000000E+00
   0.0000000000000000E+00
   0.0000000000000000E+00
   0.0000000000000000E+00
   0.0000000000000000E+00
   0.0000000000000000E+00
   0.4598025712048654E-02
   0.3356346336736542E-02
   0.8095281094840461E-02
   0.5690442308163152E-02
   0.1127254104115132E-01
   0.1355679877333037E-01
  -0.1253124734354454E-02
   0.5526033916415015E-02
   0.3099581597348845E-02
   0.3708906707372148E-02
   0.3531932644043567E-02
  -0.1543021222641525E-01
  -0.5901832312618936E-03
   0.6594199741487087E-02
   0.1182155413294810E-02
   0.2047216211820351E-02
   0.4151809260310960E-02
  -0.2922398038619177E-02
   0.1630023231156993E-02
   0.3182716141767536E-02
   0.1885946300452530E-02
   0.2066858009455285E-02
   0.1953831606226682E-02
   0.2388567985968037E-02
   0.8731716367474216E-02
  -0.3693332563551685E-02
   0.6098937890296255E-02
   0.1189517214846029E-04
  -0.5517423089709915E-03
  -0.1692342939926375E-01
  -0.5343190457141285E-02
  -0.5480631615714024E-02
   0.3348294889755219E-02
  -0.6398554881311021E-02
  -0.3081826960671263E-03
  -0.3416526077213967E-01
  -0.2942053803735908E-02
   0.4678624278290548E-02
   0.1229588813408594E-02
   0.2436099489478884E-02
   0.3898787232812487E-02
   0.2528129470869815E-02
   0.2863878617613568E-02
   0.4710929919900362E-02
   0.1900902099807387E-02
   0.7150416946254951E-03
   0.1062534140672184E-03
  -0.4936069363631529E-02
  -0.6081774622693884E-02
  -0.7313663272899467E-03
   0.7647024318912975E-03
  -0.1640133620329677E-02
  -0.3318279715747663E-02
  -0.2621427508639375E-02
  -0.4584377237215778E-02
  -0.7794662941154613E-02
  -0.2003443882477027E-02
   0.8042939952207360E-03
   0.1304425881707065E-03
   0.8345960147310411E-03
  -0.3038767906283638E-02
   0.5390626621586995E-02
  -0.8739638678752831E-02
   0.1982319535804092E-03
  -0.2607200881982232E-03
   0.2407230365160279E-02
   0.1729035208008692E-02
   0.2228828304106798E-02
  -0.5447226339693947E-02
SCALARS w double 1
LOOKUP_TABLE default
   0.0000000000000000E+00
   0.0000000000000000E+00
   0.0000000000000000E+00
   0.0000000000000000E+00
   0.0000000000000000E+00
   0.0000000000000000E+00
   0.0000000000000000E+00
   0.0000000000000000E+00
   0.0000000000000000E+00
   0.0000000000000000E+00
   0.0000000000000000E+00
   0.0000000000000000E+00
   0.0000000000000000E+00
   0.0000000000000000E+00
   0.0000000000000000E+00
   0.0000000000000000E+00
   0.0000000000000000E+00
   0.0000000000000000E+00
   0.0000000000000000E+00
   0.0000000000000000E+00
   0.0000000000000000E+00
   0.0000000000000000E+00
   0.0000000000000000E+00
   0.0000000000000000E+00
   0.0000000000000000E+00
   0.0000000000000000E+00
   0.0000000000000000E+00
   0.0000000000000000E+00
   0.0000000000000000E+00
   0.0000000000000000E+00
   0.0000000000000000E+00
   0.0000000000000000E+00
   0.0000000000000000E+00
  -0.9788258587550222E-01
  -0.4149734731174547E-01
  -0.1878878688057724E-03
   0.4854609306272384E-02
   0.2388850988337980E-02
   0.2103598655324179E-02
   0.3718300494971548E-02
   0.4497021588561007E-02
   0.8887294992976855E-03
   0.3716598208368515E-02
   0.4566193619849630E-01
   0.6495371930941204E-01
   0.1484854768073786E-02
  -0.2250031474594210E-01
   0.4344349451856686E-02
   0.1292124613944558E-01
   0.1005258080414333E-01
   0.4807854765684389E-01
   0.2013829902951088E-02
  -0.5928508614177740E-02
  -0.3451621963020423E-03
   0.7175312230870165E-03
   0.3705713929625412E-02
  -0.3767203757182909E-01
   0.1792743850469348E-01
   0.1085012132609085E-01
   0.3301560115894714E-01
   0.8283240421573091E-02
   0.4439093912604256E-02
   0.4848260151698806E-02
   0.4652029281554594E-02
   0.5268609407490695E-02
   0.1446208794493346E-02
  -0.4055201921304645E-01
  -0.9670861584884280E-01
  -0.1095243651283919E+00
   0.3909492071093298E-02
   0.2989841026096486E-02
  -0.9719870168073512E-01
  -0.9618005160611300E-01
  -0.9576984023789446E-01
  -0.9204983387578181E-01
  -0.6622875743814108E-01
   0.4317358779945791E-02
  -0.1967399484615688E-01
  -0.1631152793895101E-01
  -0.7233430498949956E-02
   0.5590436758312426E-02
  -0.7786250998797657E-01
  -0.2801352933441833E-01
  -0.7850329991076657E-01
  -0.5785947227466600E-01
   0.4474183442369628E-02
   0.3189915903527730E-02
   0.3193435001563381E-02
   0.4465519159902445E-02
   0.3722871833040211E-02
   0.9363627970671068E-03
   0.8804258941346917E-03
   0.3623055156241592E-02
   0.5436658518022523E-02
   0.4224411082712443E-02
   0.1348359745641125E-02
   0.3138797390510830E-02
   0.4146014606410797E-02
   0.1498968789774691E-02
   0.4149079500771822E-03
   0.5484854534911432E-02
   0.2840095346976912E-02
   0.2574736036152889E-02
   0.5868982256768063E-02
   0.1833607010271071E-02
   0.2344224719203052E-02
   0.2061748827713005E-02
   0.1021573698619868E-02
   0.8451475293447747E-01
   0.2731389631590392E-02
  -0.8696210086702704E-03
   0.3165357881772660E-03
   0.1408440435194676E+00
   0.1225549864766890E+00
  -0.1109087852999671E-02
  -0.4224611379931827E-02
   0.2166544281915583E-03
  -0.6045321894212074E-02
  -0.1338103775741209E-02
   0.1564229868948815E+00
   0.7570486849867168E-01
   0.2597140553898425E-01
   0.1660358673382169E+00