title="tecplot geometry and solution file"
variables = x y z rho u v w p mach temperature
zone t="boundary 1 bc-1", solutiontime= 0.9000000E+02, strandid=1001, i=32, j=46, f=feblock
 -0.547418544169E-02  0.000000000000E+00 -0.567506031243E-02  0.000000000000E+00  0.000000000000E+00  0.000000000000E+00 -0.525109244851E-02
 -0.425676897977E-02  0.000000000000E+00  0.000000000000E+00  0.000000000000E+00  0.000000000000E+00  0.000000000000E+00  0.000000000000E+00
  0.000000000000E+00  0.000000000000E+00 -0.338345986572E-02  0.000000000000E+00  0.000000000000E+00  0.000000000000E+00  0.000000000000E+00
  0.000000000000E+00  0.000000000000E+00  0.000000000000E+00  0.000000000000E+00  0.000000000000E+00  0.000000000000E+00  0.000000000000E+00
  0.000000000000E+00  0.000000000000E+00  0.000000000000E+00  0.000000000000E+00
  0.250494209238E+01  0.250494209238E+01  0.127822206907E+01  0.146289271009E+01  0.157686156160E+01  0.308372018325E+00  0.261958602442E-01
 -0.122573431164E+01 -0.600232012419E+00  0.250494209238E+01  0.477386199275E+00  0.742988685424E+00 -0.739814786992E+00  0.177790177481E+01
  0.155830813274E+01  0.250494209238E+01 -0.249658891543E+01 -0.154800130438E+01 -0.487811078581E+00  0.250494209238E+01  0.627766083140E+00
 -0.345533899378E+00 -0.178862290564E+01 -0.158811787973E+01  0.125000000000E+01 -0.249658891543E+01 -0.144524380962E+01  0.000000000000E+00
 -0.125000000000E+01 -0.249658891543E+01 -0.249658891543E+01 -0.249658891543E+01
  0.808813859867E-04  0.125000000000E+01  0.832460170215E-04  0.103724302461E+01  0.219251206392E+01  0.922061490191E+00  0.104372438719E-03
  0.351545874230E-04  0.715990576545E+00  0.250000000000E+01  0.202479342020E+01  0.324151231464E+01  0.175434191980E+01  0.310152362409E+01
  0.404200324774E+01  0.375000000000E+01  0.815725962649E-04  0.930412228790E+00  0.299062775774E+01  0.500000000000E+01  0.429310310915E+01
  0.409252726285E+01  0.187029682677E+01  0.284428995242E+01  0.500000000000E+01  0.125000000000E+01  0.394624082883E+01  0.500000000000E+01
  0.500000000000E+01  0.250000000000E+01  0.375000000000E+01  0.500000000000E+01
  0.134610819740E+01  0.106375546507E+01  0.142661120003E+01  0.108602668442E+01  0.103229750274E+01  0.120170180394E+01  0.164672933574E+01
  0.149541996219E+01  0.123512306368E+01  0.102386944171E+01  0.102822218662E+01  0.101305388081E+01  0.103253557081E+01  0.101467213579E+01
  0.100662698371E+01  0.100826832568E+01  0.144847524735E+01  0.116396750052E+01  0.101464051950E+01  0.100424995990E+01  0.100679645280E+01
  0.100725182224E+01  0.104656549009E+01  0.101934079531E+01  0.100423992027E+01  0.106448525121E+01  0.100790708377E+01  0.100288596761E+01
  0.100335006130E+01  0.102844206416E+01  0.100960587034E+01  0.100399794218E+01
  0.000000000000E+00  0.444887276542E+00  0.000000000000E+00  0.468180326792E+00  0.462186778208E+00  0.443238684491E+00  0.000000000000E+00
  0.000000000000E+00  0.379439141066E+00  0.471807259536E+00  0.466360634895E+00  0.479394560295E+00  0.490363694183E+00  0.484571644120E+00
  0.488597472202E+00  0.489900746182E+00  0.000000000000E+00  0.451029496871E+00  0.474778705266E+00  0.495800903212E+00  0.490926846636E+00
  0.486826283102E+00  0.448796902121E+00  0.465790673806E+00  0.496535898597E+00  0.444910673537E+00  0.487666696181E+00  0.497536486276E+00
  0.496381521757E+00  0.470013285732E+00  0.489177495046E+00  0.495515502897E+00
  0.000000000000E+00  0.000000000000E+00  0.000000000000E+00  0.182111496356E-01 -0.276668109382E-02  0.330008309344E-01  0.000000000000E+00
  0.000000000000E+00 -0.635885879172E-02  0.000000000000E+00  0.362940198027E-02 -0.561333154199E-02 -0.432752954537E-02  0.439705928889E-04
 -0.103547359034E-02  0.000000000000E+00  0.000000000000E+00 -0.779171568014E-02  0.391746939960E-03  0.000000000000E+00 -0.202831412110E-02
 -0.137699771603E-02  0.151652803537E-02 -0.162047878442E-02 -0.665395346016E-04  0.000000000000E+00 -0.290738036136E-04 -0.202432764083E-03
  0.805361647598E-03  0.000000000000E+00  0.000000000000E+00  0.000000000000E+00
  0.000000000000E+00  0.453283750259E-01  0.000000000000E+00  0.123658709287E+00  0.245692420367E-01  0.166125780181E+00  0.000000000000E+00
  0.000000000000E+00  0.155959899156E+00  0.352702403971E-02  0.259078413952E-01 -0.647805119165E-02  0.752820694153E-01  0.371569955313E-02
 -0.127527743911E-03  0.471454401216E-03  0.000000000000E+00  0.141096904398E+00 -0.806996041595E-02  0.236433425993E-02 -0.280386287560E-03
 -0.438302447523E-02  0.256769828105E-01 -0.189364234527E-02  0.307401283649E-02  0.838612046586E-01 -0.122860122988E-02  0.268490810702E-02
  0.264424716841E-02  0.283393333959E-02 -0.846587424457E-03  0.345684888520E-02
  0.961496530632E+00  0.782491141062E+00  0.101899859044E+01  0.808635934659E+00  0.746113335061E+00  0.879959803323E+00  0.117622515033E+01
  0.106814875688E+01  0.916484171859E+00  0.737375272307E+00  0.743650979461E+00  0.725792792670E+00  0.757479364532E+00  0.729144502382E+00
  0.720777568075E+00  0.722747147603E+00  0.103461765066E+01  0.858092899522E+00  0.728072574531E+00  0.718602762536E+00  0.721012354598E+00
  0.721154298788E+00  0.759934148723E+00  0.732618494605E+00  0.718521954172E+00  0.790948766001E+00  0.722118114684E+00  0.717197478127E+00
  0.717641995201E+00  0.741773502083E+00  0.724071785968E+00  0.718406368453E+00
  0.000000000000E+00  0.440666205850E+00  0.000000000000E+00  0.474617229581E+00  0.460123119142E+00  0.468636760535E+00  0.000000000000E+00
  0.000000000000E+00  0.402549858409E+00  0.469884091485E+00  0.464193447357E+00  0.478749620673E+00  0.489549423822E+00  0.483128672468E+00
  0.488002268589E+00  0.489034111167E+00  0.000000000000E+00  0.465240578986E+00  0.473760505261E+00  0.495364299452E+00  0.490293377587E+00
  0.486277606030E+00  0.445854505849E+00  0.464358876464E+00  0.496127934523E+00  0.443900339489E+00  0.486930062065E+00  0.497248723375E+00
  0.496055923702E+00  0.467744046606E+00  0.488189261628E+00  0.495091102143E+00
  0.999990302029E+00  0.102983028850E+01  0.999990765945E+00  0.104241481795E+01  0.101187755111E+01  0.102516591106E+01  0.999991422219E+00
  0.999992174401E+00  0.103882591001E+01  0.100825880642E+01  0.101253540800E+01  0.100301664994E+01  0.102705528054E+01  0.100604152546E+01
  0.100244540593E+01  0.100354834211E+01  0.999992725853E+00  0.103209931445E+01  0.100459382880E+01  0.100178631588E+01  0.100260315144E+01
  0.100234717477E+01  0.101657069556E+01  0.100620508585E+01  0.100168367691E+01  0.104024764190E+01  0.100303428444E+01  0.100118707591E+01
  0.100134422873E+01  0.100976315449E+01  0.100405567175E+01  0.100176392160E+01
        12        19        11        11
        11         5        12        12
        10        14         5         5
        19        13        11        11
        19        24        13        13
        30        23        24        24
        19        12        22        22
        28        22        21        21
        11        13         6         6
         7         6         9         9
        15        12        14        14
        18        13        23        23
        15        25        21        21
        27        19        22        22
        18         8         9         9
        27        31        24        24
         4        11         6         6
         5        14        12        12
         4         2         5         5
        21        12        15        15
        14        16        15        15
        24        19        27        27
        22        29        27        27
        23        26        18        18
        17         8        18        18
         5        11         4         4
         6         3         4         4
        26        23        30        30
         5         2        10        10
        16        14        10        10
         3         6         7         7
        21        25        28        28
        29        22        28        28
         6        13         9         9
         2         4         1         1
        31        27        32        32
        25        15        20        20
        24        23        13        13
         8         7         9         9
        13        18         9         9
        31        30        24        24
        12        21        22        22
        29        32        27        27
         3         1         4         4
        26        17        18        18
        16        20        15        15
zone t="boundary 2 bc-2", solutiontime= 0.9000000E+02, strandid=1002, i=33, j=48, f=feblock
  0.500195303374E+01  0.375034911161E+01  0.249861196299E+01  0.288036734566E+01  0.124717626933E+01  0.190856777273E+01  0.326577224970E+01
  0.201394897544E+01 -0.338345986572E-02  0.962374694294E+00  0.500000000000E+01  0.403430242577E+01  0.423029585928E+01  0.500000000000E+01
  0.385439203550E+01  0.500000000000E+01  0.398133439140E+01  0.315200091163E+01  0.266958047473E+01  0.154798040522E+01  0.218327864976E+01
  0.893688570225E+00  0.000000000000E+00  0.699009793161E+00  0.964460908962E+00  0.310303675831E+01  0.000000000000E+00  0.000000000000E+00
  0.125000000000E+01  0.500000000000E+01  0.375000000000E+01  0.250000000000E+01  0.000000000000E+00
 -0.249658891543E+01 -0.249658891543E+01 -0.249658891543E+01 -0.249658891543E+01 -0.249658891543E+01 -0.249658891543E+01 -0.249658891543E+01
 -0.249658891543E+01 -0.249658891543E+01 -0.249658891543E+01 -0.249658891543E+01 -0.249658891543E+01 -0.249658891543E+01 -0.249658891543E+01
 -0.249658891543E+01 -0.249658891543E+01 -0.249658891543E+01 -0.249658891543E+01 -0.249658891543E+01 -0.249658891543E+01 -0.249658891543E+01
 -0.249658891543E+01 -0.249658891543E+01 -0.249658891543E+01 -0.249658891543E+01 -0.249658891543E+01 -0.249658891543E+01 -0.249658891543E+01
 -0.249658891543E+01 -0.249658891543E+01 -0.249658891543E+01 -0.249658891543E+01 -0.249658891543E+01
  0.108725889030E-03  0.146875369682E-03  0.101393326425E-03  0.901663864714E+00  0.111858761917E-03  0.714929129060E+00  0.188140690284E+01
  0.175892220389E+01  0.815725962649E-04  0.957504929232E+00  0.125000000000E+01  0.100596749761E+01  0.191313550013E+01  0.250000000000E+01
  0.292898123437E+01  0.375000000000E+01  0.406883381007E+01  0.363389311275E+01  0.284756896448E+01  0.292582334204E+01  0.395754070352E+01
  0.205027286588E+01  0.125000000000E+01  0.306703285013E+01  0.397155774618E+01  0.433068632667E+01  0.250000000000E+01  0.375000000000E+01
  0.500000000000E+01  0.500000000000E+01  0.500000000000E+01  0.500000000000E+01  0.500000000000E+01
  0.831048846680E+00  0.935354854505E+00  0.934389652775E+00  0.968094394899E+00  0.961616784040E+00  0.964874005411E+00  0.984210058791E+00
  0.991408408971E+00  0.144847524735E+01  0.102898692614E+01  0.956112527508E+00  0.960814738746E+00  0.981522828960E+00  0.100650795159E+01
  0.997935779512E+00  0.100981608933E+01  0.100200366512E+01  0.998069047007E+00  0.991091302333E+00  0.100132489266E+01  0.100093956509E+01
  0.101223133191E+01  0.106448525121E+01  0.101079826013E+01  0.100685806845E+01  0.100119203660E+01  0.102844206416E+01  0.100960587034E+01
  0.100511533969E+01  0.100179357779E+01  0.100266911977E+01  0.100322320396E+01  0.100399794218E+01
  0.000000000000E+00  0.000000000000E+00  0.000000000000E+00  0.378615132673E+00  0.000000000000E+00  0.340330137838E+00  0.582178280746E+00
  0.575334703823E+00  0.000000000000E+00  0.489381163351E+00  0.495137405894E+00  0.430537300037E+00  0.569176944639E+00  0.536367078573E+00
  0.569065110558E+00  0.516259717668E+00  0.508563867357E+00  0.527499055642E+00  0.566854336354E+00  0.532032720623E+00  0.506130938105E+00
  0.520947366748E+00  0.444910673537E+00  0.491385541507E+00  0.492729808521E+00  0.501502416257E+00  0.470013285732E+00  0.489177495046E+00
  0.490417264419E+00  0.491396775998E+00  0.486161136780E+00  0.490250032430E+00  0.495515502897E+00
  0.000000000000E+00  0.000000000000E+00  0.000000000000E+00  0.000000000000E+00  0.000000000000E+00  0.000000000000E+00  0.000000000000E+00
  0.000000000000E+00  0.000000000000E+00  0.000000000000E+00  0.000000000000E+00  0.000000000000E+00  0.000000000000E+00  0.000000000000E+00
  0.000000000000E+00  0.000000000000E+00  0.000000000000E+00  0.000000000000E+00  0.000000000000E+00  0.000000000000E+00  0.000000000000E+00
  0.000000000000E+00  0.000000000000E+00  0.000000000000E+00  0.000000000000E+00  0.000000000000E+00  0.000000000000E+00  0.000000000000E+00
  0.000000000000E+00  0.000000000000E+00  0.000000000000E+00  0.000000000000E+00  0.000000000000E+00
  0.000000000000E+00  0.000000000000E+00  0.000000000000E+00 -0.232908191817E-02  0.000000000000E+00  0.182353254659E-01  0.121235920558E-01
  0.453891554051E-01  0.000000000000E+00  0.867493379487E-01 -0.992592958005E-01 -0.210121648021E-01 -0.304697501464E-01 -0.412644635819E-01
 -0.132005925232E-02  0.269955782541E-02  0.637117219554E-03  0.535247372021E-03  0.151134077984E-01  0.283971481763E-01  0.565019579203E-02
  0.553958434323E-01  0.838612046586E-01  0.110560463870E-01  0.679114898789E-02 -0.740739048732E-03  0.283393333959E-02 -0.846587424457E-03
  0.399773579040E-02  0.605665216254E-02 -0.135627040762E-03  0.119915116467E-02  0.345684888520E-02
  0.593602454769E+00  0.668106397440E+00  0.667416872956E+00  0.684291404784E+00  0.686864421175E+00  0.679258544218E+00  0.695864179620E+00
  0.702291788341E+00  0.103461765066E+01  0.723389852974E+00  0.672789488314E+00  0.675870577835E+00  0.694123983197E+00  0.721038066201E+00
  0.712711424977E+00  0.724812421552E+00  0.716595366271E+00  0.713312878729E+00  0.706427909383E+00  0.717741407710E+00  0.715380851744E+00
  0.730906765592E+00  0.790948766001E+00  0.724365790265E+00  0.721017445339E+00  0.715471807347E+00  0.741773502083E+00  0.724071785968E+00
  0.719322135967E+00  0.715894732537E+00  0.716614380522E+00  0.717376649646E+00  0.718406368453E+00
  0.000000000000E+00  0.000000000000E+00  0.000000000000E+00  0.380610248105E+00  0.000000000000E+00  0.343302263155E+00  0.585285531529E+00
  0.579523928864E+00  0.000000000000E+00  0.500979793906E+00  0.508782820290E+00  0.434361602473E+00  0.572843996995E+00  0.537166661058E+00
  0.569106501444E+00  0.515013351852E+00  0.508252450512E+00  0.527349031986E+00  0.567655263404E+00  0.531857851830E+00  0.506012446928E+00
  0.521051128391E+00  0.443900339489E+00  0.490706186487E+00  0.492149791591E+00  0.501385668851E+00  0.467744046606E+00  0.488189261628E+00
  0.489962000947E+00  0.491321544616E+00  0.486017937671E+00  0.489981946303E+00  0.495091102143E+00
  0.999993490151E+00  0.999993694276E+00  0.999993545909E+00  0.989581152154E+00  0.999993142387E+00  0.985581492062E+00  0.989839356718E+00
  0.991729033950E+00  0.999992725853E+00  0.984216386463E+00  0.985140615293E+00  0.984808799045E+00  0.990067217800E+00  0.100292629689E+01
  0.999859926313E+00  0.100487346250E+01  0.100122738839E+01  0.100057008402E+01  0.997888964224E+00  0.100350842985E+01  0.100059307012E+01
  0.101090476017E+01  0.104024764190E+01  0.100327844474E+01  0.100254887467E+01  0.100046793589E+01  0.100976315449E+01  0.100405567175E+01
  0.100192579955E+01  0.100045822590E+01  0.100058943968E+01  0.100110055822E+01  0.100176392160E+01
        15         7        19        19
         8        20        19        19
        18        19        21        21
         7         4         8         8
         3         6         4         4
        19         7         8         8
        19        18        15        15
        14        13        15        15
         8        22        20        20
        27        24        22        22
        19        20        21        21
        32        26        21        21
        17        18        26        26
        17        16        15        15
        25        29        21        21
        12         7        13        13
        10         8         6         6
        25        20        24        24
         4         6         8         8
        12         2         4         4
        10        23        22        22
        26        31        17        17
        30        16        17        17
         4         7        12        12
        13        11        12        12
        21        20        25        25
        24        28        25        25
        22         8        10        10
         6         5        10        10
        31        26        32        32
         4         2         3         3
         5         6         3         3
        11        13        14        14
        22        23        27        27
        28        24        27        27
        15        13         7         7
         2        12         1         1
        29        25        33        33
        23        10         9         9
        21        26        18        18
        16        14        15        15
        18        17        15        15
        29        32        21        21
        22        24        20        20
        28        33        25        25
        11         1        12        12
        31        30        17        17
         5         9        10        10
zone t="boundary 3 bc-3", solutiontime= 0.9000000E+02, strandid=1003, i=33, j=48, f=feblock
  0.375059196892E+01  0.249769659313E+01  0.500322183174E+01  0.403612272037E+01  0.287976833436E+01  0.124542010518E+01  0.190552303132E+01
  0.500000000000E+01  0.326671140571E+01  0.423253781253E+01  0.201271172665E+01 -0.547418544169E-02  0.958896052319E+00  0.500000000000E+01
  0.266968165797E+01  0.385584505120E+01  0.890374291961E+00  0.154654021702E+01  0.000000000000E+00  0.500000000000E+01  0.315261147897E+01
  0.218304203297E+01  0.398195315265E+01  0.000000000000E+00  0.697379955606E+00  0.963757267984E+00  0.125000000000E+01  0.000000000000E+00
  0.500000000000E+01  0.310330743709E+01  0.250000000000E+01  0.375000000000E+01  0.000000000000E+00
  0.250494209238E+01  0.250494209238E+01  0.250494209238E+01  0.250494209238E+01  0.250494209238E+01  0.250494209238E+01  0.250494209238E+01
  0.250494209238E+01  0.250494209238E+01  0.250494209238E+01  0.250494209238E+01  0.250494209238E+01  0.250494209238E+01  0.250494209238E+01
  0.250494209238E+01  0.250494209238E+01  0.250494209238E+01  0.250494209238E+01  0.250494209238E+01  0.250494209238E+01  0.250494209238E+01
  0.250494209238E+01  0.250494209238E+01  0.250494209238E+01  0.250494209238E+01  0.250494209238E+01  0.250494209238E+01  0.250494209238E+01
  0.250494209238E+01  0.250494209238E+01  0.250494209238E+01  0.250494209238E+01  0.250494209238E+01
  0.136649900494E-03  0.110629816467E-03  0.971887303890E-04  0.101756833402E+01  0.908095407253E+00  0.104942505801E-03  0.722629980944E+00
  0.125000000000E+01  0.188965725284E+01  0.191862737888E+01  0.176708309701E+01  0.808813859867E-04  0.969653377290E+00  0.250000000000E+01
  0.285339481706E+01  0.293325094397E+01  0.205656266765E+01  0.293157056900E+01  0.125000000000E+01  0.375000000000E+01  0.363766868440E+01
  0.396069467580E+01  0.407056400638E+01  0.250000000000E+01  0.307032016246E+01  0.397359833374E+01  0.500000000000E+01  0.375000000000E+01
  0.500000000000E+01  0.433260796524E+01  0.500000000000E+01  0.500000000000E+01  0.500000000000E+01
  0.942172466186E+00  0.946117131236E+00  0.843607659270E+00  0.964577372487E+00  0.979032687341E+00  0.957204020770E+00  0.983413556949E+00
  0.963701338410E+00  0.982803921277E+00  0.984389963946E+00  0.990475725239E+00  0.134610819740E+01  0.101939409142E+01  0.100835627041E+01
  0.993519344271E+00  0.998019550660E+00  0.100803795045E+01  0.100074573579E+01  0.106375546507E+01  0.100671243101E+01  0.100059276609E+01
  0.100235385742E+01  0.100177790949E+01  0.102386944171E+01  0.100869654578E+01  0.100526332390E+01  0.100520805948E+01  0.100826832568E+01
  0.100195892877E+01  0.100162063738E+01  0.100412010963E+01  0.100321751729E+01  0.100424995990E+01
  0.000000000000E+00  0.000000000000E+00  0.000000000000E+00  0.440186037062E+00  0.400363957882E+00  0.000000000000E+00  0.375219331913E+00
  0.494597341837E+00  0.572920173940E+00  0.569359281292E+00  0.559939028363E+00  0.000000000000E+00  0.484437048965E+00  0.533624795587E+00
  0.556225899884E+00  0.564433693155E+00  0.522383211069E+00  0.522300352197E+00  0.444887276542E+00  0.518274037448E+00  0.524589460968E+00
  0.503816827592E+00  0.509770332880E+00  0.471807259536E+00  0.496274705564E+00  0.494958715379E+00  0.489143085622E+00  0.489900746182E+00
  0.493071424736E+00  0.499098513529E+00  0.486813278099E+00  0.484775428925E+00  0.495800903212E+00
  0.000000000000E+00  0.000000000000E+00  0.000000000000E+00  0.000000000000E+00  0.000000000000E+00  0.000000000000E+00  0.000000000000E+00
  0.000000000000E+00  0.000000000000E+00  0.000000000000E+00  0.000000000000E+00  0.000000000000E+00  0.000000000000E+00  0.000000000000E+00
  0.000000000000E+00  0.000000000000E+00  0.000000000000E+00  0.000000000000E+00  0.000000000000E+00  0.000000000000E+00  0.000000000000E+00
  0.000000000000E+00  0.000000000000E+00  0.000000000000E+00  0.000000000000E+00  0.000000000000E+00  0.000000000000E+00  0.000000000000E+00
  0.000000000000E+00  0.000000000000E+00  0.000000000000E+00  0.000000000000E+00  0.000000000000E+00
  0.000000000000E+00  0.000000000000E+00  0.000000000000E+00 -0.226594285233E-01  0.112193846377E-01  0.000000000000E+00  0.181895642970E-01
 -0.100732368946E+00  0.385286400431E-02 -0.389417284659E-01  0.339611323224E-01  0.000000000000E+00  0.656428119888E-01 -0.424642537437E-01
  0.838411379233E-02 -0.653604833351E-02  0.487155321411E-01  0.134268475586E-01  0.453283750259E-01  0.711322548365E-03 -0.736125714409E-03
  0.238397731146E-02  0.837561000375E-03  0.352702403971E-02  0.103006283919E-01  0.427267997281E-02  0.337245665195E-02  0.471454401216E-03
  0.570390226040E-02  0.305980089781E-03  0.160644984444E-02  0.567794806262E-03  0.236433425993E-02
  0.672973165009E+00  0.675790798614E+00  0.602570653322E+00  0.676155629032E+00  0.691393371182E+00  0.683710208574E+00  0.689988490899E+00
  0.677395930517E+00  0.695267858811E+00  0.696328679408E+00  0.703514398907E+00  0.961496530632E+00  0.719946073018E+00  0.722885122443E+00
  0.709495715005E+00  0.713707846604E+00  0.726005213280E+00  0.716614508820E+00  0.782491141062E+00  0.722258493930E+00  0.716132744365E+00
  0.716553858575E+00  0.716542442484E+00  0.737375272307E+00  0.722640581190E+00  0.719421877353E+00  0.719547975240E+00  0.722747147603E+00
  0.716025292510E+00  0.715847805354E+00  0.718137408415E+00  0.717062203866E+00  0.718602762536E+00
  0.000000000000E+00  0.000000000000E+00  0.000000000000E+00  0.444930417857E+00  0.402807364618E+00  0.000000000000E+00  0.379033909446E+00
  0.508818722162E+00  0.575701394332E+00  0.573472074126E+00  0.562547860157E+00  0.000000000000E+00  0.491637853492E+00  0.534336806540E+00
  0.556352181657E+00  0.564140549591E+00  0.522485296290E+00  0.521817731492E+00  0.440666205850E+00  0.517132975214E+00  0.524068292523E+00
  0.503616124377E+00  0.509419882142E+00  0.469884091485E+00  0.495645017289E+00  0.494503349516E+00  0.488630223720E+00  0.489034111167E+00
  0.492987209405E+00  0.498957578469E+00  0.486507813378E+00  0.484614067688E+00  0.495364299452E+00
  0.999989348900E+00  0.999989416558E+00  0.999989634258E+00  0.981380973311E+00  0.988680696949E+00  0.999989836266E+00  0.982276358133E+00
  0.984074904668E+00  0.990406103662E+00  0.990319067520E+00  0.994391011685E+00  0.999990302029E+00  0.988748621075E+00  0.100365238073E+01
  0.999773186838E+00  0.100117375916E+01  0.100830261216E+01  0.100251270275E+01  0.102983028850E+01  0.100441979294E+01  0.100199189529E+01
  0.100081961533E+01  0.100137905814E+01  0.100825880642E+01  0.100297440087E+01  0.100191721348E+01  0.100214791936E+01  0.100354834211E+01
  0.100047554918E+01  0.100056537385E+01  0.100126704180E+01  0.100066742069E+01  0.100178631588E+01
        15         9        16        16
        15        18        11        11
        22        15        21        21
        11         5         9         9
         5         7         2         2
        11         9        15        15
        16        21        15        15
        16        10        14        14
        18        17        11        11
        17        25        24        24
        22        18        15        15
        22        30        31        31
        30        21        23        23
        16        20        23        23
        22        27        26        26
        10         9         4         4
         7        11        13        13
        25        18        26        26
        11         7         5         5
         5         1         4         4
        17        19        13        13
        23        32        30        30
        23        20        29        29
         4         9         5         5
         4         8        10        10
        26        18        22        22
        26        28        25        25
        13        11        17        17
        13         6         7         7
        31        30        32        32
         2         1         5         5
         2         7         6         6
        14        10         8         8
        24        19        17        17
        24        25        28        28
         9        10        16        16
         3         4         1         1
        33        26        27        27
        12        13        19        19
        21        30        22        22
        16        14        20        20
        16        23        21        21
        22        31        27        27
        18        25        17        17
        26        33        28        28
         4         3         8         8
        23        29        32        32
        13        12         6         6
zone t="boundary 4 bc-4", solutiontime= 0.9000000E+02, strandid=1004, i=32, j=46, f=feblock
  0.125000000000E+01  0.219251206392E+01  0.103724302461E+01  0.500000000000E+01  0.250000000000E+01  0.375000000000E+01  0.404200324774E+01
  0.500000000000E+01  0.000000000000E+00  0.310152362409E+01  0.202479342020E+01  0.324151231464E+01  0.922061490191E+00  0.000000000000E+00
  0.299062775774E+01  0.394624082883E+01  0.500000000000E+01  0.409252726285E+01  0.500000000000E+01  0.429310310915E+01  0.175434191980E+01
  0.284428995242E+01  0.000000000000E+00  0.000000000000E+00  0.715990576545E+00  0.930412228790E+00  0.125000000000E+01  0.187029682677E+01
  0.500000000000E+01  0.375000000000E+01  0.250000000000E+01  0.000000000000E+00
  0.250494209238E+01  0.157686156160E+01  0.146289271009E+01  0.250494209238E+01  0.250494209238E+01  0.250494209238E+01  0.155830813274E+01
  0.125000000000E+01  0.250494209238E+01  0.177790177481E+01  0.477386199275E+00  0.742988685424E+00  0.308372018325E+00  0.125000000000E+01
 -0.487811078581E+00 -0.144524380962E+01 -0.125000000000E+01 -0.345533899378E+00  0.000000000000E+00  0.627766083140E+00 -0.739814786992E+00
 -0.158811787973E+01  0.000000000000E+00 -0.125000000000E+01 -0.600232012419E+00 -0.154800130438E+01 -0.249658891543E+01 -0.178862290564E+01
 -0.249658891543E+01 -0.249658891543E+01 -0.249658891543E+01 -0.249658891543E+01
  0.500000000000E+01  0.500000000000E+01  0.500000000000E+01  0.500000000000E+01  0.500000000000E+01  0.500000000000E+01  0.500000000000E+01
  0.500000000000E+01  0.500000000000E+01  0.500000000000E+01  0.500000000000E+01  0.500000000000E+01  0.500000000000E+01  0.500000000000E+01
  0.500000000000E+01  0.500000000000E+01  0.500000000000E+01  0.500000000000E+01  0.500000000000E+01  0.500000000000E+01  0.500000000000E+01
  0.500000000000E+01  0.500000000000E+01  0.500000000000E+01  0.500000000000E+01  0.500000000000E+01  0.500000000000E+01  0.500000000000E+01
  0.500000000000E+01  0.500000000000E+01  0.500000000000E+01  0.500000000000E+01
  0.100520805948E+01  0.100431923731E+01  0.100430498675E+01  0.100195892877E+01  0.100412010963E+01  0.100321751729E+01  0.100258950392E+01
  0.100200889310E+01  0.100424995990E+01  0.100371855526E+01  0.100446255698E+01  0.100347199533E+01  0.100365301454E+01  0.100423992027E+01
  0.100362939058E+01  0.100164315385E+01  0.100227308687E+01  0.100227913266E+01  0.100213223955E+01  0.100254677836E+01  0.100442989390E+01
  0.100338023517E+01  0.100288596761E+01  0.100335006130E+01  0.100323313449E+01  0.100406903673E+01  0.100511533969E+01  0.100432403390E+01
  0.100179357779E+01  0.100266911977E+01  0.100322320396E+01  0.100399794218E+01
  0.489143085622E+00  0.489273562815E+00  0.491032976427E+00  0.493071424736E+00  0.486813278099E+00  0.484775428925E+00  0.485406762120E+00
  0.494264081404E+00  0.495800903212E+00  0.486819186225E+00  0.488146805482E+00  0.487231248119E+00  0.494435310535E+00  0.496535898597E+00
  0.487825249965E+00  0.483167753851E+00  0.492561903404E+00  0.487246884222E+00  0.494865193612E+00  0.488002430874E+00  0.490072128383E+00
  0.488216395096E+00  0.497536486276E+00  0.496381521757E+00  0.495257687630E+00  0.493195606303E+00  0.490417264419E+00  0.490359939066E+00
  0.491396775998E+00  0.486161136780E+00  0.490250032430E+00  0.495515502897E+00
  0.000000000000E+00 -0.578654897566E-04 -0.127351969053E-02  0.000000000000E+00  0.000000000000E+00  0.000000000000E+00  0.474016606950E-03
  0.850807410038E-03  0.000000000000E+00  0.314094024157E-03 -0.890189725540E-03 -0.751272072786E-03 -0.173054557985E-02 -0.665395346016E-04
 -0.105319593411E-02 -0.998843596322E-03 -0.129446073064E-02 -0.207760500813E-02 -0.126376813198E-02 -0.997053775886E-03 -0.597641522363E-03
 -0.743090032546E-03 -0.202432764083E-03  0.805361647598E-03  0.601389538924E-04  0.162347609710E-02  0.000000000000E+00  0.803299841484E-03
  0.000000000000E+00  0.000000000000E+00  0.000000000000E+00  0.000000000000E+00