title="tecplot geometry and solution file"
variables = x y z rho u v w p mach temperature
zone t="boundary 1 bc-1", solutiontime= 0.4000000E+02, strandid=1001, i=32, j=46, f=feblock
 -0.547418544169E-02  0.000000000000E+00 -0.567506031243E-02  0.000000000000E+00  0.000000000000E+00  0.000000000000E+00 -0.525109244851E-02
 -0.425676897977E-02  0.000000000000E+00  0.000000000000E+00  0.000000000000E+00  0.000000000000E+00  0.000000000000E+00  0.000000000000E+00
  0.000000000000E+00  0.000000000000E+00 -0.338345986572E-02  0.000000000000E+00  0.000000000000E+00  0.000000000000E+00  0.000000000000E+00
  0.000000000000E+00  0.000000000000E+00  0.000000000000E+00  0.000000000000E+00  0.000000000000E+00  0.000000000000E+00  0.000000000000E+00
  0.000000000000E+00  0.000000000000E+00  0.000000000000E+00  0.000000000000E+00
  0.250494209238E+01  0.250494209238E+01  0.127822206907E+01  0.146289271009E+01  0.157686156160E+01  0.308372018325E+00  0.261958602442E-01
 -0.122573431164E+01 -0.600232012419E+00  0.250494209238E+01  0.477386199275E+00  0.742988685424E+00 -0.739814786992E+00  0.177790177481E+01
  0.155830813274E+01  0.250494209238E+01 -0.249658891543E+01 -0.154800130438E+01 -0.487811078581E+00  0.250494209238E+01  0.627766083140E+00
 -0.345533899378E+00 -0.178862290564E+01 -0.158811787973E+01  0.125000000000E+01 -0.249658891543E+01 -0.144524380962E+01  0.000000000000E+00
 -0.125000000000E+01 -0.249658891543E+01 -0.249658891543E+01 -0.249658891543E+01
  0.808813859867E-04  0.125000000000E+01  0.832460170215E-04  0.103724302461E+01  0.219251206392E+01  0.922061490191E+00  0.104372438719E-03
  0.351545874230E-04  0.715990576545E+00  0.250000000000E+01  0.202479342020E+01  0.324151231464E+01  0.175434191980E+01  0.310152362409E+01
  0.404200324774E+01  0.375000000000E+01  0.815725962649E-04  0.930412228790E+00  0.299062775774E+01  0.500000000000E+01  0.429310310915E+01
  0.409252726285E+01  0.187029682677E+01  0.284428995242E+01  0.500000000000E+01  0.125000000000E+01  0.394624082883E+01  0.500000000000E+01
  0.500000000000E+01  0.250000000000E+01  0.375000000000E+01  0.500000000000E+01
  0.134610820131E+01  0.106375546184E+01  0.142661120038E+01  0.108602668056E+01  0.103229749968E+01  0.120170180612E+01  0.164672933393E+01
  0.149541995908E+01  0.123512306296E+01  0.102386944096E+01  0.102822218326E+01  0.101305387951E+01  0.103253557123E+01  0.101467213353E+01
  0.100662698337E+01  0.100826832230E+01  0.144847524992E+01  0.116396749553E+01  0.101464051596E+01  0.100424995896E+01  0.100679645423E+01
  0.100725182262E+01  0.104656548586E+01  0.101934078999E+01  0.100423991988E+01  0.106448526101E+01  0.100790708094E+01  0.100288597235E+01
  0.100335006259E+01  0.102844206068E+01  0.100960586893E+01  0.100399794914E+01
  0.000000000000E+00  0.444887280941E+00  0.000000000000E+00  0.468180324889E+00  0.462186780790E+00  0.443238685461E+00  0.000000000000E+00
  0.000000000000E+00  0.379439142796E+00  0.471807259062E+00  0.466360642932E+00  0.479394563876E+00  0.490363689452E+00  0.484571646254E+00
  0.488597461351E+00  0.489900757887E+00  0.000000000000E+00  0.451029514325E+00  0.474778712638E+00  0.495800890775E+00  0.490926835047E+00
  0.486826279014E+00  0.448796906225E+00  0.465790685922E+00  0.496535899864E+00  0.444910649552E+00  0.487666687595E+00  0.497536482302E+00
  0.496381517649E+00  0.470013290515E+00  0.489177497636E+00  0.495515505766E+00
  0.000000000000E+00  0.000000000000E+00  0.000000000000E+00  0.182111548050E-01 -0.276667916683E-02  0.330008294824E-01  0.000000000000E+00
  0.000000000000E+00 -0.635886024873E-02  0.000000000000E+00  0.362940324326E-02 -0.561332820089E-02 -0.432753123828E-02  0.439726469806E-04
 -0.103547958666E-02  0.000000000000E+00  0.000000000000E+00 -0.779171430591E-02  0.391747704058E-03  0.000000000000E+00 -0.202831945033E-02
 -0.137700092834E-02  0.151652877560E-02 -0.162048185134E-02 -0.665416194583E-04  0.000000000000E+00 -0.290732932079E-04 -0.202434850750E-03
  0.805361987673E-03  0.000000000000E+00  0.000000000000E+00  0.000000000000E+00
  0.000000000000E+00  0.453283789657E-01  0.000000000000E+00  0.123658707465E+00  0.245692436513E-01  0.166125779824E+00  0.000000000000E+00
  0.000000000000E+00  0.155959898485E+00  0.352702478362E-02  0.259078403015E-01 -0.647805285520E-02  0.752820668595E-01  0.371570069694E-02
 -0.127525305481E-03  0.471450763920E-03  0.000000000000E+00  0.141096903395E+00 -0.806996467141E-02  0.236432937131E-02 -0.280379326962E-03
 -0.438302544791E-02  0.256769842936E-01 -0.189364394472E-02  0.307400971192E-02  0.838611966246E-01 -0.122860072569E-02  0.268490066862E-02
  0.264424743047E-02  0.283393228843E-02 -0.846589745520E-03  0.345684208419E-02
  0.961496533421E+00  0.782491140393E+00  0.101899859070E+01  0.808635932373E+00  0.746113332613E+00  0.879959802554E+00  0.117622514903E+01
  0.106814875466E+01  0.916484170395E+00  0.737375270981E+00  0.743650976774E+00  0.725792790721E+00  0.757479362278E+00  0.729144500055E+00
  0.720777565817E+00  0.722747145975E+00  0.103461765250E+01  0.858092898300E+00  0.728072571075E+00  0.718602760434E+00  0.721012353859E+00
  0.721154298434E+00  0.759934145779E+00  0.732618491212E+00  0.718521953740E+00  0.790948766389E+00  0.722118112036E+00  0.717197481632E+00
  0.717641996878E+00  0.741773498422E+00  0.724071784231E+00  0.718406374010E+00
  0.000000000000E+00  0.440666210076E+00  0.000000000000E+00  0.474617227344E+00  0.460123121851E+00  0.468636761838E+00  0.000000000000E+00
  0.000000000000E+00  0.402549859955E+00  0.469884091269E+00  0.464193455360E+00  0.478749624568E+00  0.489549419668E+00  0.483128674837E+00
  0.488002258444E+00  0.489034122578E+00  0.000000000000E+00  0.465240594398E+00  0.473760512985E+00  0.495364287495E+00  0.490293366632E+00
  0.486277602177E+00  0.445854509962E+00  0.464358888423E+00  0.496127935821E+00  0.443900316855E+00  0.486930053697E+00  0.497248719325E+00
  0.496055919338E+00  0.467744051724E+00  0.488189264460E+00  0.495091104763E+00
  0.999990302029E+00  0.102983029075E+01  0.999990765945E+00  0.104241481870E+01  0.101187755079E+01  0.102516590830E+01  0.999991422219E+00
  0.999992174401E+00  0.103882590896E+01  0.100825880535E+01  0.101253540765E+01  0.100301664853E+01  0.102705527707E+01  0.100604152449E+01
  0.100244540313E+01  0.100354834322E+01  0.999992725853E+00  0.103209931740E+01  0.100459382754E+01  0.100178631388E+01  0.100260314898E+01
  0.100234717390E+01  0.101657069573E+01  0.100620508644E+01  0.100168367670E+01  0.104024763283E+01  0.100303428359E+01  0.100118707607E+01
  0.100134422978E+01  0.100976315292E+01  0.100405567076E+01  0.100176392240E+01
        12        19        11        11
        11         5        12        12
        10        14         5         5
        19        13        11        11
        19        24        13        13
        30        23        24        24
        19        12        22        22
        28        22        21        21
        11        13         6         6
         7         6         9         9
        15        12        14        14
        18        13        23        23
        15        25        21        21
        27        19        22        22
        18         8         9         9
        27        31        24        24
         4        11         6         6
         5        14        12        12
         4         2         5         5
        21        12        15        15
        14        16        15        15
        24        19        27        27
        22        29        27        27
        23        26        18        18
        17         8        18        18
         5        11         4         4
         6         3         4         4
        26        23        30        30
         5         2        10        10
        16        14        10        10
         3         6         7         7
        21        25        28        28
        29        22        28        28
         6        13         9         9
         2         4         1         1
        31        27        32        32
        25        15        20        20
        24        23        13        13
         8         7         9         9
        13        18         9         9
        31        30        24        24
        12        21        22        22
        29        32        27        27
         3         1         4         4
        26        17        18        18
        16        20        15        15
zone t="boundary 2 bc-2", solutiontime= 0.4000000E+02, strandid=1002, i=33, j=48, f=feblock
  0.500195303374E+01  0.375034911161E+01  0.249861196299E+01  0.288036734566E+01  0.124717626933E+01  0.190856777273E+01  0.326577224970E+01
  0.201394897544E+01 -0.338345986572E-02  0.962374694294E+00  0.500000000000E+01  0.403430242577E+01  0.423029585928E+01  0.500000000000E+01
  0.385439203550E+01  0.500000000000E+01  0.398133439140E+01  0.315200091163E+01  0.266958047473E+01  0.154798040522E+01  0.218327864976E+01
  0.893688570225E+00  0.000000000000E+00  0.699009793161E+00  0.964460908962E+00  0.310303675831E+01  0.000000000000E+00  0.000000000000E+00
  0.125000000000E+01  0.500000000000E+01  0.375000000000E+01  0.250000000000E+01  0.000000000000E+00
 -0.249658891543E+01 -0.249658891543E+01 -0.249658891543E+01 -0.249658891543E+01 -0.249658891543E+01 -0.249658891543E+01 -0.249658891543E+01
 -0.249658891543E+01 -0.249658891543E+01 -0.249658891543E+01 -0.249658891543E+01 -0.249658891543E+01 -0.249658891543E+01 -0.249658891543E+01
 -0.249658891543E+01 -0.249658891543E+01 -0.249658891543E+01 -0.249658891543E+01 -0.249658891543E+01 -0.249658891543E+01 -0.249658891543E+01
 -0.249658891543E+01 -0.249658891543E+01 -0.249658891543E+01 -0.249658891543E+01 -0.249658891543E+01 -0.249658891543E+01 -0.249658891543E+01
 -0.249658891543E+01 -0.249658891543E+01 -0.249658891543E+01 -0.249658891543E+01 -0.249658891543E+01
  0.108725889030E-03  0.146875369682E-03  0.101393326425E-03  0.901663864714E+00  0.111858761917E-03  0.714929129060E+00  0.188140690284E+01
  0.175892220389E+01  0.815725962649E-04  0.957504929232E+00  0.125000000000E+01  0.100596749761E+01  0.191313550013E+01  0.250000000000E+01
  0.292898123437E+01  0.375000000000E+01  0.406883381007E+01  0.363389311275E+01  0.284756896448E+01  0.292582334204E+01  0.395754070352E+01
  0.205027286588E+01  0.125000000000E+01  0.306703285013E+01  0.397155774618E+01  0.433068632667E+01  0.250000000000E+01  0.375000000000E+01
  0.500000000000E+01  0.500000000000E+01  0.500000000000E+01  0.500000000000E+01  0.500000000000E+01
  0.831048851619E+00  0.935354859172E+00  0.934389650231E+00  0.968094397139E+00  0.961616781842E+00  0.964874012426E+00  0.984210063354E+00
  0.991408408709E+00  0.144847524992E+01  0.102898692370E+01  0.956112547905E+00  0.960814767872E+00  0.981522833787E+00  0.100650793180E+01
  0.997935770807E+00  0.100981613988E+01  0.100200369760E+01  0.998069028434E+00  0.991091304334E+00  0.100132489228E+01  0.100093955791E+01
  0.101223133034E+01  0.106448526101E+01  0.101079825444E+01  0.100685806350E+01  0.100119202133E+01  0.102844206068E+01  0.100960586893E+01
  0.100511533517E+01  0.100179356962E+01  0.100266907784E+01  0.100322320367E+01  0.100399794914E+01
  0.000000000000E+00  0.000000000000E+00  0.000000000000E+00  0.378615130398E+00  0.000000000000E+00  0.340330140159E+00  0.582178280315E+00
  0.575334705941E+00  0.000000000000E+00  0.489381164065E+00  0.495137377593E+00  0.430537307553E+00  0.569176928552E+00  0.536367088764E+00
  0.569065105376E+00  0.516259724209E+00  0.508563991696E+00  0.527499088961E+00  0.566854343956E+00  0.532032732649E+00  0.506130954542E+00
  0.520947364486E+00  0.444910649552E+00  0.491385550905E+00  0.492729812691E+00  0.501502459623E+00  0.470013290515E+00  0.489177497636E+00
  0.490417235988E+00  0.491396787305E+00  0.486161134148E+00  0.490250024150E+00  0.495515505766E+00
  0.000000000000E+00  0.000000000000E+00  0.000000000000E+00  0.000000000000E+00  0.000000000000E+00  0.000000000000E+00  0.000000000000E+00
  0.000000000000E+00  0.000000000000E+00  0.000000000000E+00  0.000000000000E+00  0.000000000000E+00  0.000000000000E+00  0.000000000000E+00
  0.000000000000E+00  0.000000000000E+00  0.000000000000E+00  0.000000000000E+00  0.000000000000E+00  0.000000000000E+00  0.000000000000E+00
  0.000000000000E+00  0.000000000000E+00  0.000000000000E+00  0.000000000000E+00  0.000000000000E+00  0.000000000000E+00  0.000000000000E+00
  0.000000000000E+00  0.000000000000E+00  0.000000000000E+00  0.000000000000E+00  0.000000000000E+00
  0.000000000000E+00  0.000000000000E+00  0.000000000000E+00 -0.232908032458E-02  0.000000000000E+00  0.182353272978E-01  0.121235934339E-01
  0.453891567275E-01  0.000000000000E+00  0.867493378201E-01 -0.992592809394E-01 -0.210121714048E-01 -0.304697359822E-01 -0.412644646502E-01
 -0.132002563589E-02  0.269959012193E-02  0.637160146590E-03  0.535280122498E-03  0.151134168308E-01  0.283971477454E-01  0.565020876854E-02
  0.553958455026E-01  0.838611966246E-01  0.110560477607E-01  0.679114320213E-02 -0.740725275445E-03  0.283393228843E-02 -0.846589745520E-03
  0.399772588216E-02  0.605671621684E-02 -0.135638799933E-03  0.119910706861E-02  0.345684208419E-02
  0.593602458298E+00  0.668106400773E+00  0.667416871139E+00  0.684291404538E+00  0.686864419604E+00  0.679258542004E+00  0.695864178925E+00
  0.702291785645E+00  0.103461765250E+01  0.723389851680E+00  0.672789497386E+00  0.675870578725E+00  0.694123982134E+00  0.721038056816E+00
  0.712711429114E+00  0.724812452950E+00  0.716595359776E+00  0.713312864288E+00  0.706427905625E+00  0.717741405401E+00  0.715380846511E+00
  0.730906763191E+00  0.790948766389E+00  0.724365785420E+00  0.721017439724E+00  0.715471791953E+00  0.741773498422E+00  0.724071784231E+00
  0.719322134657E+00  0.715894726340E+00  0.716614347333E+00  0.717376638962E+00  0.718406374010E+00
  0.000000000000E+00  0.000000000000E+00  0.000000000000E+00  0.380610246318E+00  0.000000000000E+00  0.343302267396E+00  0.585285532774E+00
  0.579523932125E+00  0.000000000000E+00  0.500979794447E+00  0.508782791387E+00  0.434361616660E+00  0.572843981938E+00  0.537166669501E+00
  0.569106492050E+00  0.515013360279E+00  0.508252585371E+00  0.527349065760E+00  0.567655273335E+00  0.531857864552E+00  0.506012463541E+00
  0.521051126821E+00  0.443900316855E+00  0.490706196157E+00  0.492149796384E+00  0.501385713759E+00  0.467744051724E+00  0.488189264460E+00
  0.489961971809E+00  0.491321556832E+00  0.486017936138E+00  0.489981941498E+00  0.495091104763E+00
  0.999993490151E+00  0.999993694276E+00  0.999993545909E+00  0.989581149507E+00  0.999993142387E+00  0.985581481684E+00  0.989839351139E+00
  0.991729030404E+00  0.999992725853E+00  0.984216387035E+00  0.985140607561E+00  0.984808770489E+00  0.990067211415E+00  0.100292630356E+01
  0.999859940839E+00  0.100487345573E+01  0.100122734685E+01  0.100057008238E+01  0.997888956900E+00  0.100350842699E+01  0.100059306998E+01
  0.101090475842E+01  0.104024763283E+01  0.100327844368E+01  0.100254887178E+01  0.100046792962E+01  0.100976315292E+01  0.100405567076E+01
  0.100192580223E+01  0.100045822540E+01  0.100058943517E+01  0.100110054360E+01  0.100176392240E+01
        15         7        19        19
         8        20        19        19
        18        19        21        21
         7         4         8         8
         3         6         4         4
        19         7         8         8
        19        18        15        15
        14        13        15        15
         8        22        20        20
        27        24        22        22
        19        20        21        21
        32        26        21        21
        17        18        26        26
        17        16        15        15
        25        29        21        21
        12         7        13        13
        10         8         6         6
        25        20        24        24
         4         6         8         8
        12         2         4         4
        10        23        22        22
        26        31        17        17
        30        16        17        17
         4         7        12        12
        13        11        12        12
        21        20        25        25
        24        28        25        25
        22         8        10        10
         6         5        10        10
        31        26        32        32
         4         2         3         3
         5         6         3         3
        11        13        14        14
        22        23        27        27
        28        24        27        27
        15        13         7         7
         2        12         1         1
        29        25        33        33
        23        10         9         9
        21        26        18        18
        16        14        15        15
        18        17        15        15
        29        32        21        21
        22        24        20        20
        28        33        25        25
        11         1        12        12
        31        30        17        17
         5         9        10        10
zone t="boundary 3 bc-3", solutiontime= 0.4000000E+02, strandid=1003, i=33, j=48, f=feblock
  0.375059196892E+01  0.249769659313E+01  0.500322183174E+01  0.403612272037E+01  0.287976833436E+01  0.124542010518E+01  0.190552303132E+01
  0.500000000000E+01  0.326671140571E+01  0.423253781253E+01  0.201271172665E+01 -0.547418544169E-02  0.958896052319E+00  0.500000000000E+01
  0.266968165797E+01  0.385584505120E+01  0.890374291961E+00  0.154654021702E+01  0.000000000000E+00  0.500000000000E+01  0.315261147897E+01
  0.218304203297E+01  0.398195315265E+01  0.000000000000E+00  0.697379955606E+00  0.963757267984E+00  0.125000000000E+01  0.000000000000E+00
  0.500000000000E+01  0.310330743709E+01  0.250000000000E+01  0.375000000000E+01  0.000000000000E+00
  0.250494209238E+01  0.250494209238E+01  0.250494209238E+01  0.250494209238E+01  0.250494209238E+01  0.250494209238E+01  0.250494209238E+01
  0.250494209238E+01  0.250494209238E+01  0.250494209238E+01  0.250494209238E+01  0.250494209238E+01  0.250494209238E+01  0.250494209238E+01
  0.250494209238E+01  0.250494209238E+01  0.250494209238E+01  0.250494209238E+01  0.250494209238E+01  0.250494209238E+01  0.250494209238E+01
  0.250494209238E+01  0.250494209238E+01  0.250494209238E+01  0.250494209238E+01  0.250494209238E+01  0.250494209238E+01  0.250494209238E+01
  0.250494209238E+01  0.250494209238E+01  0.250494209238E+01  0.250494209238E+01  0.250494209238E+01
  0.136649900494E-03  0.110629816467E-03  0.971887303890E-04  0.101756833402E+01  0.908095407253E+00  0.104942505801E-03  0.722629980944E+00
  0.125000000000E+01  0.188965725284E+01  0.191862737888E+01  0.176708309701E+01  0.808813859867E-04  0.969653377290E+00  0.250000000000E+01
  0.285339481706E+01  0.293325094397E+01  0.205656266765E+01  0.293157056900E+01  0.125000000000E+01  0.375000000000E+01  0.363766868440E+01
  0.396069467580E+01  0.407056400638E+01  0.250000000000E+01  0.307032016246E+01  0.397359833374E+01  0.500000000000E+01  0.375000000000E+01
  0.500000000000E+01  0.433260796524E+01  0.500000000000E+01  0.500000000000E+01  0.500000000000E+01
  0.942172474150E+00  0.946117125532E+00  0.843607699941E+00  0.964577674653E+00  0.979032766957E+00  0.957204018219E+00  0.983413550264E+00
  0.963701575185E+00  0.982803902900E+00  0.984390006891E+00  0.990475714358E+00  0.134610820131E+01  0.101939409443E+01  0.100835624805E+01
  0.993519340912E+00  0.998019540739E+00  0.100803794957E+01  0.100074573317E+01  0.106375546184E+01  0.100671242543E+01  0.100059276545E+01
  0.100235385434E+01  0.100177792694E+01  0.102386944096E+01  0.100869654391E+01  0.100526332199E+01  0.100520805145E+01  0.100826832230E+01
  0.100195898058E+01  0.100162062497E+01  0.100412008714E+01  0.100321752089E+01  0.100424995896E+01
  0.000000000000E+00  0.000000000000E+00  0.000000000000E+00  0.440185984076E+00  0.400363939823E+00  0.000000000000E+00  0.375219326270E+00
  0.494597068399E+00  0.572920178206E+00  0.569359256216E+00  0.559939036703E+00  0.000000000000E+00  0.484437047335E+00  0.533624816803E+00
  0.556225905781E+00  0.564433680701E+00  0.522383213813E+00  0.522300359507E+00  0.444887280941E+00  0.518273981550E+00  0.524589439003E+00
  0.503816809253E+00  0.509770277377E+00  0.471807259062E+00  0.496274711690E+00  0.494958712061E+00  0.489143092667E+00  0.489900757887E+00
  0.493071554982E+00  0.499098480219E+00  0.486813323652E+00  0.484775693568E+00  0.495800890775E+00
  0.000000000000E+00  0.000000000000E+00  0.000000000000E+00  0.000000000000E+00  0.000000000000E+00  0.000000000000E+00  0.000000000000E+00
  0.000000000000E+00  0.000000000000E+00  0.000000000000E+00  0.000000000000E+00  0.000000000000E+00  0.000000000000E+00  0.000000000000E+00
  0.000000000000E+00  0.000000000000E+00  0.000000000000E+00  0.000000000000E+00  0.000000000000E+00  0.000000000000E+00  0.000000000000E+00
  0.000000000000E+00  0.000000000000E+00  0.000000000000E+00  0.000000000000E+00  0.000000000000E+00  0.000000000000E+00  0.000000000000E+00
  0.000000000000E+00  0.000000000000E+00  0.000000000000E+00  0.000000000000E+00  0.000000000000E+00
  0.000000000000E+00  0.000000000000E+00  0.000000000000E+00 -0.226594487373E-01  0.112193817350E-01  0.000000000000E+00  0.181895646057E-01
 -0.100732307999E+00  0.385286668839E-02 -0.389416954070E-01  0.339611350139E-01  0.000000000000E+00  0.656428149427E-01 -0.424642090500E-01
  0.838411067620E-02 -0.653603222595E-02  0.487155343894E-01  0.134268392974E-01  0.453283789657E-01  0.711311955399E-03 -0.736112430031E-03
  0.238397548525E-02  0.837583947708E-03  0.352702478362E-02  0.103006261145E-01  0.427267826203E-02  0.337245412047E-02  0.471450763920E-03
  0.570391516286E-02  0.306013091255E-03  0.160645477843E-02  0.567732931043E-03  0.236432937131E-02
  0.672973170698E+00  0.675790794540E+00  0.602570682372E+00  0.676155627242E+00  0.691393366674E+00  0.683710206752E+00  0.689988492816E+00
  0.677396026431E+00  0.695267861305E+00  0.696328693066E+00  0.703514399964E+00  0.961496533421E+00  0.719946073274E+00  0.722885110722E+00
  0.709495710343E+00  0.713707847562E+00  0.726005212459E+00  0.716614506207E+00  0.782491140393E+00  0.722258488017E+00  0.716132741186E+00
  0.716553857910E+00  0.716542443138E+00  0.737375270981E+00  0.722640579656E+00  0.719421874554E+00  0.719547967317E+00  0.722747145975E+00
  0.716025345143E+00  0.715847802606E+00  0.718137386248E+00  0.717062190896E+00  0.718602760434E+00
  0.000000000000E+00  0.000000000000E+00  0.000000000000E+00  0.444930435769E+00  0.402807364073E+00  0.000000000000E+00  0.379033901958E+00
  0.508818466288E+00  0.575701392221E+00  0.573472053604E+00  0.562547865156E+00  0.000000000000E+00  0.491637852905E+00  0.534336822517E+00
  0.556352188394E+00  0.564140533776E+00  0.522485299286E+00  0.521817738848E+00  0.440666210076E+00  0.517132920110E+00  0.524068271557E+00
  0.503616105497E+00  0.509419830919E+00  0.469884091269E+00  0.495645023422E+00  0.494503346678E+00  0.488630231476E+00  0.489034122578E+00
  0.492987334387E+00  0.498957543056E+00  0.486507860977E+00  0.484614337425E+00  0.495364287495E+00
  0.999989348900E+00  0.999989416558E+00  0.999989634258E+00  0.981380663283E+00  0.988680610101E+00  0.999989836266E+00  0.982276367539E+00
  0.984074802224E+00  0.990406125734E+00  0.990319043741E+00  0.994391024104E+00  0.999990302029E+00  0.988748618506E+00  0.100365238672E+01
  0.999773183648E+00  0.100117377045E+01  0.100830261190E+01  0.100251270171E+01  0.102983029075E+01  0.100441979028E+01  0.100199189148E+01
  0.100081961747E+01  0.100137904162E+01  0.100825880535E+01  0.100297440061E+01  0.100191721148E+01  0.100214791634E+01  0.100354834322E+01
  0.100047557099E+01  0.100056538240E+01  0.100126703332E+01  0.100066739899E+01  0.100178631388E+01
        15         9        16        16
        15        18        11        11
        22        15        21        21
        11         5         9         9
         5         7         2         2
        11         9        15        15
        16        21        15        15
        16        10        14        14
        18        17        11        11
        17        25        24        24
        22        18        15        15
        22        30        31        31
        30        21        23        23
        16        20        23        23
        22        27        26        26
        10         9         4         4
         7        11        13        13
        25        18        26        26
        11         7         5         5
         5         1         4         4
        17        19        13        13
        23        32        30        30
        23        20        29        29
         4         9         5         5
         4         8        10        10
        26        18        22        22
        26        28        25        25
        13        11        17        17
        13         6         7         7
        31        30        32        32
         2         1         5         5
         2         7         6         6
        14        10         8         8
        24        19        17        17
        24        25        28        28
         9        10        16        16
         3         4         1         1
        33        26        27        27
        12        13        19        19
        21        30        22        22
        16        14        20        20
        16        23        21        21
        22        31        27        27
        18        25        17        17
        26        33        28        28
         4         3         8         8
        23        29        32        32
        13        12         6         6
zone t="boundary 4 bc-4", solutiontime= 0.4000000E+02, strandid=1004, i=32, j=46, f=feblock
  0.125000000000E+01  0.219251206392E+01  0.103724302461E+01  0.500000000000E+01  0.250000000000E+01  0.375000000000E+01  0.404200324774E+01
  0.500000000000E+01  0.000000000000E+00  0.310152362409E+01  0.202479342020E+01  0.324151231464E+01  0.922061490191E+00  0.000000000000E+00
  0.299062775774E+01  0.394624082883E+01  0.500000000000E+01  0.409252726285E+01  0.500000000000E+01  0.429310310915E+01  0.175434191980E+01
  0.284428995242E+01  0.000000000000E+00  0.000000000000E+00  0.715990576545E+00  0.930412228790E+00  0.125000000000E+01  0.187029682677E+01
  0.500000000000E+01  0.375000000000E+01  0.250000000000E+01  0.000000000000E+00
  0.250494209238E+01  0.157686156160E+01  0.146289271009E+01  0.250494209238E+01  0.250494209238E+01  0.250494209238E+01  0.155830813274E+01
  0.125000000000E+01  0.250494209238E+01  0.177790177481E+01  0.477386199275E+00  0.742988685424E+00  0.308372018325E+00  0.125000000000E+01
 -0.487811078581E+00 -0.144524380962E+01 -0.125000000000E+01 -0.345533899378E+00  0.000000000000E+00  0.627766083140E+00 -0.739814786992E+00
 -0.158811787973E+01  0.000000000000E+00 -0.125000000000E+01 -0.600232012419E+00 -0.154800130438E+01 -0.249658891543E+01 -0.178862290564E+01
 -0.249658891543E+01 -0.249658891543E+01 -0.249658891543E+01 -0.249658891543E+01
  0.500000000000E+01  0.500000000000E+01  0.500000000000E+01  0.500000000000E+01  0.500000000000E+01  0.500000000000E+01  0.500000000000E+01
  0.500000000000E+01  0.500000000000E+01  0.500000000000E+01  0.500000000000E+01  0.500000000000E+01  0.500000000000E+01  0.500000000000E+01
  0.500000000000E+01  0.500000000000E+01  0.500000000000E+01  0.500000000000E+01  0.500000000000E+01  0.500000000000E+01  0.500000000000E+01
  0.500000000000E+01  0.500000000000E+01  0.500000000000E+01  0.500000000000E+01  0.500000000000E+01  0.500000000000E+01  0.500000000000E+01
  0.500000000000E+01  0.500000000000E+01  0.500000000000E+01  0.500000000000E+01
  0.100520805145E+01  0.100431921691E+01  0.100430497623E+01  0.100195898058E+01  0.100412008714E+01  0.100321752089E+01  0.100258948802E+01
  0.100200891099E+01  0.100424995896E+01  0.100371856579E+01  0.100446254965E+01  0.100347195929E+01  0.100365300652E+01  0.100423991988E+01
  0.100362938646E+01  0.100164310884E+01  0.100227305223E+01  0.100227909379E+01  0.100213223419E+01  0.100254673077E+01  0.100442987619E+01
  0.100338021672E+01  0.100288597235E+01  0.100335006259E+01  0.100323313086E+01  0.100406903899E+01  0.100511533517E+01  0.100432402551E+01
  0.100179356962E+01  0.100266907784E+01  0.100322320367E+01  0.100399794914E+01
  0.489143092667E+00  0.489273610955E+00  0.491032996261E+00  0.493071554982E+00  0.486813323652E+00  0.484775693568E+00  0.485407082713E+00
  0.494264258636E+00  0.495800890775E+00  0.486819313226E+00  0.488146844323E+00  0.487231390199E+00  0.494435328127E+00  0.496535899864E+00
  0.487825318187E+00  0.483167785481E+00  0.492561931628E+00  0.487247039912E+00  0.494865304437E+00  0.488002689887E+00  0.490072137612E+00
  0.488216392167E+00  0.497536482302E+00  0.496381517649E+00  0.495257697938E+00  0.493195612298E+00  0.490417235988E+00  0.490359923906E+00
  0.491396787305E+00  0.486161134148E+00  0.490250024150E+00  0.495515505766E+00
  0.000000000000E+00 -0.578527268453E-04 -0.127351240935E-02  0.000000000000E+00  0.000000000000E+00  0.000000000000E+00  0.473964535999E-03
  0.850768658808E-03  0.000000000000E+00  0.314103105654E-03 -0.890167951446E-03 -0.751200977599E-03 -0.173054935650E-02 -0.665416194583E-04
 -0.105311879260E-02 -0.998776767199E-03 -0.129436188357E-02 -0.207746667633E-02 -0.126368571971E-02 -0.997000096464E-03 -0.597614869592E-03
 -0.743039721406E-03 -0.202434850750E-03  0.805361987673E-03  0.601393859463E-04  0.162348617622E-02  0.000000000000E+00  0.803317489547E-03
  0.000000000000E+00  0.000000000000E+00  0.000000000000E+00  0.000000000000E+00