# vtk DataFile Version 2.0
FUN3D:global_image_vtk
ASCII
DATASET UNSTRUCTURED_GRID
POINTS 213 double
   -0.5474185441687832E-02    0.2504942092379412E+01    0.8088138598670529E-04
    0.1245420105183471E+01    0.2504942092379412E+01    0.1049425058013132E-03
    0.2497696593128780E+01    0.2504942092379412E+01    0.1106298164665754E-03
    0.3750591968915824E+01    0.2504942092379412E+01    0.1366499004944167E-03
    0.5003221831742151E+01    0.2504942092379412E+01    0.9718873038898294E-04
    0.5004677687979097E+01    0.1281291702167040E+01    0.1648053019384355E-03
    0.5004773173778115E+01    0.2775179906482894E-01    0.1908478008447590E-03
    0.5003582183341212E+01   -0.1225853008883529E+01    0.1617765204486577E-03
    0.5001953033742191E+01   -0.2496588915429510E+01    0.1087258890302556E-03
    0.3750349111606544E+01   -0.2496588915429510E+01    0.1468753696815806E-03
    0.2498611962994928E+01   -0.2496588915429510E+01    0.1013933264248224E-03
    0.1247176269333276E+01   -0.2496588915429510E+01    0.1118587619169654E-03
   -0.3383459865719265E-02   -0.2496588915429510E+01    0.8157259626494166E-04
   -0.4256768979765596E-02   -0.1225734311642590E+01    0.3515458742295207E-04
   -0.5251092448509256E-02    0.2619586024420451E-01    0.1043724387187884E-03
   -0.5675060312426844E-02    0.1278222069065707E+01    0.8324601702150334E-04
    0.9003214617952581E+00    0.1608980112280158E+01    0.8754140727677777E-04
    0.3983173210692289E+01   -0.1561211404840279E+01    0.1767116720370599E-03
    0.4035602539224469E+01    0.1486761030415520E+01    0.1718312862106631E-03
    0.1036614723302902E+01   -0.1455625929916848E+01    0.1057189301532914E-03
    0.1094353980630802E+01   -0.2964612010671852E+00    0.1265590236917269E-03
    0.7298410267480001E+00    0.6874689746719117E+00    0.1054598640544958E-03
    0.1617019159308944E+01    0.8553218024939370E+00    0.1534810904974393E-03
    0.2143200662875790E+01   -0.1627128009216730E+01    0.1616170425226816E-03
    0.4088840945400888E+01   -0.4351037825936264E+00    0.2724933294109133E-03
    0.2977917511248925E+01   -0.8334986483094501E+00    0.2255596931861326E-03
    0.3044093741383418E+01   -0.1814360225108581E+01    0.1622000112420497E-03
    0.3427867614805212E+01    0.3813909839972496E+00    0.2946955483430758E-03
    0.4313225855351749E+01    0.5489143376342496E+00    0.2318009573592373E-03
    0.1823033737597358E+01    0.1771265693544255E+01    0.1846202887151583E-03
    0.2806311652168375E+01    0.1358630373600680E+01    0.1948492163983817E-03
    0.1891861875936711E+01   -0.8481305365607547E+00    0.1680645501816170E-03
    0.2268769700166909E+01    0.7723791819196565E-01    0.2077307783085314E-03
    0.5000000000000000E+01    0.2504942092379412E+01    0.1250000000000000E+01
    0.5000000000000000E+01    0.2504942092379412E+01    0.2500000000000000E+01
    0.5000000000000000E+01    0.2504942092379412E+01    0.3750000000000000E+01
    0.5000000000000000E+01    0.2504942092379412E+01    0.5000000000000000E+01
    0.3750000000000000E+01    0.2504942092379412E+01    0.5000000000000000E+01
    0.2500000000000000E+01    0.2504942092379412E+01    0.5000000000000000E+01
    0.1250000000000000E+01    0.2504942092379412E+01    0.5000000000000000E+01
    0.0000000000000000E+00    0.2504942092379412E+01    0.5000000000000000E+01
    0.0000000000000000E+00    0.2504942092379412E+01    0.3750000000000000E+01
    0.0000000000000000E+00    0.2504942092379412E+01    0.2500000000000000E+01
    0.0000000000000000E+00    0.2504942092379412E+01    0.1250000000000000E+01
    0.9588960523194298E+00    0.2504942092379412E+01    0.9696533772899840E+00
    0.3981953152648400E+01    0.2504942092379412E+01    0.4070564006379007E+01
    0.4036122720370823E+01    0.2504942092379412E+01    0.1017568334018097E+01
    0.9637572679843212E+00    0.2504942092379412E+01    0.3973598333743666E+01
    0.1546540217021452E+01    0.2504942092379412E+01    0.2931570569004156E+01
    0.6973799556057403E+00    0.2504942092379412E+01    0.3070320162457474E+01
    0.8903742919605764E+00    0.2504942092379412E+01    0.2056562667654546E+01
    0.2183042032970628E+01    0.2504942092379412E+01    0.3960694675798555E+01
    0.3855845051203088E+01    0.2504942092379412E+01    0.2933250943972104E+01
    0.3152611478966366E+01    0.2504942092379412E+01    0.3637668684400748E+01
    0.3103307437094585E+01    0.2504942092379412E+01    0.4332607965243382E+01
    0.3266711405714076E+01    0.2504942092379412E+01    0.1889657252840617E+01
    0.4232537812533727E+01    0.2504942092379412E+01    0.1918627378881492E+01
    0.1905523031318268E+01    0.2504942092379412E+01    0.7226299809441209E+00
    0.2879768334359970E+01    0.2504942092379412E+01    0.9080954072529367E+00
    0.2012711726651317E+01    0.2504942092379412E+01    0.1767083097014218E+01
    0.2669681657974685E+01    0.2504942092379412E+01    0.2853394817061738E+01
    0.5000000000000000E+01    0.1250000000000000E+01    0.5000000000000000E+01
    0.5000000000000000E+01    0.0000000000000000E+00    0.5000000000000000E+01
    0.5000000000000000E+01   -0.1250000000000000E+01    0.5000000000000000E+01
    0.5000000000000000E+01   -0.2496588915429510E+01    0.5000000000000000E+01
    0.5000000000000000E+01   -0.2496588915429510E+01    0.3750000000000000E+01
    0.5000000000000000E+01   -0.2496588915429510E+01    0.2500000000000000E+01
    0.5000000000000000E+01   -0.2496588915429510E+01    0.1250000000000000E+01
    0.5000000000000000E+01    0.1578994732800803E+01    0.9058375365086910E+00
    0.5000000000000000E+01   -0.1583989954232354E+01    0.3982050490726493E+01
    0.5000000000000000E+01    0.1453322699199022E+01    0.4033849428301197E+01
    0.5000000000000000E+01   -0.1479596339503735E+01    0.1040505887381675E+01
    0.5000000000000000E+01   -0.3227322616384110E+00    0.1099454400140349E+01
    0.5000000000000000E+01    0.6593508822075582E+00    0.7354504170366591E+00
    0.5000000000000000E+01    0.8256214013940779E+00    0.1622302608453282E+01
    0.5000000000000000E+01   -0.1650070333782557E+01    0.2145871574390382E+01
    0.5000000000000000E+01   -0.4612828702537229E+00    0.4086422318222992E+01
    0.5000000000000000E+01   -0.8579242121530853E+00    0.2979540174134984E+01
    0.5000000000000000E+01   -0.1836846154397680E+01    0.3045064261640043E+01
    0.5000000000000000E+01    0.3508002863614053E+00    0.3428197553792836E+01
    0.5000000000000000E+01    0.5185680230613409E+00    0.4309693860063405E+01
    0.5000000000000000E+01    0.1738996113203182E+01    0.1827272193562204E+01
    0.5000000000000000E+01    0.1325493893339706E+01    0.2808563282768077E+01
    0.5000000000000000E+01   -0.8731419609589618E+00    0.1895995683864404E+01
    0.5000000000000000E+01    0.4906150219227333E-01    0.2273179336307740E+01
    0.0000000000000000E+00    0.1250000000000000E+01    0.5000000000000000E+01
    0.0000000000000000E+00    0.0000000000000000E+00    0.5000000000000000E+01
    0.0000000000000000E+00   -0.1250000000000000E+01    0.5000000000000000E+01
    0.0000000000000000E+00   -0.2496588915429510E+01    0.5000000000000000E+01
    0.1250000000000000E+01   -0.2496588915429510E+01    0.5000000000000000E+01
    0.2500000000000000E+01   -0.2496588915429510E+01    0.5000000000000000E+01
    0.3750000000000000E+01   -0.2496588915429510E+01    0.5000000000000000E+01
    0.4042003247744892E+01    0.1558308132739014E+01    0.5000000000000000E+01
    0.9304122287900499E+00   -0.1548001304379777E+01    0.5000000000000000E+01
    0.1037243024609388E+01    0.1462892710085612E+01    0.5000000000000000E+01
    0.3946240828834967E+01   -0.1445243809615570E+01    0.5000000000000000E+01
    0.4092527262848217E+01   -0.3455338993778935E+00    0.5000000000000000E+01
    0.4293103109154542E+01    0.6277660831404320E+00    0.5000000000000000E+01
    0.3241512314643519E+01    0.7429886854239611E+00    0.5000000000000000E+01
    0.2844289952419609E+01   -0.1588117879734118E+01    0.5000000000000000E+01
    0.7159905765450471E+00   -0.6002320124191652E+00    0.5000000000000000E+01
    0.1754341919796891E+01   -0.7398147869923652E+00    0.5000000000000000E+01
    0.1870296826774691E+01   -0.1788622905643739E+01    0.5000000000000000E+01
    0.9220614901912976E+00    0.3083720183248586E+00    0.5000000000000000E+01
    0.3101523624086016E+01    0.1777901774806180E+01    0.5000000000000000E+01
    0.2192512063922564E+01    0.1576861561598471E+01    0.5000000000000000E+01
    0.2024793420196460E+01    0.4773861992750707E+00    0.5000000000000000E+01
    0.2990627757741975E+01   -0.4878110785814084E+00    0.5000000000000000E+01
    0.0000000000000000E+00   -0.2496588915429510E+01    0.1250000000000000E+01
    0.0000000000000000E+00   -0.2496588915429510E+01    0.2500000000000000E+01
    0.0000000000000000E+00   -0.2496588915429510E+01    0.3750000000000000E+01
    0.0000000000000000E+00    0.1558308132739014E+01    0.4042003247744892E+01
    0.0000000000000000E+00   -0.1548001304379777E+01    0.9304122287900499E+00
    0.0000000000000000E+00    0.1462892710085612E+01    0.1037243024609388E+01
    0.0000000000000000E+00   -0.1445243809615570E+01    0.3946240828834967E+01
    0.0000000000000000E+00   -0.3455338993778935E+00    0.4092527262848217E+01
    0.0000000000000000E+00    0.6277660831404320E+00    0.4293103109154542E+01
    0.0000000000000000E+00    0.7429886854239611E+00    0.3241512314643519E+01
    0.0000000000000000E+00   -0.1588117879734118E+01    0.2844289952419609E+01
    0.0000000000000000E+00   -0.6002320124191652E+00    0.7159905765450471E+00
    0.0000000000000000E+00   -0.7398147869923652E+00    0.1754341919796891E+01
    0.0000000000000000E+00   -0.1788622905643739E+01    0.1870296826774691E+01
    0.0000000000000000E+00    0.3083720183248586E+00    0.9220614901912976E+00
    0.0000000000000000E+00    0.1777901774806180E+01    0.3101523624086016E+01
    0.0000000000000000E+00    0.1576861561598471E+01    0.2192512063922564E+01
[...]
POINT_DATA 213
SCALARS rho double 1
LOOKUP_TABLE default
   0.1346103993853770E+01
   0.9571903700060057E+00
   0.9461037425800485E+00
   0.9421786911591695E+00
   0.8436046177106691E+00
   0.7741799743205177E+00
   0.7627420698573001E+00
   0.7661220157402320E+00
   0.8310412566198694E+00
   0.9353489487743317E+00
   0.9343649680445533E+00
   0.9616038477811404E+00
   0.1448476028895683E+01
   0.1495411553944754E+01
   0.1646719914879374E+01
   0.1426612522492549E+01
   0.1009795308418151E+01
   0.9511284501388839E+00
   0.9438188190036076E+00
   0.9574580205900001E+00
   0.9414846232632016E+00
   0.1037108133734883E+01
   0.9258006628943394E+00
   0.9322232453433886E+00
   0.9537964773602563E+00
   0.9520323060952964E+00
   0.9350811962877165E+00
   0.9565401204783631E+00
   0.9378567520712278E+00
   0.9303315982807945E+00
   0.9446337111679128E+00
   0.8862202351669458E+00
   0.9423972846677590E+00
   0.9637378174021153E+00
   0.1008365836275446E+01
   0.1006746176560622E+01
   0.1001852550695380E+01
   0.1003122812406796E+01
   0.1004081822483708E+01
   0.1005202248767480E+01
   0.1004248608356177E+01
   0.1008252794772996E+01
   0.1023858607819089E+01
   0.1063738956947755E+01
   0.1019385136971117E+01
   0.1001768732228015E+01
   0.9646457582096706E+00
   0.1005244824116782E+01
   0.1000724682397186E+01
   0.1008678679447207E+01
   0.1008020662931264E+01
   0.1002340121149632E+01
   0.9980209454791624E+00
   0.1000589297295751E+01
   0.1001603650706824E+01
   0.9827867611642420E+00
   0.9843798711299226E+00
   0.9834042196448836E+00
   0.9790658836798273E+00
   0.9904614017254531E+00
   0.9935051505610575E+00
   0.1001924188830134E+01
   0.1002056921656579E+01
   0.1002228331022441E+01
   0.1001730254798566E+01
   0.1009833893511744E+01
   0.1006499747636776E+01
   0.9560844137468992E+00
   0.9252784844935011E+00
   0.1007055967248280E+01
   0.1004493921436566E+01
   0.9145119351212541E+00
   0.9091795553912613E+00
   0.8752647185983223E+00
   0.9767635111415083E+00
   0.1000508024541032E+01
   0.1005828509353491E+01
   0.1012915501139638E+01
   0.1011701553035759E+01
   0.1010446303660284E+01
   0.1005435864671220E+01
   0.9908923496234024E+00
   0.1005170153575076E+01
   0.9860674033398876E+00
   0.1005575213956072E+01
   0.1004234022724420E+01
   0.1002867207610061E+01
   0.1003331992660939E+01
   0.1003991651649861E+01
   0.1005101033952105E+01
   0.1003212201961299E+01
   0.1002637488121226E+01
   0.1002502741336365E+01
   0.1004057393321416E+01
   0.1004282815652109E+01
   0.1001609811469216E+01
   0.1002217661234494E+01
   0.1002468363695908E+01
   0.1003439283095710E+01
   0.1003370666672229E+01
   0.1003221127816881E+01
   0.1004423227729622E+01
   0.1004318505178552E+01
   0.1003642658165382E+01
   0.1003655849558647E+01
   0.1004293535226784E+01
   0.1004444073043928E+01
   0.1003597830402653E+01
   0.1064478495479258E+01
   0.1028431743783737E+01
   0.1009589709796403E+01
   0.1006618459290055E+01
   0.1163948049081074E+01
   0.1086027568718105E+01
   0.1007889156561680E+01
   0.1007235382264045E+01
   0.1006787930416628E+01
   0.1013043550564246E+01
   0.1019325762599161E+01
   0.1235116427782891E+01
   0.1032531310985238E+01
   0.1046547847136600E+01
   0.1201689411330664E+01
   0.1014664269076853E+01
   0.1032281619420723E+01
   0.1028207165062995E+01
   0.1014626724141003E+01
   0.1028978903620338E+01
   0.1001996531515616E+01
   0.9608243413680475E+00
   0.1006844953127458E+01
   0.1001307831529676E+01
   0.1010783428908967E+01
   0.1012221701816328E+01
   0.1000928013113160E+01
   0.9979282358435312E+00
   0.9980614892892168E+00
   0.1001176544095082E+01
   0.9841812528591342E+00
   0.9814961715851964E+00
   0.9648727904421351E+00
   0.9680839512365056E+00
   0.9914051741974086E+00
   0.9910783925095593E+00
   0.9925437733098876E+00
   0.1001710362375457E+01
   0.9993069347079530E+00
   0.9941305140508399E+00
   0.1006968142189481E+01
   0.1022601718179227E+01
   0.1001119216732776E+01
   0.1008768060735713E+01
   0.1004758468937152E+01
   0.1009009492728826E+01
   0.9967078767376349E+00
   0.1005562049510614E+01
   0.1003315936588476E+01
   0.9949741590933389E+00
   0.9833334225539888E+00
   0.9944339617232545E+00
   0.9973423006802559E+00
   0.9932309034841073E+00
   0.1001303157167568E+01
   0.1002992525133783E+01
   0.1002173038058493E+01
   0.9947102610458475E+00
   0.9937772249695379E+00
   0.1004847055098202E+01
   0.1020087962052198E+01
   0.1005326477244362E+01
   0.9816959873780271E+00
   0.1004962850982777E+01
   0.1012358366445428E+01
   0.9873618260576436E+00
   0.9551234565454626E+00
   0.9865162373000722E+00
   0.9865800919639940E+00
   0.9920001970205431E+00
   0.9934318246481804E+00
   0.9960582782557111E+00
   0.1037392264817229E+01
   0.1033148943405252E+01
   0.1001425560618487E+01
   0.1001910930433398E+01
   0.9912157799221232E+00
   0.9911014693811477E+00
   0.9649137527009942E+00
   0.9933666679118631E+00
   0.1006091568276584E+01
   0.1001960927624764E+01
   0.9908500086731211E+00
   0.9741981954690391E+00
   0.9420573364240806E+00
   0.9821364370648640E+00
   0.9794649127667514E+00
   0.9704393549647262E+00
   0.9720647991507094E+00
   0.9557768563372310E+00
   0.9498130834749939E+00
   0.9530015764813261E+00
   0.1002617860938517E+01
   0.1002470578692445E+01
   0.1000505387066071E+01
   0.1001688917758772E+01
   0.9609797973262649E+00
   0.9492852922137491E+00
   0.9586748323607980E+00
   0.1001115750653424E+01
   0.1000497531223153E+01
   0.1001172378908483E+01
   0.9807328708521460E+00
   0.9805470812941072E+00
   0.9629256050256565E+00
SCALARS u double 1
LOOKUP_TABLE default
   0.0000000000000000E+00
   0.0000000000000000E+00
   0.0000000000000000E+00
   0.0000000000000000E+00
   0.0000000000000000E+00
   0.0000000000000000E+00
   0.0000000000000000E+00
   0.0000000000000000E+00
   0.0000000000000000E+00
   0.0000000000000000E+00
   0.0000000000000000E+00
   0.0000000000000000E+00
   0.0000000000000000E+00
   0.0000000000000000E+00
   0.0000000000000000E+00
   0.0000000000000000E+00
   0.0000000000000000E+00
   0.0000000000000000E+00
   0.0000000000000000E+00
   0.0000000000000000E+00
   0.0000000000000000E+00
   0.0000000000000000E+00
   0.0000000000000000E+00
   0.0000000000000000E+00
   0.0000000000000000E+00
   0.0000000000000000E+00
   0.0000000000000000E+00
   0.0000000000000000E+00
   0.0000000000000000E+00
   0.0000000000000000E+00
   0.0000000000000000E+00
   0.0000000000000000E+00
   0.0000000000000000E+00
   0.4945072783155123E+00
   0.5336140063652830E+00
   0.5183281407121580E+00
   0.4930097282421053E+00
   0.4845536641413942E+00
   0.4867819120525331E+00
   0.4891961248031987E+00
   0.4958542932225917E+00
   0.4899039545249760E+00
   0.4718201575907696E+00
   0.4449075605304843E+00
   0.4844432963285854E+00
   0.5098760684862438E+00
   0.4401341252111179E+00
   0.4949817861491840E+00
   0.5223238994927917E+00
   0.4962866525016471E+00
   0.5224022554515642E+00
   0.5038815797116276E+00
   0.5645098719338822E+00
   0.5246817272323333E+00
   0.4991801422519804E+00
   0.5728963071410020E+00
   0.5693182378418096E+00
   0.3752068643658484E+00
   0.4003042831557217E+00
   0.5599423477638817E+00
   0.5562675239392384E+00
   0.4941822704116207E+00
   0.4948048389976442E+00
   0.4924971452949553E+00
   0.4913563707191695E+00
   0.5163189122702500E+00
   0.5363661647456950E+00
   0.4951167685526782E+00
   0.4520191380390391E+00
   0.5129271453474461E+00
   0.5118233647940698E+00
   0.4785955143428248E+00
   0.4930900406607929E+00
   0.4599955396016491E+00
   0.5242715251278963E+00
   0.5299975204080148E+00
   0.5129946852364383E+00
   0.5328899555715754E+00
   0.5309928496347619E+00
   0.5309915748461099E+00
   0.5063864568324802E+00
   0.5279321425663377E+00
   0.5409200061367530E+00
   0.5363714713702082E+00
   0.5374272696806826E+00
   0.4965526980422585E+00
   0.4975488991062542E+00
   0.4963897812173230E+00
   0.4955329191962647E+00
   0.4904111549509310E+00
   0.4901949637553756E+00
   0.4859893211166882E+00
   0.4851932145918972E+00
   0.4932040916672973E+00
   0.4910575458884217E+00
   0.4830347394974271E+00
   0.4871027339276551E+00
   0.4878378182366719E+00
   0.4871418484829441E+00
   0.4881058171383484E+00
   0.4952662155376973E+00
   0.4900693975305950E+00
   0.4903394963914081E+00
   0.4944555751798484E+00
   0.4867061166504835E+00
   0.4892684930360010E+00
   0.4881456738321748E+00
   0.4877442316293492E+00
   0.4449178704767245E+00
   0.4700238130333841E+00
   0.4891918125026669E+00
   0.4885806261602943E+00
   0.4510577542415919E+00
   0.4681652257826370E+00
   0.4876733846091663E+00
   0.4868288440363007E+00
   0.4909345921816550E+00
   0.4794074866469026E+00
   0.4658127900202197E+00
   0.3794480659470078E+00
   0.4903659434511467E+00
   0.4488145705568980E+00
   0.4432557938473204E+00
   0.4845808671119490E+00
   0.4622197820432098E+00
   0.4663850219565323E+00
   0.4747957447083188E+00
   0.4893963965015217E+00
   0.5086685811416186E+00
   0.4305169173174781E+00
   0.4927437357720267E+00
   0.5320485368608086E+00
   0.4913953491669354E+00
   0.5209580763865932E+00
   0.5062018386346908E+00
   0.5691203326105018E+00
   0.5275839026542618E+00
   0.5015545583151710E+00
   0.5821420420693608E+00
   0.5691461960574359E+00
   0.3403385197025641E+00
   0.3785942848934425E+00
   0.5753331613343518E+00
   0.5668697488384929E+00
   0.5703101322787512E+00
   0.5292031680630731E+00
   0.5449946335901349E+00
   0.5719061294684403E+00
   0.5385834150867463E+00
   0.5475993792536853E+00
   0.5821563317592955E+00
   0.4925469711282055E+00
   0.5041939803453513E+00
   0.4961441930066416E+00
   0.5562794062256350E+00
   0.4757930949800955E+00
   0.4950441708923623E+00
   0.5496544823465177E+00
   0.5889370124945885E+00
   0.5839896659822794E+00
   0.5468843541106527E+00
   0.5803823841589730E+00
   0.5106740422514139E+00
   0.5030195998153275E+00
   0.5033659717020078E+00
   0.5676455756196729E+00
   0.5564984287565576E+00
   0.4947439378993652E+00
   0.5506859642858553E+00
   0.5513610636813873E+00
   0.5658239767245201E+00
   0.4920173538783125E+00
   0.4927950773866868E+00
   0.3865611044851997E+00
   0.3688199841636798E+00
   0.5574260021376488E+00
   0.5761719135569713E+00
   0.4194187224846775E+00
   0.5822793311554328E+00
   0.4268444636593009E+00
   0.5397532602794630E+00
   0.5016314856323720E+00
   0.5119728419219556E+00
   0.5049279914940455E+00
   0.5752603719495045E+00
   0.5878506077284604E+00
   0.5382127525527752E+00
   0.5679656896645527E+00
   0.5352634907901702E+00
   0.5338885897486988E+00
   0.5582339113202809E+00
   0.5510876491745970E+00
   0.4256375886306999E+00
   0.5272555007602961E+00
   0.5796678679315345E+00
   0.3318625059158320E+00
   0.4761400123060923E+00
   0.5446482428110777E+00
   0.4800632860135446E+00
   0.3006332494802842E+00
   0.5031803460775793E+00
   0.5017760121856376E+00
   0.5129657413687724E+00
   0.5414825354090242E+00
   0.3435130497232938E+00
   0.3398367751685682E+00
   0.3190147081977383E+00
   0.5066779679894361E+00
   0.5124619261622890E+00
   0.5330051749288368E+00
   0.5881346543261474E+00
   0.4645066825070869E+00
   0.3529960150446556E+00
SCALARS v double 1
LOOKUP_TABLE default
   0.0000000000000000E+00
   0.0000000000000000E+00
   0.0000000000000000E+00
   0.0000000000000000E+00
   0.0000000000000000E+00
   0.0000000000000000E+00
   0.0000000000000000E+00
   0.0000000000000000E+00
   0.0000000000000000E+00
   0.0000000000000000E+00
   0.0000000000000000E+00
   0.0000000000000000E+00
   0.0000000000000000E+00
   0.0000000000000000E+00
   0.0000000000000000E+00
   0.0000000000000000E+00
   0.0000000000000000E+00
   0.0000000000000000E+00
   0.0000000000000000E+00
   0.0000000000000000E+00
   0.0000000000000000E+00
   0.0000000000000000E+00
   0.0000000000000000E+00
   0.0000000000000000E+00
   0.0000000000000000E+00
   0.0000000000000000E+00
   0.0000000000000000E+00
   0.0000000000000000E+00
   0.0000000000000000E+00
   0.0000000000000000E+00
   0.0000000000000000E+00
   0.0000000000000000E+00
   0.0000000000000000E+00
   0.0000000000000000E+00
   0.0000000000000000E+00
   0.0000000000000000E+00
   0.0000000000000000E+00
   0.0000000000000000E+00
   0.0000000000000000E+00
   0.0000000000000000E+00
   0.0000000000000000E+00
   0.0000000000000000E+00
   0.0000000000000000E+00
   0.0000000000000000E+00
   0.0000000000000000E+00
   0.0000000000000000E+00
   0.0000000000000000E+00
   0.0000000000000000E+00
   0.0000000000000000E+00
   0.0000000000000000E+00
   0.0000000000000000E+00
   0.0000000000000000E+00
   0.0000000000000000E+00
   0.0000000000000000E+00
   0.0000000000000000E+00
   0.0000000000000000E+00
   0.0000000000000000E+00
   0.0000000000000000E+00
   0.0000000000000000E+00
   0.0000000000000000E+00
   0.0000000000000000E+00
   0.9022728822054004E-03
  -0.1238463800152153E-02
  -0.1303474300812154E-02
   0.0000000000000000E+00
   0.0000000000000000E+00
   0.0000000000000000E+00
   0.0000000000000000E+00
  -0.1933495743716679E-01
   0.5115798470522559E-03
   0.2225035369824102E-02
   0.1419714451566778E-01
  -0.6736515306610683E-02
  -0.8137667918628451E-02
  -0.1323515121633872E-01
   0.5005939363455080E-02
   0.7472873856645370E-03
   0.3499137254084622E-02
   0.1959130939203725E-02
   0.3188317833170261E-02
   0.1778018991036998E-02
  -0.7294672295292119E-02
  -0.6588951451006371E-04
   0.4565277414950279E-02
  -0.3938756114917540E-03
  -0.6906611662101457E-04
  -0.2019064620416029E-03
   0.8169247616479842E-03
   0.0000000000000000E+00
   0.0000000000000000E+00
   0.0000000000000000E+00
   0.0000000000000000E+00
   0.5156721984970315E-03
   0.1646537180728912E-02
  -0.1287293029479902E-02
  -0.1013833427257379E-02
  -0.2100017728687583E-02
  -0.9845624670395670E-03
  -0.7650076950061263E-03
  -0.7304895946538560E-03
   0.7392956008456212E-04
  -0.5673030934571406E-03
   0.8167035589079360E-03
  -0.1730514647482125E-02
   0.3069459065103253E-03
  -0.7195886199011202E-04
  -0.8959431843704490E-03
  -0.1059054536197693E-02
   0.0000000000000000E+00
   0.0000000000000000E+00
   0.0000000000000000E+00
  -0.1036143591974569E-02
  -0.7793902897603067E-02
   0.1821158161304857E-01
  -0.2910322770661873E-04
  -0.1386124228897231E-02
  -0.2036608365757115E-02
  -0.5624076507800620E-02
  -0.1628736325754978E-02
  -0.6361685926527212E-02
  -0.4331989704272694E-02
   0.1516762329243388E-02
   0.3300169455018993E-01
   0.4061202689738986E-04
  -0.2767406188083854E-02
   0.3626690432834731E-02
   0.3828255484085331E-03
   0.0000000000000000E+00
   0.0000000000000000E+00
   0.0000000000000000E+00
   0.0000000000000000E+00
   0.0000000000000000E+00
   0.0000000000000000E+00
   0.0000000000000000E+00
   0.0000000000000000E+00
   0.0000000000000000E+00
   0.0000000000000000E+00
   0.0000000000000000E+00
   0.0000000000000000E+00
   0.0000000000000000E+00
   0.0000000000000000E+00
   0.0000000000000000E+00
   0.0000000000000000E+00
   0.0000000000000000E+00
   0.5012227669832817E-02
   0.3212087896856529E-02
   0.8133947999852842E-02
   0.6090616372704354E-02
   0.1117279948141321E-01
   0.1403268347922046E-01
  -0.3298796276888235E-03
   0.5154341306495479E-02
   0.2937954469872872E-02
   0.3377605677048668E-02
   0.3727746239670557E-02
  -0.1470978145459998E-01
  -0.6087068976432722E-03
   0.6657586457369197E-02
   0.1454918803493385E-02
   0.1972187377280008E-02
   0.4293125465868574E-02
  -0.2790765658741365E-02
   0.1286959810850867E-02
   0.2868656674753743E-02
   0.1560129727095958E-02
   0.2589519872892944E-02
   0.2027005467285032E-02
   0.2159658901911156E-02
   0.8576318618653028E-02
  -0.3840024086267314E-02
   0.6147305285732588E-02
   0.5426810961758786E-04
  -0.4340665414929802E-03
  -0.1677919075033528E-01
  -0.5015244821002569E-02
  -0.4835753816005458E-02
   0.3399480512896096E-02
  -0.6095431932468159E-02
   0.2136950359025918E-04
  -0.3286964119500118E-01
  -0.3188105164500680E-02
   0.4577074347319078E-02
   0.9847234785472156E-03
   0.2149252568938658E-02
   0.4550170253037391E-02
   0.2695754694217509E-02
   0.3251471595525403E-02
   0.5233408650728516E-02
   0.1964094398057569E-02
   0.7584336049156441E-03
  -0.6185390049374713E-04
  -0.5325931364354768E-02
  -0.6969479126277132E-02
  -0.9882344485801573E-03
   0.1071241004493514E-02
  -0.2112994612935275E-02
  -0.3216112660272508E-02
  -0.2533359035441777E-02
  -0.4122353849199276E-02
  -0.7562600769736368E-02
  -0.2024229257634597E-02
   0.6682618765845826E-03
  -0.1841156279319133E-03
   0.1249407957975492E-02
  -0.3527385707336734E-02
   0.4846795365639910E-02
  -0.8636595098525008E-02
   0.3740481110926438E-04
  -0.3387720087659748E-03
   0.2574835525321425E-02
   0.1609603368353041E-02
   0.2031895301246609E-02
  -0.5656039800854225E-02
SCALARS w double 1
LOOKUP_TABLE default
   0.0000000000000000E+00
   0.0000000000000000E+00
   0.0000000000000000E+00
   0.0000000000000000E+00
   0.0000000000000000E+00
   0.0000000000000000E+00
   0.0000000000000000E+00
   0.0000000000000000E+00
   0.0000000000000000E+00
   0.0000000000000000E+00
   0.0000000000000000E+00
   0.0000000000000000E+00
   0.0000000000000000E+00
   0.0000000000000000E+00
   0.0000000000000000E+00
   0.0000000000000000E+00
   0.0000000000000000E+00
   0.0000000000000000E+00
   0.0000000000000000E+00
   0.0000000000000000E+00
   0.0000000000000000E+00
   0.0000000000000000E+00
   0.0000000000000000E+00
   0.0000000000000000E+00
   0.0000000000000000E+00
   0.0000000000000000E+00
   0.0000000000000000E+00
   0.0000000000000000E+00
   0.0000000000000000E+00
   0.0000000000000000E+00
   0.0000000000000000E+00
   0.0000000000000000E+00
   0.0000000000000000E+00
  -0.1007395180754215E+00
  -0.4247240638767454E-01
   0.7747804228447301E-03
   0.5816602676982729E-02
   0.6821358512956711E-03
   0.1632809626717292E-02
   0.3336924571058307E-02
   0.2335849134634496E-02
   0.4617527465432177E-03
   0.3524363029991146E-02
   0.4533738654529106E-01
   0.6563907103342136E-01
   0.8952763951270208E-03
  -0.2268732298002627E-01
   0.4268031050262371E-02
   0.1344977038157114E-01
   0.1030178542511590E-01
   0.4872016041487368E-01
   0.2386536699183999E-02
  -0.6531816947632750E-02
  -0.7308618776930046E-03
   0.3053998517685749E-03
   0.3857182519376240E-02
  -0.3896622363822781E-01
   0.1819041031670181E-01
   0.1122361932405810E-01
   0.3397252088996675E-01
   0.8401845969669922E-02
   0.4985055021154765E-02
   0.5012537618123409E-02
   0.4925800516065034E-02
   0.6102969284042110E-02
   0.2716518756648944E-02
  -0.4129371167720938E-01
  -0.9926481404171632E-01
  -0.1120305905446479E+00
   0.5177518983660205E-02
   0.4298456260751944E-02
  -0.1002341187050345E+00
  -0.9888861807697073E-01
  -0.9832851135596707E-01
  -0.9441840458813118E-01
  -0.6790639089810113E-01
   0.5252653200178952E-02
  -0.1925289556604692E-01
  -0.1563866595164636E-01
  -0.5920462646674275E-02
   0.6900679046284573E-02
  -0.8001713032792415E-01
  -0.2775879650263221E-01
  -0.8083089286252265E-01
  -0.5860929651578020E-01
   0.3052565388353870E-02
   0.2690709855489303E-02
   0.2657670130538112E-02
   0.3453912191960742E-02
   0.3990289755832849E-02
   0.1199943754646264E-02
  -0.1346828532587158E-03
   0.2118391378053773E-02
   0.4883676297663514E-02
   0.3848353444570070E-02
   0.1135156316375727E-02
   0.1230350287199225E-02
   0.1509675207362234E-02
  -0.4741325913204044E-05
   0.7594265828237662E-04
   0.4380708404461094E-02
   0.2692968621255987E-02
   0.2307293120977159E-02
   0.4991369067959260E-02
   0.1136044669190085E-02
   0.2707504268111532E-02
   0.1990711799108260E-02
   0.4647555535579156E-04
   0.8385319180015581E-01
   0.2823325881500049E-02
  -0.8505527439351576E-03
  -0.1397237361415961E-03
   0.1410915443478766E+00
   0.1236411419595329E+00
  -0.1208190001820659E-02
  -0.4383870616108584E-02
  -0.2929303894350167E-03
  -0.6481705062021100E-02
  -0.1901387106106207E-02
   0.1559612218180119E+00
   0.7527412612262982E-01
   0.2566866901827423E-01
   0.1661216531320194E+00