# vtk DataFile Version 2.0
FUN3D:global_image_vtk
ASCII
DATASET UNSTRUCTURED_GRID
POINTS 213 double
   -0.5474185441687886E-02    0.2504942092379412E+01    0.8088138598670614E-04
    0.1245420105183471E+01    0.2504942092379412E+01    0.1049425058013143E-03
    0.2497696593128780E+01    0.2504942092379412E+01    0.1106298164665764E-03
    0.3750591968915824E+01    0.2504942092379412E+01    0.1366499004944181E-03
    0.5003221831742151E+01    0.2504942092379412E+01    0.9718873038898397E-04
    0.5004677687979097E+01    0.1281291702167040E+01    0.1648053019384369E-03
    0.5004773173778115E+01    0.2775179906482921E-01    0.1908478008447607E-03
    0.5003582183341212E+01   -0.1225853008883529E+01    0.1617765204486594E-03
    0.5001953033742191E+01   -0.2496588915429510E+01    0.1087258890302567E-03
    0.3750349111606544E+01   -0.2496588915429510E+01    0.1468753696815820E-03
    0.2498611962994928E+01   -0.2496588915429510E+01    0.1013933264248234E-03
    0.1247176269333276E+01   -0.2496588915429510E+01    0.1118587619169664E-03
   -0.3383459865719298E-02   -0.2496588915429510E+01    0.8157259626494252E-04
   -0.4256768979765640E-02   -0.1225734311642590E+01    0.3515458742295241E-04
   -0.5251092448509301E-02    0.2619586024420473E-01    0.1043724387187892E-03
   -0.5675060312426899E-02    0.1278222069065707E+01    0.8324601702150420E-04
    0.9003214617952581E+00    0.1608980112280158E+01    0.8754140727677862E-04
    0.3983173210692289E+01   -0.1561211404840279E+01    0.1767116720370616E-03
    0.4035602539224469E+01    0.1486761030415520E+01    0.1718312862106648E-03
    0.1036614723302902E+01   -0.1455625929916848E+01    0.1057189301532924E-03
    0.1094353980630802E+01   -0.2964612010671852E+00    0.1265590236917283E-03
    0.7298410267480001E+00    0.6874689746719117E+00    0.1054598640544968E-03
    0.1617019159308944E+01    0.8553218024939370E+00    0.1534810904974410E-03
    0.2143200662875790E+01   -0.1627128009216730E+01    0.1616170425226830E-03
    0.4088840945400888E+01   -0.4351037825936264E+00    0.2724933294109161E-03
    0.2977917511248925E+01   -0.8334986483094501E+00    0.2255596931861347E-03
    0.3044093741383418E+01   -0.1814360225108581E+01    0.1622000112420514E-03
    0.3427867614805212E+01    0.3813909839972502E+00    0.2946955483430786E-03
    0.4313225855351749E+01    0.5489143376342496E+00    0.2318009573592393E-03
    0.1823033737597358E+01    0.1771265693544255E+01    0.1846202887151600E-03
    0.2806311652168375E+01    0.1358630373600680E+01    0.1948492163983835E-03
    0.1891861875936711E+01   -0.8481305365607547E+00    0.1680645501816187E-03
    0.2268769700166909E+01    0.7723791819196595E-01    0.2077307783085335E-03
    0.5000000000000000E+01    0.2504942092379412E+01    0.1250000000000000E+01
    0.5000000000000000E+01    0.2504942092379412E+01    0.2500000000000000E+01
    0.5000000000000000E+01    0.2504942092379412E+01    0.3750000000000000E+01
    0.5000000000000000E+01    0.2504942092379412E+01    0.5000000000000000E+01
    0.3750000000000000E+01    0.2504942092379412E+01    0.5000000000000000E+01
    0.2500000000000000E+01    0.2504942092379412E+01    0.5000000000000000E+01
    0.1250000000000000E+01    0.2504942092379412E+01    0.5000000000000000E+01
    0.0000000000000000E+00    0.2504942092379412E+01    0.5000000000000000E+01
    0.0000000000000000E+00    0.2504942092379412E+01    0.3750000000000000E+01
    0.0000000000000000E+00    0.2504942092379412E+01    0.2500000000000000E+01
    0.0000000000000000E+00    0.2504942092379412E+01    0.1250000000000000E+01
    0.9588960523194298E+00    0.2504942092379412E+01    0.9696533772899837E+00
    0.3981953152648399E+01    0.2504942092379412E+01    0.4070564006379006E+01
    0.4036122720370823E+01    0.2504942092379412E+01    0.1017568334018097E+01
    0.9637572679843208E+00    0.2504942092379412E+01    0.3973598333743666E+01
    0.1546540217021452E+01    0.2504942092379412E+01    0.2931570569004155E+01
    0.6973799556057396E+00    0.2504942092379412E+01    0.3070320162457474E+01
    0.8903742919605754E+00    0.2504942092379412E+01    0.2056562667654546E+01
    0.2183042032970627E+01    0.2504942092379412E+01    0.3960694675798554E+01
    0.3855845051203088E+01    0.2504942092379412E+01    0.2933250943972104E+01
    0.3152611478966365E+01    0.2504942092379412E+01    0.3637668684400746E+01
    0.3103307437094584E+01    0.2504942092379412E+01    0.4332607965243380E+01
    0.3266711405714075E+01    0.2504942092379412E+01    0.1889657252840616E+01
    0.4232537812533727E+01    0.2504942092379412E+01    0.1918627378881491E+01
    0.1905523031318268E+01    0.2504942092379412E+01    0.7226299809441208E+00
    0.2879768334359970E+01    0.2504942092379412E+01    0.9080954072529365E+00
    0.2012711726651316E+01    0.2504942092379412E+01    0.1767083097014218E+01
    0.2669681657974684E+01    0.2504942092379412E+01    0.2853394817061737E+01
    0.5000000000000000E+01    0.1250000000000000E+01    0.5000000000000000E+01
    0.5000000000000000E+01    0.0000000000000000E+00    0.5000000000000000E+01
    0.5000000000000000E+01   -0.1250000000000000E+01    0.5000000000000000E+01
    0.5000000000000000E+01   -0.2496588915429510E+01    0.5000000000000000E+01
    0.5000000000000000E+01   -0.2496588915429510E+01    0.3750000000000000E+01
    0.5000000000000000E+01   -0.2496588915429510E+01    0.2500000000000000E+01
    0.5000000000000000E+01   -0.2496588915429510E+01    0.1250000000000000E+01
    0.5000000000000000E+01    0.1578994732800803E+01    0.9058375365086910E+00
    0.5000000000000000E+01   -0.1583989954232354E+01    0.3982050490726493E+01
    0.5000000000000000E+01    0.1453322699199022E+01    0.4033849428301197E+01
    0.5000000000000000E+01   -0.1479596339503735E+01    0.1040505887381675E+01
    0.5000000000000000E+01   -0.3227322616384110E+00    0.1099454400140349E+01
    0.5000000000000000E+01    0.6593508822075582E+00    0.7354504170366591E+00
    0.5000000000000000E+01    0.8256214013940779E+00    0.1622302608453282E+01
    0.5000000000000000E+01   -0.1650070333782557E+01    0.2145871574390382E+01
    0.5000000000000000E+01   -0.4612828702537229E+00    0.4086422318222992E+01
    0.5000000000000000E+01   -0.8579242121530853E+00    0.2979540174134984E+01
    0.5000000000000000E+01   -0.1836846154397680E+01    0.3045064261640043E+01
    0.5000000000000000E+01    0.3508002863614053E+00    0.3428197553792836E+01
    0.5000000000000000E+01    0.5185680230613409E+00    0.4309693860063405E+01
    0.5000000000000000E+01    0.1738996113203182E+01    0.1827272193562204E+01
    0.5000000000000000E+01    0.1325493893339706E+01    0.2808563282768077E+01
    0.5000000000000000E+01   -0.8731419609589618E+00    0.1895995683864404E+01
    0.5000000000000000E+01    0.4906150219227333E-01    0.2273179336307740E+01
    0.0000000000000000E+00    0.1250000000000000E+01    0.5000000000000000E+01
    0.0000000000000000E+00    0.0000000000000000E+00    0.5000000000000000E+01
    0.0000000000000000E+00   -0.1250000000000000E+01    0.5000000000000000E+01
    0.0000000000000000E+00   -0.2496588915429510E+01    0.5000000000000000E+01
    0.1250000000000000E+01   -0.2496588915429510E+01    0.5000000000000000E+01
    0.2500000000000000E+01   -0.2496588915429510E+01    0.5000000000000000E+01
    0.3750000000000000E+01   -0.2496588915429510E+01    0.5000000000000000E+01
    0.4042003247744892E+01    0.1558308132739014E+01    0.5000000000000000E+01
    0.9304122287900499E+00   -0.1548001304379777E+01    0.5000000000000000E+01
    0.1037243024609388E+01    0.1462892710085612E+01    0.5000000000000000E+01
    0.3946240828834967E+01   -0.1445243809615570E+01    0.5000000000000000E+01
    0.4092527262848217E+01   -0.3455338993778935E+00    0.5000000000000000E+01
    0.4293103109154542E+01    0.6277660831404320E+00    0.5000000000000000E+01
    0.3241512314643519E+01    0.7429886854239611E+00    0.5000000000000000E+01
    0.2844289952419609E+01   -0.1588117879734118E+01    0.5000000000000000E+01
    0.7159905765450471E+00   -0.6002320124191652E+00    0.5000000000000000E+01
    0.1754341919796891E+01   -0.7398147869923652E+00    0.5000000000000000E+01
    0.1870296826774691E+01   -0.1788622905643739E+01    0.5000000000000000E+01
    0.9220614901912976E+00    0.3083720183248586E+00    0.5000000000000000E+01
    0.3101523624086016E+01    0.1777901774806180E+01    0.5000000000000000E+01
    0.2192512063922564E+01    0.1576861561598471E+01    0.5000000000000000E+01
    0.2024793420196460E+01    0.4773861992750707E+00    0.5000000000000000E+01
    0.2990627757741975E+01   -0.4878110785814084E+00    0.5000000000000000E+01
    0.0000000000000000E+00   -0.2496588915429510E+01    0.1250000000000000E+01
    0.0000000000000000E+00   -0.2496588915429510E+01    0.2500000000000000E+01
    0.0000000000000000E+00   -0.2496588915429510E+01    0.3750000000000000E+01
    0.0000000000000000E+00    0.1558308132739014E+01    0.4042003247744892E+01
    0.0000000000000000E+00   -0.1548001304379777E+01    0.9304122287900499E+00
    0.0000000000000000E+00    0.1462892710085612E+01    0.1037243024609388E+01
    0.0000000000000000E+00   -0.1445243809615570E+01    0.3946240828834967E+01
    0.0000000000000000E+00   -0.3455338993778935E+00    0.4092527262848217E+01
    0.0000000000000000E+00    0.6277660831404320E+00    0.4293103109154542E+01
    0.0000000000000000E+00    0.7429886854239611E+00    0.3241512314643519E+01
    0.0000000000000000E+00   -0.1588117879734118E+01    0.2844289952419609E+01
    0.0000000000000000E+00   -0.6002320124191652E+00    0.7159905765450471E+00
    0.0000000000000000E+00   -0.7398147869923652E+00    0.1754341919796891E+01
    0.0000000000000000E+00   -0.1788622905643739E+01    0.1870296826774691E+01
    0.0000000000000000E+00    0.3083720183248586E+00    0.9220614901912976E+00
    0.0000000000000000E+00    0.1777901774806180E+01    0.3101523624086016E+01
    0.0000000000000000E+00    0.1576861561598471E+01    0.2192512063922564E+01
[...]
POINT_DATA 213
SCALARS rho double 1
LOOKUP_TABLE default
   0.1346108197640761E+01
   0.9572040209126365E+00
   0.9461171313598917E+00
   0.9421724668199311E+00
   0.8436076612273437E+00
   0.7742026044436641E+00
   0.7627584419902058E+00
   0.7661562319177033E+00
   0.8310488469022638E+00
   0.9353548546764724E+00
   0.9343896528192541E+00
   0.9616167842073181E+00
   0.1448475247627101E+01
   0.1495419962261612E+01
   0.1646729335898191E+01
   0.1426611200171862E+01
   0.1009807250217884E+01
   0.9511451367785581E+00
   0.9438202966367466E+00
   0.9574649528128835E+00
   0.9414971418952229E+00
   0.1037118841725862E+01
   0.9258165755667808E+00
   0.9322401727378998E+00
   0.9538057903676659E+00
   0.9520452302663124E+00
   0.9351035270584754E+00
   0.9565496149806869E+00
   0.9378638697828166E+00
   0.9303460236726363E+00
   0.9446467866382527E+00
   0.8862353206941603E+00
   0.9424047436853908E+00
   0.9637013476114488E+00
   0.1008356270083225E+01
   0.1006712430252781E+01
   0.1001958930999060E+01
   0.1003217517855483E+01
   0.1004120109285795E+01
   0.1005208059567655E+01
   0.1004249959827093E+01
   0.1008268325768329E+01
   0.1023869441825166E+01
   0.1063755465100425E+01
   0.1019394091610214E+01
   0.1001777909201315E+01
   0.9645773850801921E+00
   0.1005263323947685E+01
   0.1000745735938803E+01
   0.1008696545884096E+01
   0.1008037950597552E+01
   0.1002353857592695E+01
   0.9980195506715382E+00
   0.1000592766547029E+01
   0.1001620637374506E+01
   0.9828039206459180E+00
   0.9843899653255131E+00
   0.9834135568065225E+00
   0.9790326899146844E+00
   0.9904757250503300E+00
   0.9935193443531133E+00
   0.1002008895818193E+01
   0.1002132241248818E+01
   0.1002273086845275E+01
   0.1001793577723959E+01
   0.1009816090292861E+01
   0.1006507951731508E+01
   0.9561125282426985E+00
   0.9252807033358872E+00
   0.1007053968111983E+01
   0.1004490981381474E+01
   0.9145127930652143E+00
   0.9091570108055803E+00
   0.8752462893033651E+00
   0.9767979452973627E+00
   0.1000541357027606E+01
   0.1005826550059914E+01
   0.1012896702393029E+01
   0.1011680292931098E+01
   0.1010415973670810E+01
   0.1005456588366488E+01
   0.9909167428463355E+00
   0.1005149609141866E+01
   0.9860895058107340E+00
   0.1005593204433005E+01
   0.1004239920331240E+01
   0.1002885967543268E+01
   0.1003350061154227E+01
   0.1003997942186534E+01
   0.1005115339675036E+01
   0.1003223203989865E+01
   0.1002669118856509E+01
   0.1002589505755539E+01
   0.1004069036872026E+01
   0.1004304986512224E+01
   0.1001643153130465E+01
   0.1002279133382966E+01
   0.1002546779662661E+01
   0.1003471995300984E+01
   0.1003380234868831E+01
   0.1003233134593048E+01
   0.1004429893584895E+01
   0.1004324033788235E+01
   0.1003653014447958E+01
   0.1003718555146499E+01
   0.1004319237257854E+01
   0.1004462557017113E+01
   0.1003629390288857E+01
   0.1064485251608155E+01
   0.1028442064139241E+01
   0.1009605870382212E+01
   0.1006626983751849E+01
   0.1163967500347702E+01
   0.1086026684252867E+01
   0.1007907083705696E+01
   0.1007251822193956E+01
   0.1006796452782329E+01
   0.1013053880954477E+01
   0.1019340795316836E+01
   0.1235123063759600E+01
   0.1032535570988373E+01
   0.1046565490078844E+01
   0.1201701804089496E+01
   0.1014672135881966E+01
   0.1032297502868945E+01
   0.1028222186814344E+01
   0.1014640519585969E+01
   0.1028986926236157E+01
   0.1002003665583423E+01
   0.9608147394459937E+00
   0.1006858068450405E+01
   0.1001324892725864E+01
   0.1010798260125448E+01
   0.1012231332003289E+01
   0.1000939565046360E+01
   0.9979357795997172E+00
   0.9980690467964173E+00
   0.1001192036386882E+01
   0.9842100589582774E+00
   0.9815228293318272E+00
   0.9648740058257161E+00
   0.9680943952598791E+00
   0.9914084090756154E+00
   0.9910913024100959E+00
   0.9925587069368570E+00
   0.1001727546196680E+01
   0.9993245712030486E+00
   0.9941434317788926E+00
   0.1006982475959966E+01
   0.1022613025593322E+01
   0.1001120618154220E+01
   0.1008783932101482E+01
   0.1004774769105103E+01
   0.1009030408385474E+01
   0.9967211438880764E+00
   0.1005570713744705E+01
   0.1003324755223334E+01
   0.9949845947670632E+00
   0.9833501580907017E+00
   0.9944494642741422E+00
   0.9973474158890393E+00
   0.9932503704697923E+00
   0.1001311881043496E+01
   0.1003000704106332E+01
   0.1002188287654930E+01
   0.9947119996399720E+00
   0.9937832164101409E+00
   0.1004861700014668E+01
   0.1020101275368587E+01
   0.1005337219872533E+01
   0.9817045810428648E+00
   0.1004974591509048E+01
   0.1012374660554097E+01
   0.9873720060554577E+00
   0.9551284399397220E+00
   0.9865253564797287E+00
   0.9865916411694812E+00
   0.9920066683271948E+00
   0.9934435386274708E+00
   0.9960681969791501E+00
   0.1037400089985568E+01
   0.1033161094030270E+01
   0.1001442940339281E+01
   0.1001928630703789E+01
   0.9912313077160352E+00
   0.9911145243862768E+00
   0.9649433815818216E+00
   0.9933790272102353E+00
   0.1006090796036808E+01
   0.1001963017774924E+01
   0.9908628909981899E+00
   0.9742169773993022E+00
   0.9420655839063790E+00
   0.9821543710221117E+00
   0.9794783190085257E+00
   0.9704368459192830E+00
   0.9720886839121491E+00
   0.9557898302817228E+00
   0.9498086399871855E+00
   0.9529904215164962E+00
   0.1002635784972606E+01
   0.1002475626784918E+01
   0.1000513070410722E+01
   0.1001674837326747E+01
   0.9610034870684908E+00
   0.9492442585243348E+00
   0.9586632645290936E+00
   0.1001121356477335E+01
   0.1000501196341180E+01
   0.1001159799829652E+01
   0.9807420218094521E+00
   0.9805568522076727E+00
   0.9629217264807909E+00
SCALARS u double 1
LOOKUP_TABLE default
   0.0000000000000000E+00
   0.0000000000000000E+00
   0.0000000000000000E+00
   0.0000000000000000E+00
   0.0000000000000000E+00
   0.0000000000000000E+00
   0.0000000000000000E+00
   0.0000000000000000E+00
   0.0000000000000000E+00
   0.0000000000000000E+00
   0.0000000000000000E+00
   0.0000000000000000E+00
   0.0000000000000000E+00
   0.0000000000000000E+00
   0.0000000000000000E+00
   0.0000000000000000E+00
   0.0000000000000000E+00
   0.0000000000000000E+00
   0.0000000000000000E+00
   0.0000000000000000E+00
   0.0000000000000000E+00
   0.0000000000000000E+00
   0.0000000000000000E+00
   0.0000000000000000E+00
   0.0000000000000000E+00
   0.0000000000000000E+00
   0.0000000000000000E+00
   0.0000000000000000E+00
   0.0000000000000000E+00
   0.0000000000000000E+00
   0.0000000000000000E+00
   0.0000000000000000E+00
   0.0000000000000000E+00
   0.4945973315926224E+00
   0.5336247966518965E+00
   0.5182740361947311E+00
   0.4930714263106352E+00
   0.4847754323601285E+00
   0.4868132786295999E+00
   0.4891430861568183E+00
   0.4958009027099203E+00
   0.4899007462798449E+00
   0.4718072594028900E+00
   0.4448872765351913E+00
   0.4844370488815433E+00
   0.5097703282746935E+00
   0.4401860361556358E+00
   0.4949587151889674E+00
   0.5223003520322191E+00
   0.4962747054960804E+00
   0.5223832109124993E+00
   0.5038168272100509E+00
   0.5644336936023922E+00
   0.5245894600858332E+00
   0.4990985116747814E+00
   0.5729201736747827E+00
   0.5693592806454081E+00
   0.3752193318557702E+00
   0.4003639581538043E+00
   0.5599390283197990E+00
   0.5562258996032846E+00
   0.4942640845734620E+00
   0.4948651963556976E+00
   0.4925619040213392E+00
   0.4913967756312999E+00
   0.5162597176132405E+00
   0.5363670786143310E+00
   0.4951374051960200E+00
   0.4520512522385806E+00
   0.5129007636420757E+00
   0.5117699713708036E+00
   0.4786317284311321E+00
   0.4931121925409565E+00
   0.4600269606357645E+00
   0.5242595455776444E+00
   0.5299947172346743E+00
   0.5129700620628982E+00
   0.5328928674557726E+00
   0.5309782690214340E+00
   0.5309767574251472E+00
   0.5063651286956135E+00
   0.5279536042578479E+00
   0.5409238809177058E+00
   0.5363718908949026E+00
   0.5374201256416438E+00
   0.4965358984787533E+00
   0.4975364861537372E+00
   0.4963815216811349E+00
   0.4955155028346759E+00
   0.4904172642520971E+00
   0.4902500325333491E+00
   0.4861611359676248E+00
   0.4854067683061046E+00
   0.4931956064482207E+00
   0.4910329770089701E+00
   0.4831677547536218E+00
   0.4872468887902811E+00
   0.4880024375314166E+00
   0.4872312511557911E+00
   0.4882163948663572E+00
   0.4952576877881431E+00
   0.4900721284968672E+00
   0.4903599391501630E+00
   0.4944353110785639E+00
   0.4868191874244846E+00
   0.4892735641632992E+00
   0.4881468067224641E+00
   0.4878252516328104E+00
   0.4449106726655243E+00
   0.4700132857821631E+00
   0.4891774949936497E+00
   0.4885974720672010E+00
   0.4510294973188161E+00
   0.4681803269489441E+00
   0.4876666959166740E+00
   0.4868262829435904E+00
   0.4909268463196534E+00
   0.4793945602061498E+00
   0.4657906739696318E+00
   0.3794391409726987E+00
   0.4903636939418991E+00
   0.4487969021220115E+00
   0.4432386842582963E+00
   0.4845716440229390E+00
   0.4621867780068459E+00
   0.4663606348231861E+00
   0.4747787052561845E+00
   0.4893811632276038E+00
   0.5085638690294958E+00
   0.4305373001492964E+00
   0.4927298084536749E+00
   0.5320327207887593E+00
   0.4913855415701302E+00
   0.5209473665916189E+00
   0.5061309385968600E+00
   0.5690651107166502E+00
   0.5274990564273005E+00
   0.5015024170641411E+00
   0.5821782805651050E+00
   0.5691769445264894E+00
   0.3403301377606516E+00
   0.3786151324542832E+00
   0.5753347035373348E+00
   0.5668543364930890E+00
   0.5703059513338610E+00
   0.5291879119173059E+00
   0.5449837039393047E+00
   0.5719102717538408E+00
   0.5385667164881669E+00
   0.5475905784154863E+00
   0.5821516301514894E+00
   0.4925318905074155E+00
   0.5041571122173617E+00
   0.4961293238672968E+00
   0.5562736271307459E+00
   0.4757836605380535E+00
   0.4950183248356779E+00
   0.5496187983424821E+00
   0.5889517354950620E+00
   0.5839552625103415E+00
   0.5468175613604607E+00
   0.5803880228972526E+00
   0.5106065620667144E+00
   0.5029552656021343E+00
   0.5033112973756647E+00
   0.5676222203897752E+00
   0.5564619482468849E+00
   0.4947144984377142E+00
   0.5506785201339802E+00
   0.5513581092487906E+00
   0.5658250894359206E+00
   0.4919965191263989E+00
   0.4927864128352933E+00
   0.3865373618153321E+00
   0.3687906293972024E+00
   0.5574396923598540E+00
   0.5761715496529368E+00
   0.4194267188057601E+00
   0.5822960362966030E+00
   0.4268170477985256E+00
   0.5397379162722171E+00
   0.5016136048038208E+00
   0.5119237825921553E+00
   0.5048466782827686E+00
   0.5752734634439788E+00
   0.5878359987113643E+00
   0.5382541348536698E+00
   0.5679685850389885E+00
   0.5351985058541626E+00
   0.5338430645140720E+00
   0.5582272024528939E+00
   0.5511430425823829E+00
   0.4256686522281274E+00
   0.5272844119459407E+00
   0.5796789497620473E+00
   0.3318301780003328E+00
   0.4761646840709191E+00
   0.5446507782611686E+00
   0.4800729372303108E+00
   0.3006194658381320E+00
   0.5031625560559803E+00
   0.5017187270813510E+00
   0.5129125368655391E+00
   0.5414131206885562E+00
   0.3435099170476564E+00
   0.3397972037182828E+00
   0.3190374775585423E+00
   0.5066176571942650E+00
   0.5123823903056403E+00
   0.5329091170275917E+00
   0.5881345493681244E+00
   0.4645018990382301E+00
   0.3529493637742361E+00
SCALARS v double 1
LOOKUP_TABLE default
   0.0000000000000000E+00
   0.0000000000000000E+00
   0.0000000000000000E+00
   0.0000000000000000E+00
   0.0000000000000000E+00
   0.0000000000000000E+00
   0.0000000000000000E+00
   0.0000000000000000E+00
   0.0000000000000000E+00
   0.0000000000000000E+00
   0.0000000000000000E+00
   0.0000000000000000E+00
   0.0000000000000000E+00
   0.0000000000000000E+00
   0.0000000000000000E+00
   0.0000000000000000E+00
   0.0000000000000000E+00
   0.0000000000000000E+00
   0.0000000000000000E+00
   0.0000000000000000E+00
   0.0000000000000000E+00
   0.0000000000000000E+00
   0.0000000000000000E+00
   0.0000000000000000E+00
   0.0000000000000000E+00
   0.0000000000000000E+00
   0.0000000000000000E+00
   0.0000000000000000E+00
   0.0000000000000000E+00
   0.0000000000000000E+00
   0.0000000000000000E+00
   0.0000000000000000E+00
   0.0000000000000000E+00
   0.0000000000000000E+00
   0.0000000000000000E+00
   0.0000000000000000E+00
   0.0000000000000000E+00
   0.0000000000000000E+00
   0.0000000000000000E+00
   0.0000000000000000E+00
   0.0000000000000000E+00
   0.0000000000000000E+00
   0.0000000000000000E+00
   0.0000000000000000E+00
   0.0000000000000000E+00
   0.0000000000000000E+00
   0.0000000000000000E+00
   0.0000000000000000E+00
   0.0000000000000000E+00
   0.0000000000000000E+00
   0.0000000000000000E+00
   0.0000000000000000E+00
   0.0000000000000000E+00
   0.0000000000000000E+00
   0.0000000000000000E+00
   0.0000000000000000E+00
   0.0000000000000000E+00
   0.0000000000000000E+00
   0.0000000000000000E+00
   0.0000000000000000E+00
   0.0000000000000000E+00
   0.8508075221345507E-03
  -0.1263765115616710E-02
  -0.1294458448933180E-02
   0.0000000000000000E+00
   0.0000000000000000E+00
   0.0000000000000000E+00
   0.0000000000000000E+00
  -0.1933167582974134E-01
   0.5037579963094800E-03
   0.2213185898818415E-02
   0.1420875488570054E-01
  -0.6733066750248718E-02
  -0.8155369130809388E-02
  -0.1324508689139163E-01
   0.5002681510791844E-02
   0.7354197763835416E-03
   0.3481250126430410E-02
   0.1949282846446296E-02
   0.3168724454481978E-02
   0.1754937206945474E-02
  -0.7289638406036788E-02
  -0.6647974882781419E-04
   0.4565686432446422E-02
  -0.4086298120310550E-03
  -0.6653958237919655E-04
  -0.2024328407500985E-03
   0.8053616091606994E-03
   0.0000000000000000E+00
   0.0000000000000000E+00
   0.0000000000000000E+00
   0.0000000000000000E+00
   0.4740166027473922E-03
   0.1623476208477315E-02
  -0.1273519585233201E-02
  -0.9988416841103672E-03
  -0.2077601160740414E-02
  -0.9970512640059097E-03
  -0.7512703351504041E-03
  -0.7430882793783526E-03
   0.6013901744654883E-04
  -0.5976408040161280E-03
   0.8033001821600104E-03
  -0.1730545551770897E-02
   0.3140945815859221E-03
  -0.5786535731289636E-04
  -0.8901895427741076E-03
  -0.1053194051424564E-02
   0.0000000000000000E+00
   0.0000000000000000E+00
   0.0000000000000000E+00
  -0.1035473665558583E-02
  -0.7791715564205036E-02
   0.1821114972153414E-01
  -0.2907379735795417E-04
  -0.1376997759991114E-02
  -0.2028314203382078E-02
  -0.5613331496867555E-02
  -0.1620478899555634E-02
  -0.6358858838491513E-02
  -0.4327529589574349E-02
   0.1516528023250697E-02
   0.3300083091130017E-01
   0.4397061159613683E-04
  -0.2766681082987005E-02
   0.3629402036799902E-02
   0.3917469377465413E-03
   0.0000000000000000E+00
   0.0000000000000000E+00
   0.0000000000000000E+00
   0.0000000000000000E+00
   0.0000000000000000E+00
   0.0000000000000000E+00
   0.0000000000000000E+00
   0.0000000000000000E+00
   0.0000000000000000E+00
   0.0000000000000000E+00
   0.0000000000000000E+00
   0.0000000000000000E+00
   0.0000000000000000E+00
   0.0000000000000000E+00
   0.0000000000000000E+00
   0.0000000000000000E+00
   0.0000000000000000E+00
   0.4996967022532424E-02
   0.3210187215642853E-02
   0.8121789156060440E-02
   0.6089626952086954E-02
   0.1117051484222235E-01
   0.1403198971526685E-01
  -0.3288497574514592E-03
   0.5160325074100421E-02
   0.2928865642667077E-02
   0.3376783022477271E-02
   0.3724190221894415E-02
  -0.1469862734953387E-01
  -0.6149043719917306E-03
   0.6636941753556869E-02
   0.1453262143001891E-02
   0.1957691328154807E-02
   0.4261439017281521E-02
  -0.2811582747538074E-02
   0.1265483483517537E-02
   0.2850414281924099E-02
   0.1533830950195941E-02
   0.2562438898708744E-02
   0.2009328151347823E-02
   0.2152900272318208E-02
   0.8578465921841092E-02
  -0.3835714772162365E-02
   0.6146233134027007E-02
   0.4620518795136192E-04
  -0.4247804577389387E-03
  -0.1674688212071695E-01
  -0.5005014132676595E-02
  -0.4835521695777589E-02
   0.3396938159798537E-02
  -0.6079326544861144E-02
   0.2525045693754239E-04
  -0.3285392193416389E-01
  -0.3188810120173538E-02
   0.4573354967852398E-02
   0.9670278760669513E-03
   0.2132608356223551E-02
   0.4531864429423599E-02
   0.2691320159767037E-02
   0.3250781237416943E-02
   0.5226683473338206E-02
   0.1957689127023104E-02
   0.7476512322258144E-03
  -0.6133275062298165E-04
  -0.5321954310772110E-02
  -0.6966493046446486E-02
  -0.9690280152492830E-03
   0.1057793835753772E-02
  -0.2117751269264474E-02
  -0.3224081026102305E-02
  -0.2538200084060566E-02
  -0.4117267317969722E-02
  -0.7559174141144634E-02
  -0.2014245598374523E-02
   0.6495740827402232E-03
  -0.1932172890838237E-03
   0.1227178583398400E-02
  -0.3503805551584332E-02
   0.4855563485489278E-02
  -0.8634992069035327E-02
   0.3164758264094683E-04
  -0.3337163845543949E-03
   0.2557974005151793E-02
   0.1609326784261346E-02
   0.2028235303598946E-02
  -0.5642908013228751E-02
SCALARS w double 1
LOOKUP_TABLE default
   0.0000000000000000E+00
   0.0000000000000000E+00
   0.0000000000000000E+00
   0.0000000000000000E+00
   0.0000000000000000E+00
   0.0000000000000000E+00
   0.0000000000000000E+00
   0.0000000000000000E+00
   0.0000000000000000E+00
   0.0000000000000000E+00
   0.0000000000000000E+00
   0.0000000000000000E+00
   0.0000000000000000E+00
   0.0000000000000000E+00
   0.0000000000000000E+00
   0.0000000000000000E+00
   0.0000000000000000E+00
   0.0000000000000000E+00
   0.0000000000000000E+00
   0.0000000000000000E+00
   0.0000000000000000E+00
   0.0000000000000000E+00
   0.0000000000000000E+00
   0.0000000000000000E+00
   0.0000000000000000E+00
   0.0000000000000000E+00
   0.0000000000000000E+00
   0.0000000000000000E+00
   0.0000000000000000E+00
   0.0000000000000000E+00
   0.0000000000000000E+00
   0.0000000000000000E+00
   0.0000000000000000E+00
  -0.1007323662673683E+00
  -0.4246425178987749E-01
   0.7113219538772180E-03
   0.5703900195282789E-02
   0.5677947302479017E-03
   0.1606450913101735E-02
   0.3372456433609185E-02
   0.2364334178435278E-02
   0.4714543435253285E-03
   0.3527024007280845E-02
   0.4532837502307179E-01
   0.6564281201313443E-01
   0.8375616231056207E-03
  -0.2265942933280250E-01
   0.4272680121173552E-02
   0.1342684751623504E-01
   0.1030062837906998E-01
   0.4871553212214689E-01
   0.2383977256059764E-02
  -0.6536047961484071E-02
  -0.7361260858385110E-03
   0.3059807334284712E-03
   0.3852864086451228E-02
  -0.3894172715169313E-01
   0.1818956426995169E-01
   0.1121938427070407E-01
   0.3396113223674763E-01
   0.8384113688645941E-02
   0.4923996948059273E-02
   0.4973331037048939E-02
   0.4900455155996715E-02
   0.6056653786216087E-02
   0.2699559052172808E-02
  -0.4126446339635758E-01
  -0.9925929569699946E-01
  -0.1120358586232535E+00
   0.5146220740421912E-02
   0.4213970789402074E-02
  -0.1002565392149500E+00
  -0.9892856279077229E-01
  -0.9835933778453820E-01
  -0.9444627160866036E-01
  -0.6789775973560337E-01
   0.5197098421720157E-02
  -0.1927014199656353E-01
  -0.1562811878723325E-01
  -0.5965368288306142E-02
   0.6821888452286183E-02
  -0.8000749382721355E-01
  -0.2776958782952760E-01
  -0.8085909982889937E-01
  -0.5863345915677984E-01
   0.3074012603706003E-02
   0.2684908069111659E-02
   0.2644247384511247E-02
   0.3456848981683268E-02
   0.3997735604129622E-02
   0.1199150451770570E-02
  -0.1356266923348052E-03
   0.2028495987359415E-02
   0.4893504839538193E-02
   0.3864261323852685E-02
   0.1125877928056866E-02
   0.1187836338600570E-02
   0.1459877720753588E-02
  -0.2250272506070787E-04
   0.9081381148508963E-04
   0.4386510028592801E-02
   0.2712004799965725E-02
   0.2316478215003355E-02
   0.5006619057644922E-02
   0.1069266410660323E-02
   0.2706704964140046E-02
   0.2010201439267794E-02
   0.3345582860819344E-04
   0.8386120426001895E-01
   0.2833933248982572E-02
  -0.8465874161746246E-03
  -0.1275276723783800E-03
   0.1410969044071823E+00
   0.1236587092832866E+00
  -0.1228601136487238E-02
  -0.4383024484316173E-02
  -0.2803862490710150E-03
  -0.6478051180020365E-02
  -0.1893642398256971E-02
   0.1559598991629064E+00
   0.7528206939212374E-01
   0.2567698278824977E-01
   0.1661257802037529E+00