# vtk DataFile Version 2.0
FUN3D:global_image_vtk
ASCII
DATASET UNSTRUCTURED_GRID
POINTS 213 double
   -0.5474185441687767E-02    0.2504942092379412E+01    0.8088138598670427E-04
    0.1245420105183471E+01    0.2504942092379412E+01    0.1049425058013120E-03
    0.2497696593128780E+01    0.2504942092379412E+01    0.1106298164665741E-03
    0.3750591968915824E+01    0.2504942092379412E+01    0.1366499004944150E-03
    0.5003221831742151E+01    0.2504942092379412E+01    0.9718873038898170E-04
    0.5004677687979097E+01    0.1281291702167040E+01    0.1648053019384339E-03
    0.5004773173778115E+01    0.2775179906482862E-01    0.1908478008447569E-03
    0.5003582183341212E+01   -0.1225853008883529E+01    0.1617765204486557E-03
    0.5001953033742191E+01   -0.2496588915429510E+01    0.1087258890302544E-03
    0.3750349111606544E+01   -0.2496588915429510E+01    0.1468753696815790E-03
    0.2498611962994928E+01   -0.2496588915429510E+01    0.1013933264248211E-03
    0.1247176269333276E+01   -0.2496588915429510E+01    0.1118587619169642E-03
   -0.3383459865719226E-02   -0.2496588915429510E+01    0.8157259626494065E-04
   -0.4256768979765543E-02   -0.1225734311642590E+01    0.3515458742295165E-04
   -0.5251092448509203E-02    0.2619586024420425E-01    0.1043724387187873E-03
   -0.5675060312426779E-02    0.1278222069065707E+01    0.8324601702150233E-04
    0.9003214617952581E+00    0.1608980112280158E+01    0.8754140727677675E-04
    0.3983173210692289E+01   -0.1561211404840279E+01    0.1767116720370579E-03
    0.4035602539224469E+01    0.1486761030415520E+01    0.1718312862106610E-03
    0.1036614723302902E+01   -0.1455625929916848E+01    0.1057189301532901E-03
    0.1094353980630802E+01   -0.2964612010671852E+00    0.1265590236917253E-03
    0.7298410267480001E+00    0.6874689746719117E+00    0.1054598640544945E-03
    0.1617019159308944E+01    0.8553218024939370E+00    0.1534810904974373E-03
    0.2143200662875790E+01   -0.1627128009216730E+01    0.1616170425226799E-03
    0.4088840945400888E+01   -0.4351037825936264E+00    0.2724933294109100E-03
    0.2977917511248925E+01   -0.8334986483094501E+00    0.2255596931861301E-03
    0.3044093741383418E+01   -0.1814360225108581E+01    0.1622000112420476E-03
    0.3427867614805212E+01    0.3813909839972488E+00    0.2946955483430725E-03
    0.4313225855351749E+01    0.5489143376342496E+00    0.2318009573592348E-03
    0.1823033737597358E+01    0.1771265693544255E+01    0.1846202887151563E-03
    0.2806311652168375E+01    0.1358630373600680E+01    0.1948492163983797E-03
    0.1891861875936711E+01   -0.8481305365607547E+00    0.1680645501816150E-03
    0.2268769700166909E+01    0.7723791819196527E-01    0.2077307783085289E-03
    0.5000000000000000E+01    0.2504942092379412E+01    0.1250000000000000E+01
    0.5000000000000000E+01    0.2504942092379412E+01    0.2500000000000000E+01
    0.5000000000000000E+01    0.2504942092379412E+01    0.3750000000000000E+01
    0.5000000000000000E+01    0.2504942092379412E+01    0.5000000000000000E+01
    0.3750000000000000E+01    0.2504942092379412E+01    0.5000000000000000E+01
    0.2500000000000000E+01    0.2504942092379412E+01    0.5000000000000000E+01
    0.1250000000000000E+01    0.2504942092379412E+01    0.5000000000000000E+01
    0.0000000000000000E+00    0.2504942092379412E+01    0.5000000000000000E+01
    0.0000000000000000E+00    0.2504942092379412E+01    0.3750000000000000E+01
    0.0000000000000000E+00    0.2504942092379412E+01    0.2500000000000000E+01
    0.0000000000000000E+00    0.2504942092379412E+01    0.1250000000000000E+01
    0.9588960523194295E+00    0.2504942092379412E+01    0.9696533772899840E+00
    0.3981953152648400E+01    0.2504942092379412E+01    0.4070564006379007E+01
    0.4036122720370824E+01    0.2504942092379412E+01    0.1017568334018097E+01
    0.9637572679843212E+00    0.2504942092379412E+01    0.3973598333743665E+01
    0.1546540217021453E+01    0.2504942092379412E+01    0.2931570569004156E+01
    0.6973799556057408E+00    0.2504942092379412E+01    0.3070320162457474E+01
    0.8903742919605772E+00    0.2504942092379412E+01    0.2056562667654546E+01
    0.2183042032970628E+01    0.2504942092379412E+01    0.3960694675798556E+01
    0.3855845051203087E+01    0.2504942092379412E+01    0.2933250943972104E+01
    0.3152611478966365E+01    0.2504942092379412E+01    0.3637668684400749E+01
    0.3103307437094585E+01    0.2504942092379412E+01    0.4332607965243382E+01
    0.3266711405714076E+01    0.2504942092379412E+01    0.1889657252840617E+01
    0.4232537812533727E+01    0.2504942092379412E+01    0.1918627378881492E+01
    0.1905523031318268E+01    0.2504942092379412E+01    0.7226299809441208E+00
    0.2879768334359970E+01    0.2504942092379412E+01    0.9080954072529368E+00
    0.2012711726651317E+01    0.2504942092379412E+01    0.1767083097014218E+01
    0.2669681657974685E+01    0.2504942092379412E+01    0.2853394817061738E+01
    0.5000000000000000E+01    0.1250000000000000E+01    0.5000000000000000E+01
    0.5000000000000000E+01    0.0000000000000000E+00    0.5000000000000000E+01
    0.5000000000000000E+01   -0.1250000000000000E+01    0.5000000000000000E+01
    0.5000000000000000E+01   -0.2496588915429510E+01    0.5000000000000000E+01
    0.5000000000000000E+01   -0.2496588915429510E+01    0.3750000000000000E+01
    0.5000000000000000E+01   -0.2496588915429510E+01    0.2500000000000000E+01
    0.5000000000000000E+01   -0.2496588915429510E+01    0.1250000000000000E+01
    0.5000000000000000E+01    0.1578994732800803E+01    0.9058375365086910E+00
    0.5000000000000000E+01   -0.1583989954232354E+01    0.3982050490726493E+01
    0.5000000000000000E+01    0.1453322699199022E+01    0.4033849428301197E+01
    0.5000000000000000E+01   -0.1479596339503735E+01    0.1040505887381675E+01
    0.5000000000000000E+01   -0.3227322616384110E+00    0.1099454400140349E+01
    0.5000000000000000E+01    0.6593508822075582E+00    0.7354504170366591E+00
    0.5000000000000000E+01    0.8256214013940779E+00    0.1622302608453282E+01
    0.5000000000000000E+01   -0.1650070333782557E+01    0.2145871574390382E+01
    0.5000000000000000E+01   -0.4612828702537229E+00    0.4086422318222992E+01
    0.5000000000000000E+01   -0.8579242121530853E+00    0.2979540174134984E+01
    0.5000000000000000E+01   -0.1836846154397680E+01    0.3045064261640043E+01
    0.5000000000000000E+01    0.3508002863614053E+00    0.3428197553792836E+01
    0.5000000000000000E+01    0.5185680230613409E+00    0.4309693860063405E+01
    0.5000000000000000E+01    0.1738996113203182E+01    0.1827272193562204E+01
    0.5000000000000000E+01    0.1325493893339706E+01    0.2808563282768077E+01
    0.5000000000000000E+01   -0.8731419609589618E+00    0.1895995683864404E+01
    0.5000000000000000E+01    0.4906150219227333E-01    0.2273179336307740E+01
    0.0000000000000000E+00    0.1250000000000000E+01    0.5000000000000000E+01
    0.0000000000000000E+00    0.0000000000000000E+00    0.5000000000000000E+01
    0.0000000000000000E+00   -0.1250000000000000E+01    0.5000000000000000E+01
    0.0000000000000000E+00   -0.2496588915429510E+01    0.5000000000000000E+01
    0.1250000000000000E+01   -0.2496588915429510E+01    0.5000000000000000E+01
    0.2500000000000000E+01   -0.2496588915429510E+01    0.5000000000000000E+01
    0.3750000000000000E+01   -0.2496588915429510E+01    0.5000000000000000E+01
    0.4042003247744892E+01    0.1558308132739014E+01    0.5000000000000000E+01
    0.9304122287900499E+00   -0.1548001304379777E+01    0.5000000000000000E+01
    0.1037243024609388E+01    0.1462892710085612E+01    0.5000000000000000E+01
    0.3946240828834967E+01   -0.1445243809615570E+01    0.5000000000000000E+01
    0.4092527262848217E+01   -0.3455338993778935E+00    0.5000000000000000E+01
    0.4293103109154542E+01    0.6277660831404320E+00    0.5000000000000000E+01
    0.3241512314643519E+01    0.7429886854239611E+00    0.5000000000000000E+01
    0.2844289952419609E+01   -0.1588117879734118E+01    0.5000000000000000E+01
    0.7159905765450471E+00   -0.6002320124191652E+00    0.5000000000000000E+01
    0.1754341919796891E+01   -0.7398147869923652E+00    0.5000000000000000E+01
    0.1870296826774691E+01   -0.1788622905643739E+01    0.5000000000000000E+01
    0.9220614901912976E+00    0.3083720183248586E+00    0.5000000000000000E+01
    0.3101523624086016E+01    0.1777901774806180E+01    0.5000000000000000E+01
    0.2192512063922564E+01    0.1576861561598471E+01    0.5000000000000000E+01
    0.2024793420196460E+01    0.4773861992750707E+00    0.5000000000000000E+01
    0.2990627757741975E+01   -0.4878110785814084E+00    0.5000000000000000E+01
    0.0000000000000000E+00   -0.2496588915429510E+01    0.1250000000000000E+01
    0.0000000000000000E+00   -0.2496588915429510E+01    0.2500000000000000E+01
    0.0000000000000000E+00   -0.2496588915429510E+01    0.3750000000000000E+01
    0.0000000000000000E+00    0.1558308132739014E+01    0.4042003247744892E+01
    0.0000000000000000E+00   -0.1548001304379777E+01    0.9304122287900499E+00
    0.0000000000000000E+00    0.1462892710085612E+01    0.1037243024609388E+01
    0.0000000000000000E+00   -0.1445243809615570E+01    0.3946240828834967E+01
    0.0000000000000000E+00   -0.3455338993778935E+00    0.4092527262848217E+01
    0.0000000000000000E+00    0.6277660831404320E+00    0.4293103109154542E+01
    0.0000000000000000E+00    0.7429886854239611E+00    0.3241512314643519E+01
    0.0000000000000000E+00   -0.1588117879734118E+01    0.2844289952419609E+01
    0.0000000000000000E+00   -0.6002320124191652E+00    0.7159905765450471E+00
    0.0000000000000000E+00   -0.7398147869923652E+00    0.1754341919796891E+01
    0.0000000000000000E+00   -0.1788622905643739E+01    0.1870296826774691E+01
    0.0000000000000000E+00    0.3083720183248586E+00    0.9220614901912976E+00
    0.0000000000000000E+00    0.1777901774806180E+01    0.3101523624086016E+01
    0.0000000000000000E+00    0.1576861561598471E+01    0.2192512063922564E+01
[...]
POINT_DATA 213
SCALARS rho double 1
LOOKUP_TABLE default
   0.1346108197403173E+01
   0.9572040207697325E+00
   0.9461171312363118E+00
   0.9421724661859304E+00
   0.8436076592699552E+00
   0.7742026042459857E+00
   0.7627584418037132E+00
   0.7661562318560970E+00
   0.8310488466795090E+00
   0.9353548545051417E+00
   0.9343896527745627E+00
   0.9616167840404592E+00
   0.1448475247348944E+01
   0.1495419962186716E+01
   0.1646729335743548E+01
   0.1426611200028284E+01
   0.1009807250072667E+01
   0.9511451366787281E+00
   0.9438202959391496E+00
   0.9574649526052673E+00
   0.9414971417867257E+00
   0.1037118841606605E+01
   0.9258165753682198E+00
   0.9322401726440299E+00
   0.9538057902802142E+00
   0.9520452301405103E+00
   0.9351035270095371E+00
   0.9565496147158932E+00
   0.9378638699262065E+00
   0.9303460234771896E+00
   0.9446467863471726E+00
   0.8862353206000655E+00
   0.9424047435414010E+00
   0.9637013384097755E+00
   0.1008356270412889E+01
   0.1006712431005861E+01
   0.1001958928768577E+01
   0.1003217517287303E+01
   0.1004120109628554E+01
   0.1005208059484877E+01
   0.1004249959902316E+01
   0.1008268325681566E+01
   0.1023869441711532E+01
   0.1063755465067997E+01
   0.1019394091422045E+01
   0.1001777909493312E+01
   0.9645773724873165E+00
   0.1005263323902376E+01
   0.1000745735787933E+01
   0.1008696545783740E+01
   0.1008037950449326E+01
   0.1002353857419779E+01
   0.9980195506600495E+00
   0.1000592766092953E+01
   0.1001620637379471E+01
   0.9828039212774606E+00
   0.9843899639463142E+00
   0.9834135569489697E+00
   0.9790326873405104E+00
   0.9904757252388967E+00
   0.9935193442714054E+00
   0.1002008893100424E+01
   0.1002132239554007E+01
   0.1002273086866972E+01
   0.1001793577793616E+01
   0.1009816089333860E+01
   0.1006507951590383E+01
   0.9561125275081495E+00
   0.9252807008148388E+00
   0.1007053967528995E+01
   0.1004490981340561E+01
   0.9145127931877062E+00
   0.9091570103969182E+00
   0.8752462904286020E+00
   0.9767979461794144E+00
   0.1000541357076479E+01
   0.1005826549719147E+01
   0.1012896702622489E+01
   0.1011680292848461E+01
   0.1010415973778112E+01
   0.1005456587775644E+01
   0.9909167438262868E+00
   0.1005149609154120E+01
   0.9860895058409294E+00
   0.1005593204316100E+01
   0.1004239920270888E+01
   0.1002885967609145E+01
   0.1003350061301861E+01
   0.1003997942176614E+01
   0.1005115339686135E+01
   0.1003223203956625E+01
   0.1002669119766946E+01
   0.1002589503921151E+01
   0.1004069036733100E+01
   0.1004304986749800E+01
   0.1001643153848079E+01
   0.1002279132662679E+01
   0.1002546778361246E+01
   0.1003471995332799E+01
   0.1003380235172408E+01
   0.1003233134490928E+01
   0.1004429893899196E+01
   0.1004324033895962E+01
   0.1003653014543342E+01
   0.1003718555264707E+01
   0.1004319237305217E+01
   0.1004462556977030E+01
   0.1003629390579178E+01
   0.1064485251206591E+01
   0.1028442064155157E+01
   0.1009605870342860E+01
   0.1006626983714375E+01
   0.1163967500516875E+01
   0.1086026684415469E+01
   0.1007907083773017E+01
   0.1007251822238495E+01
   0.1006796452800965E+01
   0.1013053880808604E+01
   0.1019340795305702E+01
   0.1235123063678717E+01
   0.1032535570805590E+01
   0.1046565490093649E+01
   0.1201701803938400E+01
   0.1014672135791090E+01
   0.1032297502739069E+01
   0.1028222186624443E+01
   0.1014640519498934E+01
   0.1028986926140434E+01
   0.1002003665116462E+01
   0.9608147387457432E+00
   0.1006858068447609E+01
   0.1001324892655919E+01
   0.1010798260129278E+01
   0.1012231331914772E+01
   0.1000939565091109E+01
   0.9979357795116889E+00
   0.9980690470069100E+00
   0.1001192036596971E+01
   0.9842100587905680E+00
   0.9815228289601805E+00
   0.9648740054112401E+00
   0.9680943948992038E+00
   0.9914084089706058E+00
   0.9910913023325982E+00
   0.9925587068893509E+00
   0.1001727546147521E+01
   0.9993245711571653E+00
   0.9941434316953606E+00
   0.1006982475902763E+01
   0.1022613025506577E+01
   0.1001120617973868E+01
   0.1008783932048405E+01
   0.1004774768996660E+01
   0.1009030408287653E+01
   0.9967211437322924E+00
   0.1005570713563704E+01
   0.1003324755198791E+01
   0.9949845947138392E+00
   0.9833501576340692E+00
   0.9944494638756655E+00
   0.9973474156283323E+00
   0.9932503705271569E+00
   0.1001311880864763E+01
   0.1003000704001012E+01
   0.1002188287589912E+01
   0.9947119995930895E+00
   0.9937832163313898E+00
   0.1004861699953950E+01
   0.1020101275286586E+01
   0.1005337219794833E+01
   0.9817045809446316E+00
   0.1004974591521255E+01
   0.1012374660569707E+01
   0.9873720056783144E+00
   0.9551284398120191E+00
   0.9865253564760624E+00
   0.9865916409629092E+00
   0.9920066684660618E+00
   0.9934435384358039E+00
   0.9960681968384678E+00
   0.1037400089947525E+01
   0.1033161093985237E+01
   0.1001442939891679E+01
   0.1001928630483574E+01
   0.9912313077925484E+00
   0.9911145243581342E+00
   0.9649433816631947E+00
   0.9933790272587466E+00
   0.1006090795925829E+01
   0.1001963017484700E+01
   0.9908628909661377E+00
   0.9742169784335919E+00
   0.9420655834691759E+00
   0.9821543708738654E+00
   0.9794783190686606E+00
   0.9704368459743570E+00
   0.9720886838553057E+00
   0.9557898298437328E+00
   0.9498086398740780E+00
   0.9529904214629017E+00
   0.1002635785059391E+01
   0.1002475626814089E+01
   0.1000513070343294E+01
   0.1001674837080362E+01
   0.9610034873934313E+00
   0.9492442583318692E+00
   0.9586632647000586E+00
   0.1001121356388912E+01
   0.1000501196447318E+01
   0.1001159799533829E+01
   0.9807420217429706E+00
   0.9805568521668027E+00
   0.9629217261783012E+00
SCALARS u double 1
LOOKUP_TABLE default
   0.0000000000000000E+00
   0.0000000000000000E+00
   0.0000000000000000E+00
   0.0000000000000000E+00
   0.0000000000000000E+00
   0.0000000000000000E+00
   0.0000000000000000E+00
   0.0000000000000000E+00
   0.0000000000000000E+00
   0.0000000000000000E+00
   0.0000000000000000E+00
   0.0000000000000000E+00
   0.0000000000000000E+00
   0.0000000000000000E+00
   0.0000000000000000E+00
   0.0000000000000000E+00
   0.0000000000000000E+00
   0.0000000000000000E+00
   0.0000000000000000E+00
   0.0000000000000000E+00
   0.0000000000000000E+00
   0.0000000000000000E+00
   0.0000000000000000E+00
   0.0000000000000000E+00
   0.0000000000000000E+00
   0.0000000000000000E+00
   0.0000000000000000E+00
   0.0000000000000000E+00
   0.0000000000000000E+00
   0.0000000000000000E+00
   0.0000000000000000E+00
   0.0000000000000000E+00
   0.0000000000000000E+00
   0.4945973418371702E+00
   0.5336247955873531E+00
   0.5182740374483091E+00
   0.4930714247359883E+00
   0.4847754289244839E+00
   0.4868132780993553E+00
   0.4891430856215415E+00
   0.4958009032121810E+00
   0.4899007461816720E+00
   0.4718072595361084E+00
   0.4448872765416776E+00
   0.4844370489649165E+00
   0.5097703328795218E+00
   0.4401860370618053E+00
   0.4949587153793007E+00
   0.5223003521972026E+00
   0.4962747055640481E+00
   0.5223832110691914E+00
   0.5038168275917562E+00
   0.5644336931545032E+00
   0.5245894609679699E+00
   0.4990985135287043E+00
   0.5729201739401564E+00
   0.5693592812923773E+00
   0.3752193319134831E+00
   0.4003639578825129E+00
   0.5599390283627227E+00
   0.5562258998844387E+00
   0.4942640814038118E+00
   0.4948651936120893E+00
   0.4925619034036329E+00
   0.4913967759975776E+00
   0.5162597176677167E+00
   0.5363670785732515E+00
   0.4951374058935478E+00
   0.4520512546550593E+00
   0.5129007640233312E+00
   0.5117699739002251E+00
   0.4786317282827297E+00
   0.4931121927784780E+00
   0.4600269595825500E+00
   0.5242595448357480E+00
   0.5299947171947734E+00
   0.5129700633360105E+00
   0.5328928674517550E+00
   0.5309782688438686E+00
   0.5309767584724585E+00
   0.5063651300037044E+00
   0.5279536029212363E+00
   0.5409238806256824E+00
   0.5363718909319405E+00
   0.5374201255365525E+00
   0.4965358985971929E+00
   0.4975364862756205E+00
   0.4963815217573432E+00
   0.4955155028973601E+00
   0.4904172644190606E+00
   0.4902500324296135E+00
   0.4861611367803173E+00
   0.4854067621201842E+00
   0.4931956063031479E+00
   0.4910329764268272E+00
   0.4831677538510393E+00
   0.4872468842218352E+00
   0.4880024308740581E+00
   0.4872312481190294E+00
   0.4882163950963909E+00
   0.4952576876303940E+00
   0.4900721283830592E+00
   0.4903599390655693E+00
   0.4944353105350341E+00
   0.4868191862244924E+00
   0.4892735628145737E+00
   0.4881468054823024E+00
   0.4878252499652063E+00
   0.4449106735370891E+00
   0.4700132857324428E+00
   0.4891774950462988E+00
   0.4885974722024257E+00
   0.4510294968711253E+00
   0.4681803267920036E+00
   0.4876666961808560E+00
   0.4868262831018929E+00
   0.4909268466358008E+00
   0.4793945602946749E+00
   0.4657906738064916E+00
   0.3794391410661460E+00
   0.4903636941827652E+00
   0.4487969021209952E+00
   0.4432386844910260E+00
   0.4845716441195809E+00
   0.4621867782080074E+00
   0.4663606348946549E+00
   0.4747787052663794E+00
   0.4893811633508224E+00
   0.5085638673571463E+00
   0.4305373000369253E+00
   0.4927298085212166E+00
   0.5320327206231207E+00
   0.4913855415068042E+00
   0.5209473667483262E+00
   0.5061309381045169E+00
   0.5690651105582837E+00
   0.5274990556417414E+00
   0.5015024162565102E+00
   0.5821782807457266E+00
   0.5691769446386148E+00
   0.3403301378377248E+00
   0.3786151326726103E+00
   0.5753347038229332E+00
   0.5668543363538132E+00
   0.5703059513632619E+00
   0.5291879121130862E+00
   0.5449837040296032E+00
   0.5719102718076802E+00
   0.5385667165686809E+00
   0.5475905785676335E+00
   0.5821516302979168E+00
   0.4925318906276560E+00
   0.5041571126046724E+00
   0.4961293239962229E+00
   0.5562736272018425E+00
   0.4757836606357477E+00
   0.4950183246835539E+00
   0.5496187986166273E+00
   0.5889517356762806E+00
   0.5839552623775027E+00
   0.5468175621456607E+00
   0.5803880226987893E+00
   0.5106065628023156E+00
   0.5029552660219575E+00
   0.5033112987993510E+00
   0.5676222205667439E+00
   0.5564619486805770E+00
   0.4947144986583399E+00
   0.5506785201992814E+00
   0.5513581093485873E+00
   0.5658250895107851E+00
   0.4919965192234157E+00
   0.4927864129126966E+00
   0.3865373622410390E+00
   0.3687906294970476E+00
   0.5574396924439636E+00
   0.5761715497765955E+00
   0.4194267189344961E+00
   0.5822960364865800E+00
   0.4268170479518343E+00
   0.5397379162728714E+00
   0.5016136047903753E+00
   0.5119237848934782E+00
   0.5048466788074808E+00
   0.5752734638829003E+00
   0.5878359987539080E+00
   0.5382541349644770E+00
   0.5679685851610199E+00
   0.5351985056451319E+00
   0.5338430653166716E+00
   0.5582272026159661E+00
   0.5511430429669250E+00
   0.4256686536718517E+00
   0.5272844121729228E+00
   0.5796789499260621E+00
   0.3318301779271109E+00
   0.4761646841279334E+00
   0.5446507783973600E+00
   0.4800729373858507E+00
   0.3006194657702135E+00
   0.5031625559601521E+00
   0.5017187273403261E+00
   0.5129125373145530E+00
   0.5414131221067935E+00
   0.3435099181320518E+00
   0.3397972036674967E+00
   0.3190374775839096E+00
   0.5066176568308561E+00
   0.5123823893608618E+00
   0.5329091176508354E+00
   0.5881345494796328E+00
   0.4645018990638738E+00
   0.3529493639185950E+00
SCALARS v double 1
LOOKUP_TABLE default
   0.0000000000000000E+00
   0.0000000000000000E+00
   0.0000000000000000E+00
   0.0000000000000000E+00
   0.0000000000000000E+00
   0.0000000000000000E+00
   0.0000000000000000E+00
   0.0000000000000000E+00
   0.0000000000000000E+00
   0.0000000000000000E+00
   0.0000000000000000E+00
   0.0000000000000000E+00
   0.0000000000000000E+00
   0.0000000000000000E+00
   0.0000000000000000E+00
   0.0000000000000000E+00
   0.0000000000000000E+00
   0.0000000000000000E+00
   0.0000000000000000E+00
   0.0000000000000000E+00
   0.0000000000000000E+00
   0.0000000000000000E+00
   0.0000000000000000E+00
   0.0000000000000000E+00
   0.0000000000000000E+00
   0.0000000000000000E+00
   0.0000000000000000E+00
   0.0000000000000000E+00
   0.0000000000000000E+00
   0.0000000000000000E+00
   0.0000000000000000E+00
   0.0000000000000000E+00
   0.0000000000000000E+00
   0.0000000000000000E+00
   0.0000000000000000E+00
   0.0000000000000000E+00
   0.0000000000000000E+00
   0.0000000000000000E+00
   0.0000000000000000E+00
   0.0000000000000000E+00
   0.0000000000000000E+00
   0.0000000000000000E+00
   0.0000000000000000E+00
   0.0000000000000000E+00
   0.0000000000000000E+00
   0.0000000000000000E+00
   0.0000000000000000E+00
   0.0000000000000000E+00
   0.0000000000000000E+00
   0.0000000000000000E+00
   0.0000000000000000E+00
   0.0000000000000000E+00
   0.0000000000000000E+00
   0.0000000000000000E+00
   0.0000000000000000E+00
   0.0000000000000000E+00
   0.0000000000000000E+00
   0.0000000000000000E+00
   0.0000000000000000E+00
   0.0000000000000000E+00
   0.0000000000000000E+00
   0.8508074101099487E-03
  -0.1263768131979100E-02
  -0.1294460730670467E-02
   0.0000000000000000E+00
   0.0000000000000000E+00
   0.0000000000000000E+00
   0.0000000000000000E+00
  -0.1933167240931657E-01
   0.5037582255069651E-03
   0.2213186283057247E-02
   0.1420875470708526E-01
  -0.6733066830960319E-02
  -0.8155367557644528E-02
  -0.1324508589876094E-01
   0.5002681719306548E-02
   0.7354211024369404E-03
   0.3481251160604489E-02
   0.1949283267789364E-02
   0.3168725747494452E-02
   0.1754937986296639E-02
  -0.7289636561689947E-02
  -0.6647928785492781E-04
   0.4565686680226712E-02
  -0.4086294843376369E-03
  -0.6653953460181618E-04
  -0.2024327640818727E-03
   0.8053616475976768E-03
   0.0000000000000000E+00
   0.0000000000000000E+00
   0.0000000000000000E+00
   0.0000000000000000E+00
   0.4740166070148909E-03
   0.1623476097098054E-02
  -0.1273519690533472E-02
  -0.9988435963259096E-03
  -0.2077605008136782E-02
  -0.9970537758480576E-03
  -0.7512720727670113E-03
  -0.7430900325512876E-03
   0.6013895389150527E-04
  -0.5976415223637022E-03
   0.8032998414742532E-03
  -0.1730545579850016E-02
   0.3140940241684432E-03
  -0.5786548974965881E-04
  -0.8901897255320794E-03
  -0.1053195934095556E-02
   0.0000000000000000E+00
   0.0000000000000000E+00
   0.0000000000000000E+00
  -0.1035473590341684E-02
  -0.7791715680131635E-02
   0.1821114963563136E-01
  -0.2907380361190246E-04
  -0.1376997716031125E-02
  -0.2028314121105690E-02
  -0.5613331541994348E-02
  -0.1620478784423110E-02
  -0.6358858791719024E-02
  -0.4327529545371983E-02
   0.1516528035371423E-02
   0.3300083093439567E-01
   0.4397059288940370E-04
  -0.2766681093823469E-02
   0.3629401980272143E-02
   0.3917469399598985E-03
   0.0000000000000000E+00
   0.0000000000000000E+00
   0.0000000000000000E+00
   0.0000000000000000E+00
   0.0000000000000000E+00
   0.0000000000000000E+00
   0.0000000000000000E+00
   0.0000000000000000E+00
   0.0000000000000000E+00
   0.0000000000000000E+00
   0.0000000000000000E+00
   0.0000000000000000E+00
   0.0000000000000000E+00
   0.0000000000000000E+00
   0.0000000000000000E+00
   0.0000000000000000E+00
   0.0000000000000000E+00
   0.4996967067220156E-02
   0.3210187296801387E-02
   0.8121789199680938E-02
   0.6089626943279749E-02
   0.1117051483680852E-01
   0.1403198972421244E-01
  -0.3288497035326295E-03
   0.5160325124326052E-02
   0.2928865714940291E-02
   0.3376783064137367E-02
   0.3724190219756251E-02
  -0.1469862732472294E-01
  -0.6149042696588016E-03
   0.6636941896086389E-02
   0.1453261881570570E-02
   0.1957691241524874E-02
   0.4261439531198797E-02
  -0.2811582962359532E-02
   0.1265484174015046E-02
   0.2850414492465530E-02
   0.1533831270993113E-02
   0.2562439479571652E-02
   0.2009328575322896E-02
   0.2152900308644374E-02
   0.8578465945560785E-02
  -0.3835714746365285E-02
   0.6146233127345497E-02
   0.4620526313929539E-04
  -0.4247803951723064E-03
  -0.1674688206233244E-01
  -0.5005014046348039E-02
  -0.4835521652082164E-02
   0.3396938186239342E-02
  -0.6079326594202817E-02
   0.2525048049779535E-04
  -0.3285392187981554E-01
  -0.3188810092993479E-02
   0.4573354971253054E-02
   0.9670288258191132E-03
   0.2132608593764177E-02
   0.4531864870458661E-02
   0.2691320483804890E-02
   0.3250781286879198E-02
   0.5226683758011163E-02
   0.1957689513050264E-02
   0.7476522265026355E-03
  -0.6133257970053779E-04
  -0.5321954089305978E-02
  -0.6966491852061072E-02
  -0.9690284041128416E-03
   0.1057793868251687E-02
  -0.2117751152111092E-02
  -0.3224080896320614E-02
  -0.2538200326669252E-02
  -0.4117267377817955E-02
  -0.7559174143999105E-02
  -0.2014245516214118E-02
   0.6495746181198370E-03
  -0.1932164263782448E-03
   0.1227179360230797E-02
  -0.3503805269631949E-02
   0.4855563669005862E-02
  -0.8634991974106363E-02
   0.3164821622275273E-04
  -0.3337159486202546E-03
   0.2557974280699744E-02
   0.1609326892488751E-02
   0.2028235341210495E-02
  -0.5642907805270113E-02
SCALARS w double 1
LOOKUP_TABLE default
   0.0000000000000000E+00
   0.0000000000000000E+00
   0.0000000000000000E+00
   0.0000000000000000E+00
   0.0000000000000000E+00
   0.0000000000000000E+00
   0.0000000000000000E+00
   0.0000000000000000E+00
   0.0000000000000000E+00
   0.0000000000000000E+00
   0.0000000000000000E+00
   0.0000000000000000E+00
   0.0000000000000000E+00
   0.0000000000000000E+00
   0.0000000000000000E+00
   0.0000000000000000E+00
   0.0000000000000000E+00
   0.0000000000000000E+00
   0.0000000000000000E+00
   0.0000000000000000E+00
   0.0000000000000000E+00
   0.0000000000000000E+00
   0.0000000000000000E+00
   0.0000000000000000E+00
   0.0000000000000000E+00
   0.0000000000000000E+00
   0.0000000000000000E+00
   0.0000000000000000E+00
   0.0000000000000000E+00
   0.0000000000000000E+00
   0.0000000000000000E+00
   0.0000000000000000E+00
   0.0000000000000000E+00
  -0.1007323689456223E+00
  -0.4246425374367232E-01
   0.7113225483668956E-03
   0.5703902260384373E-02
   0.5677948062987173E-03
   0.1606449844453132E-02
   0.3372456651955298E-02
   0.2364334259927475E-02
   0.4714544012175918E-03
   0.3527024039712950E-02
   0.4532837502594374E-01
   0.6564281198883823E-01
   0.8375610003735362E-03
  -0.2265942852335852E-01
   0.4272679972812801E-02
   0.1342684755863737E-01
   0.1030062839190588E-01
   0.4871553214107485E-01
   0.2383977311458092E-02
  -0.6536048333520553E-02
  -0.7361257144152947E-03
   0.3059800897738175E-03
   0.3852864004286421E-02
  -0.3894172846593112E-01
   0.1818956429696506E-01
   0.1121938463762164E-01
   0.3396113232241422E-01
   0.8384113792321391E-02
   0.4923998316512909E-02
   0.4973331006215254E-02
   0.4900453971802473E-02
   0.6056652162535719E-02
   0.2699557825411502E-02
  -0.4126446358185724E-01
  -0.9925929580054468E-01
  -0.1120358585527271E+00
   0.5146219964297875E-02
   0.4213972388083639E-02
  -0.1002565391725908E+00
  -0.9892856295717654E-01
  -0.9835933779383028E-01
  -0.9444627217330653E-01
  -0.6789775971306400E-01
   0.5197098911363801E-02
  -0.1927014133237078E-01
  -0.1562811878003901E-01
  -0.5965367369128752E-02
   0.6821889813733826E-02
  -0.8000749590215490E-01
  -0.2776958774819036E-01
  -0.8085909973239008E-01
  -0.5863345908087555E-01
   0.3074012836499354E-02
   0.2684908107024821E-02
   0.2644247168414508E-02
   0.3456848885201787E-02
   0.3997735790406172E-02
   0.1199151164689385E-02
  -0.1356270407556942E-03
   0.2028497283987735E-02
   0.4893505100199300E-02
   0.3864261084986470E-02
   0.1125876678358601E-02
   0.1187836784052486E-02
   0.1459877399631348E-02
  -0.2250345520217980E-04
   0.9081378789686849E-04
   0.4386510190378972E-02
   0.2712004431759666E-02
   0.2316478268445709E-02
   0.5006619034404251E-02
   0.1069265757990630E-02
   0.2706704693212322E-02
   0.2010201469967378E-02
   0.3345567627271635E-04
   0.8386120465857626E-01
   0.2833933339593646E-02
  -0.8465874244554367E-03
  -0.1275277439090341E-03
   0.1410969043984322E+00
   0.1236587092867461E+00
  -0.1228601229880300E-02
  -0.4383024475230857E-02
  -0.2803862875610221E-03
  -0.6478051191647250E-02
  -0.1893642345261878E-02
   0.1559598991563485E+00
   0.7528206941529682E-01
   0.2567698281046099E-01
   0.1661257801809652E+00