# vtk DataFile Version 2.0
FUN3D:global_image_vtk
ASCII
DATASET UNSTRUCTURED_GRID
POINTS 213 double
   -0.5474185441687767E-02    0.2504942092379412E+01    0.8088138598670427E-04
    0.1245420105183471E+01    0.2504942092379412E+01    0.1049425058013120E-03
    0.2497696593128780E+01    0.2504942092379412E+01    0.1106298164665741E-03
    0.3750591968915824E+01    0.2504942092379412E+01    0.1366499004944150E-03
    0.5003221831742151E+01    0.2504942092379412E+01    0.9718873038898170E-04
    0.5004677687979097E+01    0.1281291702167040E+01    0.1648053019384339E-03
    0.5004773173778115E+01    0.2775179906482862E-01    0.1908478008447569E-03
    0.5003582183341212E+01   -0.1225853008883529E+01    0.1617765204486557E-03
    0.5001953033742191E+01   -0.2496588915429510E+01    0.1087258890302544E-03
    0.3750349111606544E+01   -0.2496588915429510E+01    0.1468753696815790E-03
    0.2498611962994928E+01   -0.2496588915429510E+01    0.1013933264248211E-03
    0.1247176269333276E+01   -0.2496588915429510E+01    0.1118587619169642E-03
   -0.3383459865719226E-02   -0.2496588915429510E+01    0.8157259626494065E-04
   -0.4256768979765543E-02   -0.1225734311642590E+01    0.3515458742295165E-04
   -0.5251092448509203E-02    0.2619586024420425E-01    0.1043724387187873E-03
   -0.5675060312426779E-02    0.1278222069065707E+01    0.8324601702150233E-04
    0.9003214617952581E+00    0.1608980112280158E+01    0.8754140727677675E-04
    0.3983173210692289E+01   -0.1561211404840279E+01    0.1767116720370579E-03
    0.4035602539224469E+01    0.1486761030415520E+01    0.1718312862106610E-03
    0.1036614723302902E+01   -0.1455625929916848E+01    0.1057189301532901E-03
    0.1094353980630802E+01   -0.2964612010671852E+00    0.1265590236917253E-03
    0.7298410267480001E+00    0.6874689746719117E+00    0.1054598640544945E-03
    0.1617019159308944E+01    0.8553218024939370E+00    0.1534810904974373E-03
    0.2143200662875790E+01   -0.1627128009216730E+01    0.1616170425226799E-03
    0.4088840945400888E+01   -0.4351037825936264E+00    0.2724933294109100E-03
    0.2977917511248925E+01   -0.8334986483094501E+00    0.2255596931861301E-03
    0.3044093741383418E+01   -0.1814360225108581E+01    0.1622000112420476E-03
    0.3427867614805212E+01    0.3813909839972488E+00    0.2946955483430725E-03
    0.4313225855351749E+01    0.5489143376342496E+00    0.2318009573592348E-03
    0.1823033737597358E+01    0.1771265693544255E+01    0.1846202887151563E-03
    0.2806311652168375E+01    0.1358630373600680E+01    0.1948492163983797E-03
    0.1891861875936711E+01   -0.8481305365607547E+00    0.1680645501816150E-03
    0.2268769700166909E+01    0.7723791819196527E-01    0.2077307783085289E-03
    0.5000000000000000E+01    0.2504942092379412E+01    0.1250000000000000E+01
    0.5000000000000000E+01    0.2504942092379412E+01    0.2500000000000000E+01
    0.5000000000000000E+01    0.2504942092379412E+01    0.3750000000000000E+01
    0.5000000000000000E+01    0.2504942092379412E+01    0.5000000000000000E+01
    0.3750000000000000E+01    0.2504942092379412E+01    0.5000000000000000E+01
    0.2500000000000000E+01    0.2504942092379412E+01    0.5000000000000000E+01
    0.1250000000000000E+01    0.2504942092379412E+01    0.5000000000000000E+01
    0.0000000000000000E+00    0.2504942092379412E+01    0.5000000000000000E+01
    0.0000000000000000E+00    0.2504942092379412E+01    0.3750000000000000E+01
    0.0000000000000000E+00    0.2504942092379412E+01    0.2500000000000000E+01
    0.0000000000000000E+00    0.2504942092379412E+01    0.1250000000000000E+01
    0.9588960523194295E+00    0.2504942092379412E+01    0.9696533772899841E+00
    0.3981953152648399E+01    0.2504942092379412E+01    0.4070564006379007E+01
    0.4036122720370824E+01    0.2504942092379412E+01    0.1017568334018097E+01
    0.9637572679843213E+00    0.2504942092379412E+01    0.3973598333743665E+01
    0.1546540217021453E+01    0.2504942092379412E+01    0.2931570569004156E+01
    0.6973799556057408E+00    0.2504942092379412E+01    0.3070320162457474E+01
    0.8903742919605773E+00    0.2504942092379412E+01    0.2056562667654546E+01
    0.2183042032970628E+01    0.2504942092379412E+01    0.3960694675798556E+01
    0.3855845051203087E+01    0.2504942092379412E+01    0.2933250943972104E+01
    0.3152611478966365E+01    0.2504942092379412E+01    0.3637668684400749E+01
    0.3103307437094585E+01    0.2504942092379412E+01    0.4332607965243382E+01
    0.3266711405714076E+01    0.2504942092379412E+01    0.1889657252840617E+01
    0.4232537812533727E+01    0.2504942092379412E+01    0.1918627378881492E+01
    0.1905523031318268E+01    0.2504942092379412E+01    0.7226299809441208E+00
    0.2879768334359970E+01    0.2504942092379412E+01    0.9080954072529368E+00
    0.2012711726651317E+01    0.2504942092379412E+01    0.1767083097014218E+01
    0.2669681657974685E+01    0.2504942092379412E+01    0.2853394817061738E+01
    0.5000000000000000E+01    0.1250000000000000E+01    0.5000000000000000E+01
    0.5000000000000000E+01    0.0000000000000000E+00    0.5000000000000000E+01
    0.5000000000000000E+01   -0.1250000000000000E+01    0.5000000000000000E+01
    0.5000000000000000E+01   -0.2496588915429510E+01    0.5000000000000000E+01
    0.5000000000000000E+01   -0.2496588915429510E+01    0.3750000000000000E+01
    0.5000000000000000E+01   -0.2496588915429510E+01    0.2500000000000000E+01
    0.5000000000000000E+01   -0.2496588915429510E+01    0.1250000000000000E+01
    0.5000000000000000E+01    0.1578994732800803E+01    0.9058375365086910E+00
    0.5000000000000000E+01   -0.1583989954232354E+01    0.3982050490726493E+01
    0.5000000000000000E+01    0.1453322699199022E+01    0.4033849428301197E+01
    0.5000000000000000E+01   -0.1479596339503735E+01    0.1040505887381675E+01
    0.5000000000000000E+01   -0.3227322616384110E+00    0.1099454400140349E+01
    0.5000000000000000E+01    0.6593508822075582E+00    0.7354504170366591E+00
    0.5000000000000000E+01    0.8256214013940779E+00    0.1622302608453282E+01
    0.5000000000000000E+01   -0.1650070333782557E+01    0.2145871574390382E+01
    0.5000000000000000E+01   -0.4612828702537229E+00    0.4086422318222992E+01
    0.5000000000000000E+01   -0.8579242121530853E+00    0.2979540174134984E+01
    0.5000000000000000E+01   -0.1836846154397680E+01    0.3045064261640043E+01
    0.5000000000000000E+01    0.3508002863614053E+00    0.3428197553792836E+01
    0.5000000000000000E+01    0.5185680230613409E+00    0.4309693860063405E+01
    0.5000000000000000E+01    0.1738996113203182E+01    0.1827272193562204E+01
    0.5000000000000000E+01    0.1325493893339706E+01    0.2808563282768077E+01
    0.5000000000000000E+01   -0.8731419609589618E+00    0.1895995683864404E+01
    0.5000000000000000E+01    0.4906150219227333E-01    0.2273179336307740E+01
    0.0000000000000000E+00    0.1250000000000000E+01    0.5000000000000000E+01
    0.0000000000000000E+00    0.0000000000000000E+00    0.5000000000000000E+01
    0.0000000000000000E+00   -0.1250000000000000E+01    0.5000000000000000E+01
    0.0000000000000000E+00   -0.2496588915429510E+01    0.5000000000000000E+01
    0.1250000000000000E+01   -0.2496588915429510E+01    0.5000000000000000E+01
    0.2500000000000000E+01   -0.2496588915429510E+01    0.5000000000000000E+01
    0.3750000000000000E+01   -0.2496588915429510E+01    0.5000000000000000E+01
    0.4042003247744892E+01    0.1558308132739014E+01    0.5000000000000000E+01
    0.9304122287900499E+00   -0.1548001304379777E+01    0.5000000000000000E+01
    0.1037243024609388E+01    0.1462892710085612E+01    0.5000000000000000E+01
    0.3946240828834967E+01   -0.1445243809615570E+01    0.5000000000000000E+01
    0.4092527262848217E+01   -0.3455338993778935E+00    0.5000000000000000E+01
    0.4293103109154542E+01    0.6277660831404320E+00    0.5000000000000000E+01
    0.3241512314643519E+01    0.7429886854239611E+00    0.5000000000000000E+01
    0.2844289952419609E+01   -0.1588117879734118E+01    0.5000000000000000E+01
    0.7159905765450471E+00   -0.6002320124191652E+00    0.5000000000000000E+01
    0.1754341919796891E+01   -0.7398147869923652E+00    0.5000000000000000E+01
    0.1870296826774691E+01   -0.1788622905643739E+01    0.5000000000000000E+01
    0.9220614901912976E+00    0.3083720183248586E+00    0.5000000000000000E+01
    0.3101523624086016E+01    0.1777901774806180E+01    0.5000000000000000E+01
    0.2192512063922564E+01    0.1576861561598471E+01    0.5000000000000000E+01
    0.2024793420196460E+01    0.4773861992750707E+00    0.5000000000000000E+01
    0.2990627757741975E+01   -0.4878110785814084E+00    0.5000000000000000E+01
    0.0000000000000000E+00   -0.2496588915429510E+01    0.1250000000000000E+01
    0.0000000000000000E+00   -0.2496588915429510E+01    0.2500000000000000E+01
    0.0000000000000000E+00   -0.2496588915429510E+01    0.3750000000000000E+01
    0.0000000000000000E+00    0.1558308132739014E+01    0.4042003247744892E+01
    0.0000000000000000E+00   -0.1548001304379777E+01    0.9304122287900499E+00
    0.0000000000000000E+00    0.1462892710085612E+01    0.1037243024609388E+01
    0.0000000000000000E+00   -0.1445243809615570E+01    0.3946240828834967E+01
    0.0000000000000000E+00   -0.3455338993778935E+00    0.4092527262848217E+01
    0.0000000000000000E+00    0.6277660831404320E+00    0.4293103109154542E+01
    0.0000000000000000E+00    0.7429886854239611E+00    0.3241512314643519E+01
    0.0000000000000000E+00   -0.1588117879734118E+01    0.2844289952419609E+01
    0.0000000000000000E+00   -0.6002320124191652E+00    0.7159905765450471E+00
    0.0000000000000000E+00   -0.7398147869923652E+00    0.1754341919796891E+01
    0.0000000000000000E+00   -0.1788622905643739E+01    0.1870296826774691E+01
    0.0000000000000000E+00    0.3083720183248586E+00    0.9220614901912976E+00
    0.0000000000000000E+00    0.1777901774806180E+01    0.3101523624086016E+01
    0.0000000000000000E+00    0.1576861561598471E+01    0.2192512063922564E+01
[...]
POINT_DATA 213
SCALARS rho double 1
LOOKUP_TABLE default
   0.1346108197406434E+01
   0.9572040207748780E+00
   0.9461171312496202E+00
   0.9421724662354010E+00
   0.8436076593578982E+00
   0.7742026042581502E+00
   0.7627584418099302E+00
   0.7661562318583935E+00
   0.8310488466813035E+00
   0.9353548545116198E+00
   0.9343896527805657E+00
   0.9616167840487895E+00
   0.1448475247359297E+01
   0.1495419962190945E+01
   0.1646729335750007E+01
   0.1426611200029893E+01
   0.1009807250078176E+01
   0.9511451366823072E+00
   0.9438202959815397E+00
   0.9574649526143840E+00
   0.9414971417919272E+00
   0.1037118841610662E+01
   0.9258165753769989E+00
   0.9322401726500478E+00
   0.9538057902836490E+00
   0.9520452301473563E+00
   0.9351035270156208E+00
   0.9565496147287638E+00
   0.9378638699225089E+00
   0.9303460234864596E+00
   0.9446467863687811E+00
   0.8862353206062359E+00
   0.9424047435482874E+00
   0.9637013387333973E+00
   0.1008356270387648E+01
   0.1006712430990668E+01
   0.1001958928817471E+01
   0.1003217517314084E+01
   0.1004120109643399E+01
   0.1005208059483502E+01
   0.1004249959899454E+01
   0.1008268325686985E+01
   0.1023869441715484E+01
   0.1063755465072075E+01
   0.1019394091427519E+01
   0.1001777909485282E+01
   0.9645773729449434E+00
   0.1005263323907012E+01
   0.1000745735796916E+01
   0.1008696545789082E+01
   0.1008037950455497E+01
   0.1002353857426739E+01
   0.9980195506565163E+00
   0.1000592766101346E+01
   0.1001620637385370E+01
   0.9828039212585664E+00
   0.9843899639858643E+00
   0.9834135569435457E+00
   0.9790326873949066E+00
   0.9904757252358404E+00
   0.9935193442814114E+00
   0.1002008893173168E+01
   0.1002132239610231E+01
   0.1002273086873308E+01
   0.1001793577800902E+01
   0.1009816089354156E+01
   0.1006507951594718E+01
   0.9561125275370075E+00
   0.9252807009051391E+00
   0.1007053967541533E+01
   0.1004490981338833E+01
   0.9145127931793874E+00
   0.9091570104047935E+00
   0.8752462903851180E+00
   0.9767979461503555E+00
   0.1000541357074915E+01
   0.1005826549720385E+01
   0.1012896702615451E+01
   0.1011680292849288E+01
   0.1010415973771813E+01
   0.1005456587774566E+01
   0.9909167437709820E+00
   0.1005149609153014E+01
   0.9860895058386029E+00
   0.1005593204327683E+01
   0.1004239920269886E+01
   0.1002885967607796E+01
   0.1003350061303358E+01
   0.1003997942178647E+01
   0.1005115339687616E+01
   0.1003223203959614E+01
   0.1002669119758605E+01
   0.1002589503973170E+01
   0.1004069036737917E+01
   0.1004304986750915E+01
   0.1001643153837439E+01
   0.1002279132691478E+01
   0.1002546778428659E+01
   0.1003471995348917E+01
   0.1003380235170861E+01
   0.1003233134495022E+01
   0.1004429893900790E+01
   0.1004324033893929E+01
   0.1003653014548300E+01
   0.1003718555267061E+01
   0.1004319237313327E+01
   0.1004462556983265E+01
   0.1003629390568292E+01
   0.1064485251224759E+01
   0.1028442064155512E+01
   0.1009605870346793E+01
   0.1006626983717095E+01
   0.1163967500510611E+01
   0.1086026684409526E+01
   0.1007907083775829E+01
   0.1007251822238053E+01
   0.1006796452799343E+01
   0.1013053880814999E+01
   0.1019340795307171E+01
   0.1235123063682117E+01
   0.1032535570813525E+01
   0.1046565490095625E+01
   0.1201701803944428E+01
   0.1014672135794543E+01
   0.1032297502744327E+01
   0.1028222186632412E+01
   0.1014640519502121E+01
   0.1028986926145181E+01
   0.1002003665127441E+01
   0.9608147387753769E+00
   0.1006858068451169E+01
   0.1001324892663591E+01
   0.1010798260131886E+01
   0.1012231331919747E+01
   0.1000939565091449E+01
   0.9979357795162446E+00
   0.9980690470027449E+00
   0.1001192036595424E+01
   0.9842100587985009E+00
   0.9815228289740943E+00
   0.9648740054237835E+00
   0.9680943949154369E+00
   0.9914084089744466E+00
   0.9910913023368056E+00
   0.9925587068922276E+00
   0.1001727546150430E+01
   0.9993245711624836E+00
   0.9941434317014926E+00
   0.1006982475906701E+01
   0.1022613025510839E+01
   0.1001120617979060E+01
   0.1008783932052045E+01
   0.1004774769002152E+01
   0.1009030408293520E+01
   0.9967211437390615E+00
   0.1005570713568513E+01
   0.1003324755201259E+01
   0.9949845947160906E+00
   0.9833501576535371E+00
   0.9944494638914740E+00
   0.9973474156352934E+00
   0.9932503705247280E+00
   0.1001311880873480E+01
   0.1003000704005002E+01
   0.1002188287596872E+01
   0.9947119995954763E+00
   0.9937832163356969E+00
   0.1004861699956338E+01
   0.1020101275292162E+01
   0.1005337219799846E+01
   0.9817045809493393E+00
   0.1004974591523641E+01
   0.1012374660572521E+01
   0.9873720056907850E+00
   0.9551284398180923E+00
   0.9865253564796082E+00
   0.9865916409732408E+00
   0.9920066684612933E+00
   0.9934435384433185E+00
   0.9960681968428564E+00
   0.1037400089949787E+01
   0.1033161093987926E+01
   0.1001442939894378E+01
   0.1001928630487739E+01
   0.9912313077906055E+00
   0.9911145243604266E+00
   0.9649433816620271E+00
   0.9933790272580559E+00
   0.1006090795928673E+01
   0.1001963017491281E+01
   0.9908628909692637E+00
   0.9742169783860771E+00
   0.9420655834880004E+00
   0.9821543708884953E+00
   0.9794783190682704E+00
   0.9704368459706383E+00
   0.9720886838584158E+00
   0.9557898298618651E+00
   0.9498086398734503E+00
   0.9529904214599462E+00
   0.1002635785059890E+01
   0.1002475626814647E+01
   0.1000513070348660E+01
   0.1001674837088312E+01
   0.9610034873930410E+00
   0.9492442583323123E+00
   0.9586632646921376E+00
   0.1001121356392309E+01
   0.1000501196446745E+01
   0.1001159799546325E+01
   0.9807420217471144E+00
   0.9805568521680705E+00
   0.9629217261853465E+00
SCALARS u double 1
LOOKUP_TABLE default
   0.0000000000000000E+00
   0.0000000000000000E+00
   0.0000000000000000E+00
   0.0000000000000000E+00
   0.0000000000000000E+00
   0.0000000000000000E+00
   0.0000000000000000E+00
   0.0000000000000000E+00
   0.0000000000000000E+00
   0.0000000000000000E+00
   0.0000000000000000E+00
   0.0000000000000000E+00
   0.0000000000000000E+00
   0.0000000000000000E+00
   0.0000000000000000E+00
   0.0000000000000000E+00
   0.0000000000000000E+00
   0.0000000000000000E+00
   0.0000000000000000E+00
   0.0000000000000000E+00
   0.0000000000000000E+00
   0.0000000000000000E+00
   0.0000000000000000E+00
   0.0000000000000000E+00
   0.0000000000000000E+00
   0.0000000000000000E+00
   0.0000000000000000E+00
   0.0000000000000000E+00
   0.0000000000000000E+00
   0.0000000000000000E+00
   0.0000000000000000E+00
   0.0000000000000000E+00
   0.0000000000000000E+00
   0.4945973414948344E+00
   0.5336247956235431E+00
   0.5182740374240402E+00
   0.4930714247508793E+00
   0.4847754289720093E+00
   0.4868132781220049E+00
   0.4891430856085656E+00
   0.4958009031961261E+00
   0.4899007461808579E+00
   0.4718072595317530E+00
   0.4448872765372787E+00
   0.4844370489631496E+00
   0.5097703327813894E+00
   0.4401860370945612E+00
   0.4949587153705501E+00
   0.5223003521897337E+00
   0.4962747055594735E+00
   0.5223832110629095E+00
   0.5038168275675986E+00
   0.5644336931392626E+00
   0.5245894609297408E+00
   0.4990985134908171E+00
   0.5729201739321187E+00
   0.5693592812626578E+00
   0.3752193319222664E+00
   0.4003639579443493E+00
   0.5599390283631235E+00
   0.5562258998625441E+00
   0.4942640814475079E+00
   0.4948651936720998E+00
   0.4925619034216203E+00
   0.4913967759961307E+00
   0.5162597176642126E+00
   0.5363670785735796E+00
   0.4951374058632341E+00
   0.4520512545852730E+00
   0.5129007640117252E+00
   0.5117699738593390E+00
   0.4786317282968589E+00
   0.4931121927818827E+00
   0.4600269596301612E+00
   0.5242595448629956E+00
   0.5299947171974804E+00
   0.5129700633110520E+00
   0.5328928674500686E+00
   0.5309782688459269E+00
   0.5309767584535278E+00
   0.5063651299899276E+00
   0.5279536029938653E+00
   0.5409238806299697E+00
   0.5363718909370088E+00
   0.5374201255326057E+00
   0.4965358985916343E+00
   0.4975364862690922E+00
   0.4963815217539417E+00
   0.4955155028920121E+00
   0.4904172644090655E+00
   0.4902500324399324E+00
   0.4861611367817901E+00
   0.4854067622201361E+00
   0.4931956063014111E+00
   0.4910329764311822E+00
   0.4831677538805074E+00
   0.4872468843309604E+00
   0.4880024310269615E+00
   0.4872312482036591E+00
   0.4882163950985554E+00
   0.4952576876275716E+00
   0.4900721283871203E+00
   0.4903599390636594E+00
   0.4944353105393736E+00
   0.4868191862601934E+00
   0.4892735628386976E+00
   0.4881468055239250E+00
   0.4878252500169105E+00
   0.4449106735034335E+00
   0.4700132857329658E+00
   0.4891774950423571E+00
   0.4885974722038979E+00
   0.4510294968866891E+00
   0.4681803268019638E+00
   0.4876666961737444E+00
   0.4868262830972851E+00
   0.4909268466277510E+00
   0.4793945602892819E+00
   0.4657906738084851E+00
   0.3794391410621573E+00
   0.4903636941729975E+00
   0.4487969021185072E+00
   0.4432386844798795E+00
   0.4845716441157996E+00
   0.4621867781990867E+00
   0.4663606348882406E+00
   0.4747787052641761E+00
   0.4893811633451753E+00
   0.5085638673860843E+00
   0.4305373000330609E+00
   0.4927298085161737E+00
   0.5320327206253771E+00
   0.4913855415067754E+00
   0.5209473667412172E+00
   0.5061309381034946E+00
   0.5690651105597774E+00
   0.5274990556495356E+00
   0.5015024162681340E+00
   0.5821782807393843E+00
   0.5691769446319578E+00
   0.3403301378356529E+00
   0.3786151326680587E+00
   0.5753347038149634E+00
   0.5668543363543441E+00
   0.5703059513576297E+00
   0.5291879121052036E+00
   0.5449837040229675E+00
   0.5719102718024570E+00
   0.5385667165633958E+00
   0.5475905785606018E+00
   0.5821516302912626E+00
   0.4925318906217130E+00
   0.5041571125880665E+00
   0.4961293239905660E+00
   0.5562736271993696E+00
   0.4757836606337027E+00
   0.4950183246804735E+00
   0.5496187986000070E+00
   0.5889517356633158E+00
   0.5839552623614066E+00
   0.5468175621244933E+00
   0.5803880226980331E+00
   0.5106065627859224E+00
   0.5029552660087039E+00
   0.5033112987688381E+00
   0.5676222205645847E+00
   0.5564619486664892E+00
   0.4947144986498997E+00
   0.5506785201937957E+00
   0.5513581093448493E+00
   0.5658250895062361E+00
   0.4919965192165240E+00
   0.4927864129095411E+00
   0.3865373622268972E+00
   0.3687906294896887E+00
   0.5574396924376682E+00
   0.5761715497691898E+00
   0.4194267189372604E+00
   0.5822960364792187E+00
   0.4268170479450900E+00
   0.5397379162705518E+00
   0.5016136047876600E+00
   0.5119237848361652E+00
   0.5048466787873022E+00
   0.5752734638719554E+00
   0.5878359987532041E+00
   0.5382541349618674E+00
   0.5679685851590007E+00
   0.5351985056446928E+00
   0.5338430652879789E+00
   0.5582272026123155E+00
   0.5511430429630116E+00
   0.4256686536355592E+00
   0.5272844121718996E+00
   0.5796789499215637E+00
   0.3318301779232812E+00
   0.4761646841249381E+00
   0.5446507783917405E+00
   0.4800729373874363E+00
   0.3006194657743119E+00
   0.5031625559588578E+00
   0.5017187273311908E+00
   0.5129125372915654E+00
   0.5414131220741908E+00
   0.3435099181003233E+00
   0.3397972036685641E+00
   0.3190374775828625E+00
   0.5066176568290731E+00
   0.5123823893731704E+00
   0.5329091176345746E+00
   0.5881345494768419E+00
   0.4645018990608967E+00
   0.3529493639110374E+00
SCALARS v double 1
LOOKUP_TABLE default
   0.0000000000000000E+00
   0.0000000000000000E+00
   0.0000000000000000E+00
   0.0000000000000000E+00
   0.0000000000000000E+00
   0.0000000000000000E+00
   0.0000000000000000E+00
   0.0000000000000000E+00
   0.0000000000000000E+00
   0.0000000000000000E+00
   0.0000000000000000E+00
   0.0000000000000000E+00
   0.0000000000000000E+00
   0.0000000000000000E+00
   0.0000000000000000E+00
   0.0000000000000000E+00
   0.0000000000000000E+00
   0.0000000000000000E+00
   0.0000000000000000E+00
   0.0000000000000000E+00
   0.0000000000000000E+00
   0.0000000000000000E+00
   0.0000000000000000E+00
   0.0000000000000000E+00
   0.0000000000000000E+00
   0.0000000000000000E+00
   0.0000000000000000E+00
   0.0000000000000000E+00
   0.0000000000000000E+00
   0.0000000000000000E+00
   0.0000000000000000E+00
   0.0000000000000000E+00
   0.0000000000000000E+00
   0.0000000000000000E+00
   0.0000000000000000E+00
   0.0000000000000000E+00
   0.0000000000000000E+00
   0.0000000000000000E+00
   0.0000000000000000E+00
   0.0000000000000000E+00
   0.0000000000000000E+00
   0.0000000000000000E+00
   0.0000000000000000E+00
   0.0000000000000000E+00
   0.0000000000000000E+00
   0.0000000000000000E+00
   0.0000000000000000E+00
   0.0000000000000000E+00
   0.0000000000000000E+00
   0.0000000000000000E+00
   0.0000000000000000E+00
   0.0000000000000000E+00
   0.0000000000000000E+00
   0.0000000000000000E+00
   0.0000000000000000E+00
   0.0000000000000000E+00
   0.0000000000000000E+00
   0.0000000000000000E+00
   0.0000000000000000E+00
   0.0000000000000000E+00
   0.0000000000000000E+00
   0.8508074550731374E-03
  -0.1263768082870783E-02
  -0.1294460700692748E-02
   0.0000000000000000E+00
   0.0000000000000000E+00
   0.0000000000000000E+00
   0.0000000000000000E+00
  -0.1933167254891781E-01
   0.5037582178699916E-03
   0.2213186270609763E-02
   0.1420875471037567E-01
  -0.6733066839888565E-02
  -0.8155367637858214E-02
  -0.1324508593720487E-01
   0.5002681720062007E-02
   0.7354210614577778E-03
   0.3481251142444868E-02
   0.1949283260361099E-02
   0.3168725718551523E-02
   0.1754937960910000E-02
  -0.7289636626225878E-02
  -0.6647929269450078E-04
   0.4565686675576983E-02
  -0.4086294840387075E-03
  -0.6653953617234098E-04
  -0.2024327648229334E-03
   0.8053616492108614E-03
   0.0000000000000000E+00
   0.0000000000000000E+00
   0.0000000000000000E+00
   0.0000000000000000E+00
   0.4740166430847380E-03
   0.1623476097134436E-02
  -0.1273519688421866E-02
  -0.9988435551994558E-03
  -0.2077604953943307E-02
  -0.9970537206457231E-03
  -0.7512720504996792E-03
  -0.7430899920528945E-03
   0.6013895603629647E-04
  -0.5976415058984204E-03
   0.8032998415550890E-03
  -0.1730545577550742E-02
   0.3140940290528247E-03
  -0.5786548761644402E-04
  -0.8901897226747267E-03
  -0.1053195894508906E-02
   0.0000000000000000E+00
   0.0000000000000000E+00
   0.0000000000000000E+00
  -0.1035473593212530E-02
  -0.7791715675866839E-02
   0.1821114963887761E-01
  -0.2907380222090518E-04
  -0.1376997716960575E-02
  -0.2028314123900236E-02
  -0.5613331540667127E-02
  -0.1620478787999574E-02
  -0.6358858793059896E-02
  -0.4327529547805380E-02
   0.1516528034676873E-02
   0.3300083093584259E-01
   0.4397059350961121E-04
  -0.2766681093452674E-02
   0.3629401982414801E-02
   0.3917469402765242E-03
   0.0000000000000000E+00
   0.0000000000000000E+00
   0.0000000000000000E+00
   0.0000000000000000E+00
   0.0000000000000000E+00
   0.0000000000000000E+00
   0.0000000000000000E+00
   0.0000000000000000E+00
   0.0000000000000000E+00
   0.0000000000000000E+00
   0.0000000000000000E+00
   0.0000000000000000E+00
   0.0000000000000000E+00
   0.0000000000000000E+00
   0.0000000000000000E+00
   0.0000000000000000E+00
   0.0000000000000000E+00
   0.4996967065212652E-02
   0.3210187293959724E-02
   0.8121789197368725E-02
   0.6089626943843240E-02
   0.1117051483770103E-01
   0.1403198972599888E-01
  -0.3288497026587110E-03
   0.5160325122338411E-02
   0.2928865712534354E-02
   0.3376783063277238E-02
   0.3724190221534217E-02
  -0.1469862732264383E-01
  -0.6149042740292561E-03
   0.6636941891290140E-02
   0.1453261892920326E-02
   0.1957691245363739E-02
   0.4261439517900499E-02
  -0.2811582945887448E-02
   0.1265484156163472E-02
   0.2850414484586249E-02
   0.1533831264008298E-02
   0.2562439471663943E-02
   0.2009328564200798E-02
   0.2152900306757541E-02
   0.8578465945456104E-02
  -0.3835714747497740E-02
   0.6146233128546024E-02
   0.4620526129261028E-04
  -0.4247803964893349E-03
  -0.1674688205760691E-01
  -0.5005014045890124E-02
  -0.4835521651035953E-02
   0.3396938187636509E-02
  -0.6079326586181876E-02
   0.2525048463900329E-04
  -0.3285392187844013E-01
  -0.3188810094166201E-02
   0.4573354972164143E-02
   0.9670287959922271E-03
   0.2132608583345151E-02
   0.4531864867104846E-02
   0.2691320478415189E-02
   0.3250781287952770E-02
   0.5226683754673029E-02
   0.1957689503585704E-02
   0.7476522020812937E-03
  -0.6133258357310046E-04
  -0.5321954099519233E-02
  -0.6966491910774935E-02
  -0.9690283846942508E-03
   0.1057793870660235E-02
  -0.2117751151973509E-02
  -0.3224080896597223E-02
  -0.2538200321302610E-02
  -0.4117267379899804E-02
  -0.7559174148586271E-02
  -0.2014245518089625E-02
   0.6495746064802024E-03
  -0.1932164540662209E-03
   0.1227179341686848E-02
  -0.3503805284749075E-02
   0.4855563650995106E-02
  -0.8634991976566985E-02
   0.3164820027426640E-04
  -0.3337159593342510E-03
   0.2557974274170064E-02
   0.1609326890649613E-02
   0.2028235341295636E-02
  -0.5642907815649071E-02
SCALARS w double 1
LOOKUP_TABLE default
   0.0000000000000000E+00
   0.0000000000000000E+00
   0.0000000000000000E+00
   0.0000000000000000E+00
   0.0000000000000000E+00
   0.0000000000000000E+00
   0.0000000000000000E+00
   0.0000000000000000E+00
   0.0000000000000000E+00
   0.0000000000000000E+00
   0.0000000000000000E+00
   0.0000000000000000E+00
   0.0000000000000000E+00
   0.0000000000000000E+00
   0.0000000000000000E+00
   0.0000000000000000E+00
   0.0000000000000000E+00
   0.0000000000000000E+00
   0.0000000000000000E+00
   0.0000000000000000E+00
   0.0000000000000000E+00
   0.0000000000000000E+00
   0.0000000000000000E+00
   0.0000000000000000E+00
   0.0000000000000000E+00
   0.0000000000000000E+00
   0.0000000000000000E+00
   0.0000000000000000E+00
   0.0000000000000000E+00
   0.0000000000000000E+00
   0.0000000000000000E+00
   0.0000000000000000E+00
   0.0000000000000000E+00
  -0.1007323688339749E+00
  -0.4246425368207016E-01
   0.7113225210836120E-03
   0.5703902210571979E-02
   0.5677948137453680E-03
   0.1606449838436814E-02
   0.3372456663750720E-02
   0.2364334265060930E-02
   0.4714544020983300E-03
   0.3527024039896712E-02
   0.4532837502457668E-01
   0.6564281198851540E-01
   0.8375610025769618E-03
  -0.2265942855798386E-01
   0.4272679978592956E-02
   0.1342684755465864E-01
   0.1030062839138893E-01
   0.4871553213990375E-01
   0.2383977316068660E-02
  -0.6536048328545802E-02
  -0.7361257230959615E-03
   0.3059800870161182E-03
   0.3852863992276660E-02
  -0.3894172842716276E-01
   0.1818956429548026E-01
   0.1121938461304054E-01
   0.3396113230760647E-01
   0.8384113786629474E-02
   0.4923998249171111E-02
   0.4973330967368362E-02
   0.4900453996618021E-02
   0.6056652192739027E-02
   0.2699557846821883E-02
  -0.4126446357809595E-01
  -0.9925929579720658E-01
  -0.1120358585420232E+00
   0.5146219973013995E-02
   0.4213972333176187E-02
  -0.1002565391741037E+00
  -0.9892856294975994E-01
  -0.9835933778996026E-01
  -0.9444627215099749E-01
  -0.6789775971336426E-01
   0.5197098890127799E-02
  -0.1927014134846145E-01
  -0.1562811878346596E-01
  -0.5965367392119540E-02
   0.6821889754475658E-02
  -0.8000749582439888E-01
  -0.2776958774911523E-01
  -0.8085909973352869E-01
  -0.5863345908023077E-01
   0.3074012837566668E-02
   0.2684908113119439E-02
   0.2644247173555369E-02
   0.3456848888585314E-02
   0.3997735793583676E-02
   0.1199151148967177E-02
  -0.1356270454380850E-03
   0.2028497254183423E-02
   0.4893505098860312E-02
   0.3864261092805360E-02
   0.1125876711428274E-02
   0.1187836773182774E-02
   0.1459877356587481E-02
  -0.2250344989530153E-04
   0.9081378615047088E-04
   0.4386510190236366E-02
   0.2712004432875064E-02
   0.2316478271710084E-02
   0.5006619031189187E-02
   0.1069265779826527E-02
   0.2706704691819632E-02
   0.2010201465932086E-02
   0.3345569944926380E-04
   0.8386120464395475E-01
   0.2833933339201666E-02
  -0.8465874242868173E-03
  -0.1275277409161797E-03
   0.1410969043991152E+00
   0.1236587092897643E+00
  -0.1228601228962003E-02
  -0.4383024470698297E-02
  -0.2803862844034186E-03
  -0.6478051189985675E-02
  -0.1893642344738823E-02
   0.1559598991565297E+00
   0.7528206941554018E-01
   0.2567698281109617E-01
   0.1661257801815910E+00