title="tecplot geometry and solution file"
variables = x y z mach temperature lambda1 lambda2 lambda3 lambda4 lambda5
zone t="boundary 1 bc-1", solutiontime= 0.8000000E+02, strandid=1001, i=32, j=46, f=feblock
 -0.547468544169E-02  0.000000000000E+00 -0.567606031243E-02  0.000000000000E+00  0.000000000000E+00  0.000000000000E+00 -0.525159244851E-02
 -0.425776897977E-02  0.000000000000E+00  0.000000000000E+00  0.000000000000E+00  0.000000000000E+00  0.000000000000E+00  0.000000000000E+00
  0.000000000000E+00  0.000000000000E+00 -0.338395986572E-02  0.000000000000E+00  0.000000000000E+00  0.000000000000E+00  0.000000000000E+00
  0.000000000000E+00  0.000000000000E+00  0.000000000000E+00  0.000000000000E+00  0.000000000000E+00  0.000000000000E+00  0.000000000000E+00
  0.000000000000E+00  0.000000000000E+00  0.000000000000E+00  0.000000000000E+00
  0.250494197117E+01  0.250494197117E+01  0.127822156907E+01  0.146289271009E+01  0.157686156160E+01  0.308372018325E+00  0.261948602442E-01
 -0.122573481164E+01 -0.600232012419E+00  0.250494197117E+01  0.477386199275E+00  0.742988685424E+00 -0.739814786992E+00  0.177790177481E+01
  0.155830813274E+01  0.250494197117E+01 -0.249658903664E+01 -0.154800130438E+01 -0.487811078581E+00  0.250494197117E+01  0.627766083140E+00
 -0.345533899378E+00 -0.178862290564E+01 -0.158811787973E+01  0.125000000000E+01 -0.249658903664E+01 -0.144524380962E+01  0.000000000000E+00
 -0.125000000000E+01 -0.249658903664E+01 -0.249658903664E+01 -0.249658903664E+01
  0.803813859867E-04  0.125000000000E+01  0.822460170215E-04  0.103724302461E+01  0.219251206392E+01  0.922061490191E+00  0.103872438719E-03
  0.341545874230E-04  0.715990576545E+00  0.250000000000E+01  0.202479342020E+01  0.324151231464E+01  0.175434191980E+01  0.310152362409E+01
  0.404200324774E+01  0.375000000000E+01  0.810725962649E-04  0.930412228790E+00  0.299062775774E+01  0.500000000000E+01  0.429310310915E+01
  0.409252726285E+01  0.187029682677E+01  0.284428995242E+01  0.500000000000E+01  0.125000000000E+01  0.394624082883E+01  0.500000000000E+01
  0.500000000000E+01  0.250000000000E+01  0.375000000000E+01  0.500000000000E+01
  0.000000000000E+00  0.440672136512E+00  0.000000000000E+00  0.474618025820E+00  0.460125068601E+00  0.468639320143E+00  0.000000000000E+00
  0.000000000000E+00  0.402534623939E+00  0.469886789982E+00  0.464193107367E+00  0.478749739491E+00  0.489555756507E+00  0.483130037990E+00
  0.488002902366E+00  0.489035017215E+00  0.000000000000E+00  0.465237698331E+00  0.473759127176E+00  0.495364848064E+00  0.490293257191E+00
  0.486276632093E+00  0.445850265191E+00  0.464356446519E+00  0.496127940578E+00  0.443891909404E+00  0.486928147025E+00  0.497248366859E+00
  0.496055083747E+00  0.467740399690E+00  0.488187228171E+00  0.495089980244E+00
  0.999990300362E+00  0.102982970104E+01  0.999990762612E+00  0.104241436388E+01  0.101187663318E+01  0.102516400612E+01  0.999991420552E+00
  0.999992171067E+00  0.103882325429E+01  0.100825795511E+01  0.101253536096E+01  0.100301645575E+01  0.102705594255E+01  0.100604114309E+01
  0.100244532432E+01  0.100354817652E+01  0.999992724186E+00  0.103209991946E+01  0.100459425771E+01  0.100178625606E+01  0.100260326526E+01
  0.100234745937E+01  0.101657167924E+01  0.100620610961E+01  0.100168369530E+01  0.104025009063E+01  0.100303477791E+01  0.100118721261E+01
  0.100134451878E+01  0.100976460100E+01  0.100405634212E+01  0.100176433139E+01
  0.610153391747E-02  0.306711858867E-01  0.698584992797E-02  0.492857758780E-01  0.346805536145E-02  0.587151777823E-01  0.512289201070E-02
  0.170640720005E-02  0.582842780147E-01 -0.165054467633E-02  0.389905999922E-02 -0.702002164705E-02  0.329305335892E-02 -0.389683909853E-02
 -0.933434772481E-02 -0.931170590317E-02  0.308617719767E-02  0.385701458331E-01 -0.515909099159E-02 -0.339889515874E-01 -0.121371204111E-01
 -0.812749111366E-02  0.186500245368E-02 -0.443773612042E-02 -0.351928730203E-01  0.248749972922E-01 -0.633196294974E-02 -0.387897395578E-01
 -0.342339421425E-01 -0.361050607031E-02 -0.697182730501E-02 -0.321740894414E-01
  0.239164127990E-03  0.444680434884E-02  0.331486044638E-03  0.629816441964E-02  0.164997351579E-03  0.888267045298E-02  0.361563016676E-03
  0.321565326019E-03  0.868187160307E-02 -0.782731198137E-03  0.347017305879E-03 -0.148150281756E-02 -0.972022845643E-04 -0.114291693052E-02
 -0.182990689432E-02 -0.204929423822E-02  0.284324328326E-03  0.601356746867E-02 -0.103425456823E-02 -0.697980049862E-02 -0.240658094967E-02
 -0.155620785927E-02 -0.207858742540E-03 -0.851582834400E-03 -0.736818460000E-02  0.306389466082E-02 -0.124812989466E-02 -0.814890128691E-02
 -0.716222997640E-02 -0.904834789705E-03 -0.148505705303E-02 -0.669252894671E-02
  0.405779426173E-03  0.128360292014E-03  0.546846003465E-03  0.125043766332E-02  0.147417936182E-03  0.606823260678E-03  0.467455816025E-03
 -0.174822357774E-03 -0.333560001446E-04 -0.133095080877E-04  0.128401767234E-03  0.133218589034E-03 -0.140700429296E-03  0.251321786662E-04
 -0.495568500740E-04 -0.287388569555E-05 -0.245065371055E-03 -0.794295462556E-03  0.152877518516E-04  0.332337284871E-05 -0.320394803289E-04
 -0.381186215369E-04 -0.165838342924E-04 -0.137116118872E-03  0.897652902932E-04 -0.102528488251E-03 -0.785924043464E-04 -0.171178660147E-04
 -0.755985506659E-04 -0.219885831306E-04 -0.801488679810E-05  0.655033530634E-05
 -0.147377686340E-02 -0.134235192184E-02 -0.160724904173E-02 -0.707139735338E-05  0.142132333636E-02  0.153436091062E-02 -0.900190070648E-03
 -0.786742752119E-03  0.108761914057E-02  0.155250127710E-02  0.289698899423E-02  0.159524349996E-02  0.319791088130E-02  0.148292123729E-02
  0.109570566647E-02  0.128776178243E-02 -0.609691717179E-03  0.917046108197E-03  0.183403615604E-02  0.461713580312E-03  0.101750351814E-02
  0.121229287035E-02  0.217945527942E-02  0.148789803153E-02  0.443252606239E-03  0.112544143553E-02  0.111203972892E-02  0.419579597471E-03
  0.501322143370E-03  0.168657857275E-02  0.113913636569E-02  0.491880271691E-03
 -0.487357669685E-02 -0.126323826781E-01 -0.665721490355E-02 -0.197255432852E-01 -0.144221178008E-02 -0.243725442567E-01  0.325653428236E-03
  0.104281894779E-02 -0.242213095890E-01  0.663953023716E-03 -0.170479103609E-02  0.274455747230E-02 -0.142040892552E-02  0.153552563104E-02
  0.372785057687E-02  0.375553463737E-02 -0.101638817636E-02 -0.161248609537E-01  0.191184885763E-02  0.141100283556E-01  0.490174921356E-02
  0.321433462471E-02 -0.897380629569E-03  0.158968336939E-02  0.146361599818E-01 -0.101408538662E-01  0.246930591273E-02  0.161792887352E-01
  0.142460699652E-01  0.131302142841E-02  0.277003412893E-02  0.133539889709E-01
        12        19        11        11
        11         5        12        12
        10        14         5         5
        19        13        11        11
        19        24        13        13
        30        23        24        24
        19        12        22        22
        28        22        21        21
        11        13         6         6
         7         6         9         9
        15        12        14        14
        18        13        23        23
        15        25        21        21
        27        19        22        22
        18         8         9         9
        27        31        24        24
         4        11         6         6
         5        14        12        12
         4         2         5         5
        21        12        15        15
        14        16        15        15
        24        19        27        27
        22        29        27        27
        23        26        18        18
        17         8        18        18
         5        11         4         4
         6         3         4         4
        26        23        30        30
         5         2        10        10
        16        14        10        10
         3         6         7         7
        21        25        28        28
        29        22        28        28
         6        13         9         9
         2         4         1         1
        31        27        32        32
        25        15        20        20
        24        23        13        13
         8         7         9         9
        13        18         9         9
        31        30        24        24
        12        21        22        22
        29        32        27        27
         3         1         4         4
        26        17        18        18
        16        20        15        15
zone t="boundary 2 bc-2", solutiontime= 0.8000000E+02, strandid=1002, i=33, j=48, f=feblock
  0.500195253374E+01  0.375034811161E+01  0.249861146299E+01  0.288036674177E+01  0.124717526933E+01  0.190856698521E+01  0.326577190273E+01
  0.201394856120E+01 -0.338395986572E-02  0.962374249381E+00  0.500000000000E+01  0.403430190008E+01  0.423029563807E+01  0.500000000000E+01
  0.385439188940E+01  0.500000000000E+01  0.398133433176E+01  0.315200081417E+01  0.266958028869E+01  0.154798029824E+01  0.218327860466E+01
  0.893688440338E+00  0.000000000000E+00  0.699009761768E+00  0.964460899052E+00  0.310303671659E+01  0.000000000000E+00  0.000000000000E+00
  0.125000000000E+01  0.500000000000E+01  0.375000000000E+01  0.250000000000E+01  0.000000000000E+00
 -0.249658903664E+01 -0.249658903664E+01 -0.249658903664E+01 -0.249658903664E+01 -0.249658903664E+01 -0.249658903664E+01 -0.249658903664E+01
 -0.249658903664E+01 -0.249658903664E+01 -0.249658903664E+01 -0.249658903664E+01 -0.249658903664E+01 -0.249658903664E+01 -0.249658903664E+01
 -0.249658903664E+01 -0.249658903664E+01 -0.249658903664E+01 -0.249658903664E+01 -0.249658903664E+01 -0.249658903664E+01 -0.249658903664E+01
 -0.249658903664E+01 -0.249658903664E+01 -0.249658903664E+01 -0.249658903664E+01 -0.249658903664E+01 -0.249658903664E+01 -0.249658903664E+01
 -0.249658903664E+01 -0.249658903664E+01 -0.249658903664E+01 -0.249658903664E+01 -0.249658903664E+01
  0.108225889030E-03  0.145875369682E-03  0.100893326425E-03  0.901663374396E+00  0.110858761917E-03  0.714928318829E+00  0.188140648011E+01
  0.175892165504E+01  0.810725962649E-04  0.957504300331E+00  0.125000000000E+01  0.100596698996E+01  0.191313519089E+01  0.250000000000E+01
  0.292898096716E+01  0.375000000000E+01  0.406883369524E+01  0.363389289944E+01  0.284756860985E+01  0.292582308120E+01  0.395754054931E+01
  0.205027256979E+01  0.125000000000E+01  0.306703272692E+01  0.397155766662E+01  0.433068622168E+01  0.250000000000E+01  0.375000000000E+01
  0.500000000000E+01  0.500000000000E+01  0.500000000000E+01  0.500000000000E+01  0.500000000000E+01
  0.000000000000E+00  0.000000000000E+00  0.000000000000E+00  0.380534933893E+00  0.000000000000E+00  0.343213081171E+00  0.585244496925E+00
  0.579499344205E+00  0.000000000000E+00  0.500959578913E+00  0.508769460148E+00  0.434312419771E+00  0.572817919451E+00  0.537160208080E+00
  0.569105645782E+00  0.515014970171E+00  0.508256765061E+00  0.527354036988E+00  0.567656182489E+00  0.531857069084E+00  0.506013391179E+00
  0.521044573739E+00  0.443891909404E+00  0.490703078146E+00  0.492147926412E+00  0.501388000320E+00  0.467740399690E+00  0.488187228171E+00
  0.489959820989E+00  0.491323935798E+00  0.486019442841E+00  0.489980976742E+00  0.495089980244E+00
  0.999993488485E+00  0.999993690942E+00  0.999993544242E+00  0.989596674085E+00  0.999993139053E+00  0.985604091028E+00  0.989839488847E+00
  0.991730617690E+00  0.999992724186E+00  0.984220387528E+00  0.985139981863E+00  0.984817712566E+00  0.990066477090E+00  0.100292374828E+01
  0.999857731400E+00  0.100487268684E+01  0.100122724769E+01  0.100056983810E+01  0.997888256964E+00  0.100350942201E+01  0.100059365414E+01
  0.101090707434E+01  0.104025009063E+01  0.100327959733E+01  0.100254952730E+01  0.100046804572E+01  0.100976460100E+01  0.100405634212E+01
  0.100192626091E+01  0.100045827286E+01  0.100058947226E+01  0.100110091494E+01  0.100176433139E+01
 -0.252333582530E-02 -0.197864120922E-02 -0.121497314652E-02  0.238853220432E-01  0.241590939250E-02  0.783268162008E-01 -0.513312467301E-02
  0.944453586980E-03  0.308617719767E-02  0.364108358815E-01 -0.659581547082E-02 -0.762597877107E-02 -0.517722059495E-02 -0.442581891555E-02
 -0.325449915723E-02 -0.297029835099E-02 -0.218698745917E-02 -0.253112061630E-02 -0.418854213527E-02 -0.501218269870E-02 -0.329382191695E-02
  0.131127851682E-02  0.248749972922E-01 -0.338766038031E-02 -0.609030471847E-02 -0.396544913500E-02 -0.361050607031E-02 -0.697182730501E-02
 -0.289404529087E-01 -0.345715285776E-02 -0.132328523822E-01 -0.254274543750E-01 -0.321740894414E-01
  0.688028145515E-03 -0.192355326471E-03  0.185875038681E-04  0.410471406632E-02 -0.447498148797E-03  0.973216296262E-02 -0.192655427386E-04
 -0.387640993932E-03  0.284324328326E-03  0.429768774863E-02  0.149337657544E-02  0.513131495019E-04  0.758734356894E-03  0.113154818170E-02
  0.753319968339E-03  0.696469730479E-03  0.834278446367E-03  0.695249673581E-03  0.256066181389E-03 -0.423706062872E-03  0.298550460591E-03
 -0.360595916025E-03  0.306389466082E-02 -0.229990124601E-03 -0.701350906074E-03  0.411857540901E-03 -0.904834789705E-03 -0.148505705303E-02
 -0.520611397650E-02  0.174304451265E-03 -0.132948316722E-02 -0.395289881183E-02 -0.669252894671E-02
 -0.155434499090E-03  0.411055598125E-04  0.241689305109E-03  0.557939771297E-03  0.128343733982E-03  0.973155201838E-03 -0.760837373782E-04
  0.866365813456E-05 -0.245065371055E-03  0.373114311660E-03 -0.884431448115E-04 -0.284831626225E-03  0.530018081223E-05  0.835705582458E-05
  0.687474796934E-05 -0.133553808095E-04  0.162100283967E-05 -0.712191533323E-05  0.115761494319E-04  0.276301457456E-04 -0.169170550246E-04
  0.289621880630E-04 -0.102528488251E-03  0.546297946658E-05 -0.265872487182E-05 -0.591930964393E-05 -0.219885831306E-04 -0.801488679810E-05
 -0.261259401312E-05 -0.238085019746E-05  0.519196421633E-06  0.173591047865E-05  0.655033530634E-05
 -0.198503887232E-03 -0.204912241242E-03 -0.309699070671E-03  0.103434608912E-02 -0.716700905421E-03  0.224471583366E-03  0.156040938160E-02
  0.208733854843E-02 -0.609691717179E-03  0.980936033651E-03  0.298714259846E-03  0.109204344638E-02  0.626926073901E-03  0.283385432935E-03
  0.647064218181E-03  0.236880308547E-03  0.629197927802E-03  0.888685171302E-03  0.105436240266E-02  0.109586384961E-02  0.102609203418E-02
  0.165912948430E-02  0.112544143553E-02  0.116603970003E-02  0.102767837841E-02  0.887067741523E-03  0.168657857275E-02  0.113913636569E-02
  0.691404703625E-03  0.368585262921E-03  0.801811152933E-03  0.869631360454E-03  0.491880271691E-03
  0.718487979314E-03  0.197867305718E-02  0.342998194000E-02 -0.108857990311E-01  0.409124705032E-02 -0.335482573558E-01  0.152395831271E-02
 -0.485250671051E-03 -0.101638817636E-02 -0.150872666014E-01  0.142562765116E-02  0.231553756663E-02  0.127174642498E-02  0.848611156976E-03
  0.635908745191E-03  0.600620158305E-03  0.300602605920E-03  0.460771415057E-03  0.114876266474E-02  0.170371527929E-02  0.880454695664E-03
 -0.598125343846E-03 -0.101408538662E-01  0.109204545556E-02  0.222198793109E-02  0.108191940239E-02  0.131302142841E-02  0.277003412893E-02
  0.117586375306E-01  0.104483185740E-02  0.496567217258E-02  0.101101669081E-01  0.133539889709E-01
        15         7        19        19
         8        20        19        19
        18        19        21        21
         7         4         8         8
         3         6         4         4
        19         7         8         8
        19        18        15        15
        14        13        15        15
         8        22        20        20
        27        24        22        22
        19        20        21        21
        32        26        21        21
        17        18        26        26
        17        16        15        15
        25        29        21        21
        12         7        13        13
        10         8         6         6
        25        20        24        24
         4         6         8         8
        12         2         4         4
        10        23        22        22
        26        31        17        17
        30        16        17        17
         4         7        12        12
        13        11        12        12
        21        20        25        25
        24        28        25        25
        22         8        10        10
         6         5        10        10
        31        26        32        32
         4         2         3         3
         5         6         3         3
        11        13        14        14
        22        23        27        27
        28        24        27        27
        15        13         7         7
         2        12         1         1
        29        25        33        33
        23        10         9         9
        21        26        18        18
        16        14        15        15
        18        17        15        15
        29        32        21        21
        22        24        20        20
        28        33        25        25
        11         1        12        12
        31        30        17        17
         5         9        10        10
zone t="boundary 3 bc-3", solutiontime= 0.8000000E+02, strandid=1003, i=33, j=48, f=feblock
  0.375059096892E+01  0.249769609313E+01  0.500322133174E+01  0.403612218725E+01  0.287976772365E+01  0.124541910518E+01  0.190552237404E+01
  0.500000000000E+01  0.326671104552E+01  0.423253755448E+01  0.201271136506E+01 -0.547468544169E-02  0.958895643487E+00  0.500000000000E+01
  0.266968147299E+01  0.385584487271E+01  0.890374214836E+00  0.154654013699E+01  0.000000000000E+00  0.500000000000E+01  0.315261136744E+01
  0.218304199515E+01  0.398195307895E+01  0.000000000000E+00  0.697379952124E+00  0.963757277315E+00  0.125000000000E+01  0.000000000000E+00
  0.500000000000E+01  0.310330738524E+01  0.250000000000E+01  0.375000000000E+01  0.000000000000E+00
  0.250494197117E+01  0.250494197117E+01  0.250494197117E+01  0.250494197117E+01  0.250494197117E+01  0.250494197117E+01  0.250494197117E+01
  0.250494197117E+01  0.250494197117E+01  0.250494197117E+01  0.250494197117E+01  0.250494197117E+01  0.250494197117E+01  0.250494197117E+01
  0.250494197117E+01  0.250494197117E+01  0.250494197117E+01  0.250494197117E+01  0.250494197117E+01  0.250494197117E+01  0.250494197117E+01
  0.250494197117E+01  0.250494197117E+01  0.250494197117E+01  0.250494197117E+01  0.250494197117E+01  0.250494197117E+01  0.250494197117E+01
  0.250494197117E+01  0.250494197117E+01  0.250494197117E+01  0.250494197117E+01  0.250494197117E+01
  0.135649900494E-03  0.110129816467E-03  0.966887303890E-04  0.101756752009E+01  0.908094589218E+00  0.103942505801E-03  0.722629083213E+00
  0.125000000000E+01  0.188965661746E+01  0.191862696980E+01  0.176708239098E+01  0.803813859867E-04  0.969652551954E+00  0.250000000000E+01
  0.285339433501E+01  0.293325058812E+01  0.205656223819E+01  0.293157016932E+01  0.125000000000E+01  0.375000000000E+01  0.363766838842E+01
  0.396069444983E+01  0.407056385475E+01  0.250000000000E+01  0.307031995245E+01  0.397359820314E+01  0.500000000000E+01  0.375000000000E+01
  0.500000000000E+01  0.433260781310E+01  0.500000000000E+01  0.500000000000E+01  0.500000000000E+01
  0.000000000000E+00  0.000000000000E+00  0.000000000000E+00  0.444961626928E+00  0.402838316190E+00  0.000000000000E+00  0.379029001549E+00
  0.508827846411E+00  0.575719767468E+00  0.573484231916E+00  0.562571091033E+00  0.000000000000E+00  0.491643474339E+00  0.534340493553E+00
  0.556353506125E+00  0.564141623675E+00  0.522489639030E+00  0.521815314100E+00  0.440672136512E+00  0.517132480923E+00  0.524064820256E+00
  0.503612613683E+00  0.509416634110E+00  0.469886789982E+00  0.495646532245E+00  0.494503101969E+00  0.488630053423E+00  0.489035017215E+00
  0.492985464012E+00  0.498953669977E+00  0.486505314975E+00  0.484610387305E+00  0.495364848064E+00
  0.999989345567E+00  0.999989414891E+00  0.999989632591E+00  0.981375695393E+00  0.988672653297E+00  0.999989832933E+00  0.982271891095E+00
  0.984075644303E+00  0.990406052732E+00  0.990320090376E+00  0.994390331428E+00  0.999990300362E+00  0.988743428079E+00  0.100365390733E+01
  0.999774597300E+00  0.100117529834E+01  0.100830077599E+01  0.100251293722E+01  0.102982970104E+01  0.100442054131E+01  0.100199281310E+01
  0.100081994749E+01  0.100137956774E+01  0.100825795511E+01  0.100297377722E+01  0.100191712118E+01  0.100214790177E+01  0.100354817652E+01
  0.100047567419E+01  0.100056574043E+01  0.100126719373E+01  0.100066769089E+01  0.100178625606E+01
 -0.170723226182E-02  0.132172718725E-02 -0.282328329567E-02  0.156134922898E-01  0.610942240644E-01  0.384271072211E-02  0.607930071035E-01
 -0.967055855443E-02 -0.492482236677E-02 -0.609311708257E-02  0.101011555953E-01  0.610153391747E-02  0.411685356497E-01 -0.462869997111E-02
 -0.535323148013E-02 -0.380366901580E-02  0.118000034590E-02 -0.517345910108E-02  0.306711858867E-01 -0.315228444847E-02 -0.230376906632E-02
 -0.315324424897E-02 -0.240376397572E-02 -0.165054467633E-02 -0.450985770210E-02 -0.833746591495E-02 -0.256271864722E-01 -0.931170590317E-02
 -0.298777275518E-02 -0.367491673892E-02 -0.239604560348E-01 -0.130002379201E-01 -0.339889515874E-01
 -0.395669708111E-03 -0.383871386585E-03  0.702898252466E-03  0.442172866566E-02  0.844000086978E-02 -0.799533683668E-03  0.752211232536E-02
  0.158579115153E-02 -0.848301008384E-04  0.835621441318E-03  0.183762978617E-03  0.239164127990E-03  0.310119291124E-02  0.121108714536E-02
 -0.765078312571E-04  0.632467910079E-03 -0.114702225166E-02 -0.543322738639E-03  0.444680434884E-02  0.772815531973E-03  0.668153230382E-03
  0.362375865081E-03  0.780437626136E-03 -0.782731198137E-03 -0.105761231425E-02 -0.104820505795E-02 -0.454572851051E-02 -0.204929423822E-02
  0.271660825373E-03  0.430125615337E-03 -0.371615664348E-02 -0.129195914333E-02 -0.697980049862E-02
 -0.747208605380E-04  0.397366283702E-04  0.956474597883E-04 -0.296423315097E-03 -0.858364614071E-03  0.335333096447E-03 -0.127418066160E-04
  0.190592527198E-05 -0.958258531056E-04  0.160414566540E-04 -0.808026325139E-04  0.405779426173E-03  0.465400146086E-03  0.352454159730E-04
 -0.404173773630E-05  0.485501094131E-05 -0.158969402807E-03 -0.597034401614E-04  0.128360292014E-03  0.197178088581E-04  0.966503040452E-05
  0.428271668553E-04  0.767059511925E-06 -0.133095080877E-04 -0.361642541054E-04  0.121931191782E-04  0.171305141845E-04 -0.287388569555E-05
  0.691969723183E-05 -0.250003538813E-06  0.391657815739E-05 -0.101187719335E-05  0.332337284871E-05
 -0.462461036806E-03 -0.866028513309E-03 -0.242265426847E-03  0.654616675693E-03  0.104388186886E-02 -0.834700820596E-03  0.330816743680E-03
  0.374310525979E-03  0.191563186379E-02  0.929862799371E-03  0.277658798364E-02 -0.147377686340E-02  0.912533608718E-03  0.371746193093E-03
  0.986788456882E-03  0.826393704229E-03  0.233938286152E-02  0.105032387343E-02 -0.134235192184E-02  0.329622539401E-03  0.949439621042E-03
  0.981561186306E-03  0.710110814655E-03  0.155250127710E-02  0.151224821490E-02  0.101246036822E-02  0.727932792613E-03  0.128776178243E-02
  0.350570161885E-03  0.922700426109E-03  0.882455269475E-03  0.804721755301E-03  0.461713580312E-03
  0.706435092365E-02  0.301233073864E-02  0.132758293235E-02 -0.812451721497E-02 -0.264527790098E-01  0.190748042500E-03 -0.255316862600E-01
  0.246327860312E-02  0.152875043906E-02  0.157352670157E-02 -0.394572845522E-02 -0.487357669685E-02 -0.162207494364E-01  0.871185326880E-03
  0.169072066521E-02  0.862167233191E-03 -0.353484558118E-03  0.179120939497E-02 -0.126323826781E-01  0.618641422114E-03  0.381158678758E-03
  0.812882254300E-03  0.391898078459E-03  0.663953023716E-03  0.165153277409E-02  0.313677989236E-02  0.103608075648E-01  0.375553463737E-02
  0.846696585714E-03  0.970907575048E-03  0.950772486163E-02  0.486678832322E-02  0.141100283556E-01
        15         9        16        16
        15        18        11        11
        22        15        21        21
        11         5         9         9
         5         7         2         2
        11         9        15        15
        16        21        15        15
        16        10        14        14
        18        17        11        11
        17        25        24        24
        22        18        15        15
        22        30        31        31
        30        21        23        23
        16        20        23        23
        22        27        26        26
        10         9         4         4
         7        11        13        13
        25        18        26        26
        11         7         5         5
         5         1         4         4
        17        19        13        13
        23        32        30        30
        23        20        29        29
         4         9         5         5
         4         8        10        10
        26        18        22        22
        26        28        25        25
        13        11        17        17
        13         6         7         7
        31        30        32        32
         2         1         5         5
         2         7         6         6
        14        10         8         8
        24        19        17        17
        24        25        28        28
         9        10        16        16
         3         4         1         1
        33        26        27        27
        12        13        19        19
        21        30        22        22
        16        14        20        20
        16        23        21        21
        22        31        27        27
        18        25        17        17
        26        33        28        28
         4         3         8         8
        23        29        32        32
        13        12         6         6
zone t="boundary 4 bc-4", solutiontime= 0.8000000E+02, strandid=1004, i=32, j=46, f=feblock
  0.125000000000E+01  0.219251206392E+01  0.103724302461E+01  0.500000000000E+01  0.250000000000E+01  0.375000000000E+01  0.404200324774E+01
  0.500000000000E+01  0.000000000000E+00  0.310152362409E+01  0.202479342020E+01  0.324151231464E+01  0.922061490191E+00  0.000000000000E+00
  0.299062775774E+01  0.394624082883E+01  0.500000000000E+01  0.409252726285E+01  0.500000000000E+01  0.429310310915E+01  0.175434191980E+01
  0.284428995242E+01  0.000000000000E+00  0.000000000000E+00  0.715990576545E+00  0.930412228790E+00  0.125000000000E+01  0.187029682677E+01
  0.500000000000E+01  0.375000000000E+01  0.250000000000E+01  0.000000000000E+00
  0.250494197117E+01  0.157686156160E+01  0.146289271009E+01  0.250494197117E+01  0.250494197117E+01  0.250494197117E+01  0.155830813274E+01
  0.125000000000E+01  0.250494197117E+01  0.177790177481E+01  0.477386199275E+00  0.742988685424E+00  0.308372018325E+00  0.125000000000E+01
 -0.487811078581E+00 -0.144524380962E+01 -0.125000000000E+01 -0.345533899378E+00  0.000000000000E+00  0.627766083140E+00 -0.739814786992E+00
 -0.158811787973E+01  0.000000000000E+00 -0.125000000000E+01 -0.600232012419E+00 -0.154800130438E+01 -0.249658903664E+01 -0.178862290564E+01
 -0.249658903664E+01 -0.249658903664E+01 -0.249658903664E+01 -0.249658903664E+01
  0.500000000000E+01  0.500000000000E+01  0.500000000000E+01  0.500000000000E+01  0.500000000000E+01  0.500000000000E+01  0.500000000000E+01
  0.500000000000E+01  0.500000000000E+01  0.500000000000E+01  0.500000000000E+01  0.500000000000E+01  0.500000000000E+01  0.500000000000E+01
  0.500000000000E+01  0.500000000000E+01  0.500000000000E+01  0.500000000000E+01  0.500000000000E+01  0.500000000000E+01  0.500000000000E+01
  0.500000000000E+01  0.500000000000E+01  0.500000000000E+01  0.500000000000E+01  0.500000000000E+01  0.500000000000E+01  0.500000000000E+01
  0.500000000000E+01  0.500000000000E+01  0.500000000000E+01  0.500000000000E+01
  0.488630053423E+00  0.488907200673E+00  0.490613524454E+00  0.492985464012E+00  0.486505314975E+00  0.484610387305E+00  0.485346346417E+00
  0.494164094826E+00  0.495364848064E+00  0.486544301825E+00  0.487826539497E+00  0.487053944491E+00  0.494057895498E+00  0.496127940578E+00
  0.487590739712E+00  0.483169495133E+00  0.492384717662E+00  0.487198320547E+00  0.494738341209E+00  0.487947262281E+00  0.489650836219E+00
  0.487975047811E+00  0.497248366859E+00  0.496055083747E+00  0.494947818077E+00  0.492777844524E+00  0.489959820989E+00  0.489963118744E+00
  0.491323935798E+00  0.486019442841E+00  0.489980976742E+00  0.495089980244E+00
  0.100214790177E+01  0.100152376261E+01  0.100177920363E+01  0.100047567419E+01  0.100126719373E+01  0.100066769089E+01  0.100025509248E+01
  0.100050308878E+01  0.100178625606E+01  0.100112381228E+01  0.100132857256E+01  0.100072299640E+01  0.100164084009E+01  0.100168369530E+01
  0.100096380429E+01  0.100001109262E+01  0.100083219162E+01  0.100022379580E+01  0.100062130449E+01  0.100023379273E+01  0.100174737467E+01
  0.100099023681E+01  0.100118721261E+01  0.100134451878E+01  0.100132726122E+01  0.100179980273E+01  0.100192626091E+01  0.100163810987E+01
  0.100045827286E+01  0.100058947226E+01  0.100110091494E+01  0.100176433139E+01
 -0.256271864722E-01 -0.248616925093E-01 -0.255332045758E-01 -0.298777275518E-02 -0.239604560348E-01 -0.130002379201E-01 -0.903692844796E-02
 -0.297370239473E-02 -0.339889515874E-01 -0.199259287325E-01 -0.267230631902E-01 -0.187274046753E-01 -0.311279693602E-01 -0.351928730203E-01
 -0.211067175191E-01 -0.870267548768E-02 -0.336880998216E-02 -0.110817876277E-01 -0.276193312248E-02 -0.110701830431E-01 -0.328886910788E-01
 -0.198636619749E-01 -0.387897395578E-01 -0.342339421425E-01 -0.360620980590E-01 -0.289202100688E-01 -0.289404529087E-01 -0.306042942979E-01
 -0.345715285776E-02 -0.132328523822E-01 -0.254274543750E-01 -0.321740894414E-01