title="tecplot geometry and solution file"
variables = x y z mach temperature lambda1 lambda2 lambda3 lambda4 lambda5
zone t="boundary 1 bc-1", solutiontime= 0.1000000E+03, strandid=1001, i=32, j=46, f=feblock
 -0.547468544169E-02  0.000000000000E+00 -0.567606031243E-02  0.000000000000E+00  0.000000000000E+00  0.000000000000E+00 -0.525159244851E-02
 -0.425776897977E-02  0.000000000000E+00  0.000000000000E+00  0.000000000000E+00  0.000000000000E+00  0.000000000000E+00  0.000000000000E+00
  0.000000000000E+00  0.000000000000E+00 -0.338395986572E-02  0.000000000000E+00  0.000000000000E+00  0.000000000000E+00  0.000000000000E+00
  0.000000000000E+00  0.000000000000E+00  0.000000000000E+00  0.000000000000E+00  0.000000000000E+00  0.000000000000E+00  0.000000000000E+00
  0.000000000000E+00  0.000000000000E+00  0.000000000000E+00  0.000000000000E+00
  0.250494197117E+01  0.250494197117E+01  0.127822156907E+01  0.146289271009E+01  0.157686156160E+01  0.308372018325E+00  0.261948602442E-01
 -0.122573481164E+01 -0.600232012419E+00  0.250494197117E+01  0.477386199275E+00  0.742988685424E+00 -0.739814786992E+00  0.177790177481E+01
  0.155830813274E+01  0.250494197117E+01 -0.249658903664E+01 -0.154800130438E+01 -0.487811078581E+00  0.250494197117E+01  0.627766083140E+00
 -0.345533899378E+00 -0.178862290564E+01 -0.158811787973E+01  0.125000000000E+01 -0.249658903664E+01 -0.144524380962E+01  0.000000000000E+00
 -0.125000000000E+01 -0.249658903664E+01 -0.249658903664E+01 -0.249658903664E+01
  0.803813859867E-04  0.125000000000E+01  0.822460170215E-04  0.103724302461E+01  0.219251206392E+01  0.922061490191E+00  0.103872438719E-03
  0.341545874230E-04  0.715990576545E+00  0.250000000000E+01  0.202479342020E+01  0.324151231464E+01  0.175434191980E+01  0.310152362409E+01
  0.404200324774E+01  0.375000000000E+01  0.810725962649E-04  0.930412228790E+00  0.299062775774E+01  0.500000000000E+01  0.429310310915E+01
  0.409252726285E+01  0.187029682677E+01  0.284428995242E+01  0.500000000000E+01  0.125000000000E+01  0.394624082883E+01  0.500000000000E+01
  0.500000000000E+01  0.250000000000E+01  0.375000000000E+01  0.500000000000E+01
  0.000000000000E+00  0.440672136512E+00  0.000000000000E+00  0.474618025820E+00  0.460125068601E+00  0.468639320143E+00  0.000000000000E+00
  0.000000000000E+00  0.402534623939E+00  0.469886789982E+00  0.464193107367E+00  0.478749739491E+00  0.489555756507E+00  0.483130037990E+00
  0.488002902366E+00  0.489035017215E+00  0.000000000000E+00  0.465237698331E+00  0.473759127176E+00  0.495364848064E+00  0.490293257191E+00
  0.486276632093E+00  0.445850265191E+00  0.464356446519E+00  0.496127940578E+00  0.443891909404E+00  0.486928147025E+00  0.497248366859E+00
  0.496055083747E+00  0.467740399690E+00  0.488187228171E+00  0.495089980244E+00
  0.999990300362E+00  0.102982970104E+01  0.999990762612E+00  0.104241436388E+01  0.101187663318E+01  0.102516400612E+01  0.999991420552E+00
  0.999992171067E+00  0.103882325429E+01  0.100825795511E+01  0.101253536096E+01  0.100301645575E+01  0.102705594255E+01  0.100604114309E+01
  0.100244532432E+01  0.100354817652E+01  0.999992724186E+00  0.103209991946E+01  0.100459425771E+01  0.100178625606E+01  0.100260326526E+01
  0.100234745937E+01  0.101657167924E+01  0.100620610961E+01  0.100168369530E+01  0.104025009063E+01  0.100303477791E+01  0.100118721261E+01
  0.100134451878E+01  0.100976460100E+01  0.100405634212E+01  0.100176433139E+01
  0.610153391815E-02  0.306711858867E-01  0.698584992872E-02  0.492857758810E-01  0.346805536181E-02  0.587151777831E-01  0.512289201146E-02
  0.170640720099E-02  0.582842780152E-01 -0.165054467647E-02  0.389906000098E-02 -0.702002164669E-02  0.329305335692E-02 -0.389683909934E-02
 -0.933434772780E-02 -0.931170590096E-02  0.308617719866E-02  0.385701458514E-01 -0.515909099151E-02 -0.339889515640E-01 -0.121371204140E-01
 -0.812749111198E-02  0.186500245419E-02 -0.443773612053E-02 -0.351928729967E-01  0.248749972726E-01 -0.633196295211E-02 -0.387897395325E-01
 -0.342339421262E-01 -0.361050606825E-02 -0.697182730547E-02 -0.321740894265E-01
  0.239164128177E-03  0.444680434931E-02  0.331486044851E-03  0.629816442048E-02  0.164997351906E-03  0.888267045336E-02  0.361563016783E-03
  0.321565326096E-03  0.868187160349E-02 -0.782731197970E-03  0.347017306356E-03 -0.148150281749E-02 -0.972022848479E-04 -0.114291693072E-02
 -0.182990689529E-02 -0.204929423797E-02  0.284324328337E-03  0.601356747187E-02 -0.103425456814E-02 -0.697980049309E-02 -0.240658095056E-02
 -0.155620785895E-02 -0.207858742355E-03 -0.851582834503E-03 -0.736818459471E-02  0.306389465725E-02 -0.124812989537E-02 -0.814890128138E-02
 -0.716222997283E-02 -0.904834789306E-03 -0.148505705322E-02 -0.669252894326E-02
  0.405779426175E-03  0.128360292051E-03  0.546846003504E-03  0.125043766358E-02  0.147417936448E-03  0.606823260716E-03  0.467455816047E-03
 -0.174822357875E-03 -0.333560001891E-04 -0.133095080952E-04  0.128401767479E-03  0.133218589501E-03 -0.140700428832E-03  0.251321789554E-04
 -0.495568498084E-04 -0.287388571905E-05 -0.245065371106E-03 -0.794295462973E-03  0.152877520493E-04  0.332337281458E-05 -0.320394798779E-04
 -0.381186211356E-04 -0.165838341328E-04 -0.137116118555E-03  0.897652898912E-04 -0.102528488352E-03 -0.785924041147E-04 -0.171178665203E-04
 -0.755985509523E-04 -0.219885831218E-04 -0.801488680002E-05  0.655033530322E-05
 -0.147377686386E-02 -0.134235192384E-02 -0.160724904227E-02 -0.707139909013E-05  0.142132333497E-02  0.153436090880E-02 -0.900190070883E-03
 -0.786742752342E-03  0.108761913869E-02  0.155250127546E-02  0.289698899369E-02  0.159524349941E-02  0.319791088083E-02  0.148292123617E-02
  0.109570566595E-02  0.128776178188E-02 -0.609691717248E-03  0.917046108679E-03  0.183403615560E-02  0.461713580106E-03  0.101750351769E-02
  0.121229287000E-02  0.217945527910E-02  0.148789803105E-02  0.443252605925E-03  0.112544143476E-02  0.111203972839E-02  0.419579597200E-03
  0.501322143098E-03  0.168657857217E-02  0.113913636530E-02  0.491880271416E-03
 -0.487357669700E-02 -0.126323826782E-01 -0.665721490386E-02 -0.197255432865E-01 -0.144221178015E-02 -0.243725442572E-01  0.325653428175E-03
  0.104281894735E-02 -0.242213095892E-01  0.663953023826E-03 -0.170479103672E-02  0.274455747219E-02 -0.142040892456E-02  0.153552563145E-02
  0.372785057829E-02  0.375553463650E-02 -0.101638817668E-02 -0.161248609612E-01  0.191184885762E-02  0.141100283457E-01  0.490174921496E-02
  0.321433462409E-02 -0.897380629705E-03  0.158968336949E-02  0.146361599719E-01 -0.101408538580E-01  0.246930591386E-02  0.161792887246E-01
  0.142460699583E-01  0.131302142762E-02  0.277003412920E-02  0.133539889646E-01
        12        19        11        11
        11         5        12        12
        10        14         5         5
        19        13        11        11
        19        24        13        13
        30        23        24        24
        19        12        22        22
        28        22        21        21
        11        13         6         6
         7         6         9         9
        15        12        14        14
        18        13        23        23
        15        25        21        21
        27        19        22        22
        18         8         9         9
        27        31        24        24
         4        11         6         6
         5        14        12        12
         4         2         5         5
        21        12        15        15
        14        16        15        15
        24        19        27        27
        22        29        27        27
        23        26        18        18
        17         8        18        18
         5        11         4         4
         6         3         4         4
        26        23        30        30
         5         2        10        10
        16        14        10        10
         3         6         7         7
        21        25        28        28
        29        22        28        28
         6        13         9         9
         2         4         1         1
        31        27        32        32
        25        15        20        20
        24        23        13        13
         8         7         9         9
        13        18         9         9
        31        30        24        24
        12        21        22        22
        29        32        27        27
         3         1         4         4
        26        17        18        18
        16        20        15        15
zone t="boundary 2 bc-2", solutiontime= 0.1000000E+03, strandid=1002, i=33, j=48, f=feblock
  0.500195253374E+01  0.375034811161E+01  0.249861146299E+01  0.288036674177E+01  0.124717526933E+01  0.190856698521E+01  0.326577190273E+01
  0.201394856120E+01 -0.338395986572E-02  0.962374249381E+00  0.500000000000E+01  0.403430190008E+01  0.423029563807E+01  0.500000000000E+01
  0.385439188940E+01  0.500000000000E+01  0.398133433176E+01  0.315200081417E+01  0.266958028869E+01  0.154798029824E+01  0.218327860466E+01
  0.893688440338E+00  0.000000000000E+00  0.699009761768E+00  0.964460899052E+00  0.310303671659E+01  0.000000000000E+00  0.000000000000E+00
  0.125000000000E+01  0.500000000000E+01  0.375000000000E+01  0.250000000000E+01  0.000000000000E+00
 -0.249658903664E+01 -0.249658903664E+01 -0.249658903664E+01 -0.249658903664E+01 -0.249658903664E+01 -0.249658903664E+01 -0.249658903664E+01
 -0.249658903664E+01 -0.249658903664E+01 -0.249658903664E+01 -0.249658903664E+01 -0.249658903664E+01 -0.249658903664E+01 -0.249658903664E+01
 -0.249658903664E+01 -0.249658903664E+01 -0.249658903664E+01 -0.249658903664E+01 -0.249658903664E+01 -0.249658903664E+01 -0.249658903664E+01
 -0.249658903664E+01 -0.249658903664E+01 -0.249658903664E+01 -0.249658903664E+01 -0.249658903664E+01 -0.249658903664E+01 -0.249658903664E+01
 -0.249658903664E+01 -0.249658903664E+01 -0.249658903664E+01 -0.249658903664E+01 -0.249658903664E+01
  0.108225889030E-03  0.145875369682E-03  0.100893326425E-03  0.901663374396E+00  0.110858761917E-03  0.714928318829E+00  0.188140648011E+01
  0.175892165504E+01  0.810725962649E-04  0.957504300331E+00  0.125000000000E+01  0.100596698996E+01  0.191313519089E+01  0.250000000000E+01
  0.292898096716E+01  0.375000000000E+01  0.406883369524E+01  0.363389289944E+01  0.284756860985E+01  0.292582308120E+01  0.395754054931E+01
  0.205027256979E+01  0.125000000000E+01  0.306703272692E+01  0.397155766662E+01  0.433068622168E+01  0.250000000000E+01  0.375000000000E+01
  0.500000000000E+01  0.500000000000E+01  0.500000000000E+01  0.500000000000E+01  0.500000000000E+01
  0.000000000000E+00  0.000000000000E+00  0.000000000000E+00  0.380534933893E+00  0.000000000000E+00  0.343213081171E+00  0.585244496925E+00
  0.579499344205E+00  0.000000000000E+00  0.500959578913E+00  0.508769460148E+00  0.434312419771E+00  0.572817919451E+00  0.537160208080E+00
  0.569105645782E+00  0.515014970171E+00  0.508256765061E+00  0.527354036988E+00  0.567656182489E+00  0.531857069084E+00  0.506013391179E+00
  0.521044573739E+00  0.443891909404E+00  0.490703078146E+00  0.492147926412E+00  0.501388000320E+00  0.467740399690E+00  0.488187228171E+00
  0.489959820989E+00  0.491323935798E+00  0.486019442841E+00  0.489980976742E+00  0.495089980244E+00
  0.999993488485E+00  0.999993690942E+00  0.999993544242E+00  0.989596674085E+00  0.999993139053E+00  0.985604091028E+00  0.989839488847E+00
  0.991730617690E+00  0.999992724186E+00  0.984220387528E+00  0.985139981863E+00  0.984817712566E+00  0.990066477090E+00  0.100292374828E+01
  0.999857731400E+00  0.100487268684E+01  0.100122724769E+01  0.100056983810E+01  0.997888256964E+00  0.100350942201E+01  0.100059365414E+01
  0.101090707434E+01  0.104025009063E+01  0.100327959733E+01  0.100254952730E+01  0.100046804572E+01  0.100976460100E+01  0.100405634212E+01
  0.100192626091E+01  0.100045827286E+01  0.100058947226E+01  0.100110091494E+01  0.100176433139E+01
 -0.252333582509E-02 -0.197864120874E-02 -0.121497314587E-02  0.238853220427E-01  0.241590939288E-02  0.783268162003E-01 -0.513312467376E-02
  0.944453587454E-03  0.308617719866E-02  0.364108358807E-01 -0.659581546833E-02 -0.762597877986E-02 -0.517722059137E-02 -0.442581891482E-02
 -0.325449915602E-02 -0.297029835011E-02 -0.218698745900E-02 -0.253112061559E-02 -0.418854213457E-02 -0.501218270025E-02 -0.329382191687E-02
  0.131127852156E-02  0.248749972726E-01 -0.338766038049E-02 -0.609030471758E-02 -0.396544913449E-02 -0.361050606825E-02 -0.697182730547E-02
 -0.289404529005E-01 -0.345715285709E-02 -0.132328523780E-01 -0.254274543658E-01 -0.321740894265E-01
  0.688028145457E-03 -0.192355326560E-03  0.185875039175E-04  0.410471406612E-02 -0.447498148838E-03  0.973216296301E-02 -0.192655435350E-04
 -0.387640994191E-03  0.284324328337E-03  0.429768774846E-02  0.149337657544E-02  0.513131471103E-04  0.758734357304E-03  0.113154818134E-02
  0.753319968101E-03  0.696469730287E-03  0.834278445971E-03  0.695249673291E-03  0.256066181023E-03 -0.423706063751E-03  0.298550460184E-03
 -0.360595914952E-03  0.306389465725E-02 -0.229990124978E-03 -0.701350906291E-03  0.411857540549E-03 -0.904834789306E-03 -0.148505705322E-02
 -0.520611397497E-02  0.174304451188E-03 -0.132948316674E-02 -0.395289881017E-02 -0.669252894326E-02
 -0.155434499041E-03  0.411055598692E-04  0.241689305168E-03  0.557939771288E-03  0.128343733945E-03  0.973155201834E-03 -0.760837374274E-04
  0.866365811156E-05 -0.245065371106E-03  0.373114311576E-03 -0.884431448108E-04 -0.284831626316E-03  0.530018083319E-05  0.835705582152E-05
  0.687474797368E-05 -0.133553808114E-04  0.162100283265E-05 -0.712191533483E-05  0.115761494472E-04  0.276301457446E-04 -0.169170550358E-04
  0.289621880594E-04 -0.102528488352E-03  0.546297942491E-05 -0.265872491413E-05 -0.591930964226E-05 -0.219885831218E-04 -0.801488680002E-05
 -0.261259403109E-05 -0.238085019885E-05  0.519196423317E-06  0.173591047930E-05  0.655033530322E-05
 -0.198503887228E-03 -0.204912241263E-03 -0.309699070725E-03  0.103434608894E-02 -0.716700905480E-03  0.224471583029E-03  0.156040938180E-02
  0.208733854840E-02 -0.609691717248E-03  0.980936033299E-03  0.298714259866E-03  0.109204344720E-02  0.626926073893E-03  0.283385432910E-03
  0.647064218090E-03  0.236880308479E-03  0.629197927607E-03  0.888685171066E-03  0.105436240250E-02  0.109586384932E-02  0.102609203378E-02
  0.165912948404E-02  0.112544143476E-02  0.116603969973E-02  0.102767837799E-02  0.887067741170E-03  0.168657857217E-02  0.113913636530E-02
  0.691404703401E-03  0.368585262834E-03  0.801811152679E-03  0.869631360189E-03  0.491880271416E-03
  0.718487979446E-03  0.197867305728E-02  0.342998193998E-02 -0.108857990307E-01  0.409124705032E-02 -0.335482573556E-01  0.152395831333E-02
 -0.485250671024E-03 -0.101638817668E-02 -0.150872666010E-01  0.142562765036E-02  0.231553757075E-02  0.127174642365E-02  0.848611156919E-03
  0.635908744921E-03  0.600620158120E-03  0.300602606051E-03  0.460771414961E-03  0.114876266468E-02  0.170371528015E-02  0.880454695829E-03
 -0.598125345776E-03 -0.101408538580E-01  0.109204545577E-02  0.222198793087E-02  0.108191940238E-02  0.131302142762E-02  0.277003412920E-02
  0.117586375272E-01  0.104483185722E-02  0.496567217100E-02  0.101101669043E-01  0.133539889646E-01
        15         7        19        19
         8        20        19        19
        18        19        21        21
         7         4         8         8
         3         6         4         4
        19         7         8         8
        19        18        15        15
        14        13        15        15
         8        22        20        20
        27        24        22        22
        19        20        21        21
        32        26        21        21
        17        18        26        26
        17        16        15        15
        25        29        21        21
        12         7        13        13
        10         8         6         6
        25        20        24        24
         4         6         8         8
        12         2         4         4
        10        23        22        22
        26        31        17        17
        30        16        17        17
         4         7        12        12
        13        11        12        12
        21        20        25        25
        24        28        25        25
        22         8        10        10
         6         5        10        10
        31        26        32        32
         4         2         3         3
         5         6         3         3
        11        13        14        14
        22        23        27        27
        28        24        27        27
        15        13         7         7
         2        12         1         1
        29        25        33        33
        23        10         9         9
        21        26        18        18
        16        14        15        15
        18        17        15        15
        29        32        21        21
        22        24        20        20
        28        33        25        25
        11         1        12        12
        31        30        17        17
         5         9        10        10
zone t="boundary 3 bc-3", solutiontime= 0.1000000E+03, strandid=1003, i=33, j=48, f=feblock
  0.375059096892E+01  0.249769609313E+01  0.500322133174E+01  0.403612218725E+01  0.287976772365E+01  0.124541910518E+01  0.190552237404E+01
  0.500000000000E+01  0.326671104552E+01  0.423253755448E+01  0.201271136506E+01 -0.547468544169E-02  0.958895643487E+00  0.500000000000E+01
  0.266968147299E+01  0.385584487271E+01  0.890374214836E+00  0.154654013699E+01  0.000000000000E+00  0.500000000000E+01  0.315261136744E+01
  0.218304199515E+01  0.398195307895E+01  0.000000000000E+00  0.697379952124E+00  0.963757277315E+00  0.125000000000E+01  0.000000000000E+00
  0.500000000000E+01  0.310330738524E+01  0.250000000000E+01  0.375000000000E+01  0.000000000000E+00
  0.250494197117E+01  0.250494197117E+01  0.250494197117E+01  0.250494197117E+01  0.250494197117E+01  0.250494197117E+01  0.250494197117E+01
  0.250494197117E+01  0.250494197117E+01  0.250494197117E+01  0.250494197117E+01  0.250494197117E+01  0.250494197117E+01  0.250494197117E+01
  0.250494197117E+01  0.250494197117E+01  0.250494197117E+01  0.250494197117E+01  0.250494197117E+01  0.250494197117E+01  0.250494197117E+01
  0.250494197117E+01  0.250494197117E+01  0.250494197117E+01  0.250494197117E+01  0.250494197117E+01  0.250494197117E+01  0.250494197117E+01
  0.250494197117E+01  0.250494197117E+01  0.250494197117E+01  0.250494197117E+01  0.250494197117E+01
  0.135649900494E-03  0.110129816467E-03  0.966887303890E-04  0.101756752009E+01  0.908094589218E+00  0.103942505801E-03  0.722629083213E+00
  0.125000000000E+01  0.188965661746E+01  0.191862696980E+01  0.176708239098E+01  0.803813859867E-04  0.969652551954E+00  0.250000000000E+01
  0.285339433501E+01  0.293325058812E+01  0.205656223819E+01  0.293157016932E+01  0.125000000000E+01  0.375000000000E+01  0.363766838842E+01
  0.396069444983E+01  0.407056385475E+01  0.250000000000E+01  0.307031995245E+01  0.397359820314E+01  0.500000000000E+01  0.375000000000E+01
  0.500000000000E+01  0.433260781310E+01  0.500000000000E+01  0.500000000000E+01  0.500000000000E+01
  0.000000000000E+00  0.000000000000E+00  0.000000000000E+00  0.444961626928E+00  0.402838316190E+00  0.000000000000E+00  0.379029001549E+00
  0.508827846411E+00  0.575719767468E+00  0.573484231916E+00  0.562571091033E+00  0.000000000000E+00  0.491643474339E+00  0.534340493553E+00
  0.556353506125E+00  0.564141623675E+00  0.522489639030E+00  0.521815314100E+00  0.440672136512E+00  0.517132480923E+00  0.524064820256E+00
  0.503612613683E+00  0.509416634110E+00  0.469886789982E+00  0.495646532245E+00  0.494503101969E+00  0.488630053423E+00  0.489035017215E+00
  0.492985464012E+00  0.498953669977E+00  0.486505314975E+00  0.484610387305E+00  0.495364848064E+00
  0.999989345567E+00  0.999989414891E+00  0.999989632591E+00  0.981375695393E+00  0.988672653297E+00  0.999989832933E+00  0.982271891095E+00
  0.984075644303E+00  0.990406052732E+00  0.990320090376E+00  0.994390331428E+00  0.999990300362E+00  0.988743428079E+00  0.100365390733E+01
  0.999774597300E+00  0.100117529834E+01  0.100830077599E+01  0.100251293722E+01  0.102982970104E+01  0.100442054131E+01  0.100199281310E+01
  0.100081994749E+01  0.100137956774E+01  0.100825795511E+01  0.100297377722E+01  0.100191712118E+01  0.100214790177E+01  0.100354817652E+01
  0.100047567419E+01  0.100056574043E+01  0.100126719373E+01  0.100066769089E+01  0.100178625606E+01
 -0.170723225984E-02  0.132172718825E-02 -0.282328329374E-02  0.156134922906E-01  0.610942240623E-01  0.384271072319E-02  0.607930071026E-01
 -0.967055855200E-02 -0.492482236455E-02 -0.609311708043E-02  0.101011555965E-01  0.610153391815E-02  0.411685356494E-01 -0.462869996949E-02
 -0.535323147841E-02 -0.380366901436E-02  0.118000034677E-02 -0.517345910060E-02  0.306711858867E-01 -0.315228444735E-02 -0.230376906541E-02
 -0.315324424889E-02 -0.240376397504E-02 -0.165054467647E-02 -0.450985770164E-02 -0.833746591337E-02 -0.256271864623E-01 -0.931170590096E-02
 -0.298777275444E-02 -0.367491673825E-02 -0.239604560238E-01 -0.130002379156E-01 -0.339889515640E-01
 -0.395669708036E-03 -0.383871386426E-03  0.702898252048E-03  0.442172866675E-02  0.844000087121E-02 -0.799533683675E-03  0.752211232666E-02
  0.158579115103E-02 -0.848301014327E-04  0.835621440722E-03  0.183762978735E-03  0.239164128177E-03  0.310119291221E-02  0.121108714492E-02
 -0.765078316524E-04  0.632467909706E-03 -0.114702225129E-02 -0.543322739176E-03  0.444680434931E-02  0.772815531707E-03  0.668153230078E-03
  0.362375864461E-03  0.780437625771E-03 -0.782731197970E-03 -0.105761231449E-02 -0.104820505807E-02 -0.454572850872E-02 -0.204929423797E-02
  0.271660825257E-03  0.430125614906E-03 -0.371615664150E-02 -0.129195914291E-02 -0.697980049309E-02
 -0.747208605511E-04  0.397366283460E-04  0.956474598162E-04 -0.296423315310E-03 -0.858364614266E-03  0.335333096382E-03 -0.127418066271E-04
  0.190592527445E-05 -0.958258530445E-04  0.160414566514E-04 -0.808026324306E-04  0.405779426175E-03  0.465400146140E-03  0.352454159690E-04
 -0.404173774146E-05  0.485501094561E-05 -0.158969402840E-03 -0.597034402104E-04  0.128360292051E-03  0.197178088523E-04  0.966503039061E-05
  0.428271668559E-04  0.767059512956E-06 -0.133095080952E-04 -0.361642541269E-04  0.121931191995E-04  0.171305141842E-04 -0.287388571905E-05
  0.691969722858E-05 -0.250003536415E-06  0.391657815190E-05 -0.101187719319E-05  0.332337281458E-05
 -0.462461037299E-03 -0.866028513782E-03 -0.242265427009E-03  0.654616673496E-03  0.104388186609E-02 -0.834700821109E-03  0.330816741066E-03
  0.374310525885E-03  0.191563186307E-02  0.929862799211E-03  0.277658798233E-02 -0.147377686386E-02  0.912533606762E-03  0.371746193001E-03
  0.986788456258E-03  0.826393703937E-03  0.233938286022E-02  0.105032387244E-02 -0.134235192384E-02  0.329622539316E-03  0.949439620664E-03
  0.981561185708E-03  0.710110814414E-03  0.155250127546E-02  0.151224821383E-02  0.101246036751E-02  0.727932792290E-03  0.128776178188E-02
  0.350570161793E-03  0.922700425665E-03  0.882455269124E-03  0.804721754988E-03  0.461713580106E-03
  0.706435092360E-02  0.301233073871E-02  0.132758293211E-02 -0.812451721542E-02 -0.264527790092E-01  0.190748042533E-03 -0.255316862599E-01
  0.246327860255E-02  0.152875043864E-02  0.157352670114E-02 -0.394572845543E-02 -0.487357669700E-02 -0.162207494364E-01  0.871185326576E-03
  0.169072066480E-02  0.862167232908E-03 -0.353484558350E-03  0.179120939503E-02 -0.126323826782E-01  0.618641421892E-03  0.381158678620E-03
  0.812882254536E-03  0.391898078415E-03  0.663953023826E-03  0.165153277403E-02  0.313677989189E-02  0.103608075608E-01  0.375553463650E-02
  0.846696585532E-03  0.970907575025E-03  0.950772485718E-02  0.486678832152E-02  0.141100283457E-01
        15         9        16        16
        15        18        11        11
        22        15        21        21
        11         5         9         9
         5         7         2         2
        11         9        15        15
        16        21        15        15
        16        10        14        14
        18        17        11        11
        17        25        24        24
        22        18        15        15
        22        30        31        31
        30        21        23        23
        16        20        23        23
        22        27        26        26
        10         9         4         4
         7        11        13        13
        25        18        26        26
        11         7         5         5
         5         1         4         4
        17        19        13        13
        23        32        30        30
        23        20        29        29
         4         9         5         5
         4         8        10        10
        26        18        22        22
        26        28        25        25
        13        11        17        17
        13         6         7         7
        31        30        32        32
         2         1         5         5
         2         7         6         6
        14        10         8         8
        24        19        17        17
        24        25        28        28
         9        10        16        16
         3         4         1         1
        33        26        27        27
        12        13        19        19
        21        30        22        22
        16        14        20        20
        16        23        21        21
        22        31        27        27
        18        25        17        17
        26        33        28        28
         4         3         8         8
        23        29        32        32
        13        12         6         6
zone t="boundary 4 bc-4", solutiontime= 0.1000000E+03, strandid=1004, i=32, j=46, f=feblock
  0.125000000000E+01  0.219251206392E+01  0.103724302461E+01  0.500000000000E+01  0.250000000000E+01  0.375000000000E+01  0.404200324774E+01
  0.500000000000E+01  0.000000000000E+00  0.310152362409E+01  0.202479342020E+01  0.324151231464E+01  0.922061490191E+00  0.000000000000E+00
  0.299062775774E+01  0.394624082883E+01  0.500000000000E+01  0.409252726285E+01  0.500000000000E+01  0.429310310915E+01  0.175434191980E+01
  0.284428995242E+01  0.000000000000E+00  0.000000000000E+00  0.715990576545E+00  0.930412228790E+00  0.125000000000E+01  0.187029682677E+01
  0.500000000000E+01  0.375000000000E+01  0.250000000000E+01  0.000000000000E+00
  0.250494197117E+01  0.157686156160E+01  0.146289271009E+01  0.250494197117E+01  0.250494197117E+01  0.250494197117E+01  0.155830813274E+01
  0.125000000000E+01  0.250494197117E+01  0.177790177481E+01  0.477386199275E+00  0.742988685424E+00  0.308372018325E+00  0.125000000000E+01
 -0.487811078581E+00 -0.144524380962E+01 -0.125000000000E+01 -0.345533899378E+00  0.000000000000E+00  0.627766083140E+00 -0.739814786992E+00
 -0.158811787973E+01  0.000000000000E+00 -0.125000000000E+01 -0.600232012419E+00 -0.154800130438E+01 -0.249658903664E+01 -0.178862290564E+01
 -0.249658903664E+01 -0.249658903664E+01 -0.249658903664E+01 -0.249658903664E+01
  0.500000000000E+01  0.500000000000E+01  0.500000000000E+01  0.500000000000E+01  0.500000000000E+01  0.500000000000E+01  0.500000000000E+01
  0.500000000000E+01  0.500000000000E+01  0.500000000000E+01  0.500000000000E+01  0.500000000000E+01  0.500000000000E+01  0.500000000000E+01
  0.500000000000E+01  0.500000000000E+01  0.500000000000E+01  0.500000000000E+01  0.500000000000E+01  0.500000000000E+01  0.500000000000E+01
  0.500000000000E+01  0.500000000000E+01  0.500000000000E+01  0.500000000000E+01  0.500000000000E+01  0.500000000000E+01  0.500000000000E+01
  0.500000000000E+01  0.500000000000E+01  0.500000000000E+01  0.500000000000E+01
  0.488630053423E+00  0.488907200673E+00  0.490613524454E+00  0.492985464012E+00  0.486505314975E+00  0.484610387305E+00  0.485346346417E+00
  0.494164094826E+00  0.495364848064E+00  0.486544301825E+00  0.487826539497E+00  0.487053944491E+00  0.494057895498E+00  0.496127940578E+00
  0.487590739712E+00  0.483169495133E+00  0.492384717662E+00  0.487198320547E+00  0.494738341209E+00  0.487947262281E+00  0.489650836219E+00
  0.487975047811E+00  0.497248366859E+00  0.496055083747E+00  0.494947818077E+00  0.492777844524E+00  0.489959820989E+00  0.489963118744E+00
  0.491323935798E+00  0.486019442841E+00  0.489980976742E+00  0.495089980244E+00
  0.100214790177E+01  0.100152376261E+01  0.100177920363E+01  0.100047567419E+01  0.100126719373E+01  0.100066769089E+01  0.100025509248E+01
  0.100050308878E+01  0.100178625606E+01  0.100112381228E+01  0.100132857256E+01  0.100072299640E+01  0.100164084009E+01  0.100168369530E+01
  0.100096380429E+01  0.100001109262E+01  0.100083219162E+01  0.100022379580E+01  0.100062130449E+01  0.100023379273E+01  0.100174737467E+01
  0.100099023681E+01  0.100118721261E+01  0.100134451878E+01  0.100132726122E+01  0.100179980273E+01  0.100192626091E+01  0.100163810987E+01
  0.100045827286E+01  0.100058947226E+01  0.100110091494E+01  0.100176433139E+01
 -0.256271864623E-01 -0.248616924974E-01 -0.255332045632E-01 -0.298777275444E-02 -0.239604560238E-01 -0.130002379156E-01 -0.903692844487E-02
 -0.297370239393E-02 -0.339889515640E-01 -0.199259287242E-01 -0.267230631791E-01 -0.187274046679E-01 -0.311279693443E-01 -0.351928729967E-01
 -0.211067175108E-01 -0.870267548479E-02 -0.336880998143E-02 -0.110817876244E-01 -0.276193312174E-02 -0.110701830392E-01 -0.328886910625E-01
 -0.198636619682E-01 -0.387897395325E-01 -0.342339421262E-01 -0.360620980438E-01 -0.289202100567E-01 -0.289404529005E-01 -0.306042942865E-01
 -0.345715285709E-02 -0.132328523780E-01 -0.254274543658E-01 -0.321740894265E-01