title="tecplot geometry and solution file"
variables = x y z mach temperature lambda1 lambda2 lambda3 lambda4 lambda5
zone t="boundary 1 bc-1", solutiontime= 0.7000000E+02, strandid=1001, i=32, j=46, f=feblock
 -0.547468544169E-02  0.000000000000E+00 -0.567606031243E-02  0.000000000000E+00  0.000000000000E+00  0.000000000000E+00 -0.525159244851E-02
 -0.425776897977E-02  0.000000000000E+00  0.000000000000E+00  0.000000000000E+00  0.000000000000E+00  0.000000000000E+00  0.000000000000E+00
  0.000000000000E+00  0.000000000000E+00 -0.338395986572E-02  0.000000000000E+00  0.000000000000E+00  0.000000000000E+00  0.000000000000E+00
  0.000000000000E+00  0.000000000000E+00  0.000000000000E+00  0.000000000000E+00  0.000000000000E+00  0.000000000000E+00  0.000000000000E+00
  0.000000000000E+00  0.000000000000E+00  0.000000000000E+00  0.000000000000E+00
  0.250494197117E+01  0.250494197117E+01  0.127822156907E+01  0.146289271009E+01  0.157686156160E+01  0.308372018325E+00  0.261948602442E-01
 -0.122573481164E+01 -0.600232012419E+00  0.250494197117E+01  0.477386199275E+00  0.742988685424E+00 -0.739814786992E+00  0.177790177481E+01
  0.155830813274E+01  0.250494197117E+01 -0.249658903664E+01 -0.154800130438E+01 -0.487811078581E+00  0.250494197117E+01  0.627766083140E+00
 -0.345533899378E+00 -0.178862290564E+01 -0.158811787973E+01  0.125000000000E+01 -0.249658903664E+01 -0.144524380962E+01  0.000000000000E+00
 -0.125000000000E+01 -0.249658903664E+01 -0.249658903664E+01 -0.249658903664E+01
  0.803813859867E-04  0.125000000000E+01  0.822460170215E-04  0.103724302461E+01  0.219251206392E+01  0.922061490191E+00  0.103872438719E-03
  0.341545874230E-04  0.715990576545E+00  0.250000000000E+01  0.202479342020E+01  0.324151231464E+01  0.175434191980E+01  0.310152362409E+01
  0.404200324774E+01  0.375000000000E+01  0.810725962649E-04  0.930412228790E+00  0.299062775774E+01  0.500000000000E+01  0.429310310915E+01
  0.409252726285E+01  0.187029682677E+01  0.284428995242E+01  0.500000000000E+01  0.125000000000E+01  0.394624082883E+01  0.500000000000E+01
  0.500000000000E+01  0.250000000000E+01  0.375000000000E+01  0.500000000000E+01
  0.000000000000E+00  0.440672136512E+00  0.000000000000E+00  0.474618025820E+00  0.460125068601E+00  0.468639320143E+00  0.000000000000E+00
  0.000000000000E+00  0.402534623939E+00  0.469886789982E+00  0.464193107367E+00  0.478749739491E+00  0.489555756507E+00  0.483130037990E+00
  0.488002902366E+00  0.489035017215E+00  0.000000000000E+00  0.465237698331E+00  0.473759127176E+00  0.495364848064E+00  0.490293257191E+00
  0.486276632093E+00  0.445850265191E+00  0.464356446519E+00  0.496127940578E+00  0.443891909404E+00  0.486928147025E+00  0.497248366859E+00
  0.496055083747E+00  0.467740399690E+00  0.488187228171E+00  0.495089980244E+00
  0.999990300362E+00  0.102982970104E+01  0.999990762612E+00  0.104241436388E+01  0.101187663318E+01  0.102516400612E+01  0.999991420552E+00
  0.999992171067E+00  0.103882325429E+01  0.100825795511E+01  0.101253536096E+01  0.100301645575E+01  0.102705594255E+01  0.100604114309E+01
  0.100244532432E+01  0.100354817652E+01  0.999992724186E+00  0.103209991946E+01  0.100459425771E+01  0.100178625606E+01  0.100260326526E+01
  0.100234745937E+01  0.101657167924E+01  0.100620610961E+01  0.100168369530E+01  0.104025009063E+01  0.100303477791E+01  0.100118721261E+01
  0.100134451878E+01  0.100976460100E+01  0.100405634212E+01  0.100176433139E+01
  0.610153391233E-02  0.306711858891E-01  0.698584992513E-02  0.492857758538E-01  0.346805538220E-02  0.587151778250E-01  0.512289200894E-02
  0.170640718350E-02  0.582842780102E-01 -0.165054467576E-02  0.389905998841E-02 -0.702002169800E-02  0.329305344352E-02 -0.389683910868E-02
 -0.933434762644E-02 -0.931170594568E-02  0.308617718477E-02  0.385701454631E-01 -0.515909102660E-02 -0.339889517562E-01 -0.121371202254E-01
 -0.812749110291E-02  0.186500247223E-02 -0.443773612364E-02 -0.351928732276E-01  0.248749976993E-01 -0.633196287304E-02 -0.387897398691E-01
 -0.342339422462E-01 -0.361050613574E-02 -0.697182727628E-02 -0.321740895323E-01
  0.239164126998E-03  0.444680434320E-02  0.331486043191E-03  0.629816441188E-02  0.164997355635E-03  0.888267046595E-02  0.361563015620E-03
  0.321565326425E-03  0.868187159908E-02 -0.782731198378E-03  0.347017304316E-03 -0.148150282800E-02 -0.972022681942E-04 -0.114291692947E-02
 -0.182990686759E-02 -0.204929424108E-02  0.284324329485E-03  0.601356740792E-02 -0.103425457725E-02 -0.697980054709E-02 -0.240658090305E-02
 -0.155620785343E-02 -0.207858739108E-03 -0.851582831921E-03 -0.736818464957E-02  0.306389473529E-02 -0.124812987693E-02 -0.814890135319E-02
 -0.716222999647E-02 -0.904834800029E-03 -0.148505704495E-02 -0.669252897016E-02
  0.405779426293E-03  0.128360291701E-03  0.546846003135E-03  0.125043765523E-02  0.147417934526E-03  0.606823253263E-03  0.467455816642E-03
 -0.174822356560E-03 -0.333560062749E-04 -0.133095079863E-04  0.128401771234E-03  0.133218586288E-03 -0.140700430217E-03  0.251321773405E-04
 -0.495568522039E-04 -0.287388521325E-05 -0.245065370328E-03 -0.794295454592E-03  0.152877563450E-04  0.332337343265E-05 -0.320394845553E-04
 -0.381186276641E-04 -0.165838361636E-04 -0.137116122928E-03  0.897652970609E-04 -0.102528486726E-03 -0.785924090480E-04 -0.171178543827E-04
 -0.755985424009E-04 -0.219885834951E-04 -0.801488713210E-05  0.655033508888E-05
 -0.147377686103E-02 -0.134235190932E-02 -0.160724903991E-02 -0.707139176160E-05  0.142132334248E-02  0.153436091263E-02 -0.900190070345E-03
 -0.786742749450E-03  0.108761915255E-02  0.155250128859E-02  0.289698899200E-02  0.159524349731E-02  0.319791089170E-02  0.148292124213E-02
  0.109570566683E-02  0.128776178430E-02 -0.609691716817E-03  0.917046092434E-03  0.183403615629E-02  0.461713582734E-03  0.101750352247E-02
  0.121229287308E-02  0.217945528088E-02  0.148789803328E-02  0.443252611723E-03  0.112544144019E-02  0.111203973437E-02  0.419579603864E-03
  0.501322146816E-03  0.168657857533E-02  0.113913636865E-02  0.491880275044E-03
 -0.487357669409E-02 -0.126323826780E-01 -0.665721490313E-02 -0.197255432749E-01 -0.144221178948E-02 -0.243725442747E-01  0.325653425677E-03
  0.104281895868E-02 -0.242213095881E-01  0.663953023055E-03 -0.170479103236E-02  0.274455749380E-02 -0.142040896164E-02  0.153552563465E-02
  0.372785053307E-02  0.375553465448E-02 -0.101638817190E-02 -0.161248608027E-01  0.191184887266E-02  0.141100284291E-01  0.490174913129E-02
  0.321433461797E-02 -0.897380637957E-03  0.158968336997E-02  0.146361600699E-01 -0.101408540350E-01  0.246930587908E-02  0.161792888674E-01
  0.142460700088E-01  0.131302145503E-02  0.277003411576E-02  0.133539890099E-01
        12        19        11        11
        11         5        12        12
        10        14         5         5
        19        13        11        11
        19        24        13        13
        30        23        24        24
        19        12        22        22
        28        22        21        21
        11        13         6         6
         7         6         9         9
        15        12        14        14
        18        13        23        23
        15        25        21        21
        27        19        22        22
        18         8         9         9
        27        31        24        24
         4        11         6         6
         5        14        12        12
         4         2         5         5
        21        12        15        15
        14        16        15        15
        24        19        27        27
        22        29        27        27
        23        26        18        18
        17         8        18        18
         5        11         4         4
         6         3         4         4
        26        23        30        30
         5         2        10        10
        16        14        10        10
         3         6         7         7
        21        25        28        28
        29        22        28        28
         6        13         9         9
         2         4         1         1
        31        27        32        32
        25        15        20        20
        24        23        13        13
         8         7         9         9
        13        18         9         9
        31        30        24        24
        12        21        22        22
        29        32        27        27
         3         1         4         4
        26        17        18        18
        16        20        15        15
zone t="boundary 2 bc-2", solutiontime= 0.7000000E+02, strandid=1002, i=33, j=48, f=feblock
  0.500195253374E+01  0.375034811161E+01  0.249861146299E+01  0.288036674177E+01  0.124717526933E+01  0.190856698521E+01  0.326577190273E+01
  0.201394856120E+01 -0.338395986572E-02  0.962374249381E+00  0.500000000000E+01  0.403430190008E+01  0.423029563807E+01  0.500000000000E+01
  0.385439188940E+01  0.500000000000E+01  0.398133433176E+01  0.315200081417E+01  0.266958028869E+01  0.154798029824E+01  0.218327860466E+01
  0.893688440338E+00  0.000000000000E+00  0.699009761768E+00  0.964460899052E+00  0.310303671659E+01  0.000000000000E+00  0.000000000000E+00
  0.125000000000E+01  0.500000000000E+01  0.375000000000E+01  0.250000000000E+01  0.000000000000E+00
 -0.249658903664E+01 -0.249658903664E+01 -0.249658903664E+01 -0.249658903664E+01 -0.249658903664E+01 -0.249658903664E+01 -0.249658903664E+01
 -0.249658903664E+01 -0.249658903664E+01 -0.249658903664E+01 -0.249658903664E+01 -0.249658903664E+01 -0.249658903664E+01 -0.249658903664E+01
 -0.249658903664E+01 -0.249658903664E+01 -0.249658903664E+01 -0.249658903664E+01 -0.249658903664E+01 -0.249658903664E+01 -0.249658903664E+01
 -0.249658903664E+01 -0.249658903664E+01 -0.249658903664E+01 -0.249658903664E+01 -0.249658903664E+01 -0.249658903664E+01 -0.249658903664E+01
 -0.249658903664E+01 -0.249658903664E+01 -0.249658903664E+01 -0.249658903664E+01 -0.249658903664E+01
  0.108225889030E-03  0.145875369682E-03  0.100893326425E-03  0.901663374396E+00  0.110858761917E-03  0.714928318829E+00  0.188140648011E+01
  0.175892165504E+01  0.810725962649E-04  0.957504300331E+00  0.125000000000E+01  0.100596698996E+01  0.191313519089E+01  0.250000000000E+01
  0.292898096716E+01  0.375000000000E+01  0.406883369524E+01  0.363389289944E+01  0.284756860985E+01  0.292582308120E+01  0.395754054931E+01
  0.205027256979E+01  0.125000000000E+01  0.306703272692E+01  0.397155766662E+01  0.433068622168E+01  0.250000000000E+01  0.375000000000E+01
  0.500000000000E+01  0.500000000000E+01  0.500000000000E+01  0.500000000000E+01  0.500000000000E+01
  0.000000000000E+00  0.000000000000E+00  0.000000000000E+00  0.380534933893E+00  0.000000000000E+00  0.343213081171E+00  0.585244496925E+00
  0.579499344205E+00  0.000000000000E+00  0.500959578913E+00  0.508769460148E+00  0.434312419771E+00  0.572817919451E+00  0.537160208080E+00
  0.569105645782E+00  0.515014970171E+00  0.508256765061E+00  0.527354036988E+00  0.567656182489E+00  0.531857069084E+00  0.506013391179E+00
  0.521044573739E+00  0.443891909404E+00  0.490703078146E+00  0.492147926412E+00  0.501388000320E+00  0.467740399690E+00  0.488187228171E+00
  0.489959820989E+00  0.491323935798E+00  0.486019442841E+00  0.489980976742E+00  0.495089980244E+00
  0.999993488485E+00  0.999993690942E+00  0.999993544242E+00  0.989596674085E+00  0.999993139053E+00  0.985604091028E+00  0.989839488847E+00
  0.991730617690E+00  0.999992724186E+00  0.984220387528E+00  0.985139981863E+00  0.984817712566E+00  0.990066477090E+00  0.100292374828E+01
  0.999857731400E+00  0.100487268684E+01  0.100122724769E+01  0.100056983810E+01  0.997888256964E+00  0.100350942201E+01  0.100059365414E+01
  0.101090707434E+01  0.104025009063E+01  0.100327959733E+01  0.100254952730E+01  0.100046804572E+01  0.100976460100E+01  0.100405634212E+01
  0.100192626091E+01  0.100045827286E+01  0.100058947226E+01  0.100110091494E+01  0.100176433139E+01
 -0.252333581984E-02 -0.197864120954E-02 -0.121497315359E-02  0.238853220629E-01  0.241590939221E-02  0.783268162210E-01 -0.513312462634E-02
  0.944453609304E-03  0.308617718477E-02  0.364108359260E-01 -0.659581550041E-02 -0.762597851989E-02 -0.517722065364E-02 -0.442581890927E-02
 -0.325449916643E-02 -0.297029835206E-02 -0.218698746040E-02 -0.253112062271E-02 -0.418854213900E-02 -0.501218266394E-02 -0.329382191943E-02
  0.131127843075E-02  0.248749976993E-01 -0.338766039088E-02 -0.609030472378E-02 -0.396544913607E-02 -0.361050613574E-02 -0.697182727628E-02
 -0.289404528715E-01 -0.345715286030E-02 -0.132328523947E-01 -0.254274544031E-01 -0.321740895323E-01
  0.688028144330E-03 -0.192355324031E-03  0.185875031969E-04  0.410471407205E-02 -0.447498148313E-03  0.973216295909E-02 -0.192655290599E-04
 -0.387640986637E-03  0.284324329485E-03  0.429768775884E-02  0.149337656842E-02  0.513132052212E-04  0.758734341230E-03  0.113154818419E-02
  0.753319967872E-03  0.696469731353E-03  0.834278446875E-03  0.695249673478E-03  0.256066182832E-03 -0.423706048101E-03  0.298550462097E-03
 -0.360595938415E-03  0.306389473529E-02 -0.229990120652E-03 -0.701350902140E-03  0.411857542158E-03 -0.904834800029E-03 -0.148505704495E-02
 -0.520611397071E-02  0.174304451500E-03 -0.132948316875E-02 -0.395289881655E-02 -0.669252897016E-02
 -0.155434499804E-03  0.411055588182E-04  0.241689304264E-03  0.557939772130E-03  0.128343735392E-03  0.973155202919E-03 -0.760837363870E-04
  0.866365868786E-05 -0.245065370328E-03  0.373114313910E-03 -0.884431448836E-04 -0.284831623911E-03  0.530018027110E-05  0.835705583293E-05
  0.687474779752E-05 -0.133553807386E-04  0.162100278283E-05 -0.712191545396E-05  0.115761491117E-04  0.276301459443E-04 -0.169170549524E-04
  0.289621880160E-04 -0.102528486726E-03  0.546298002279E-05 -0.265872446725E-05 -0.591930976450E-05 -0.219885834951E-04 -0.801488713210E-05
 -0.261259375176E-05 -0.238085021906E-05  0.519196353099E-06  0.173591054207E-05  0.655033508888E-05
 -0.198503887291E-03 -0.204912241337E-03 -0.309699069841E-03  0.103434608864E-02 -0.716700905392E-03  0.224471582392E-03  0.156040937642E-02
  0.208733854609E-02 -0.609691716817E-03  0.980936034175E-03  0.298714259748E-03  0.109204342723E-02  0.626926073463E-03  0.283385432692E-03
  0.647064217618E-03  0.236880308957E-03  0.629197928297E-03  0.888685171340E-03  0.105436240178E-02  0.109586384988E-02  0.102609203608E-02
  0.165912948662E-02  0.112544144019E-02  0.116603970005E-02  0.102767838102E-02  0.887067742870E-03  0.168657857533E-02  0.113913636865E-02
  0.691404704004E-03  0.368585263165E-03  0.801811153657E-03  0.869631360923E-03  0.491880275044E-03
  0.718487974875E-03  0.197867305438E-02  0.342998194046E-02 -0.108857990404E-01  0.409124705051E-02 -0.335482573641E-01  0.152395829128E-02
 -0.485250681970E-03 -0.101638817190E-02 -0.150872666220E-01  0.142562766408E-02  0.231553745589E-02  0.127174645105E-02  0.848611153751E-03
  0.635908748348E-03  0.600620158225E-03  0.300602605985E-03  0.460771417120E-03  0.114876266542E-02  0.170371526241E-02  0.880454695811E-03
 -0.598125306781E-03 -0.101408540350E-01  0.109204545854E-02  0.222198793199E-02  0.108191940213E-02  0.131302145503E-02  0.277003411576E-02
  0.117586375151E-01  0.104483185812E-02  0.496567217742E-02  0.101101669196E-01  0.133539890099E-01
        15         7        19        19
         8        20        19        19
        18        19        21        21
         7         4         8         8
         3         6         4         4
        19         7         8         8
        19        18        15        15
        14        13        15        15
         8        22        20        20
        27        24        22        22
        19        20        21        21
        32        26        21        21
        17        18        26        26
        17        16        15        15
        25        29        21        21
        12         7        13        13
        10         8         6         6
        25        20        24        24
         4         6         8         8
        12         2         4         4
        10        23        22        22
        26        31        17        17
        30        16        17        17
         4         7        12        12
        13        11        12        12
        21        20        25        25
        24        28        25        25
        22         8        10        10
         6         5        10        10
        31        26        32        32
         4         2         3         3
         5         6         3         3
        11        13        14        14
        22        23        27        27
        28        24        27        27
        15        13         7         7
         2        12         1         1
        29        25        33        33
        23        10         9         9
        21        26        18        18
        16        14        15        15
        18        17        15        15
        29        32        21        21
        22        24        20        20
        28        33        25        25
        11         1        12        12
        31        30        17        17
         5         9        10        10
zone t="boundary 3 bc-3", solutiontime= 0.7000000E+02, strandid=1003, i=33, j=48, f=feblock
  0.375059096892E+01  0.249769609313E+01  0.500322133174E+01  0.403612218725E+01  0.287976772365E+01  0.124541910518E+01  0.190552237404E+01
  0.500000000000E+01  0.326671104552E+01  0.423253755448E+01  0.201271136506E+01 -0.547468544169E-02  0.958895643487E+00  0.500000000000E+01
  0.266968147299E+01  0.385584487271E+01  0.890374214836E+00  0.154654013699E+01  0.000000000000E+00  0.500000000000E+01  0.315261136744E+01
  0.218304199515E+01  0.398195307895E+01  0.000000000000E+00  0.697379952124E+00  0.963757277315E+00  0.125000000000E+01  0.000000000000E+00
  0.500000000000E+01  0.310330738524E+01  0.250000000000E+01  0.375000000000E+01  0.000000000000E+00
  0.250494197117E+01  0.250494197117E+01  0.250494197117E+01  0.250494197117E+01  0.250494197117E+01  0.250494197117E+01  0.250494197117E+01
  0.250494197117E+01  0.250494197117E+01  0.250494197117E+01  0.250494197117E+01  0.250494197117E+01  0.250494197117E+01  0.250494197117E+01
  0.250494197117E+01  0.250494197117E+01  0.250494197117E+01  0.250494197117E+01  0.250494197117E+01  0.250494197117E+01  0.250494197117E+01
  0.250494197117E+01  0.250494197117E+01  0.250494197117E+01  0.250494197117E+01  0.250494197117E+01  0.250494197117E+01  0.250494197117E+01
  0.250494197117E+01  0.250494197117E+01  0.250494197117E+01  0.250494197117E+01  0.250494197117E+01
  0.135649900494E-03  0.110129816467E-03  0.966887303890E-04  0.101756752009E+01  0.908094589218E+00  0.103942505801E-03  0.722629083213E+00
  0.125000000000E+01  0.188965661746E+01  0.191862696980E+01  0.176708239098E+01  0.803813859867E-04  0.969652551954E+00  0.250000000000E+01
  0.285339433501E+01  0.293325058812E+01  0.205656223819E+01  0.293157016932E+01  0.125000000000E+01  0.375000000000E+01  0.363766838842E+01
  0.396069444983E+01  0.407056385475E+01  0.250000000000E+01  0.307031995245E+01  0.397359820314E+01  0.500000000000E+01  0.375000000000E+01
  0.500000000000E+01  0.433260781310E+01  0.500000000000E+01  0.500000000000E+01  0.500000000000E+01
  0.000000000000E+00  0.000000000000E+00  0.000000000000E+00  0.444961626928E+00  0.402838316190E+00  0.000000000000E+00  0.379029001549E+00
  0.508827846411E+00  0.575719767468E+00  0.573484231916E+00  0.562571091033E+00  0.000000000000E+00  0.491643474339E+00  0.534340493553E+00
  0.556353506125E+00  0.564141623675E+00  0.522489639030E+00  0.521815314100E+00  0.440672136512E+00  0.517132480923E+00  0.524064820256E+00
  0.503612613683E+00  0.509416634110E+00  0.469886789982E+00  0.495646532245E+00  0.494503101969E+00  0.488630053423E+00  0.489035017215E+00
  0.492985464012E+00  0.498953669977E+00  0.486505314975E+00  0.484610387305E+00  0.495364848064E+00
  0.999989345567E+00  0.999989414891E+00  0.999989632591E+00  0.981375695393E+00  0.988672653297E+00  0.999989832933E+00  0.982271891095E+00
  0.984075644303E+00  0.990406052732E+00  0.990320090376E+00  0.994390331428E+00  0.999990300362E+00  0.988743428079E+00  0.100365390733E+01
  0.999774597300E+00  0.100117529834E+01  0.100830077599E+01  0.100251293722E+01  0.102982970104E+01  0.100442054131E+01  0.100199281310E+01
  0.100081994749E+01  0.100137956774E+01  0.100825795511E+01  0.100297377722E+01  0.100191712118E+01  0.100214790177E+01  0.100354817652E+01
  0.100047567419E+01  0.100056574043E+01  0.100126719373E+01  0.100066769089E+01  0.100178625606E+01
 -0.170723226182E-02  0.132172718881E-02 -0.282328330144E-02  0.156134923599E-01  0.610942241006E-01  0.384271071898E-02  0.607930071175E-01
 -0.967055856988E-02 -0.492482236347E-02 -0.609311709907E-02  0.101011556128E-01  0.610153391233E-02  0.411685356477E-01 -0.462869997485E-02
 -0.535323149179E-02 -0.380366902154E-02  0.118000035412E-02 -0.517345909446E-02  0.306711858891E-01 -0.315228445149E-02 -0.230376906880E-02
 -0.315324425396E-02 -0.240376398404E-02 -0.165054467576E-02 -0.450985773224E-02 -0.833746592573E-02 -0.256271864641E-01 -0.931170594568E-02
 -0.298777275874E-02 -0.367491674345E-02 -0.239604560693E-01 -0.130002379268E-01 -0.339889517562E-01
 -0.395669708576E-03 -0.383871387602E-03  0.702898253231E-03  0.442172866219E-02  0.844000084926E-02 -0.799533682370E-03  0.752211230737E-02
  0.158579115016E-02 -0.848300950002E-04  0.835621439717E-03  0.183762975207E-03  0.239164126998E-03  0.310119289214E-02  0.121108714731E-02
 -0.765078296564E-04  0.632467911126E-03 -0.114702225643E-02 -0.543322731295E-03  0.444680434320E-02  0.772815532893E-03  0.668153230898E-03
  0.362375869781E-03  0.780437625712E-03 -0.782731198378E-03 -0.105761231694E-02 -0.104820505337E-02 -0.454572851099E-02 -0.204929424108E-02
  0.271660825542E-03  0.430125617343E-03 -0.371615664961E-02 -0.129195914238E-02 -0.697980054709E-02
 -0.747208603695E-04  0.397366286758E-04  0.956474595108E-04 -0.296423313939E-03 -0.858364612542E-03  0.335333096875E-03 -0.127418064048E-04
  0.190592527806E-05 -0.958258537253E-04  0.160414567885E-04 -0.808026331879E-04  0.405779426293E-03  0.465400146743E-03  0.352454160012E-04
 -0.404173777786E-05  0.485501095392E-05 -0.158969401794E-03 -0.597034398902E-04  0.128360291701E-03  0.197178088381E-04  0.966503050780E-05
  0.428271667505E-04  0.767059581992E-06 -0.133095079863E-04 -0.361642538726E-04  0.121931192110E-04  0.171305138942E-04 -0.287388521325E-05
  0.691969724834E-05 -0.250003556119E-06  0.391657798520E-05 -0.101187719252E-05  0.332337343265E-05
 -0.462461036190E-03 -0.866028511790E-03 -0.242265426054E-03  0.654616681020E-03  0.104388188374E-02 -0.834700818746E-03  0.330816756345E-03
  0.374310527530E-03  0.191563186640E-02  0.929862799614E-03  0.277658799238E-02 -0.147377686103E-02  0.912533620848E-03  0.371746193366E-03
  0.986788458143E-03  0.826393704885E-03  0.233938286919E-02  0.105032387770E-02 -0.134235190932E-02  0.329622539805E-03  0.949439621861E-03
  0.981561189228E-03  0.710110815165E-03  0.155250128859E-02  0.151224822297E-02  0.101246037270E-02  0.727932794763E-03  0.128776178430E-02
  0.350570162098E-03  0.922700428116E-03  0.882455270473E-03  0.804721756422E-03  0.461713582734E-03
  0.706435092337E-02  0.301233073787E-02  0.132758293472E-02 -0.812451724151E-02 -0.264527790210E-01  0.190748041805E-03 -0.255316862618E-01
  0.246327860902E-02  0.152875043516E-02  0.157352670755E-02 -0.394572846259E-02 -0.487357669409E-02 -0.162207494326E-01  0.871185327162E-03
  0.169072066877E-02  0.862167234528E-03 -0.353484561178E-03  0.179120939051E-02 -0.126323826780E-01  0.618641422632E-03  0.381158679140E-03
  0.812882254649E-03  0.391898081305E-03  0.663953023055E-03  0.165153278600E-02  0.313677989501E-02  0.103608075613E-01  0.375553465448E-02
  0.846696586783E-03  0.970907575753E-03  0.950772487584E-02  0.486678832517E-02  0.141100284291E-01
        15         9        16        16
        15        18        11        11
        22        15        21        21
        11         5         9         9
         5         7         2         2
        11         9        15        15
        16        21        15        15
        16        10        14        14
        18        17        11        11
        17        25        24        24
        22        18        15        15
        22        30        31        31
        30        21        23        23
        16        20        23        23
        22        27        26        26
        10         9         4         4
         7        11        13        13
        25        18        26        26
        11         7         5         5
         5         1         4         4
        17        19        13        13
        23        32        30        30
        23        20        29        29
         4         9         5         5
         4         8        10        10
        26        18        22        22
        26        28        25        25
        13        11        17        17
        13         6         7         7
        31        30        32        32
         2         1         5         5
         2         7         6         6
        14        10         8         8
        24        19        17        17
        24        25        28        28
         9        10        16        16
         3         4         1         1
        33        26        27        27
        12        13        19        19
        21        30        22        22
        16        14        20        20
        16        23        21        21
        22        31        27        27
        18        25        17        17
        26        33        28        28
         4         3         8         8
        23        29        32        32
        13        12         6         6
zone t="boundary 4 bc-4", solutiontime= 0.7000000E+02, strandid=1004, i=32, j=46, f=feblock
  0.125000000000E+01  0.219251206392E+01  0.103724302461E+01  0.500000000000E+01  0.250000000000E+01  0.375000000000E+01  0.404200324774E+01
  0.500000000000E+01  0.000000000000E+00  0.310152362409E+01  0.202479342020E+01  0.324151231464E+01  0.922061490191E+00  0.000000000000E+00
  0.299062775774E+01  0.394624082883E+01  0.500000000000E+01  0.409252726285E+01  0.500000000000E+01  0.429310310915E+01  0.175434191980E+01
  0.284428995242E+01  0.000000000000E+00  0.000000000000E+00  0.715990576545E+00  0.930412228790E+00  0.125000000000E+01  0.187029682677E+01
  0.500000000000E+01  0.375000000000E+01  0.250000000000E+01  0.000000000000E+00
  0.250494197117E+01  0.157686156160E+01  0.146289271009E+01  0.250494197117E+01  0.250494197117E+01  0.250494197117E+01  0.155830813274E+01
  0.125000000000E+01  0.250494197117E+01  0.177790177481E+01  0.477386199275E+00  0.742988685424E+00  0.308372018325E+00  0.125000000000E+01
 -0.487811078581E+00 -0.144524380962E+01 -0.125000000000E+01 -0.345533899378E+00  0.000000000000E+00  0.627766083140E+00 -0.739814786992E+00
 -0.158811787973E+01  0.000000000000E+00 -0.125000000000E+01 -0.600232012419E+00 -0.154800130438E+01 -0.249658903664E+01 -0.178862290564E+01
 -0.249658903664E+01 -0.249658903664E+01 -0.249658903664E+01 -0.249658903664E+01
  0.500000000000E+01  0.500000000000E+01  0.500000000000E+01  0.500000000000E+01  0.500000000000E+01  0.500000000000E+01  0.500000000000E+01
  0.500000000000E+01  0.500000000000E+01  0.500000000000E+01  0.500000000000E+01  0.500000000000E+01  0.500000000000E+01  0.500000000000E+01
  0.500000000000E+01  0.500000000000E+01  0.500000000000E+01  0.500000000000E+01  0.500000000000E+01  0.500000000000E+01  0.500000000000E+01
  0.500000000000E+01  0.500000000000E+01  0.500000000000E+01  0.500000000000E+01  0.500000000000E+01  0.500000000000E+01  0.500000000000E+01
  0.500000000000E+01  0.500000000000E+01  0.500000000000E+01  0.500000000000E+01
  0.488630053423E+00  0.488907200673E+00  0.490613524454E+00  0.492985464012E+00  0.486505314975E+00  0.484610387305E+00  0.485346346417E+00
  0.494164094826E+00  0.495364848064E+00  0.486544301825E+00  0.487826539497E+00  0.487053944491E+00  0.494057895498E+00  0.496127940578E+00
  0.487590739712E+00  0.483169495133E+00  0.492384717662E+00  0.487198320547E+00  0.494738341209E+00  0.487947262281E+00  0.489650836219E+00
  0.487975047811E+00  0.497248366859E+00  0.496055083747E+00  0.494947818077E+00  0.492777844524E+00  0.489959820989E+00  0.489963118744E+00
  0.491323935798E+00  0.486019442841E+00  0.489980976742E+00  0.495089980244E+00
  0.100214790177E+01  0.100152376261E+01  0.100177920363E+01  0.100047567419E+01  0.100126719373E+01  0.100066769089E+01  0.100025509248E+01
  0.100050308878E+01  0.100178625606E+01  0.100112381228E+01  0.100132857256E+01  0.100072299640E+01  0.100164084009E+01  0.100168369530E+01
  0.100096380429E+01  0.100001109262E+01  0.100083219162E+01  0.100022379580E+01  0.100062130449E+01  0.100023379273E+01  0.100174737467E+01
  0.100099023681E+01  0.100118721261E+01  0.100134451878E+01  0.100132726122E+01  0.100179980273E+01  0.100192626091E+01  0.100163810987E+01
  0.100045827286E+01  0.100058947226E+01  0.100110091494E+01  0.100176433139E+01
 -0.256271864641E-01 -0.248616925641E-01 -0.255332046058E-01 -0.298777275874E-02 -0.239604560693E-01 -0.130002379268E-01 -0.903692845338E-02
 -0.297370239851E-02 -0.339889517562E-01 -0.199259287579E-01 -0.267230632023E-01 -0.187274047073E-01 -0.311279694514E-01 -0.351928732276E-01
 -0.211067175597E-01 -0.870267549673E-02 -0.336880998452E-02 -0.110817876302E-01 -0.276193312714E-02 -0.110701830601E-01 -0.328886912141E-01
 -0.198636619907E-01 -0.387897398691E-01 -0.342339422462E-01 -0.360620980942E-01 -0.289202101122E-01 -0.289404528715E-01 -0.306042943325E-01
 -0.345715286030E-02 -0.132328523947E-01 -0.254274544031E-01 -0.321740895323E-01