title="tecplot geometry and solution file"
variables = x y z mach temperature lambda1 lambda2 lambda3 lambda4 lambda5
zone t="boundary 1 bc-1", solutiontime= 0.1000000E+02, strandid=1001, i=32, j=46, f=feblock
 -0.547468544169E-02  0.000000000000E+00 -0.567606031243E-02  0.000000000000E+00  0.000000000000E+00  0.000000000000E+00 -0.525159244851E-02
 -0.425776897977E-02  0.000000000000E+00  0.000000000000E+00  0.000000000000E+00  0.000000000000E+00  0.000000000000E+00  0.000000000000E+00
  0.000000000000E+00  0.000000000000E+00 -0.338395986572E-02  0.000000000000E+00  0.000000000000E+00  0.000000000000E+00  0.000000000000E+00
  0.000000000000E+00  0.000000000000E+00  0.000000000000E+00  0.000000000000E+00  0.000000000000E+00  0.000000000000E+00  0.000000000000E+00
  0.000000000000E+00  0.000000000000E+00  0.000000000000E+00  0.000000000000E+00
  0.250494197117E+01  0.250494197117E+01  0.127822156907E+01  0.146289271009E+01  0.157686156160E+01  0.308372018325E+00  0.261948602442E-01
 -0.122573481164E+01 -0.600232012419E+00  0.250494197117E+01  0.477386199275E+00  0.742988685424E+00 -0.739814786992E+00  0.177790177481E+01
  0.155830813274E+01  0.250494197117E+01 -0.249658903664E+01 -0.154800130438E+01 -0.487811078581E+00  0.250494197117E+01  0.627766083140E+00
 -0.345533899378E+00 -0.178862290564E+01 -0.158811787973E+01  0.125000000000E+01 -0.249658903664E+01 -0.144524380962E+01  0.000000000000E+00
 -0.125000000000E+01 -0.249658903664E+01 -0.249658903664E+01 -0.249658903664E+01
  0.803813859867E-04  0.125000000000E+01  0.822460170215E-04  0.103724302461E+01  0.219251206392E+01  0.922061490191E+00  0.103872438719E-03
  0.341545874230E-04  0.715990576545E+00  0.250000000000E+01  0.202479342020E+01  0.324151231464E+01  0.175434191980E+01  0.310152362409E+01
  0.404200324774E+01  0.375000000000E+01  0.810725962649E-04  0.930412228790E+00  0.299062775774E+01  0.500000000000E+01  0.429310310915E+01
  0.409252726285E+01  0.187029682677E+01  0.284428995242E+01  0.500000000000E+01  0.125000000000E+01  0.394624082883E+01  0.500000000000E+01
  0.500000000000E+01  0.250000000000E+01  0.375000000000E+01  0.500000000000E+01
  0.000000000000E+00  0.440672136512E+00  0.000000000000E+00  0.474618025820E+00  0.460125068601E+00  0.468639320143E+00  0.000000000000E+00
  0.000000000000E+00  0.402534623939E+00  0.469886789982E+00  0.464193107367E+00  0.478749739491E+00  0.489555756507E+00  0.483130037990E+00
  0.488002902366E+00  0.489035017215E+00  0.000000000000E+00  0.465237698331E+00  0.473759127176E+00  0.495364848064E+00  0.490293257191E+00
  0.486276632093E+00  0.445850265191E+00  0.464356446519E+00  0.496127940578E+00  0.443891909404E+00  0.486928147025E+00  0.497248366859E+00
  0.496055083747E+00  0.467740399690E+00  0.488187228171E+00  0.495089980244E+00
  0.999990300362E+00  0.102982970104E+01  0.999990762612E+00  0.104241436388E+01  0.101187663318E+01  0.102516400612E+01  0.999991420552E+00
  0.999992171067E+00  0.103882325429E+01  0.100825795511E+01  0.101253536096E+01  0.100301645575E+01  0.102705594255E+01  0.100604114309E+01
  0.100244532432E+01  0.100354817652E+01  0.999992724186E+00  0.103209991946E+01  0.100459425771E+01  0.100178625606E+01  0.100260326526E+01
  0.100234745937E+01  0.101657167924E+01  0.100620610961E+01  0.100168369530E+01  0.104025009063E+01  0.100303477791E+01  0.100118721261E+01
  0.100134451878E+01  0.100976460100E+01  0.100405634212E+01  0.100176433139E+01
  0.361343350205E-02  0.257029218136E-01 -0.557061345127E-03 -0.315963109789E-02  0.611588130210E-01 -0.165332374649E-01 -0.121300935151E-01
 -0.526636966578E-02 -0.245790425502E-01  0.510484716754E-01  0.885982236142E-01 -0.563692093135E-02  0.104511740871E+00 -0.139819901894E-01
 -0.546655538288E-01 -0.573200907992E-01 -0.641071492388E-02 -0.254044266171E-01  0.107456461282E-01  0.213867809835E-01 -0.481515398805E-01
 -0.539213145761E-01  0.675635797908E-01  0.101462042682E-01  0.141718728103E-01 -0.245621636543E-01 -0.605450430096E-01  0.146536258171E-01
  0.402199007249E-02  0.364239229598E-01 -0.553256272515E-01  0.745965393877E-02
  0.783334670368E-03  0.285308262126E-02  0.145255514385E-02 -0.306314062893E-02  0.935866046455E-02 -0.483276162716E-02  0.909202147174E-04
  0.616422404905E-03 -0.451600824151E-02  0.853860297610E-02  0.134431648376E-01 -0.171124039161E-02  0.173623075494E-01 -0.300372593662E-02
 -0.922836950698E-02 -0.977434513758E-02  0.487692770948E-03 -0.535675814766E-02  0.133017925425E-02  0.756169783729E-02 -0.820051616625E-02
 -0.100205996479E-01  0.109828889893E-01  0.114818851444E-02  0.506451223695E-02 -0.577078118526E-02 -0.107682980441E-01  0.466827917319E-02
  0.390587898304E-02  0.558564241390E-02 -0.103729675798E-01  0.532993849854E-02
  0.225922002165E-03 -0.835403187797E-04  0.160338589107E-02  0.157478378686E-02  0.625887677001E-03  0.300259148078E-02  0.278393274230E-03
 -0.599829255448E-03 -0.105863964776E-02  0.266750988850E-04  0.729273018582E-03  0.285120313538E-03 -0.140058174229E-02  0.109681960206E-02
  0.447541194727E-03  0.116581774939E-04  0.396263226558E-03 -0.168284757585E-02 -0.714759306553E-03  0.202714940422E-04 -0.944887910994E-04
 -0.293529241425E-03 -0.123247537567E-02 -0.164816340425E-03 -0.763546266886E-03 -0.125491368644E-03 -0.222899880173E-03  0.395111556106E-06
  0.403796592468E-03 -0.529457553564E-04 -0.152778813791E-03 -0.830025991366E-05
  0.125269683319E-03 -0.143272017439E-03  0.839797429336E-03  0.248809859838E-02  0.231039834504E-02 -0.149133674132E-02  0.186115684477E-02
  0.955596507697E-03 -0.396353887100E-02  0.861467272496E-03  0.158752351987E-02  0.418747136563E-02  0.189941537892E-02  0.304718355802E-02
  0.206479086775E-02  0.231053745858E-02  0.121279734752E-02 -0.227177104831E-02  0.273896749307E-02  0.132247435629E-02  0.147051814091E-02
  0.171118150624E-02  0.162917814080E-02  0.417414096764E-02  0.669696159918E-03  0.170693655942E-02  0.218447115978E-02  0.812616901558E-03
  0.878620516108E-03  0.309529412944E-02  0.326487806774E-02  0.885137246867E-03
 -0.294898497219E-02 -0.105531666849E-01 -0.744516327374E-04  0.182014063814E-02 -0.252802938507E-01  0.600244559784E-02  0.752810287055E-02
  0.284231993424E-02  0.860134048109E-02 -0.213016904142E-01 -0.366693193230E-01  0.207941338994E-02 -0.432323685345E-01  0.562752520936E-02
  0.222472111247E-01  0.232897548190E-01  0.278509637925E-02  0.975345049245E-02 -0.479482463583E-02 -0.975663661683E-02  0.196813366737E-01
  0.221474179771E-01 -0.280367295641E-01 -0.465201371345E-02 -0.640196167363E-02  0.992256160128E-02  0.247718562768E-01 -0.666359088694E-02
 -0.240308654674E-02 -0.154506557671E-01  0.227672467815E-01 -0.397935099329E-02
        12        19        11        11
        11         5        12        12
        10        14         5         5
        19        13        11        11
        19        24        13        13
        30        23        24        24
        19        12        22        22
        28        22        21        21
        11        13         6         6
         7         6         9         9
        15        12        14        14
        18        13        23        23
        15        25        21        21
        27        19        22        22
        18         8         9         9
        27        31        24        24
         4        11         6         6
         5        14        12        12
         4         2         5         5
        21        12        15        15
        14        16        15        15
        24        19        27        27
        22        29        27        27
        23        26        18        18
        17         8        18        18
         5        11         4         4
         6         3         4         4
        26        23        30        30
         5         2        10        10
        16        14        10        10
         3         6         7         7
        21        25        28        28
        29        22        28        28
         6        13         9         9
         2         4         1         1
        31        27        32        32
        25        15        20        20
        24        23        13        13
         8         7         9         9
        13        18         9         9
        31        30        24        24
        12        21        22        22
        29        32        27        27
         3         1         4         4
        26        17        18        18
        16        20        15        15
zone t="boundary 2 bc-2", solutiontime= 0.1000000E+02, strandid=1002, i=33, j=48, f=feblock
  0.500195253374E+01  0.375034811161E+01  0.249861146299E+01  0.288036674177E+01  0.124717526933E+01  0.190856698521E+01  0.326577190273E+01
  0.201394856120E+01 -0.338395986572E-02  0.962374249381E+00  0.500000000000E+01  0.403430190008E+01  0.423029563807E+01  0.500000000000E+01
  0.385439188940E+01  0.500000000000E+01  0.398133433176E+01  0.315200081417E+01  0.266958028869E+01  0.154798029824E+01  0.218327860466E+01
  0.893688440338E+00  0.000000000000E+00  0.699009761768E+00  0.964460899052E+00  0.310303671659E+01  0.000000000000E+00  0.000000000000E+00
  0.125000000000E+01  0.500000000000E+01  0.375000000000E+01  0.250000000000E+01  0.000000000000E+00
 -0.249658903664E+01 -0.249658903664E+01 -0.249658903664E+01 -0.249658903664E+01 -0.249658903664E+01 -0.249658903664E+01 -0.249658903664E+01
 -0.249658903664E+01 -0.249658903664E+01 -0.249658903664E+01 -0.249658903664E+01 -0.249658903664E+01 -0.249658903664E+01 -0.249658903664E+01
 -0.249658903664E+01 -0.249658903664E+01 -0.249658903664E+01 -0.249658903664E+01 -0.249658903664E+01 -0.249658903664E+01 -0.249658903664E+01
 -0.249658903664E+01 -0.249658903664E+01 -0.249658903664E+01 -0.249658903664E+01 -0.249658903664E+01 -0.249658903664E+01 -0.249658903664E+01
 -0.249658903664E+01 -0.249658903664E+01 -0.249658903664E+01 -0.249658903664E+01 -0.249658903664E+01
  0.108225889030E-03  0.145875369682E-03  0.100893326425E-03  0.901663374396E+00  0.110858761917E-03  0.714928318829E+00  0.188140648011E+01
  0.175892165504E+01  0.810725962649E-04  0.957504300331E+00  0.125000000000E+01  0.100596698996E+01  0.191313519089E+01  0.250000000000E+01
  0.292898096716E+01  0.375000000000E+01  0.406883369524E+01  0.363389289944E+01  0.284756860985E+01  0.292582308120E+01  0.395754054931E+01
  0.205027256979E+01  0.125000000000E+01  0.306703272692E+01  0.397155766662E+01  0.433068622168E+01  0.250000000000E+01  0.375000000000E+01
  0.500000000000E+01  0.500000000000E+01  0.500000000000E+01  0.500000000000E+01  0.500000000000E+01
  0.000000000000E+00  0.000000000000E+00  0.000000000000E+00  0.380534933893E+00  0.000000000000E+00  0.343213081171E+00  0.585244496925E+00
  0.579499344205E+00  0.000000000000E+00  0.500959578913E+00  0.508769460148E+00  0.434312419771E+00  0.572817919451E+00  0.537160208080E+00
  0.569105645782E+00  0.515014970171E+00  0.508256765061E+00  0.527354036988E+00  0.567656182489E+00  0.531857069084E+00  0.506013391179E+00
  0.521044573739E+00  0.443891909404E+00  0.490703078146E+00  0.492147926412E+00  0.501388000320E+00  0.467740399690E+00  0.488187228171E+00
  0.489959820989E+00  0.491323935798E+00  0.486019442841E+00  0.489980976742E+00  0.495089980244E+00
  0.999993488485E+00  0.999993690942E+00  0.999993544242E+00  0.989596674085E+00  0.999993139053E+00  0.985604091028E+00  0.989839488847E+00
  0.991730617690E+00  0.999992724186E+00  0.984220387528E+00  0.985139981863E+00  0.984817712566E+00  0.990066477090E+00  0.100292374828E+01
  0.999857731400E+00  0.100487268684E+01  0.100122724769E+01  0.100056983810E+01  0.997888256964E+00  0.100350942201E+01  0.100059365414E+01
  0.101090707434E+01  0.104025009063E+01  0.100327959733E+01  0.100254952730E+01  0.100046804572E+01  0.100976460100E+01  0.100405634212E+01
  0.100192626091E+01  0.100045827286E+01  0.100058947226E+01  0.100110091494E+01  0.100176433139E+01
 -0.918637572422E-03 -0.114515984253E-02  0.145707803805E-02  0.157239773279E-01 -0.211325142730E-02 -0.887010187301E-01  0.105783811095E-02
  0.327566407939E-01 -0.641071492388E-02 -0.600072422259E-02 -0.617858893357E-02  0.344531554873E-01 -0.880402838115E-02  0.649665156897E-03
 -0.335048689633E-02 -0.575257555693E-03 -0.319900546510E-02 -0.615523143893E-02 -0.951012335615E-02  0.142208136922E-03 -0.230599680052E-01
  0.298894323623E-01 -0.245621636543E-01 -0.162399725494E-01 -0.403935133999E-01 -0.962707489486E-02  0.364239229598E-01 -0.553256272515E-01
  0.166661968447E-01 -0.713675175188E-02 -0.588638518724E-02  0.692296135402E-02  0.745965393877E-02
  0.480778069127E-03  0.392512944241E-03  0.382200744958E-03  0.106789828563E-02  0.146577388404E-02 -0.122237144676E-01  0.102802073430E-02
  0.673168492733E-02  0.487692770948E-03 -0.148863698478E-02 -0.289063574919E-03  0.715631446195E-02 -0.124744353906E-02  0.100927645809E-02
  0.588835344481E-03  0.674161046001E-03  0.152503426659E-03  0.493785516635E-03  0.581785146790E-03  0.164085093974E-02 -0.265897907426E-02
  0.556828565898E-02 -0.577078118526E-02 -0.314929505494E-02 -0.595030604482E-02 -0.888383826933E-03  0.558564241390E-02 -0.103729675798E-01
  0.823968428777E-02 -0.518687379448E-03  0.467603112452E-03  0.476616251623E-02  0.532993849854E-02
 -0.246594152582E-03 -0.158572927489E-03 -0.130118103865E-03  0.584699674591E-03  0.255625518260E-03  0.345768159377E-04  0.816150897096E-04
  0.296931004269E-03  0.396263226558E-03  0.964054903524E-04 -0.750715389234E-04  0.284709354608E-03 -0.791102311152E-04 -0.113043002770E-04
  0.268163241547E-05 -0.177936019706E-04 -0.697243175623E-04  0.763890953025E-04  0.127531616631E-03  0.843367823340E-04 -0.137726995616E-04
  0.156061657711E-03 -0.125491368644E-03 -0.116108947193E-03 -0.771872752507E-04  0.268394737517E-04 -0.529457553564E-04 -0.152778813791E-03
  0.744854967297E-04 -0.303877867210E-04 -0.333722572924E-05  0.427876489450E-05 -0.830025991366E-05
 -0.780533816573E-05 -0.209320315767E-03 -0.525990582817E-03 -0.157038508339E-02  0.374144710243E-03 -0.248940892903E-02 -0.237190685918E-03
  0.981778343656E-03  0.121279734752E-02  0.604834551174E-04  0.462276158496E-03 -0.891872347717E-03  0.870509497801E-05  0.885343875793E-04
 -0.220276208393E-03  0.303923046278E-03  0.277996170494E-03 -0.103696200591E-04 -0.456568732574E-03  0.132047701119E-02 -0.501652588967E-03
  0.348153739568E-02  0.170693655942E-02  0.329805489993E-02  0.103688991520E-02 -0.288172299081E-03  0.309529412944E-02  0.326487806774E-02
  0.706611508166E-04  0.581176723268E-03  0.665439968657E-03  0.704920350900E-03  0.885137246867E-03
 -0.194648771092E-03  0.130890109470E-02  0.132334074992E-02 -0.691767408914E-02  0.451986297161E-02  0.362925140564E-01 -0.908135722150E-03
 -0.145574832247E-01  0.278509637925E-02  0.197127817814E-02  0.213623430584E-02 -0.153332731288E-01  0.334863824041E-02 -0.810113732249E-03
  0.774198170185E-03 -0.170275885012E-03  0.950940363087E-03  0.188987799177E-02  0.298237450699E-02 -0.962011761161E-03  0.904813118693E-02
 -0.131071069585E-01  0.992256160128E-02  0.643076648519E-02  0.163505057197E-01  0.365993160348E-02 -0.154506557671E-01  0.227672467815E-01
 -0.826889065378E-02  0.257391237025E-02  0.175343309481E-02 -0.416153556812E-02 -0.397935099329E-02
        15         7        19        19
         8        20        19        19
        18        19        21        21
         7         4         8         8
         3         6         4         4
        19         7         8         8
        19        18        15        15
        14        13        15        15
         8        22        20        20
        27        24        22        22
        19        20        21        21
        32        26        21        21
        17        18        26        26
        17        16        15        15
        25        29        21        21
        12         7        13        13
        10         8         6         6
        25        20        24        24
         4         6         8         8
        12         2         4         4
        10        23        22        22
        26        31        17        17
        30        16        17        17
         4         7        12        12
        13        11        12        12
        21        20        25        25
        24        28        25        25
        22         8        10        10
         6         5        10        10
        31        26        32        32
         4         2         3         3
         5         6         3         3
        11        13        14        14
        22        23        27        27
        28        24        27        27
        15        13         7         7
         2        12         1         1
        29        25        33        33
        23        10         9         9
        21        26        18        18
        16        14        15        15
        18        17        15        15
        29        32        21        21
        22        24        20        20
        28        33        25        25
        11         1        12        12
        31        30        17        17
         5         9        10        10
zone t="boundary 3 bc-3", solutiontime= 0.1000000E+02, strandid=1003, i=33, j=48, f=feblock
  0.375059096892E+01  0.249769609313E+01  0.500322133174E+01  0.403612218725E+01  0.287976772365E+01  0.124541910518E+01  0.190552237404E+01
  0.500000000000E+01  0.326671104552E+01  0.423253755448E+01  0.201271136506E+01 -0.547468544169E-02  0.958895643487E+00  0.500000000000E+01
  0.266968147299E+01  0.385584487271E+01  0.890374214836E+00  0.154654013699E+01  0.000000000000E+00  0.500000000000E+01  0.315261136744E+01
  0.218304199515E+01  0.398195307895E+01  0.000000000000E+00  0.697379952124E+00  0.963757277315E+00  0.125000000000E+01  0.000000000000E+00
  0.500000000000E+01  0.310330738524E+01  0.250000000000E+01  0.375000000000E+01  0.000000000000E+00
  0.250494197117E+01  0.250494197117E+01  0.250494197117E+01  0.250494197117E+01  0.250494197117E+01  0.250494197117E+01  0.250494197117E+01
  0.250494197117E+01  0.250494197117E+01  0.250494197117E+01  0.250494197117E+01  0.250494197117E+01  0.250494197117E+01  0.250494197117E+01
  0.250494197117E+01  0.250494197117E+01  0.250494197117E+01  0.250494197117E+01  0.250494197117E+01  0.250494197117E+01  0.250494197117E+01
  0.250494197117E+01  0.250494197117E+01  0.250494197117E+01  0.250494197117E+01  0.250494197117E+01  0.250494197117E+01  0.250494197117E+01
  0.250494197117E+01  0.250494197117E+01  0.250494197117E+01  0.250494197117E+01  0.250494197117E+01
  0.135649900494E-03  0.110129816467E-03  0.966887303890E-04  0.101756752009E+01  0.908094589218E+00  0.103942505801E-03  0.722629083213E+00
  0.125000000000E+01  0.188965661746E+01  0.191862696980E+01  0.176708239098E+01  0.803813859867E-04  0.969652551954E+00  0.250000000000E+01
  0.285339433501E+01  0.293325058812E+01  0.205656223819E+01  0.293157016932E+01  0.125000000000E+01  0.375000000000E+01  0.363766838842E+01
  0.396069444983E+01  0.407056385475E+01  0.250000000000E+01  0.307031995245E+01  0.397359820314E+01  0.500000000000E+01  0.375000000000E+01
  0.500000000000E+01  0.433260781310E+01  0.500000000000E+01  0.500000000000E+01  0.500000000000E+01
  0.000000000000E+00  0.000000000000E+00  0.000000000000E+00  0.444961626928E+00  0.402838316190E+00  0.000000000000E+00  0.379029001549E+00
  0.508827846411E+00  0.575719767468E+00  0.573484231916E+00  0.562571091033E+00  0.000000000000E+00  0.491643474339E+00  0.534340493553E+00
  0.556353506125E+00  0.564141623675E+00  0.522489639030E+00  0.521815314100E+00  0.440672136512E+00  0.517132480923E+00  0.524064820256E+00
  0.503612613683E+00  0.509416634110E+00  0.469886789982E+00  0.495646532245E+00  0.494503101969E+00  0.488630053423E+00  0.489035017215E+00
  0.492985464012E+00  0.498953669977E+00  0.486505314975E+00  0.484610387305E+00  0.495364848064E+00
  0.999989345567E+00  0.999989414891E+00  0.999989632591E+00  0.981375695393E+00  0.988672653297E+00  0.999989832933E+00  0.982271891095E+00
  0.984075644303E+00  0.990406052732E+00  0.990320090376E+00  0.994390331428E+00  0.999990300362E+00  0.988743428079E+00  0.100365390733E+01
  0.999774597300E+00  0.100117529834E+01  0.100830077599E+01  0.100251293722E+01  0.102982970104E+01  0.100442054131E+01  0.100199281310E+01
  0.100081994749E+01  0.100137956774E+01  0.100825795511E+01  0.100297377722E+01  0.100191712118E+01  0.100214790177E+01  0.100354817652E+01
  0.100047567419E+01  0.100056574043E+01  0.100126719373E+01  0.100066769089E+01  0.100178625606E+01
 -0.133300164949E-02 -0.287284897244E-02 -0.206740126849E-02  0.137462876184E-01 -0.364011149814E-01 -0.433045069344E-03 -0.135217835582E-01
 -0.767587917911E-02 -0.295446354946E-03 -0.602942017531E-02  0.318790922938E-02  0.361343350205E-02  0.332149181554E-01 -0.209256146778E-02
 -0.781399054608E-02 -0.143141326524E-02  0.503966361093E-01 -0.667046063909E-02  0.257029218136E-01 -0.186275045971E-02  0.162908619490E-02
 -0.177557948808E-01 -0.392347405680E-02  0.510484716754E-01 -0.177348409036E-01 -0.345539144969E-01  0.247822757813E-01 -0.573200907992E-01
 -0.787061749343E-02 -0.103487348252E-01  0.221891958468E-01 -0.142192491483E-01  0.213867809835E-01
  0.455242165491E-03  0.939714360316E-03  0.428036645530E-03  0.573810236517E-02 -0.279178477898E-02 -0.494284977765E-03 -0.751183842053E-03
  0.697288580870E-03  0.354076731443E-03 -0.312752040256E-04  0.243226131374E-02  0.783334670368E-03  0.370527289986E-02  0.840238930726E-03
 -0.279827405871E-03  0.122955069552E-02  0.116844160577E-01 -0.255626907687E-03  0.285308262126E-02  0.501318109339E-03  0.153899278643E-02
 -0.237132790059E-02  0.230868365400E-03  0.853860297610E-02 -0.220840376488E-02 -0.540957485826E-02  0.893035665111E-02 -0.977434513758E-02
 -0.563760099608E-03 -0.102978889337E-02  0.720381716766E-02 -0.887648897168E-03  0.756169783729E-02
 -0.330326101055E-04  0.612503041638E-04  0.255495531580E-05 -0.503243718945E-03 -0.516642675687E-03  0.354733970348E-03 -0.543923837305E-04
  0.289901564099E-04  0.529308043626E-04  0.732719350900E-04  0.101060201336E-03  0.225922002165E-03  0.679904485176E-04 -0.209062821261E-04
  0.367121653655E-04 -0.100504374821E-04 -0.412777980912E-03 -0.121599069287E-04 -0.835403187797E-04  0.237813760833E-04  0.970706904228E-04
  0.180664933736E-04  0.572862218115E-04  0.266750988850E-04 -0.868881301615E-04 -0.114871132409E-03  0.848528478479E-05  0.116581774939E-04
  0.995455027785E-05  0.817242369797E-04 -0.347089225130E-04  0.244158096809E-04  0.202714940422E-04
 -0.443155923650E-03 -0.698800693737E-04 -0.132743475317E-04 -0.223011128466E-02 -0.107307685569E-02  0.140375890281E-04  0.129277251496E-02
  0.908296856848E-03  0.155222489592E-03  0.505765099708E-03  0.979110499403E-03  0.125269683319E-03  0.564691558189E-03  0.296160387415E-03
 -0.936722865188E-04 -0.790425614316E-04  0.131412342009E-02  0.199180204474E-02 -0.143272017439E-03  0.284072245324E-03 -0.215658368206E-03
 -0.442494669608E-03  0.331116313835E-03  0.861467272496E-03  0.342848457735E-02  0.135810540765E-02 -0.111718223190E-03  0.231053745858E-02
  0.529532268057E-03 -0.370730943542E-03  0.473997956524E-03  0.702007539888E-03  0.132247435629E-02
  0.562415058213E-02  0.433795614557E-02  0.118419387815E-02 -0.763188571745E-02  0.140311184393E-01  0.134145585142E-02  0.498916966854E-02
  0.218275816929E-02 -0.273365408256E-03  0.185327932869E-02 -0.215015516075E-02 -0.294898497219E-02 -0.136573693095E-01  0.198994486422E-03
  0.263840776316E-02 -0.148930944855E-03 -0.220823092625E-01  0.206642473383E-02 -0.105531666849E-01  0.339203706518E-03 -0.126157224034E-02
  0.696743821443E-02  0.118409447514E-02 -0.213016904142E-01  0.691150462527E-02  0.140550268958E-01 -0.114249883110E-01  0.232897548190E-01
  0.287601962858E-02  0.393097813707E-02 -0.105393322912E-01  0.507819466717E-02 -0.975663661683E-02
        15         9        16        16
        15        18        11        11
        22        15        21        21
        11         5         9         9
         5         7         2         2
        11         9        15        15
        16        21        15        15
        16        10        14        14
        18        17        11        11
        17        25        24        24
        22        18        15        15
        22        30        31        31
        30        21        23        23
        16        20        23        23
        22        27        26        26
        10         9         4         4
         7        11        13        13
        25        18        26        26
        11         7         5         5
         5         1         4         4
        17        19        13        13
        23        32        30        30
        23        20        29        29
         4         9         5         5
         4         8        10        10
        26        18        22        22
        26        28        25        25
        13        11        17        17
        13         6         7         7
        31        30        32        32
         2         1         5         5
         2         7         6         6
        14        10         8         8
        24        19        17        17
        24        25        28        28
         9        10        16        16
         3         4         1         1
        33        26        27        27
        12        13        19        19
        21        30        22        22
        16        14        20        20
        16        23        21        21
        22        31        27        27
        18        25        17        17
        26        33        28        28
         4         3         8         8
        23        29        32        32
        13        12         6         6
zone t="boundary 4 bc-4", solutiontime= 0.1000000E+02, strandid=1004, i=32, j=46, f=feblock
  0.125000000000E+01  0.219251206392E+01  0.103724302461E+01  0.500000000000E+01  0.250000000000E+01  0.375000000000E+01  0.404200324774E+01
  0.500000000000E+01  0.000000000000E+00  0.310152362409E+01  0.202479342020E+01  0.324151231464E+01  0.922061490191E+00  0.000000000000E+00
  0.299062775774E+01  0.394624082883E+01  0.500000000000E+01  0.409252726285E+01  0.500000000000E+01  0.429310310915E+01  0.175434191980E+01
  0.284428995242E+01  0.000000000000E+00  0.000000000000E+00  0.715990576545E+00  0.930412228790E+00  0.125000000000E+01  0.187029682677E+01
  0.500000000000E+01  0.375000000000E+01  0.250000000000E+01  0.000000000000E+00
  0.250494197117E+01  0.157686156160E+01  0.146289271009E+01  0.250494197117E+01  0.250494197117E+01  0.250494197117E+01  0.155830813274E+01
  0.125000000000E+01  0.250494197117E+01  0.177790177481E+01  0.477386199275E+00  0.742988685424E+00  0.308372018325E+00  0.125000000000E+01
 -0.487811078581E+00 -0.144524380962E+01 -0.125000000000E+01 -0.345533899378E+00  0.000000000000E+00  0.627766083140E+00 -0.739814786992E+00
 -0.158811787973E+01  0.000000000000E+00 -0.125000000000E+01 -0.600232012419E+00 -0.154800130438E+01 -0.249658903664E+01 -0.178862290564E+01
 -0.249658903664E+01 -0.249658903664E+01 -0.249658903664E+01 -0.249658903664E+01
  0.500000000000E+01  0.500000000000E+01  0.500000000000E+01  0.500000000000E+01  0.500000000000E+01  0.500000000000E+01  0.500000000000E+01
  0.500000000000E+01  0.500000000000E+01  0.500000000000E+01  0.500000000000E+01  0.500000000000E+01  0.500000000000E+01  0.500000000000E+01
  0.500000000000E+01  0.500000000000E+01  0.500000000000E+01  0.500000000000E+01  0.500000000000E+01  0.500000000000E+01  0.500000000000E+01
  0.500000000000E+01  0.500000000000E+01  0.500000000000E+01  0.500000000000E+01  0.500000000000E+01  0.500000000000E+01  0.500000000000E+01
  0.500000000000E+01  0.500000000000E+01  0.500000000000E+01  0.500000000000E+01
  0.488630053423E+00  0.488907200673E+00  0.490613524454E+00  0.492985464012E+00  0.486505314975E+00  0.484610387305E+00  0.485346346417E+00
  0.494164094826E+00  0.495364848064E+00  0.486544301825E+00  0.487826539497E+00  0.487053944491E+00  0.494057895498E+00  0.496127940578E+00
  0.487590739712E+00  0.483169495133E+00  0.492384717662E+00  0.487198320547E+00  0.494738341209E+00  0.487947262281E+00  0.489650836219E+00
  0.487975047811E+00  0.497248366859E+00  0.496055083747E+00  0.494947818077E+00  0.492777844524E+00  0.489959820989E+00  0.489963118744E+00
  0.491323935798E+00  0.486019442841E+00  0.489980976742E+00  0.495089980244E+00
  0.100214790177E+01  0.100152376261E+01  0.100177920363E+01  0.100047567419E+01  0.100126719373E+01  0.100066769089E+01  0.100025509248E+01
  0.100050308878E+01  0.100178625606E+01  0.100112381228E+01  0.100132857256E+01  0.100072299640E+01  0.100164084009E+01  0.100168369530E+01
  0.100096380429E+01  0.100001109262E+01  0.100083219162E+01  0.100022379580E+01  0.100062130449E+01  0.100023379273E+01  0.100174737467E+01
  0.100099023681E+01  0.100118721261E+01  0.100134451878E+01  0.100132726122E+01  0.100179980273E+01  0.100192626091E+01  0.100163810987E+01
  0.100045827286E+01  0.100058947226E+01  0.100110091494E+01  0.100176433139E+01
  0.247822757813E-01  0.272424396934E-01  0.189622669874E-01 -0.787061749343E-02  0.221891958468E-01 -0.142192491483E-01 -0.140582128914E-01
 -0.479191813039E-02  0.213867809835E-01  0.120552678026E-01  0.292143581818E-01 -0.285634629814E-02  0.301567298655E-01  0.141718728103E-01
  0.568781469088E-02 -0.431179426178E-02 -0.433406037012E-02 -0.133442303098E-01 -0.483494574085E-02 -0.178165661767E-01  0.424075120633E-01
  0.135364136277E-01  0.146536258171E-01  0.402199007249E-02  0.189687679411E-01  0.122987289721E-01  0.166661968447E-01  0.250991294956E-01
 -0.713675175188E-02 -0.588638518724E-02  0.692296135402E-02  0.745965393877E-02