title="tecplot geometry and solution file"
variables = x y z mach temperature lambda1 lambda2 lambda3 lambda4 lambda5
zone t="boundary 1 bc-1", solutiontime= 0.3000000E+02, strandid=1001, i=32, j=46, f=feblock
 -0.547468544169E-02  0.000000000000E+00 -0.567606031243E-02  0.000000000000E+00  0.000000000000E+00  0.000000000000E+00 -0.525159244851E-02
 -0.425776897977E-02  0.000000000000E+00  0.000000000000E+00  0.000000000000E+00  0.000000000000E+00  0.000000000000E+00  0.000000000000E+00
  0.000000000000E+00  0.000000000000E+00 -0.338395986572E-02  0.000000000000E+00  0.000000000000E+00  0.000000000000E+00  0.000000000000E+00
  0.000000000000E+00  0.000000000000E+00  0.000000000000E+00  0.000000000000E+00  0.000000000000E+00  0.000000000000E+00  0.000000000000E+00
  0.000000000000E+00  0.000000000000E+00  0.000000000000E+00  0.000000000000E+00
  0.250494197117E+01  0.250494197117E+01  0.127822156907E+01  0.146289271009E+01  0.157686156160E+01  0.308372018325E+00  0.261948602442E-01
 -0.122573481164E+01 -0.600232012419E+00  0.250494197117E+01  0.477386199275E+00  0.742988685424E+00 -0.739814786992E+00  0.177790177481E+01
  0.155830813274E+01  0.250494197117E+01 -0.249658903664E+01 -0.154800130438E+01 -0.487811078581E+00  0.250494197117E+01  0.627766083140E+00
 -0.345533899378E+00 -0.178862290564E+01 -0.158811787973E+01  0.125000000000E+01 -0.249658903664E+01 -0.144524380962E+01  0.000000000000E+00
 -0.125000000000E+01 -0.249658903664E+01 -0.249658903664E+01 -0.249658903664E+01
  0.803813859867E-04  0.125000000000E+01  0.822460170215E-04  0.103724302461E+01  0.219251206392E+01  0.922061490191E+00  0.103872438719E-03
  0.341545874230E-04  0.715990576545E+00  0.250000000000E+01  0.202479342020E+01  0.324151231464E+01  0.175434191980E+01  0.310152362409E+01
  0.404200324774E+01  0.375000000000E+01  0.810725962649E-04  0.930412228790E+00  0.299062775774E+01  0.500000000000E+01  0.429310310915E+01
  0.409252726285E+01  0.187029682677E+01  0.284428995242E+01  0.500000000000E+01  0.125000000000E+01  0.394624082883E+01  0.500000000000E+01
  0.500000000000E+01  0.250000000000E+01  0.375000000000E+01  0.500000000000E+01
  0.000000000000E+00  0.440672136512E+00  0.000000000000E+00  0.474618025820E+00  0.460125068601E+00  0.468639320143E+00  0.000000000000E+00
  0.000000000000E+00  0.402534623939E+00  0.469886789982E+00  0.464193107367E+00  0.478749739491E+00  0.489555756507E+00  0.483130037990E+00
  0.488002902366E+00  0.489035017215E+00  0.000000000000E+00  0.465237698331E+00  0.473759127176E+00  0.495364848064E+00  0.490293257191E+00
  0.486276632093E+00  0.445850265191E+00  0.464356446519E+00  0.496127940578E+00  0.443891909404E+00  0.486928147025E+00  0.497248366859E+00
  0.496055083747E+00  0.467740399690E+00  0.488187228171E+00  0.495089980244E+00
  0.999990300362E+00  0.102982970104E+01  0.999990762612E+00  0.104241436388E+01  0.101187663318E+01  0.102516400612E+01  0.999991420552E+00
  0.999992171067E+00  0.103882325429E+01  0.100825795511E+01  0.101253536096E+01  0.100301645575E+01  0.102705594255E+01  0.100604114309E+01
  0.100244532432E+01  0.100354817652E+01  0.999992724186E+00  0.103209991946E+01  0.100459425771E+01  0.100178625606E+01  0.100260326526E+01
  0.100234745937E+01  0.101657167924E+01  0.100620610961E+01  0.100168369530E+01  0.104025009063E+01  0.100303477791E+01  0.100118721261E+01
  0.100134451878E+01  0.100976460100E+01  0.100405634212E+01  0.100176433139E+01
  0.610295154528E-02  0.305812897809E-01  0.699835139752E-02  0.492411641153E-01  0.346938643686E-02  0.587872482198E-01  0.512849331237E-02
  0.170445865581E-02  0.582730341641E-01 -0.160764024587E-02  0.387178837492E-02 -0.693854932001E-02  0.322634542339E-02 -0.384136809569E-02
 -0.943782314491E-02 -0.921182288761E-02  0.308637993348E-02  0.385061921506E-01 -0.510295577467E-02 -0.339643128778E-01 -0.122762572691E-01
 -0.807825332269E-02  0.189062163107E-02 -0.443330262272E-02 -0.351110515555E-01  0.249012839235E-01 -0.635419942286E-02 -0.386574449518E-01
 -0.342762520991E-01 -0.356952938482E-02 -0.696035835906E-02 -0.321742910628E-01
  0.239583775800E-03  0.442973699222E-02  0.331775280520E-03  0.628858622432E-02  0.165820313717E-03  0.889440464146E-02  0.362115206067E-03
  0.321688274994E-03  0.867837586656E-02 -0.775563296881E-03  0.345906581376E-03 -0.146712556346E-02 -0.108985211252E-03 -0.113578135667E-02
 -0.186815337234E-02 -0.203633823482E-02  0.284470594786E-03  0.600188178317E-02 -0.102175970641E-02 -0.694928099534E-02 -0.245046623063E-02
 -0.155826849578E-02 -0.203198513851E-03 -0.852615678622E-03 -0.733351026024E-02  0.306786359157E-02 -0.126241737161E-02 -0.809922905415E-02
 -0.715938626379E-02 -0.896363775341E-03 -0.148657382689E-02 -0.668288837271E-02
  0.404714768784E-03  0.128150476807E-03  0.546101262904E-03  0.124456171063E-02  0.147892373580E-03  0.607470252889E-03  0.469073774253E-03
 -0.174478015070E-03 -0.341577440862E-04 -0.135498363751E-04  0.127275711452E-03  0.137659504355E-03 -0.139813241238E-03  0.257833078834E-04
 -0.514162094346E-04 -0.361693626689E-05 -0.245091377841E-03 -0.793469858942E-03  0.166907583036E-04  0.270141654846E-05 -0.292007732261E-04
 -0.341781786318E-04 -0.148336832637E-04 -0.135090114702E-03  0.851466258911E-04 -0.102382747638E-03 -0.750342773015E-04 -0.261152150335E-04
 -0.824454453482E-04 -0.220321211872E-04 -0.785563693459E-05  0.656119222032E-05
 -0.147396570756E-02 -0.135246676002E-02 -0.161028978089E-02 -0.175057410686E-04  0.141290725159E-02  0.153127443972E-02 -0.901084815651E-03
 -0.786028963969E-03  0.108493149802E-02  0.154641921176E-02  0.290014484864E-02  0.159689588885E-02  0.319906518084E-02  0.148298757758E-02
  0.109871332011E-02  0.129768513844E-02 -0.609484685207E-03  0.915120199443E-03  0.183639395464E-02  0.457200715399E-03  0.101753188289E-02
  0.121587348396E-02  0.217760909553E-02  0.148877126522E-02  0.436566378583E-03  0.112476163256E-02  0.111058458820E-02  0.412409434877E-03
  0.497953636132E-03  0.168506106767E-02  0.114033626193E-02  0.489127775512E-03
 -0.487344049393E-02 -0.125949203685E-01 -0.667056955225E-02 -0.197063807803E-01 -0.144230118887E-02 -0.244018162940E-01  0.323144425075E-03
  0.104464745143E-02 -0.242162101149E-01  0.646526460537E-03 -0.169348303951E-02  0.271064137695E-02 -0.139267437111E-02  0.151345458738E-02
  0.377588723576E-02  0.371434837114E-02 -0.101696974697E-02 -0.160980546077E-01  0.188798231341E-02  0.140959205970E-01  0.496485654256E-02
  0.319679823396E-02 -0.907890911952E-03  0.158779364177E-02  0.145999903522E-01 -0.101512349570E-01  0.248077495635E-02  0.161209985961E-01
  0.142623843095E-01  0.129590988315E-02  0.276580888625E-02  0.133532704618E-01
        12        19        11        11
        11         5        12        12
        10        14         5         5
        19        13        11        11
        19        24        13        13
        30        23        24        24
        19        12        22        22
        28        22        21        21
        11        13         6         6
         7         6         9         9
        15        12        14        14
        18        13        23        23
        15        25        21        21
        27        19        22        22
        18         8         9         9
        27        31        24        24
         4        11         6         6
         5        14        12        12
         4         2         5         5
        21        12        15        15
        14        16        15        15
        24        19        27        27
        22        29        27        27
        23        26        18        18
        17         8        18        18
         5        11         4         4
         6         3         4         4
        26        23        30        30
         5         2        10        10
        16        14        10        10
         3         6         7         7
        21        25        28        28
        29        22        28        28
         6        13         9         9
         2         4         1         1
        31        27        32        32
        25        15        20        20
        24        23        13        13
         8         7         9         9
        13        18         9         9
        31        30        24        24
        12        21        22        22
        29        32        27        27
         3         1         4         4
        26        17        18        18
        16        20        15        15
zone t="boundary 2 bc-2", solutiontime= 0.3000000E+02, strandid=1002, i=33, j=48, f=feblock
  0.500195253374E+01  0.375034811161E+01  0.249861146299E+01  0.288036674177E+01  0.124717526933E+01  0.190856698521E+01  0.326577190273E+01
  0.201394856120E+01 -0.338395986572E-02  0.962374249381E+00  0.500000000000E+01  0.403430190008E+01  0.423029563807E+01  0.500000000000E+01
  0.385439188940E+01  0.500000000000E+01  0.398133433176E+01  0.315200081417E+01  0.266958028869E+01  0.154798029824E+01  0.218327860466E+01
  0.893688440338E+00  0.000000000000E+00  0.699009761768E+00  0.964460899052E+00  0.310303671659E+01  0.000000000000E+00  0.000000000000E+00
  0.125000000000E+01  0.500000000000E+01  0.375000000000E+01  0.250000000000E+01  0.000000000000E+00
 -0.249658903664E+01 -0.249658903664E+01 -0.249658903664E+01 -0.249658903664E+01 -0.249658903664E+01 -0.249658903664E+01 -0.249658903664E+01
 -0.249658903664E+01 -0.249658903664E+01 -0.249658903664E+01 -0.249658903664E+01 -0.249658903664E+01 -0.249658903664E+01 -0.249658903664E+01
 -0.249658903664E+01 -0.249658903664E+01 -0.249658903664E+01 -0.249658903664E+01 -0.249658903664E+01 -0.249658903664E+01 -0.249658903664E+01
 -0.249658903664E+01 -0.249658903664E+01 -0.249658903664E+01 -0.249658903664E+01 -0.249658903664E+01 -0.249658903664E+01 -0.249658903664E+01
 -0.249658903664E+01 -0.249658903664E+01 -0.249658903664E+01 -0.249658903664E+01 -0.249658903664E+01
  0.108225889030E-03  0.145875369682E-03  0.100893326425E-03  0.901663374396E+00  0.110858761917E-03  0.714928318829E+00  0.188140648011E+01
  0.175892165504E+01  0.810725962649E-04  0.957504300331E+00  0.125000000000E+01  0.100596698996E+01  0.191313519089E+01  0.250000000000E+01
  0.292898096716E+01  0.375000000000E+01  0.406883369524E+01  0.363389289944E+01  0.284756860985E+01  0.292582308120E+01  0.395754054931E+01
  0.205027256979E+01  0.125000000000E+01  0.306703272692E+01  0.397155766662E+01  0.433068622168E+01  0.250000000000E+01  0.375000000000E+01
  0.500000000000E+01  0.500000000000E+01  0.500000000000E+01  0.500000000000E+01  0.500000000000E+01
  0.000000000000E+00  0.000000000000E+00  0.000000000000E+00  0.380534933893E+00  0.000000000000E+00  0.343213081171E+00  0.585244496925E+00
  0.579499344205E+00  0.000000000000E+00  0.500959578913E+00  0.508769460148E+00  0.434312419771E+00  0.572817919451E+00  0.537160208080E+00
  0.569105645782E+00  0.515014970171E+00  0.508256765061E+00  0.527354036988E+00  0.567656182489E+00  0.531857069084E+00  0.506013391179E+00
  0.521044573739E+00  0.443891909404E+00  0.490703078146E+00  0.492147926412E+00  0.501388000320E+00  0.467740399690E+00  0.488187228171E+00
  0.489959820989E+00  0.491323935798E+00  0.486019442841E+00  0.489980976742E+00  0.495089980244E+00
  0.999993488485E+00  0.999993690942E+00  0.999993544242E+00  0.989596674085E+00  0.999993139053E+00  0.985604091028E+00  0.989839488847E+00
  0.991730617690E+00  0.999992724186E+00  0.984220387528E+00  0.985139981863E+00  0.984817712566E+00  0.990066477090E+00  0.100292374828E+01
  0.999857731400E+00  0.100487268684E+01  0.100122724769E+01  0.100056983810E+01  0.997888256964E+00  0.100350942201E+01  0.100059365414E+01
  0.101090707434E+01  0.104025009063E+01  0.100327959733E+01  0.100254952730E+01  0.100046804572E+01  0.100976460100E+01  0.100405634212E+01
  0.100192626091E+01  0.100045827286E+01  0.100058947226E+01  0.100110091494E+01  0.100176433139E+01
 -0.252082678817E-02 -0.197781018271E-02 -0.121371195517E-02  0.239074605274E-01  0.241380662018E-02  0.782442287971E-01 -0.511900065968E-02
  0.963102479699E-03  0.308637993348E-02  0.364230381626E-01 -0.660248643209E-02 -0.755125442012E-02 -0.518979593876E-02 -0.442238002878E-02
 -0.325757777441E-02 -0.296820447307E-02 -0.218623931697E-02 -0.253424848885E-02 -0.417356311697E-02 -0.499998296390E-02 -0.330581756347E-02
  0.130938940744E-02  0.249012839235E-01 -0.337660067743E-02 -0.606150486290E-02 -0.396212373121E-02 -0.356952938482E-02 -0.696035835906E-02
 -0.289829614877E-01 -0.345903122613E-02 -0.132351870025E-01 -0.254487633175E-01 -0.321742910628E-01
  0.687575295173E-03 -0.191778474608E-03  0.186707709730E-04  0.410769554180E-02 -0.447331798258E-03  0.971855765457E-02 -0.167600833589E-04
 -0.383226578620E-03  0.284470594786E-03  0.429990151676E-02  0.149067665480E-02  0.665543412245E-04  0.754581992218E-03  0.113168094339E-02
  0.752900710054E-03  0.696465240427E-03  0.833573602797E-03  0.694452354587E-03  0.262136572772E-03 -0.421243439240E-03  0.292013750609E-03
 -0.362670890755E-03  0.306786359157E-02 -0.228567991462E-03 -0.699183831226E-03  0.409019013153E-03 -0.896363775341E-03 -0.148657382689E-02
 -0.520635188246E-02  0.174075113659E-03 -0.132909620871E-02 -0.395034608101E-02 -0.668288837271E-02
 -0.155644625558E-03  0.408873083478E-04  0.241440311274E-03  0.558231408338E-03  0.128322496501E-03  0.972819703600E-03 -0.757740265199E-04
  0.875269936083E-05 -0.245091377841E-03  0.373173973096E-03 -0.884581237207E-04 -0.284153297948E-03  0.515049310738E-05  0.834901896117E-05
  0.687864195639E-05 -0.133112847314E-04  0.163233526155E-05 -0.704770299720E-05  0.117779652981E-04  0.277459666577E-04 -0.170605979560E-04
  0.280521755755E-04 -0.102382747638E-03  0.521135254937E-05 -0.277024984912E-05 -0.600970579314E-05 -0.220321211872E-04 -0.785563693459E-05
 -0.284156867208E-05 -0.235634594829E-05  0.474431825297E-06  0.163273016196E-05  0.656119222032E-05
 -0.198482770133E-03 -0.204926915177E-03 -0.309809476294E-03  0.103250501237E-02 -0.716019316335E-03  0.222653736486E-03  0.155874798357E-02
  0.208671954596E-02 -0.609484685207E-03  0.980914962429E-03  0.298685852449E-03  0.108683520481E-02  0.626648916759E-03  0.283280271550E-03
  0.646934520143E-03  0.236911919746E-03  0.628884297419E-03  0.889357551473E-03  0.105486713419E-02  0.109672256897E-02  0.102382194381E-02
  0.165922138443E-02  0.112476163256E-02  0.116501063863E-02  0.102471688657E-02  0.884771522566E-03  0.168506106767E-02  0.114033626193E-02
  0.691706877255E-03  0.368759368348E-03  0.801750648622E-03  0.870372810623E-03  0.489127775512E-03
  0.716958736702E-03  0.197804266028E-02  0.342885299850E-02 -0.108949770298E-01  0.409197964730E-02 -0.335131754789E-01  0.151814912096E-02
 -0.493402700519E-03 -0.101696974697E-02 -0.150927505876E-01  0.142908638313E-02  0.228319407100E-02  0.127773913624E-02  0.847440910917E-03
  0.637181495152E-03  0.599944880284E-03  0.300563360258E-03  0.462024915080E-03  0.114160248670E-02  0.169826279749E-02  0.886607148424E-03
 -0.596758436144E-03 -0.101512349570E-01  0.108732472503E-02  0.221055341785E-02  0.108155640458E-02  0.129590988315E-02  0.276580888625E-02
  0.117748471309E-01  0.104553319214E-02  0.496639224846E-02  0.101173176675E-01  0.133532704618E-01
        15         7        19        19
         8        20        19        19
        18        19        21        21
         7         4         8         8
         3         6         4         4
        19         7         8         8
        19        18        15        15
        14        13        15        15
         8        22        20        20
        27        24        22        22
        19        20        21        21
        32        26        21        21
        17        18        26        26
        17        16        15        15
        25        29        21        21
        12         7        13        13
        10         8         6         6
        25        20        24        24
         4         6         8         8
        12         2         4         4
        10        23        22        22
        26        31        17        17
        30        16        17        17
         4         7        12        12
        13        11        12        12
        21        20        25        25
        24        28        25        25
        22         8        10        10
         6         5        10        10
        31        26        32        32
         4         2         3         3
         5         6         3         3
        11        13        14        14
        22        23        27        27
        28        24        27        27
        15        13         7         7
         2        12         1         1
        29        25        33        33
        23        10         9         9
        21        26        18        18
        16        14        15        15
        18        17        15        15
        29        32        21        21
        22        24        20        20
        28        33        25        25
        11         1        12        12
        31        30        17        17
         5         9        10        10
zone t="boundary 3 bc-3", solutiontime= 0.3000000E+02, strandid=1003, i=33, j=48, f=feblock
  0.375059096892E+01  0.249769609313E+01  0.500322133174E+01  0.403612218725E+01  0.287976772365E+01  0.124541910518E+01  0.190552237404E+01
  0.500000000000E+01  0.326671104552E+01  0.423253755448E+01  0.201271136506E+01 -0.547468544169E-02  0.958895643487E+00  0.500000000000E+01
  0.266968147299E+01  0.385584487271E+01  0.890374214836E+00  0.154654013699E+01  0.000000000000E+00  0.500000000000E+01  0.315261136744E+01
  0.218304199515E+01  0.398195307895E+01  0.000000000000E+00  0.697379952124E+00  0.963757277315E+00  0.125000000000E+01  0.000000000000E+00
  0.500000000000E+01  0.310330738524E+01  0.250000000000E+01  0.375000000000E+01  0.000000000000E+00
  0.250494197117E+01  0.250494197117E+01  0.250494197117E+01  0.250494197117E+01  0.250494197117E+01  0.250494197117E+01  0.250494197117E+01
  0.250494197117E+01  0.250494197117E+01  0.250494197117E+01  0.250494197117E+01  0.250494197117E+01  0.250494197117E+01  0.250494197117E+01
  0.250494197117E+01  0.250494197117E+01  0.250494197117E+01  0.250494197117E+01  0.250494197117E+01  0.250494197117E+01  0.250494197117E+01
  0.250494197117E+01  0.250494197117E+01  0.250494197117E+01  0.250494197117E+01  0.250494197117E+01  0.250494197117E+01  0.250494197117E+01
  0.250494197117E+01  0.250494197117E+01  0.250494197117E+01  0.250494197117E+01  0.250494197117E+01
  0.135649900494E-03  0.110129816467E-03  0.966887303890E-04  0.101756752009E+01  0.908094589218E+00  0.103942505801E-03  0.722629083213E+00
  0.125000000000E+01  0.188965661746E+01  0.191862696980E+01  0.176708239098E+01  0.803813859867E-04  0.969652551954E+00  0.250000000000E+01
  0.285339433501E+01  0.293325058812E+01  0.205656223819E+01  0.293157016932E+01  0.125000000000E+01  0.375000000000E+01  0.363766838842E+01
  0.396069444983E+01  0.407056385475E+01  0.250000000000E+01  0.307031995245E+01  0.397359820314E+01  0.500000000000E+01  0.375000000000E+01
  0.500000000000E+01  0.433260781310E+01  0.500000000000E+01  0.500000000000E+01  0.500000000000E+01
  0.000000000000E+00  0.000000000000E+00  0.000000000000E+00  0.444961626928E+00  0.402838316190E+00  0.000000000000E+00  0.379029001549E+00
  0.508827846411E+00  0.575719767468E+00  0.573484231916E+00  0.562571091033E+00  0.000000000000E+00  0.491643474339E+00  0.534340493553E+00
  0.556353506125E+00  0.564141623675E+00  0.522489639030E+00  0.521815314100E+00  0.440672136512E+00  0.517132480923E+00  0.524064820256E+00
  0.503612613683E+00  0.509416634110E+00  0.469886789982E+00  0.495646532245E+00  0.494503101969E+00  0.488630053423E+00  0.489035017215E+00
  0.492985464012E+00  0.498953669977E+00  0.486505314975E+00  0.484610387305E+00  0.495364848064E+00
  0.999989345567E+00  0.999989414891E+00  0.999989632591E+00  0.981375695393E+00  0.988672653297E+00  0.999989832933E+00  0.982271891095E+00
  0.984075644303E+00  0.990406052732E+00  0.990320090376E+00  0.994390331428E+00  0.999990300362E+00  0.988743428079E+00  0.100365390733E+01
  0.999774597300E+00  0.100117529834E+01  0.100830077599E+01  0.100251293722E+01  0.102982970104E+01  0.100442054131E+01  0.100199281310E+01
  0.100081994749E+01  0.100137956774E+01  0.100825795511E+01  0.100297377722E+01  0.100191712118E+01  0.100214790177E+01  0.100354817652E+01
  0.100047567419E+01  0.100056574043E+01  0.100126719373E+01  0.100066769089E+01  0.100178625606E+01
 -0.170136750738E-02  0.131910769395E-02 -0.282311874396E-02  0.156854435099E-01  0.609396839732E-01  0.384109751728E-02  0.606352839140E-01
 -0.968314501860E-02 -0.489458900189E-02 -0.610796880091E-02  0.100991219166E-01  0.610295154528E-02  0.410977785218E-01 -0.462516719915E-02
 -0.535184429131E-02 -0.380481655163E-02  0.116755290916E-02 -0.518651944124E-02  0.305812897809E-01 -0.315205714336E-02 -0.230002642695E-02
 -0.316468358343E-02 -0.240453066246E-02 -0.160764024587E-02 -0.451063722492E-02 -0.829542766125E-02 -0.257042653407E-01 -0.921182288761E-02
 -0.298771289752E-02 -0.367320012057E-02 -0.239417795885E-01 -0.130081975952E-01 -0.339643128778E-01
 -0.394798515967E-03 -0.382169417276E-03  0.701690385117E-03  0.442876850785E-02  0.840723045227E-02 -0.799832583515E-03  0.748509362980E-02
  0.158141147942E-02 -0.783059199300E-04  0.830608676509E-03  0.180773115822E-03  0.239583775800E-03  0.308041402682E-02  0.121137464839E-02
 -0.756438652769E-04  0.632087425808E-03 -0.115642330562E-02 -0.548164304438E-03  0.442973699222E-02  0.772408053982E-03  0.669708817396E-03
  0.358540117460E-03  0.779902443443E-03 -0.775563296881E-03 -0.106714554648E-02 -0.104205195303E-02 -0.456408660440E-02 -0.203633823482E-02
  0.271812501472E-03  0.428083917948E-03 -0.370422475730E-02 -0.129316797637E-02 -0.694928099534E-02
 -0.746340917550E-04  0.396613297253E-04  0.952629670789E-04 -0.296329175132E-03 -0.856527329853E-03  0.335088290345E-03 -0.119521192840E-04
  0.195355536377E-05 -0.961233177505E-04  0.162449406252E-04 -0.807882538336E-04  0.404714768784E-03  0.466599879008E-03  0.352495206969E-04
 -0.417037428229E-05  0.480668086852E-05 -0.158586230801E-03 -0.592225548166E-04  0.128150476807E-03  0.197001931245E-04  0.958459399118E-05
  0.430575424972E-04  0.808528648918E-06 -0.135498363751E-04 -0.362524541945E-04  0.122137094398E-04  0.178203818843E-04 -0.361693626689E-05
  0.692061052066E-05 -0.197891598168E-06  0.392723918794E-05 -0.933218634001E-06  0.270141654846E-05
 -0.463185308112E-03 -0.864081412350E-03 -0.241693691980E-03  0.649815079494E-03  0.104335193460E-02 -0.833450424622E-03  0.335091352577E-03
  0.375734662699E-03  0.191434665048E-02  0.929798811282E-03  0.277393283085E-02 -0.147396570756E-02  0.915086826980E-03  0.371437418342E-03
  0.986428593019E-03  0.825789954472E-03  0.234221659214E-02  0.104960258807E-02 -0.135246676002E-02  0.329611933878E-03  0.949557822617E-03
  0.979156046023E-03  0.710196055021E-03  0.154641921176E-02  0.151302722054E-02  0.100977479287E-02  0.728246758234E-03  0.129768513844E-02
  0.350580599422E-03  0.921029185639E-03  0.882882027417E-03  0.804687230561E-03  0.457200715399E-03
  0.706111430418E-02  0.301476300872E-02  0.132941555388E-02 -0.815371738281E-02 -0.263856511190E-01  0.193586523285E-03 -0.254621704454E-01
  0.246966010484E-02  0.151553885591E-02  0.158064101571E-02 -0.394455949399E-02 -0.487344049393E-02 -0.161890976772E-01  0.869904352503E-03
  0.169010957302E-02  0.862788709824E-03 -0.347015237738E-03  0.179723182724E-02 -0.125949203685E-01  0.618741160328E-03  0.379321749272E-03
  0.818135132910E-03  0.392363243410E-03  0.646526460537E-03  0.165410235056E-02  0.311965762012E-02  0.103941094228E-01  0.371434837114E-02
  0.846627570487E-03  0.970852997112E-03  0.949783697916E-02  0.486995087682E-02  0.140959205970E-01
        15         9        16        16
        15        18        11        11
        22        15        21        21
        11         5         9         9
         5         7         2         2
        11         9        15        15
        16        21        15        15
        16        10        14        14
        18        17        11        11
        17        25        24        24
        22        18        15        15
        22        30        31        31
        30        21        23        23
        16        20        23        23
        22        27        26        26
        10         9         4         4
         7        11        13        13
        25        18        26        26
        11         7         5         5
         5         1         4         4
        17        19        13        13
        23        32        30        30
        23        20        29        29
         4         9         5         5
         4         8        10        10
        26        18        22        22
        26        28        25        25
        13        11        17        17
        13         6         7         7
        31        30        32        32
         2         1         5         5
         2         7         6         6
        14        10         8         8
        24        19        17        17
        24        25        28        28
         9        10        16        16
         3         4         1         1
        33        26        27        27
        12        13        19        19
        21        30        22        22
        16        14        20        20
        16        23        21        21
        22        31        27        27
        18        25        17        17
        26        33        28        28
         4         3         8         8
        23        29        32        32
        13        12         6         6
zone t="boundary 4 bc-4", solutiontime= 0.3000000E+02, strandid=1004, i=32, j=46, f=feblock
  0.125000000000E+01  0.219251206392E+01  0.103724302461E+01  0.500000000000E+01  0.250000000000E+01  0.375000000000E+01  0.404200324774E+01
  0.500000000000E+01  0.000000000000E+00  0.310152362409E+01  0.202479342020E+01  0.324151231464E+01  0.922061490191E+00  0.000000000000E+00
  0.299062775774E+01  0.394624082883E+01  0.500000000000E+01  0.409252726285E+01  0.500000000000E+01  0.429310310915E+01  0.175434191980E+01
  0.284428995242E+01  0.000000000000E+00  0.000000000000E+00  0.715990576545E+00  0.930412228790E+00  0.125000000000E+01  0.187029682677E+01
  0.500000000000E+01  0.375000000000E+01  0.250000000000E+01  0.000000000000E+00
  0.250494197117E+01  0.157686156160E+01  0.146289271009E+01  0.250494197117E+01  0.250494197117E+01  0.250494197117E+01  0.155830813274E+01
  0.125000000000E+01  0.250494197117E+01  0.177790177481E+01  0.477386199275E+00  0.742988685424E+00  0.308372018325E+00  0.125000000000E+01
 -0.487811078581E+00 -0.144524380962E+01 -0.125000000000E+01 -0.345533899378E+00  0.000000000000E+00  0.627766083140E+00 -0.739814786992E+00
 -0.158811787973E+01  0.000000000000E+00 -0.125000000000E+01 -0.600232012419E+00 -0.154800130438E+01 -0.249658903664E+01 -0.178862290564E+01
 -0.249658903664E+01 -0.249658903664E+01 -0.249658903664E+01 -0.249658903664E+01
  0.500000000000E+01  0.500000000000E+01  0.500000000000E+01  0.500000000000E+01  0.500000000000E+01  0.500000000000E+01  0.500000000000E+01
  0.500000000000E+01  0.500000000000E+01  0.500000000000E+01  0.500000000000E+01  0.500000000000E+01  0.500000000000E+01  0.500000000000E+01
  0.500000000000E+01  0.500000000000E+01  0.500000000000E+01  0.500000000000E+01  0.500000000000E+01  0.500000000000E+01  0.500000000000E+01
  0.500000000000E+01  0.500000000000E+01  0.500000000000E+01  0.500000000000E+01  0.500000000000E+01  0.500000000000E+01  0.500000000000E+01
  0.500000000000E+01  0.500000000000E+01  0.500000000000E+01  0.500000000000E+01
  0.488630053423E+00  0.488907200673E+00  0.490613524454E+00  0.492985464012E+00  0.486505314975E+00  0.484610387305E+00  0.485346346417E+00
  0.494164094826E+00  0.495364848064E+00  0.486544301825E+00  0.487826539497E+00  0.487053944491E+00  0.494057895498E+00  0.496127940578E+00
  0.487590739712E+00  0.483169495133E+00  0.492384717662E+00  0.487198320547E+00  0.494738341209E+00  0.487947262281E+00  0.489650836219E+00
  0.487975047811E+00  0.497248366859E+00  0.496055083747E+00  0.494947818077E+00  0.492777844524E+00  0.489959820989E+00  0.489963118744E+00
  0.491323935798E+00  0.486019442841E+00  0.489980976742E+00  0.495089980244E+00
  0.100214790177E+01  0.100152376261E+01  0.100177920363E+01  0.100047567419E+01  0.100126719373E+01  0.100066769089E+01  0.100025509248E+01
  0.100050308878E+01  0.100178625606E+01  0.100112381228E+01  0.100132857256E+01  0.100072299640E+01  0.100164084009E+01  0.100168369530E+01
  0.100096380429E+01  0.100001109262E+01  0.100083219162E+01  0.100022379580E+01  0.100062130449E+01  0.100023379273E+01  0.100174737467E+01
  0.100099023681E+01  0.100118721261E+01  0.100134451878E+01  0.100132726122E+01  0.100179980273E+01  0.100192626091E+01  0.100163810987E+01
  0.100045827286E+01  0.100058947226E+01  0.100110091494E+01  0.100176433139E+01
 -0.257042653407E-01 -0.248302574363E-01 -0.255797950531E-01 -0.298771289752E-02 -0.239417795885E-01 -0.130081975952E-01 -0.903326636906E-02
 -0.297404291707E-02 -0.339643128778E-01 -0.199511728860E-01 -0.267931821101E-01 -0.187317867803E-01 -0.311896285622E-01 -0.351110515555E-01
 -0.211032387843E-01 -0.870384183451E-02 -0.336951035017E-02 -0.110881181928E-01 -0.276012287195E-02 -0.110663829790E-01 -0.329056137207E-01
 -0.198720696783E-01 -0.386574449518E-01 -0.342762520991E-01 -0.362633872904E-01 -0.289329905598E-01 -0.289829614877E-01 -0.306125813742E-01
 -0.345903122613E-02 -0.132351870025E-01 -0.254487633175E-01 -0.321742910628E-01