# vtk DataFile Version 2.0
FUN3D:global_image_vtk
ASCII
DATASET UNSTRUCTURED_GRID
POINTS 213 double
   -0.5474685441685616E-02    0.6000590601647690E-38    0.2504941971167290E+01
   -0.5645096406977189E-38    0.8038138598215112E-04    0.1395689134514202E-36
    0.1245419105183474E+01    0.4869881424311551E-38    0.2504941971167290E+01
   -0.5645096406977189E-38    0.1039425057966476E-03    0.1354425100865540E-36
    0.2497696093128781E+01    0.2052845604401018E-38    0.2504941971167290E+01
   -0.5645096406977189E-38    0.1101298164617982E-03    0.1306486094241947E-36
    0.3750590968915823E+01   -0.1764775838284600E-38    0.2504941971167290E+01
   -0.5645096406977189E-38    0.1356499004895828E-03    0.1251729702031427E-36
    0.5003221331742152E+01   -0.5152427978895439E-38    0.2504941971167290E+01
   -0.5645096406977189E-38    0.9668873038426104E-04    0.1195930668356565E-36
    0.5004676687979095E+01   -0.5546741502260307E-38    0.1281291202167033E+01
   -0.3358084562058624E-37    0.1638053019352144E-03    0.8690970666548945E-37
    0.5004772673778113E+01   -0.4378401720678962E-38    0.2775079906482346E-01
   -0.2993262597728678E-37    0.1903478008420907E-03    0.5524921475011666E-37
    0.5003581183341211E+01   -0.2212028741473046E-38   -0.1225853508883533E+01
   -0.2652916568647658E-37    0.1607765204479911E-03    0.2443360505764876E-37
    0.5001952533742191E+01    0.4985194693558812E-40   -0.2496589036641632E+01
   -0.4033092979526994E-38    0.1082258890306977E-03   -0.6201401435454739E-38
    0.3750348111606544E+01    0.1061920816506970E-38   -0.2496589036641632E+01
   -0.4033092979526994E-38    0.1458753696819687E-03   -0.4048985988531366E-38
    0.2498611462994928E+01    0.2230065613477530E-38   -0.2496589036641632E+01
   -0.4033092979526994E-38    0.1008933264249334E-03   -0.2141153414914357E-38
    0.1247175269333278E+01    0.3290667205671323E-38   -0.2496589036641632E+01
   -0.4033092979526994E-38    0.1108587619174090E-03   -0.9969040371488357E-40
   -0.3383959865720150E-02    0.3627520548785201E-38   -0.2496589036641632E+01
   -0.4033092979526994E-38    0.8107259626499842E-04    0.2470203429493315E-38
   -0.4257768979764718E-02    0.4738280514584842E-38   -0.1225734811642595E+01
   -0.2887267402386454E-37    0.3415458742206416E-04    0.3608517272793215E-37
   -0.5251592448508373E-02    0.6055958451554574E-38    0.2619486024420058E-01
   -0.3090140304361046E-37    0.1038724387166802E-03    0.7040142831247228E-37
   -0.5676060312424190E-02    0.6647405120570016E-38    0.1278221569065702E+01
   -0.3329332555778942E-37    0.8224601701783645E-04    0.1050360196567078E-36
    0.9003209617952606E+00    0.6484446207580573E-38    0.1608979112280153E+01
   -0.3526357072311559E-37    0.8704140727261197E-04    0.1112287216817440E-36
    0.3983172210692288E+01    0.3436857655792366E-40   -0.1561211904840281E+01
   -0.2636126101040720E-37    0.1757116720362275E-03    0.1834488936100623E-37
    0.4035602039224468E+01   -0.2181348079424940E-38    0.1486760030415513E+01
   -0.3718896794565717E-37    0.1713312862068321E-03    0.9608777994578760E-37
    0.1036613723302902E+01    0.4272968970620494E-38   -0.1455626429916852E+01
   -0.2869962753005105E-37    0.1047189301526797E-03    0.2720347873452210E-37
    0.1094353480630805E+01    0.5780219214965438E-38   -0.2964622010671901E+00
   -0.3103468809684671E-37    0.1260590236897290E-03    0.5825571120538593E-37
    0.7298400267480016E+00    0.6610074068233413E-38    0.6874684746719065E+00
   -0.3305701109382295E-37    0.1044598640514975E-03    0.8639403210740951E-37
    0.1617018659308947E+01    0.6269867780844107E-38    0.8553208024939309E+00
   -0.3480051427749814E-37    0.1529810904946063E-03    0.8810953944396556E-37
    0.2143199662875791E+01    0.3220613354411385E-38   -0.1627128509216734E+01
   -0.2758214767145565E-37    0.1606170425219597E-03    0.2019883915139407E-37
    0.4088840445400889E+01   -0.1694269991141822E-38   -0.4351047825936315E+00
   -0.2954591934997429E-37    0.2719933294093020E-03    0.4617545868374259E-37
    0.2977916511248925E+01    0.2339218450743152E-38   -0.8334991483094549E+00
   -0.2869313509782010E-37    0.2245596931849110E-03    0.3877344021372703E-37
    0.3044093241383418E+01    0.1822763073413808E-38   -0.1814361225108585E+01
   -0.2682926377901247E-37    0.1617000112413270E-03    0.1372802646407223E-37
    0.3427866614805212E+01    0.8990225569861702E-39    0.3813904839972428E+00
   -0.3468116481872556E-37    0.2936955483404633E-03    0.6906059498944799E-37
    0.4313225355351750E+01   -0.3476541815072327E-38    0.5489133376342430E+00
   -0.3353769684840573E-37    0.2313009573562939E-03    0.7057108451624891E-37
    0.1823032737597359E+01    0.4851426604127433E-38    0.1771265193544248E+01
   -0.3756545701948829E-37    0.1836202887111588E-03    0.1124953660685802E-36
    0.2806311152168376E+01    0.2638626877696679E-38    0.1358629373600674E+01
   -0.3808127541731177E-37    0.1943492163948801E-03    0.9753426898029146E-37
    0.1891860875936713E+01    0.4662139827523740E-38   -0.8481310365607586E+00
   -0.2979882174062066E-37    0.1670645501796729E-03    0.4117331214761816E-37
    0.2268769200166910E+01    0.5166902668501776E-38    0.7723691819195999E-01
   -0.3307516912488647E-37    0.2072307783062547E-03    0.6484285925495240E-37
    0.5000000000000000E+01    0.5061674883937602-186    0.2504941971167290E+01
   -0.5645096406977189E-38    0.1250000000000000E+01    0.5061674883937602-186
    0.5000000000000000E+01    0.5061674883937602-186    0.2504941971167290E+01
   -0.5645096406977189E-38    0.2500000000000000E+01    0.5061674883937602-186
    0.5000000000000000E+01    0.5061674883937602-186    0.2504941971167290E+01
   -0.5645096406977189E-38    0.3750000000000000E+01    0.5061674883937602-186
    0.5000000000000000E+01    0.5061674883937602-186    0.2504941971167290E+01
   -0.5645096406977189E-38    0.5000000000000000E+01    0.5061674883937602-186
    0.3750000000000000E+01    0.5061674883937602-186    0.2504941971167290E+01
   -0.5645096406977189E-38    0.5000000000000000E+01    0.5061674883937602-186
    0.2500000000000000E+01    0.5061674883937602-186    0.2504941971167290E+01
   -0.5645096406977189E-38    0.5000000000000000E+01    0.5061674883937602-186
    0.1250000000000000E+01    0.5061674883937602-186    0.2504941971167290E+01
   -0.5645096406977189E-38    0.5000000000000000E+01    0.5061674883937602-186
   -0.4059410747667635-156    0.5061674883937602-186    0.2504941971167290E+01
   -0.5645096406977189E-38    0.5000000000000000E+01    0.5061674883937602-186
   -0.4059410747667635-156    0.5061674883937602-186    0.2504941971167290E+01
   -0.5645096406977189E-38    0.3750000000000000E+01    0.5061674883937602-186
   -0.4059410747667635-156    0.5061674883937602-186    0.2504941971167290E+01
   -0.5645096406977189E-38    0.2500000000000000E+01    0.5061674883937602-186
   -0.4059410747667635-156    0.5061674883937602-186    0.2504941971167290E+01
   -0.5645096406977189E-38    0.1250000000000000E+01    0.5061674883937602-186
    0.9588956434871108E+00    0.9082666838648555E-38    0.2504941971167290E+01
   -0.5645096406977189E-38    0.9696525519543818E+00    0.9559575535350249E-37
    0.3981953078951401E+01    0.3820303416262918E-38    0.2504941971167290E+01
   -0.5645096406977189E-38    0.4070563854751270E+01    0.1341725214272548E-37
    0.4036122187252336E+01   -0.1129442724529447E-38    0.2504941971167290E+01
   -0.5645096406977189E-38    0.1017567520094666E+01    0.9236788609149752E-37
    0.9637572773153891E+00   -0.3257228777935400E-38    0.2504941971167290E+01
   -0.5645096406977189E-38    0.3973598203142228E+01    0.1464237466526535E-37
    0.1546540136992396E+01   -0.3132900221349971E-38    0.2504941971167290E+01
   -0.5645096406977189E-38    0.2931570169315598E+01    0.4496019316891784E-37
    0.6973799521244317E+00   -0.5354013141339085E-38    0.2504941971167290E+01
   -0.5645096406977189E-38    0.3070319952453755E+01    0.2599190582100863E-37
    0.8903742148356895E+00   -0.4497440060093991E-38    0.2504941971167290E+01
   -0.5645096406977189E-38    0.2056562238187735E+01    0.5266806945918496E-37
    0.2183041995146012E+01   -0.6476703878858215E-39    0.2504941971167290E+01
   -0.5645096406977189E-38    0.3960694449828018E+01    0.2332936340620132E-37
    0.3855844872709870E+01    0.6382047129141906E-38    0.2504941971167290E+01
   -0.5645096406977189E-38    0.2933250588118629E+01    0.3433270073956337E-37
    0.3152611367438029E+01    0.3352172763803901E-38    0.2504941971167290E+01
   -0.5645096406977189E-38    0.3637668388416194E+01    0.2850262906150697E-37
    0.3103307385241870E+01    0.2065231975918121E-38    0.2504941971167290E+01
   -0.5645096406977189E-38    0.4332607813099730E+01    0.1432987862234060E-37
    0.3266711045517939E+01    0.4998348440336472E-38    0.2504941971167290E+01
   -0.5645096406977189E-38    0.1889656617463735E+01    0.7498090534677094E-37
    0.4232537554484795E+01    0.7698651683132972E-38    0.2504941971167290E+01
   -0.5645096406977189E-38    0.1918626969802349E+01    0.4149957220695080E-37
    0.1905522374036521E+01    0.7461053108628507E-38    0.2504941971167290E+01
   -0.5645096406977189E-38    0.7226290832134553E+00    0.1156671603856861E-36
    0.2879767723645806E+01    0.2265354678418405E-38    0.2504941971167290E+01
   -0.5645096406977189E-38    0.9080945892181930E+00    0.1152066794664994E-36
    0.2012711365064516E+01    0.8986260925104364E-39    0.2504941971167290E+01
   -0.5645096406977189E-38    0.1767082390977750E+01    0.8589296036976378E-37
    0.2669681472994637E+01    0.2217040732270003E-38    0.2504941971167290E+01
   -0.5645096406977189E-38    0.2853394335010789E+01    0.5209394704615697E-37
    0.5000000000000000E+01    0.5061674883937602-186    0.1250000000000000E+01
    0.5061674883937602-186    0.5000000000000000E+01    0.5061674883937602-186
    0.5000000000000000E+01    0.5061674883937602-186   -0.4059410747667635-156
[...]
POINT_DATA 213
SCALARS rho double 1
LOOKUP_TABLE default
   0.1346125695035832E+01
  -0.1915301908815359E-31
   0.9572084529089346E+00
  -0.1258430546409009E-31
   0.9461020640320945E+00
  -0.8906238049859636E-32
   0.9421833083753482E+00
  -0.6541489526264962E-32
   0.8436100805381385E+00
  -0.4681789297884273E-32
   0.7742024924724042E+00
  -0.4233010203779950E-32
   0.7627632916086585E+00
  -0.4302308257929741E-32
   0.7661496234060086E+00
  -0.4065602160994007E-32
   0.8310481705634519E+00
  -0.4619645509382403E-32
   0.9353608199402366E+00
  -0.6085742692090868E-32
   0.9344036384410562E+00
  -0.8516258793458175E-32
   0.9615898878170902E+00
  -0.1279982398139387E-31
   0.1448480209172341E+01
  -0.2064761465409360E-31
   0.1495421840821191E+01
  -0.1967273344708360E-31
   0.1646754928544016E+01
  -0.2240365389243536E-31
   0.1426608059022090E+01
  -0.1860884966781958E-31
   0.1009808068866805E+01
  -0.1414576825059202E-31
   0.9511456930619105E+00
  -0.6232742404623932E-32
   0.9438291106279438E+00
  -0.6023066174700923E-32
   0.9574489510690312E+00
  -0.1349599576537911E-31
   0.9414832417715732E+00
  -0.1325587997729132E-31
   0.1037118221543960E+01
  -0.1512918712394467E-31
   0.9258147539139466E+00
  -0.1094968124100963E-31
   0.9322497229121401E+00
  -0.9891001649826976E-32
   0.9538141800659112E+00
  -0.6158294693118592E-32
   0.9520438485472471E+00
  -0.7648418767801674E-32
   0.9350971720703318E+00
  -0.7093311037165009E-32
   0.9565537239767522E+00
  -0.6588428701175611E-32
   0.9378700246275726E+00
  -0.5581989918236904E-32
   0.9303318786832013E+00
  -0.1036765569447104E-31
   0.9446515870015353E+00
  -0.8062946946616956E-32
   0.8862352514596175E+00
  -0.1014680790266351E-31
   0.9424046837878570E+00
  -0.9130192938005856E-32
   0.9637217347338064E+00
  -0.3592452488539317E-32
   0.1008362577443175E+01
  -0.1854422253541103E-32
   0.1006713364224322E+01
  -0.1237168812826402E-32
   0.1001959242786440E+01
  -0.1585811400693738E-32
   0.1003218316848717E+01
  -0.3140473724399755E-32
   0.1004120537739762E+01
  -0.3867059654943632E-32
   0.1005207992731865E+01
  -0.3570599322970650E-32
   0.1004249813772383E+01
  -0.2819044714118690E-32
   0.1008267843968349E+01
  -0.4191060735680099E-32
   0.1023867443182258E+01
  -0.6121769493566341E-32
   0.1063751875358981E+01
  -0.7269725297721230E-32
   0.1019386187350478E+01
  -0.9081395407605285E-32
   0.1001778933820393E+01
  -0.2763116700993526E-32
   0.9645975359566513E+00
  -0.5083854786972860E-32
   0.1005263110574732E+01
  -0.4248157559536101E-32
   0.1000745578468383E+01
  -0.5310900951846542E-32
   0.1008695104914200E+01
  -0.5352762722324671E-32
   0.1008032475291091E+01
  -0.6447798595546096E-32
   0.1002354651054528E+01
  -0.4298756862916663E-32
   0.9980224682921600E+00
  -0.3073509443789980E-32
   0.1000594441058992E+01
  -0.3743877775416867E-32
   0.1001621537584811E+01
  -0.3724606277837865E-32
   0.9828107804635136E+00
  -0.4684379160395111E-32
   0.9844011055433443E+00
  -0.3565657520743171E-32
   0.9834292501539235E+00
  -0.8300391024290961E-32
   0.9790423947957096E+00
  -0.6701577708329203E-32
   0.9904798795046148E+00
  -0.5984070179480610E-32
   0.9935224894701644E+00
  -0.4531364512689893E-32
   0.1002009106199715E+01
  -0.1496072382450598E-32
   0.1002132313695708E+01
  -0.1461488454280528E-32
   0.1002273033564941E+01
  -0.1515852972764776E-32
   0.1001793219421454E+01
  -0.1676588556112325E-32
   0.1009814973789684E+01
  -0.1214986238706600E-32
   0.1006499311890183E+01
  -0.1860177819183977E-32
   0.9560849998237594E+00
  -0.3494758667006468E-32
   0.9252996591989938E+00
  -0.3952413008338563E-32
   0.1007053713234650E+01
  -0.1042746563848660E-32
   0.1004491538538689E+01
  -0.1233204802391501E-32
   0.9144889716215898E+00
  -0.3664886348748829E-32
   0.9091476765070191E+00
  -0.3590127563136513E-32
   0.8752502579743601E+00
  -0.3988161782970316E-32
   0.9768039027738665E+00
  -0.2890190054967831E-32
   0.1000530366549298E+01
  -0.2344191881924790E-32
   0.1005826553802057E+01
  -0.9929321787498756E-33
   0.1012895293549115E+01
  -0.1201901467893698E-32
   0.1011677102509948E+01
  -0.1373481997960054E-32
   0.1010415988244361E+01
  -0.9411464680052205E-33
   0.1005456560687355E+01
  -0.9712445935536537E-33
   0.9909260245285455E+00
  -0.2743829151614722E-32
   0.1005152543412317E+01
  -0.1498976259274332E-32
   0.9860803849228938E+00
  -0.2623734109635993E-32
   0.1005592650745694E+01
  -0.1809681079018379E-32
   0.1004239968554343E+01
  -0.2668732994113166E-32
   0.1002886283566541E+01
  -0.2592289917431123E-32
   0.1003350788741584E+01
  -0.2623573224141613E-32
   0.1003998912077638E+01
  -0.2736019255361551E-32
   0.1005116700243538E+01
  -0.3551688612295145E-32
   0.1003224183289909E+01
  -0.3862203760294289E-32
   0.1002669182792971E+01
  -0.3211299192459509E-32
   0.1002590257688934E+01
  -0.2933933726075387E-32
   0.1004070004797633E+01
  -0.3185320687611208E-32
   0.1004304937695976E+01
  -0.3279457106032210E-32
   0.1001643035310332E+01
  -0.3099868696365178E-32
   0.1002279358043588E+01
  -0.2974245937133459E-32
   0.1002547250086561E+01
  -0.2693236208951310E-32
   0.1003472641535387E+01
  -0.3709208749113704E-32
   0.1003380930778056E+01
  -0.3776696044473122E-32
   0.1003233776673562E+01
  -0.2984013950686256E-32
   0.1004430853979533E+01
  -0.3900292531209949E-32
   0.1004325283089163E+01
  -0.3860334635774902E-32
   0.1003653379382735E+01
  -0.3095888763076576E-32
   0.1003719191746944E+01
  -0.3607049742528100E-32
   0.1004319534091052E+01
  -0.3864915360709959E-32
   0.1004463155540821E+01
  -0.3917613321873025E-32
   0.1003629980310212E+01
  -0.3738816842614294E-32
   0.1064490581908381E+01
  -0.7270452383107221E-32
   0.1028445780953350E+01
  -0.6199721738095019E-32
   0.1009607603187758E+01
  -0.4240181013086094E-32
   0.1006626774140720E+01
  -0.3807770196917872E-32
   0.1163979474123154E+01
  -0.8204122238016712E-32
   0.1086026004368294E+01
  -0.6815401214992844E-32
   0.1007908398905934E+01
  -0.3977754445449059E-32
   0.1007252664599149E+01
  -0.3797130209055973E-32
   0.1006796746928270E+01
  -0.3524044577472462E-32
   0.1013053608790921E+01
  -0.5239342190363877E-32
   0.1019342644436958E+01
  -0.5795460499480496E-32
   0.1235143811287922E+01
  -0.9593014305479246E-32
   0.1032536233119615E+01
  -0.6571898752712220E-32
   0.1046567728918648E+01
  -0.7494060570753523E-32
   0.1201703013078931E+01
  -0.8704049903318616E-32
   0.1014671125423255E+01
  -0.5138959858373369E-32
   0.1032295324330649E+01
  -0.6747155091783588E-32
   0.1028222151221020E+01
  -0.7307981027689618E-32
   0.1014641483660504E+01
  -0.5656384993504547E-32
   0.1029002257867427E+01
  -0.8710323055525264E-32
   0.1002002818941020E+01
  -0.2781501106890342E-32
   0.9607830587995249E+00
  -0.5121024682685686E-32
   0.1006859706960800E+01
  -0.4264510912888094E-32
   0.1001326954081730E+01
  -0.5137787157124595E-32
   0.1010800868387573E+01
  -0.5418389577315158E-32
   0.1012237273324773E+01
  -0.6419042093824601E-32
   0.1000940436384966E+01
  -0.4332596626759046E-32
   0.9979317236207575E+00
  -0.3116756290972270E-32
   0.9980683697335364E+00
  -0.3809088510947834E-32
   0.1001191956523643E+01
  -0.3689139036602508E-32
   0.9841985799411975E+00
  -0.4691507658768606E-32
   0.9815070583128843E+00
  -0.3540627734496664E-32
   0.9648654918887845E+00
  -0.8332578170975952E-32
   0.9680713430983720E+00
  -0.6460014278259485E-32
   0.9914149191875737E+00
  -0.5933968006775914E-32
   0.9910916479999694E+00
  -0.4512917853396235E-32
   0.9925598185003981E+00
  -0.4327615356510764E-32
   0.1001728510436692E+01
  -0.4663996070951739E-32
   0.9993250772930188E+00
  -0.5005327723376243E-32
   0.9941444030113775E+00
  -0.5557076000201891E-32
   0.1006981383602848E+01
  -0.5873611537918652E-32
   0.1022611654139070E+01
  -0.7015791515501249E-32
   0.1001121692014089E+01
  -0.6459898807341703E-32
   0.1008784265639952E+01
  -0.4976914694840442E-32
   0.1004775044094358E+01
  -0.4686684160374798E-32
   0.1009029447405431E+01
  -0.5305760640749019E-32
   0.9967197951326621E+00
  -0.6224568280373785E-32
   0.1005567613334355E+01
  -0.9781730058270059E-32
   0.1003325685898411E+01
  -0.4134030249602111E-32
   0.9949865130496107E+00
  -0.4369480523440371E-32
   0.9833521897360489E+00
  -0.4082335989529524E-32
   0.9944521642504094E+00
  -0.3826305479325823E-32
   0.9973482233471811E+00
  -0.3452750284143294E-32
   0.9932519263295859E+00
  -0.2778818059307534E-32
   0.1001312608428419E+01
  -0.4018614530839769E-32
   0.1003001448831365E+01
  -0.4165896576211182E-32
   0.1002189173548509E+01
  -0.3436760424350938E-32
   0.9947119516657796E+00
  -0.2540548438197235E-32
   0.9937839726277120E+00
  -0.4015507868370218E-32
   0.1004862069492930E+01
  -0.4292928113530947E-32
   0.1020102936792266E+01
  -0.6053983622759977E-32
   0.1005341234469827E+01
  -0.5968957479964091E-32
   0.9817063602251336E+00
  -0.5615513579131479E-32
   0.1004975501316069E+01
  -0.3994120839766693E-32
   0.1012376568799990E+01
  -0.5277648236843250E-32
   0.9873747463035467E+00
  -0.7843820475109104E-32
   0.9551282273419808E+00
  -0.8350323484422912E-32
   0.9865280377107413E+00
  -0.5378876831337246E-32
   0.9865952834682178E+00
  -0.5063248219245473E-32
   0.9920084247584019E+00
  -0.7485002236723705E-32
   0.9934470867358443E+00
  -0.5277719612003149E-32
   0.9960657347932461E+00
  -0.9739518566831092E-32
   0.1037405690945882E+01
  -0.6694040562672212E-32
   0.1033165796359993E+01
  -0.8678568212511042E-32
   0.1001443358522181E+01
  -0.2599360240238717E-32
   0.1001929574694247E+01
  -0.3937259239467187E-32
   0.9912286695088803E+00
  -0.2790246834449680E-32
   0.9911121699048085E+00
  -0.3823041274896797E-32
   0.9649300818469607E+00
  -0.4041450281338020E-32
   0.9933729919861647E+00
  -0.2736799033127023E-32
   0.1006089075222441E+01
  -0.2184978499427481E-32
   0.1001962081102819E+01
  -0.2368728939186432E-32
   0.9908628495390752E+00
  -0.4481103391918212E-32
   0.9742274498354311E+00
  -0.4462037845943311E-32
   0.9420781789449788E+00
  -0.4485990071736466E-32
   0.9821604772332190E+00
  -0.5694350232690404E-32
   0.9794777370735095E+00
  -0.4100977741735607E-32
   0.9704352201076700E+00
  -0.7560626667064300E-32
   0.9720842372842574E+00
  -0.5717680417413218E-32
   0.9557868492440041E+00
  -0.3778160447388366E-32
   0.9497981759251908E+00
  -0.4210671569612991E-32
   0.9529847958936101E+00
  -0.5731104382518831E-32
   0.1002637256727254E+01
  -0.4633376583965698E-32
   0.1002476301941974E+01
  -0.4145067301063076E-32
   0.1000513242356333E+01
  -0.3057156416878663E-32
   0.1001675738166204E+01
  -0.2265050402278361E-32
   0.9610108166358690E+00
  -0.5988027532018686E-32
   0.9492469481875326E+00
  -0.5409111210355173E-32
   0.9586432518147557E+00
  -0.5807820831400373E-32
   0.1001121462656867E+01
  -0.3983725237277958E-32
   0.1000500591059681E+01
  -0.3403770665674435E-32
   0.1001161102780586E+01
  -0.2840455445431129E-32
   0.9807429277626273E+00
  -0.4904356637539730E-32
   0.9805608284434728E+00
  -0.7434919359591688E-32
   0.9629214374677297E+00
  -0.6256264382495541E-32
SCALARS u double 1
LOOKUP_TABLE default
   0.0000000000000000E+00
   0.0000000000000000E+00
   0.0000000000000000E+00
   0.0000000000000000E+00
   0.0000000000000000E+00
   0.0000000000000000E+00
   0.0000000000000000E+00
   0.0000000000000000E+00
   0.0000000000000000E+00
   0.0000000000000000E+00
   0.0000000000000000E+00
   0.0000000000000000E+00
   0.0000000000000000E+00
   0.0000000000000000E+00
   0.0000000000000000E+00
   0.0000000000000000E+00
   0.0000000000000000E+00
   0.0000000000000000E+00
   0.0000000000000000E+00
   0.0000000000000000E+00
   0.0000000000000000E+00
   0.0000000000000000E+00
   0.0000000000000000E+00
   0.0000000000000000E+00
   0.0000000000000000E+00
   0.0000000000000000E+00
   0.0000000000000000E+00
   0.0000000000000000E+00
   0.0000000000000000E+00
   0.0000000000000000E+00
   0.0000000000000000E+00
   0.0000000000000000E+00
   0.0000000000000000E+00
   0.0000000000000000E+00
   0.0000000000000000E+00
   0.0000000000000000E+00
   0.0000000000000000E+00
   0.0000000000000000E+00
   0.0000000000000000E+00
   0.0000000000000000E+00
   0.0000000000000000E+00
   0.0000000000000000E+00
   0.0000000000000000E+00
   0.0000000000000000E+00
   0.0000000000000000E+00
   0.0000000000000000E+00
   0.0000000000000000E+00
   0.0000000000000000E+00
   0.0000000000000000E+00
   0.0000000000000000E+00
   0.0000000000000000E+00
   0.0000000000000000E+00
   0.0000000000000000E+00
   0.0000000000000000E+00
   0.0000000000000000E+00
   0.0000000000000000E+00
   0.0000000000000000E+00
   0.0000000000000000E+00
   0.0000000000000000E+00
   0.0000000000000000E+00
   0.0000000000000000E+00
   0.0000000000000000E+00
   0.0000000000000000E+00
   0.0000000000000000E+00
   0.0000000000000000E+00
   0.0000000000000000E+00
   0.4946084288066906E+00
  -0.3607383279355659E-32
   0.5336296240044631E+00
  -0.2465022482311703E-32
   0.5182737276176329E+00
  -0.6793493283991906E-33
   0.4930696991469321E+00
   0.2805588891821278E-33
   0.4847718153837878E+00
   0.4136102892654556E-32
   0.4868108141525208E+00
   0.5380156783897287E-32
   0.4891429103557531E+00
   0.4875803435900086E-32
   0.4958014371831294E+00
   0.3021816219675877E-32
   0.4899016129300648E+00
   0.4177372740827846E-32
   0.4718097597075300E+00
   0.6037787201804008E-32
   0.4448926899506453E+00
   0.7256591082621851E-32
   0.4844425909444610E+00
   0.3470773566159960E-32
   0.5097672062993885E+00
   0.2751604018824868E-32
   0.4402157098136520E+00
  -0.3320468189780208E-32
   0.4949584585353619E+00
   0.4587853059565662E-32
   0.5222981755743817E+00
   0.5249877261024740E-32
   0.4962761334481105E+00
   0.5256359720457983E-32
   0.5223877812469994E+00
   0.6105980464915861E-32
   0.5038134101137339E+00
   0.4933159826586955E-32
   0.5644352144688577E+00
   0.1633554934074407E-32
   0.5245862230395307E+00
   0.4006046451084058E-32
   0.4990946937091738E+00
   0.4539083664661424E-32
   0.5729384845425713E+00
  -0.1104611457525881E-33
   0.5693720707819517E+00
  -0.1893091688202522E-32
   0.3752129679955802E+00
  -0.9910432027708744E-33
   0.4003935339784951E+00
  -0.2714261603311186E-32
   0.5599622499877278E+00
   0.2587615132054762E-32
   0.5562276756284071E+00
   0.3796526443329078E-32
   0.4942631205851854E+00
   0.1100566776766631E-33
   0.4948654065908377E+00
   0.8060932056064669E-34
   0.4925634788359980E+00
   0.2456604314789762E-33
   0.4913991782650396E+00
   0.2540322931718212E-33
   0.5162611628352032E+00
  -0.7698034220786513E-33
   0.5363588932802701E+00
  -0.2447204035525305E-32
   0.4951213600741884E+00
  -0.3521747203562735E-32
   0.4520531571145995E+00
  -0.3059476238535705E-32
   0.5129024770780292E+00
  -0.6462183975699289E-33
   0.5117690501124428E+00
  -0.3241504720526565E-33
   0.4786251288789979E+00
  -0.3303462186163373E-32
   0.4931155291546480E+00
  -0.3284702550383967E-32
   0.4600306964864850E+00
  -0.2788918188148983E-32
   0.5242629206354542E+00
  -0.3609803330197644E-32
   0.5299866667929025E+00
  -0.2967022484339825E-32
   0.5129711986501777E+00
  -0.5262955853583900E-33
   0.5328938855303068E+00
  -0.1811708308018535E-32
   0.5309772095342765E+00
  -0.1596069678460142E-32
   0.5309771249529389E+00
  -0.1133202362363746E-32
   0.5063651397080281E+00
  -0.5095992979818264E-33
   0.5279605778975981E+00
  -0.3424598705430641E-32
   0.5409254476436602E+00
  -0.1895523863965680E-32
   0.5363677254855505E+00
  -0.3353880468883106E-32
   0.5374194373094170E+00
  -0.2885125854326486E-32
   0.4965359092443791E+00
   0.2760998524678399E-32
   0.4975361619355017E+00
   0.2686070738522732E-32
   0.4963807508688584E+00
   0.2768708416301552E-32
   0.4955144774005085E+00
   0.2969916864839727E-32
   0.4904151885727291E+00
   0.4771575346670615E-32
   0.4902491480062808E+00
   0.5281544047335386E-32
   0.4861626495246380E+00
   0.3913834858557295E-32
   0.4854037801485279E+00
   0.3607704999174909E-32
   0.4931941381998874E+00
   0.4185961526031312E-32
   0.4910329240355505E+00
   0.4433195525546955E-32
   0.4831698325820048E+00
   0.3649963153239097E-32
   0.4872469651369153E+00
   0.3467860302168643E-32
   0.4880011036160897E+00
   0.2930664848549721E-32
   0.4872294067061976E+00
   0.5089282783010881E-32
   0.4882160209555116E+00
   0.5099764280222730E-32
   0.4952567367684880E+00
   0.3766094476733386E-32
   0.4900705810675412E+00
   0.5244610751260987E-32
   0.4903581268150015E+00
   0.5266079332182348E-32
   0.4944346865137111E+00
   0.4084657285077799E-32
   0.4868163409735719E+00
   0.5048038571371013E-32
   0.4892720570608004E+00
   0.5396211163798925E-32
   0.4881455391270939E+00
   0.5393404493502224E-32
   0.4878245201302841E+00
   0.5106889088914509E-32
   0.4449022017415928E+00
   0.7268772417990400E-32
   0.4700099664577168E+00
   0.6046674786684171E-32
   0.4891756201211054E+00
   0.4249559003965407E-32
   0.4885980864864492E+00
   0.3779646155327450E-32
   0.4510286416887113E+00
   0.6971803367910107E-32
   0.4681799612349454E+00
   0.7060117147478591E-32
   0.4876648972579122E+00
   0.3927189010068678E-32
   0.4868253756473969E+00
   0.3666905838195061E-32
   0.4909267529966697E+00
   0.3420309116866195E-32
   0.4793946318471046E+00
   0.5107583377215949E-32
   0.4657884654883462E+00
   0.5862537701064741E-32
   0.3794302311558580E+00
   0.7296152653320827E-32
   0.4903697418704638E+00
   0.7230864100007060E-32
   0.4487929174628875E+00
   0.7024337396112527E-32
   0.4432385352858778E+00
   0.7388120726848933E-32
   0.4845729178252184E+00
   0.5092449247633101E-32
   0.4621884479283320E+00
   0.6649248742851306E-32
   0.4663602298190058E+00
   0.7123693684621986E-32
   0.4747774268303701E+00
   0.5571550592931460E-32
   0.4893613110767293E+00
   0.3054823745921045E-32
   0.5085681490922508E+00
   0.2624512708972321E-32
   0.4304904288257262E+00
  -0.3168526972383040E-32
   0.4927280753218780E+00
   0.4554831429655445E-32
   0.5320316186758826E+00
   0.5237398622900827E-32
   0.4913826502372783E+00
   0.5321048496705638E-32
   0.5209404403072646E+00
   0.5870863783095809E-32
   0.5061319832956309E+00
   0.4869505563436602E-32
   0.5690636322041439E+00
   0.1582839202636209E-32
   0.5275039926260476E+00
   0.3914318627312906E-32
   0.5015047803208904E+00
   0.4327611303520267E-32
   0.5821373616811607E+00
  -0.2805214607313202E-33
   0.5691503699097444E+00
  -0.1848777516858463E-32
   0.3402452489885628E+00
  -0.1556042368848376E-32
   0.3785432683426946E+00
  -0.2577146893717721E-32
   0.5753091280442504E+00
   0.2705170261609395E-32
   0.5668547248457133E+00
   0.3830471725086214E-32
   0.5703055450637330E+00
   0.3986172056835793E-32
   0.5291879659651821E+00
   0.5224543556371202E-32
   0.5449833827745675E+00
   0.5468110260757183E-32
   0.5719093998686581E+00
   0.4826163715937302E-32
   0.5385694586285612E+00
   0.6616335206512006E-32
   0.5475896935343091E+00
   0.5618753285531329E-32
   0.5821565651456738E+00
   0.3600789495754362E-32
   0.4925313044792140E+00
   0.5207969964967641E-32
   0.5041557173881394E+00
   0.5013841273686062E-32
   0.4961299802843990E+00
   0.5364508830152648E-32
   0.5562803684031340E+00
   0.4817565680167611E-32
   0.4757814623177611E+00
   0.1613543991879277E-32
   0.4950174787826157E+00
   0.4928606065534551E-32
   0.5496174669322762E+00
   0.4284599567765910E-32
   0.5889519109029275E+00
   0.6118467505686168E-33
   0.5839568632456705E+00
   0.2241903609054047E-32
   0.5468163490180831E+00
   0.3516097878550942E-32
   0.5803877177589787E+00
  -0.3399719283278407E-33
   0.5106055686408519E+00
   0.4849788773508897E-32
   0.5029532232498263E+00
   0.5118273729295737E-32
   0.5033085366581584E+00
   0.4090058579194685E-32
   0.5676232051079290E+00
   0.6251320120514584E-33
   0.5564629524612571E+00
   0.4139140043980301E-32
   0.4947135439100525E+00
   0.4851212265324745E-32
   0.5506799460670068E+00
   0.6374408514147071E-32
   0.5513545695817277E+00