# vtk DataFile Version 2.0
FUN3D:global_image_vtk
ASCII
DATASET UNSTRUCTURED_GRID
POINTS 213 double
   -0.5474685438220378E-02    0.6000412921608746E-38    0.2504941971165485E+01
   -0.5644967066500190E-38    0.8038139422762532E-04    0.1395672088846064E-36
    0.1245419105186371E+01    0.4869738674535618E-38    0.2504941971165485E+01
   -0.5644967066500190E-38    0.1039425138644863E-03    0.1354408397947713E-36
    0.2497696093130314E+01    0.2052787143230478E-38    0.2504941971165485E+01
   -0.5644967066500190E-38    0.1101298243366249E-03    0.1306469787297797E-36
    0.3750590968915476E+01   -0.1764719019653490E-38    0.2504941971165485E+01
   -0.5644967066500190E-38    0.1356499081121677E-03    0.1251713877367915E-36
    0.5003221331740107E+01   -0.5152268373728534E-38    0.2504941971165485E+01
   -0.5644967066500190E-38    0.9668873779223858E-04    0.1195915328960362E-36
    0.5004676687976414E+01   -0.5546559512678613E-38    0.1281291202155760E+01
   -0.3358006494936503E-37    0.1638053072885527E-03    0.8690859023040105E-37
    0.5004772673775726E+01   -0.4378250794313364E-38    0.2775079905532352E-01
   -0.2993195240360011E-37    0.1903478042348855E-03    0.5524850299824663E-37
    0.5003581183339734E+01   -0.2211942316460384E-38   -0.1225853508891393E+01
   -0.2652859114566281E-37    0.1607765219613944E-03    0.2443328609373475E-37
    0.5001952533741638E+01    0.4987447425049866E-40   -0.2496589036642705E+01
   -0.4033009466199848E-38    0.1082258886783144E-03   -0.6201331643531841E-38
    0.3750348111606489E+01    0.1061914135803625E-38   -0.2496589036642705E+01
   -0.4033009466199848E-38    0.1458753694181798E-03   -0.4048935371930976E-38
    0.2498611462995409E+01    0.2230026133040890E-38   -0.2496589036642705E+01
   -0.4033009466199848E-38    0.1008933262504061E-03   -0.2141119587758071E-38
    0.1247175269334221E+01    0.3290598777212299E-38   -0.2496589036642705E+01
   -0.4033009466199848E-38    0.1108587618248722E-03   -0.9967324068508516E-40
   -0.3383959864650786E-02    0.3627443879764055E-38   -0.2496589036642705E+01
   -0.4033009466199848E-38    0.8107259628287175E-04    0.2470199719015238E-38
   -0.4257768977921736E-02    0.4738165021860108E-38   -0.1225734811649803E+01
   -0.2887208802253745E-37    0.3415458946310084E-04    0.3608475168289550E-37
   -0.5251592445769222E-02    0.6055797998306357E-38    0.2619486023614184E-01
   -0.3090076141234751E-37    0.1038724427952002E-03    0.7040058342888663E-37
   -0.5676060309057091E-02    0.6647218493999416E-38    0.1278221569056601E+01
   -0.3329261650137428E-37    0.8224602318869025E-04    0.1050347446962341E-36
    0.9003209617986507E+00    0.6484262052361572E-38    0.1608979112269836E+01
   -0.3526279560266708E-37    0.8704141386535046E-04    0.1112273581442345E-36
    0.3983172210691885E+01    0.3438857404785312E-40   -0.1561211904847755E+01
   -0.2636070010277657E-37    0.1757116731316859E-03    0.1834465617972254E-37
    0.4035602039223491E+01   -0.2181267615045801E-38    0.1486760030402970E+01
   -0.3718809566782002E-37    0.1713312920512774E-03    0.9608656162925571E-37
    0.1036613723304493E+01    0.4272867607458175E-38   -0.1455626429924349E+01
   -0.2869903494775345E-37    0.1047189316913966E-03    0.2720315814831559E-37
    0.1094353480633342E+01    0.5780068488470866E-38   -0.2964622010757068E+00
   -0.3103403043537321E-37    0.1260590270850730E-03    0.5825500488173162E-37
    0.7298400267511740E+00    0.6609893172539130E-38    0.6874684746626467E+00
   -0.3305630112399251E-37    0.1044598691298323E-03    0.8639298017076617E-37
    0.1617018659311988E+01    0.6269696538053207E-38    0.8553208024835466E+00
   -0.3479974413652141E-37    0.1529810956990639E-03    0.8810845627399321E-37
    0.2143199662876899E+01    0.3220541080211777E-38   -0.1627128509224140E+01
   -0.2758157308088742E-37    0.1606170436689330E-03    0.2019859634128505E-37
    0.4088840445399777E+01   -0.1694199790993875E-38   -0.4351047826026337E+00
   -0.2954526549049557E-37    0.2719933321609953E-03    0.4617487414034127E-37
    0.2977916511249719E+01    0.2339169824616061E-38   -0.8334991483176304E+00
   -0.2869252036783891E-37    0.2245596954615936E-03    0.3877295872717671E-37
    0.3044093241383833E+01    0.1822731898603002E-38   -0.1814361225115967E+01
   -0.2682869973046972E-37    0.1617000120309198E-03    0.1372785791678155E-37
    0.3427866614805438E+01    0.8990170267857585E-39    0.3813904839861606E+00
   -0.3468037393459268E-37    0.2936955524489642E-03    0.6905972887512269E-37
    0.4313225355349885E+01   -0.3476418034149841E-38    0.5489133376232677E+00
   -0.3353692497831972E-37    0.2313009616356006E-03    0.7057018664687262E-37
    0.1823032737599954E+01    0.4851292608435038E-38    0.1771265193532500E+01
   -0.3756460386651695E-37    0.1836202953969899E-03    0.1124939757302140E-36
    0.2806311152169731E+01    0.2638563415888916E-38    0.1358629373588292E+01
   -0.3808039546901195E-37    0.1943492222277829E-03    0.9753305190824146E-37
    0.1891860875938629E+01    0.4662023241937005E-38   -0.8481310365690163E+00
   -0.2979818965323167E-37    0.1670645525753169E-03    0.4117281016788242E-37
    0.2268769200169218E+01    0.5166768676642130E-38    0.7723691818209835E-01
   -0.3307444001422729E-37    0.2072307821279818E-03    0.6484205883073398E-37
    0.5000000000000000E+01    0.8235180077732130-158    0.2504941971165485E+01
   -0.5644967066500190E-38    0.1250000000000000E+01    0.8235180077732130-158
    0.5000000000000000E+01    0.8235180077732130-158    0.2504941971165485E+01
   -0.5644967066500190E-38    0.2500000000000000E+01    0.8235180077732130-158
    0.5000000000000000E+01    0.8235180077732130-158    0.2504941971165485E+01
   -0.5644967066500190E-38    0.3750000000000000E+01    0.8235180077732130-158
    0.5000000000000000E+01    0.8235180077732130-158    0.2504941971165485E+01
   -0.5644967066500190E-38    0.5000000000000000E+01    0.8235180077732130-158
    0.3750000000000000E+01    0.8235180077732130-158    0.2504941971165485E+01
   -0.5644967066500190E-38    0.5000000000000000E+01    0.8235180077732130-158
    0.2500000000000000E+01    0.8235180077732130-158    0.2504941971165485E+01
   -0.5644967066500190E-38    0.5000000000000000E+01    0.8235180077732130-158
    0.1250000000000000E+01    0.8235180077732130-158    0.2504941971165485E+01
   -0.5644967066500190E-38    0.5000000000000000E+01    0.8235180077732130-158
    0.2288957520893580-127    0.8235180077732130-158    0.2504941971165485E+01
   -0.5644967066500190E-38    0.5000000000000000E+01    0.8235180077732130-158
    0.2288957520893580-127    0.8235180077732130-158    0.2504941971165485E+01
   -0.5644967066500190E-38    0.3750000000000000E+01    0.8235180077732130-158
    0.2288957520893580-127    0.8235180077732130-158    0.2504941971165485E+01
   -0.5644967066500190E-38    0.2500000000000000E+01    0.8235180077732130-158
    0.2288957520893580-127    0.8235180077732130-158    0.2504941971165485E+01
   -0.5644967066500190E-38    0.1250000000000000E+01    0.8235180077732130-158
    0.9588956434896692E+00    0.9082491636607064E-38    0.2504941971165485E+01
   -0.5644967066500190E-38    0.9696525519578318E+00    0.9559467360859486E-37
    0.3981953078951595E+01    0.3820258818016928E-38    0.2504941971165485E+01
   -0.5644967066500190E-38    0.4070563854751879E+01    0.1341709263715334E-37
    0.4036122187252053E+01   -0.1129398321131183E-38    0.2504941971165485E+01
   -0.5644967066500190E-38    0.1017567520098702E+01    0.9236677703801775E-37
    0.9637572773153283E+00   -0.3257192105341214E-38    0.2504941971165485E+01
   -0.5644967066500190E-38    0.3973598203142784E+01    0.1464220569049539E-37
    0.1546540136992696E+01   -0.3132873802093749E-38    0.2504941971165485E+01
   -0.5644967066500190E-38    0.2931570169317360E+01    0.4495967339132169E-37
    0.6973799521245158E+00   -0.5353959817030314E-38    0.2504941971165485E+01
   -0.5644967066500190E-38    0.3070319952454721E+01    0.2599160770825954E-37
    0.8903742148364540E+00   -0.4497418377394619E-38    0.2504941971165485E+01
   -0.5644967066500190E-38    0.2056562238189727E+01    0.5266746661702925E-37
    0.2183041995146080E+01   -0.6476633608778087E-39    0.2504941971165485E+01
   -0.5644967066500190E-38    0.3960694449828992E+01    0.2332909015941036E-37
    0.3855844872710175E+01    0.6381975443659283E-38    0.2504941971165485E+01
   -0.5644967066500190E-38    0.2933250588120181E+01    0.3433229127572180E-37
    0.3152611367438256E+01    0.3352134238232621E-38    0.2504941971165485E+01
   -0.5644967066500190E-38    0.3637668388417447E+01    0.2850229187059158E-37
    0.3103307385242002E+01    0.2065207883368168E-38    0.2504941971165485E+01
   -0.5644967066500190E-38    0.4332607813100358E+01    0.1432970939771610E-37
    0.3266711045518477E+01    0.4998291465419081E-38    0.2504941971165485E+01
   -0.5644967066500190E-38    0.1889656617467323E+01    0.7498000233067805E-37
    0.4232537554485033E+01    0.7698570880788865E-38    0.2504941971165485E+01
   -0.5644967066500190E-38    0.1918626969804105E+01    0.4149907950455089E-37
    0.1905522374039041E+01    0.7460902263094377E-38    0.2504941971165485E+01
   -0.5644967066500190E-38    0.7226290832187831E+00    0.1156657912195839E-36
    0.2879767723646653E+01    0.2265325138082280E-38    0.2504941971165485E+01
   -0.5644967066500190E-38    0.9080945892241978E+00    0.1152052735504027E-36
    0.2012711365065439E+01    0.8985979135501003E-39    0.2504941971165485E+01
   -0.5644967066500190E-38    0.1767082390981645E+01    0.8589194414063260E-37
    0.2669681472994992E+01    0.2217013327056535E-38    0.2504941971165485E+01
   -0.5644967066500190E-38    0.2853394335013178E+01    0.5209332690799838E-37
    0.5000000000000000E+01    0.8235180077732130-158    0.1250000000000000E+01
    0.8235180077732130-158    0.5000000000000000E+01    0.8235180077732130-158
    0.5000000000000000E+01    0.8235180077732130-158    0.2288957520893580-127
[...]
POINT_DATA 213
SCALARS rho double 1
LOOKUP_TABLE default
   0.1346125454360896E+01
  -0.1915296937208842E-31
   0.9572079205534795E+00
  -0.1258421548128001E-31
   0.9461014736277610E+00
  -0.8906146715071957E-32
   0.9421827736983261E+00
  -0.6541362052781085E-32
   0.8436099992105754E+00
  -0.4681669440225773E-32
   0.7742020247622041E+00
  -0.4232969049332572E-32
   0.7627627011116552E+00
  -0.4302245762143818E-32
   0.7661484593117263E+00
  -0.4065491012691268E-32
   0.8310478321318692E+00
  -0.4619532978094967E-32
   0.9353607034245986E+00
  -0.6085687008103153E-32
   0.9344031120076116E+00
  -0.8516191469463759E-32
   0.9615892382471516E+00
  -0.1279970753713161E-31
   0.1448479787103926E+01
  -0.2064750731880241E-31
   0.1495421336096594E+01
  -0.1967264619750221E-31
   0.1646754521666388E+01
  -0.2240358370664248E-31
   0.1426607839874518E+01
  -0.1860880425040962E-31
   0.1009807573816493E+01
  -0.1414568307382332E-31
   0.9511452825525890E+00
  -0.6232673615296227E-32
   0.9438288711646960E+00
  -0.6022993943411822E-32
   0.9574484739496923E+00
  -0.1349588631262085E-31
   0.9414827255315195E+00
  -0.1325578740079696E-31
   0.1037117790867854E+01
  -0.1512911056625977E-31
   0.9258141540399015E+00
  -0.1094957149493552E-31
   0.9322491003178442E+00
  -0.9890905575144606E-32
   0.9538138719200926E+00
  -0.6158236701495640E-32
   0.9520435504485328E+00
  -0.7648370101250970E-32
   0.9350967944496031E+00
  -0.7093267314963179E-32
   0.9565535531571617E+00
  -0.6588391779042128E-32
   0.9378698049107934E+00
  -0.5581956198043192E-32
   0.9303313051011903E+00
  -0.1036755408237399E-31
   0.9446511010117816E+00
  -0.8062861783995091E-32
   0.8862346329882103E+00
  -0.1014670893353628E-31
   0.9424042956948295E+00
  -0.9130113669151183E-32
   0.9637263019559668E+00
  -0.3592543947735805E-32
   0.1008361093341167E+01
  -0.1854171644033028E-32
   0.1006714601742437E+01
  -0.1237335687233206E-32
   0.1001957227129335E+01
  -0.1585812607869975E-32
   0.1003216267351406E+01
  -0.3140320209543016E-32
   0.1004119991831417E+01
  -0.3867014576258907E-32
   0.1005207394753892E+01
  -0.3570443520177003E-32
   0.1004249481297230E+01
  -0.2818980911358005E-32
   0.1008267466127062E+01
  -0.4191010584159269E-32
   0.1023866978502907E+01
  -0.6121681836017269E-32
   0.1063751299164758E+01
  -0.7269631909043421E-32
   0.1019385865030526E+01
  -0.9081337811846765E-32
   0.1001779990483926E+01
  -0.2763356619094650E-32
   0.9646034864102214E+00
  -0.5083885550687684E-32
   0.1005262617071170E+01
  -0.4248078305285166E-32
   0.1000745002694052E+01
  -0.5310809529559280E-32
   0.1008694639507012E+01
  -0.5352696363246146E-32
   0.1008032001985110E+01
  -0.6447722749508440E-32
   0.1002353917090202E+01
  -0.4298622727939296E-32
   0.9980214296631732E+00
  -0.3073344289405353E-32
   0.1000593677782248E+01
  -0.3743711429714345E-32
   0.1001621102764519E+01
  -0.3724519784337071E-32
   0.9828102828420699E+00
  -0.4684355245974581E-32
   0.9844015540805543E+00
  -0.3565618108469390E-32
   0.9834287593221962E+00
  -0.8300342828738975E-32
   0.9790444718619503E+00
  -0.6701565999646198E-32
   0.9904791730495615E+00
  -0.5984007718548672E-32
   0.9935219554097986E+00
  -0.4531264889589133E-32
   0.1002005912281244E+01
  -0.1495756003312528E-32
   0.1002129762839726E+01
  -0.1461103287982994E-32
   0.1002270576621184E+01
  -0.1515533756368362E-32
   0.1001791040982982E+01
  -0.1676432666359929E-32
   0.1009816718739974E+01
  -0.1215205274664365E-32
   0.1006498993062908E+01
  -0.1860117773610624E-32
   0.9560848434857410E+00
  -0.3494810755709279E-32
   0.9253012016800335E+00
  -0.3952573911209575E-32
   0.1007054177969389E+01
  -0.1042876161246527E-32
   0.1004493323136333E+01
  -0.1233620899909739E-32
   0.9144889449776866E+00
  -0.3664871713203568E-32
   0.9091483226783916E+00
  -0.3590053926925028E-32
   0.8752503710203927E+00
  -0.3988162694956731E-32
   0.9768030240990867E+00
  -0.2890238484103014E-32
   0.1000529478145922E+01
  -0.2344158407157171E-32
   0.1005827574269861E+01
  -0.9931793076713922E-33
   0.1012895348477563E+01
  -0.1201866890933110E-32
   0.1011677619126046E+01
  -0.1373473978588457E-32
   0.1010416996555257E+01
  -0.9412914034733783E-33
   0.1005458122506565E+01
  -0.9716380361027780E-33
   0.9909254958091560E+00
  -0.2743781792000788E-32
   0.1005151469592815E+01
  -0.1498774885155196E-32
   0.9860797649686619E+00
  -0.2623707209391662E-32
   0.1005591647232864E+01
  -0.1809582107414861E-32
   0.1004239622627894E+01
  -0.2668670694992391E-32
   0.1002886063199611E+01
  -0.2592278380840737E-32
   0.1003350589911190E+01
  -0.2623544898557202E-32
   0.1003999119705321E+01
  -0.2736046571511917E-32
   0.1005116222815116E+01
  -0.3551568480049910E-32
   0.1003223768978043E+01
  -0.3862038330454087E-32
   0.1002666993807762E+01
  -0.3210879789336210E-32
   0.1002586367999518E+01
  -0.2933400355009587E-32
   0.1004069607282398E+01
  -0.3185237664242833E-32
   0.1004304329840579E+01
  -0.3279346898227004E-32
   0.1001640907911230E+01
  -0.3099478071980510E-32
   0.1002276135906063E+01
  -0.2973606650633483E-32
   0.1002543450514312E+01
  -0.2692579023706924E-32
   0.1003470977730093E+01
  -0.3708812157254135E-32
   0.1003380028913719E+01
  -0.3776428725913979E-32
   0.1003233377682755E+01
  -0.2983917029763369E-32
   0.1004430341166555E+01
  -0.3900131909448359E-32
   0.1004325066833265E+01
  -0.3860180246223363E-32
   0.1003653095066608E+01
  -0.3095807261026514E-32
   0.1003718521447363E+01
  -0.3607056401726306E-32
   0.1004318494974712E+01
  -0.3864711125483062E-32
   0.1004462314019914E+01
  -0.3917398645419912E-32
   0.1003628846041717E+01
  -0.3738515478151045E-32
   0.1064490588035804E+01
  -0.7270375128820659E-32
   0.1028445288979269E+01
  -0.6199651670007014E-32
   0.1009607275676376E+01
  -0.4240134068524996E-32
   0.1006626410126491E+01
  -0.3807688460034593E-32
   0.1163978993451519E+01
  -0.8204101365124029E-32
   0.1086025648663079E+01
  -0.6815358018517441E-32
   0.1007907990623810E+01
  -0.3977695683605821E-32
   0.1007252228687458E+01
  -0.3797060432256184E-32
   0.1006796438381007E+01
  -0.3523972028591911E-32
   0.1013053148582670E+01
  -0.5239260278656138E-32
   0.1019342089531943E+01
  -0.5795378628326282E-32
   0.1235143522487757E+01
  -0.9592972471635655E-32
   0.1032535975472094E+01
  -0.6571832956378172E-32
   0.1046567126754945E+01
  -0.7493974304180977E-32
   0.1201702752275803E+01
  -0.8704023451829810E-32
   0.1014670679344046E+01
  -0.5138869761819336E-32
   0.1032294773987267E+01
  -0.6747061163377913E-32
   0.1028221590936144E+01
  -0.7307863529986965E-32
   0.1014640927105596E+01
  -0.5656295359678028E-32
   0.1029001810682139E+01
  -0.8710244981489758E-32
   0.1002003312166363E+01
  -0.2781597886810007E-32
   0.9607837305031000E+00
  -0.5121025381453715E-32
   0.1006859117215298E+01
  -0.4264408545973798E-32
   0.1001326474821107E+01
  -0.5137738331861039E-32
   0.1010800235433843E+01
  -0.5418285192308952E-32
   0.1012236850262092E+01
  -0.6418964149190974E-32
   0.1000939943874624E+01
  -0.4332498602918796E-32
   0.9979314618385529E+00
  -0.3116698412967230E-32
   0.9980677399770358E+00
  -0.3808978594129495E-32
   0.1001191213563979E+01
  -0.3689003719531633E-32
   0.9841980829902623E+00
  -0.4691466668779326E-32
   0.9815067511508436E+00
  -0.3540620077022256E-32
   0.9648652455289688E+00
  -0.8332490557265533E-32
   0.9680709021623335E+00
  -0.6459970466007022E-32
   0.9914146138865266E+00
  -0.5933869934888608E-32
   0.9910913331856817E+00
  -0.4512849422184833E-32
   0.9925593323750211E+00
  -0.4327530758090381E-32
   0.1001727918554922E+01
  -0.4663900124926600E-32
   0.9993245279874913E+00
  -0.5005243479032211E-32
   0.9941439642511879E+00
  -0.5557010704899287E-32
   0.1006980890397610E+01
  -0.5873538648712378E-32
   0.1022611230404632E+01
  -0.7015728881033166E-32
   0.1001121384871316E+01
  -0.6459827309191644E-32
   0.1008783719623816E+01
  -0.4976815977870204E-32
   0.1004774503540500E+01
  -0.4686589873137034E-32
   0.1009028955361844E+01
  -0.5305690904989987E-32
   0.9967193981643886E+00
  -0.6224509044873988E-32
   0.1005567262210175E+01
  -0.9781668106709318E-32
   0.1003325198910089E+01
  -0.4133909215626802E-32
   0.9949860508375193E+00
  -0.4369373171047741E-32
   0.9833519219379181E+00
  -0.4082280114400209E-32
   0.9944515319495629E+00
  -0.3826203128608447E-32
   0.9973477162092202E+00
  -0.3452651799741475E-32
   0.9932512209064241E+00
  -0.2778747628410002E-32
   0.1001311805429710E+01
  -0.4018462673753527E-32
   0.1003000816947984E+01
  -0.4165734819367206E-32
   0.1002188605836579E+01
  -0.3436655901028193E-32
   0.9947117922476253E+00
  -0.2540514684142730E-32
   0.9937835385863470E+00
  -0.4015429491942849E-32
   0.1004861554050313E+01
  -0.4292823593377665E-32
   0.1020102516298501E+01
  -0.6053921985140997E-32
   0.1005340863912896E+01
  -0.5968901371526785E-32
   0.9817060331542052E+00
  -0.5615463675584857E-32
   0.1004974968539026E+01
  -0.3994017757958950E-32
   0.1012375958217302E+01
  -0.5277543550363695E-32
   0.9873744378731287E+00
  -0.7843776198728860E-32
   0.9551278205973119E+00
  -0.8350242325329374E-32
   0.9865276070160789E+00
  -0.5378815619472686E-32
   0.9865949037610245E+00
  -0.5063196267963824E-32
   0.9920079412499296E+00
  -0.7484948314169047E-32
   0.9934467303228723E+00
  -0.5277666657047098E-32
   0.9960652825364505E+00
  -0.9739435254198905E-32
   0.1037405376054711E+01
  -0.6693998300609864E-32
   0.1033165378584490E+01
  -0.8678514563780138E-32
   0.1001443753497198E+01
  -0.2599498254604868E-32
   0.1001928900081339E+01
  -0.3937144644643649E-32
   0.9912281114739698E+00
  -0.2790186146639644E-32
   0.9911116184477007E+00
  -0.3822937724529638E-32
   0.9649294083661151E+00
  -0.4041430762607768E-32
   0.9933725173112101E+00
  -0.2736739718279819E-32
   0.1006089122347320E+01
  -0.2184994242635742E-32
   0.1001962016695282E+01
  -0.2368752913480234E-32
   0.9908622925326347E+00
  -0.4481011660028880E-32
   0.9742274017853265E+00
  -0.4462056351499358E-32
   0.9420783511479057E+00
  -0.4486083934148869E-32
   0.9821600015493790E+00
  -0.5694314486340481E-32
   0.9794772574050913E+00
  -0.4100907810335417E-32
   0.9704349919233587E+00
  -0.7560563998526674E-32
   0.9720836519131540E+00
  -0.5717640047823230E-32
   0.9557866598809469E+00
  -0.3778136989101326E-32
   0.9497982863221929E+00
  -0.4210622400352297E-32
   0.9529849106635069E+00
  -0.5731055122803379E-32
   0.1002636652519912E+01
  -0.4633293400982855E-32
   0.1002475606920383E+01
  -0.4144916143596301E-32
   0.1000512975302918E+01
  -0.3057117650783316E-32
   0.1001675829383692E+01
  -0.2265072864734936E-32
   0.9610102005823520E+00
  -0.5988104483874804E-32
   0.9492478702272450E+00
  -0.5409012918096062E-32
   0.9586434400030996E+00
  -0.5807750538398944E-32
   0.1001121233920835E+01
  -0.3983643285872609E-32
   0.1000500337329207E+01
  -0.3403697699215669E-32
   0.1001160655471282E+01
  -0.2840344400318491E-32
   0.9807426279424479E+00
  -0.4904295639656066E-32
   0.9805603111405605E+00
  -0.7434841046301090E-32
   0.9629216562391223E+00
  -0.6256240937214743E-32
SCALARS u double 1
LOOKUP_TABLE default
   0.0000000000000000E+00
   0.0000000000000000E+00
   0.0000000000000000E+00
   0.0000000000000000E+00
   0.0000000000000000E+00
   0.0000000000000000E+00
   0.0000000000000000E+00
   0.0000000000000000E+00
   0.0000000000000000E+00
   0.0000000000000000E+00
   0.0000000000000000E+00
   0.0000000000000000E+00
   0.0000000000000000E+00
   0.0000000000000000E+00
   0.0000000000000000E+00
   0.0000000000000000E+00
   0.0000000000000000E+00
   0.0000000000000000E+00
   0.0000000000000000E+00
   0.0000000000000000E+00
   0.0000000000000000E+00
   0.0000000000000000E+00
   0.0000000000000000E+00
   0.0000000000000000E+00
   0.0000000000000000E+00
   0.0000000000000000E+00
   0.0000000000000000E+00
   0.0000000000000000E+00
   0.0000000000000000E+00
   0.0000000000000000E+00
   0.0000000000000000E+00
   0.0000000000000000E+00
   0.0000000000000000E+00
   0.0000000000000000E+00
   0.0000000000000000E+00
   0.0000000000000000E+00
   0.0000000000000000E+00
   0.0000000000000000E+00
   0.0000000000000000E+00
   0.0000000000000000E+00
   0.0000000000000000E+00
   0.0000000000000000E+00
   0.0000000000000000E+00
   0.0000000000000000E+00
   0.0000000000000000E+00
   0.0000000000000000E+00
   0.0000000000000000E+00
   0.0000000000000000E+00
   0.0000000000000000E+00
   0.0000000000000000E+00
   0.0000000000000000E+00
   0.0000000000000000E+00
   0.0000000000000000E+00
   0.0000000000000000E+00
   0.0000000000000000E+00
   0.0000000000000000E+00
   0.0000000000000000E+00
   0.0000000000000000E+00
   0.0000000000000000E+00
   0.0000000000000000E+00
   0.0000000000000000E+00
   0.0000000000000000E+00
   0.0000000000000000E+00
   0.0000000000000000E+00
   0.0000000000000000E+00
   0.0000000000000000E+00
   0.4946017744006874E+00
  -0.3607121981957668E-32
   0.5336300222335448E+00
  -0.2465077721268899E-32
   0.5182740148769481E+00
  -0.6790440361987318E-33
   0.4930716028372278E+00
   0.2794645639834045E-33
   0.4847755552771977E+00
   0.4133880794922667E-32
   0.4868150814117481E+00
   0.5379047859787300E-32
   0.4891447052326474E+00
   0.4875613906679911E-32
   0.4958017867963038E+00
   0.3022020863676069E-32
   0.4899022600519320E+00
   0.4177242394225698E-32
   0.4718101884491140E+00
   0.6037707861696749E-32
   0.4448932810685211E+00
   0.7256499380301019E-32
   0.4844428678085732E+00
   0.3470722332858533E-32
   0.5097723001289393E+00
   0.2751299959708841E-32
   0.4402132744644714E+00
  -0.3320305109554011E-32
   0.4949587351663396E+00
   0.4587831298954342E-32
   0.5222987907383874E+00
   0.5249796952382885E-32
   0.4962767432292753E+00
   0.5256253581463616E-32
   0.5223883218427127E+00
   0.6105892103152141E-32
   0.5038142329209551E+00
   0.4933157952306007E-32
   0.5644352579004855E+00
   0.1633681095027748E-32
   0.5245870132964737E+00
   0.4006101032499926E-32
   0.4990984318563033E+00
   0.4538625454928157E-32
   0.5729385770681945E+00
  -0.1104936602457735E-33
   0.5693702145303193E+00
  -0.1892991647983033E-32
   0.3752129691192982E+00
  -0.9910910883257034E-33
   0.4003925758028097E+00
  -0.2714309720625159E-32
   0.5599629539502478E+00
   0.2587497371467844E-32
   0.5562281247032091E+00
   0.3796544610290513E-32
   0.4942649991515459E+00
   0.1087519809597882E-33
   0.4948664228352246E+00
   0.7956655547071357E-34
   0.4925621459566299E+00
   0.2452964365672939E-33
   0.4913981196806360E+00
   0.2539613547762510E-33
   0.5162622771156217E+00
  -0.7696251634367656E-33
   0.5363589847169766E+00
  -0.2447280209949881E-32
   0.4951204297625136E+00
  -0.3521560690480481E-32
   0.4520507650461528E+00
  -0.3059201395902175E-32
   0.5129031967605340E+00
  -0.6460853196038955E-33
   0.5117692767715525E+00
  -0.3237628814593510E-33
   0.4786240594618534E+00
  -0.3303313947121830E-32
   0.4931144713172858E+00
  -0.3284652997749980E-32
   0.4600300683616091E+00
  -0.2788846090480607E-32
   0.5242629480252415E+00
  -0.3609590393654281E-32
   0.5299868133088443E+00
  -0.2966999601743301E-32
   0.5129709910113327E+00
  -0.5260307370752541E-33
   0.5328937511260987E+00
  -0.1811613261629008E-32
   0.5309776575134127E+00
  -0.1596078014255628E-32
   0.5309766037780371E+00
  -0.1132925031020833E-32
   0.5063651528339296E+00
  -0.5094931029011648E-33
   0.5279597698128334E+00
  -0.3424509046608150E-32
   0.5409256383373940E+00
  -0.1895507334527591E-32
   0.5363674847927028E+00
  -0.3353752857236022E-32
   0.5374195375061233E+00
  -0.2885042481170967E-32
   0.4965362519974686E+00
   0.2761026896115566E-32
   0.4975364164379986E+00
   0.2686081166708765E-32
   0.4963808203933310E+00
   0.2768700468406424E-32
   0.4955145691268967E+00
   0.2969967927907876E-32
   0.4904158133604440E+00
   0.4771395400295584E-32
   0.4902504874529918E+00
   0.5281066119809796E-32
   0.4861601581738189E+00
   0.3913368075615055E-32
   0.4854060765928608E+00
   0.3605408558184434E-32
   0.4931949371695351E+00
   0.4185769884825124E-32
   0.4910340584082195E+00
   0.4432916686654664E-32
   0.4831668238363733E+00
   0.3649386314571757E-32
   0.4872472608745937E+00
   0.3466405873622352E-32
   0.4880033981073756E+00
   0.2928603440891574E-32
   0.4872325297439884E+00
   0.5087544666535252E-32
   0.4882153513554947E+00
   0.5099190495328443E-32
   0.4952572356104218E+00
   0.3765925329711896E-32
   0.4900714819469065E+00
   0.5244164232923367E-32
   0.4903590136712380E+00
   0.5265753260771486E-32
   0.4944353765560832E+00
   0.4084422879941591E-32
   0.4868208047051509E+00
   0.5046351707719703E-32
   0.4892743956895697E+00
   0.5395430584101590E-32
   0.4881467578481976E+00
   0.5392667669007809E-32
   0.4878251390528445E+00
   0.5105879696646900E-32
   0.4449019460456920E+00
   0.7268685780539082E-32
   0.4700104885974314E+00
   0.6046606789111974E-32
   0.4891759377832005E+00
   0.4249511110625915E-32
   0.4885977144406552E+00
   0.3779641947915288E-32
   0.4510295746810996E+00
   0.6971749708845941E-32
   0.4681798598770234E+00
   0.7060120584077790E-32
   0.4876649586079283E+00
   0.3927204290973014E-32
   0.4868255677651308E+00
   0.3666955753682818E-32
   0.4909266652605989E+00
   0.3420397675994616E-32
   0.4793951933018485E+00
   0.5107473072299040E-32
   0.4657891937764424E+00
   0.5862443873520630E-32
   0.3794306028365854E+00
   0.7296090522229616E-32
   0.4903698367717169E+00
   0.7230820841222056E-32
   0.4487934993244723E+00
   0.7024255996718364E-32
   0.4432390140930434E+00
   0.7388030734630997E-32
   0.4845733877360606E+00
   0.5092363348360556E-32
   0.4621891188768468E+00
   0.6649164210591517E-32
   0.4663609785243005E+00
   0.7123556327546960E-32
   0.4747781348494335E+00
   0.5571423831957348E-32
   0.4893616480739162E+00
   0.3054759916971455E-32
   0.5085734431663718E+00
   0.2624178316636589E-32
   0.4304902616943275E+00
  -0.3168490744452032E-32
   0.4927287826297610E+00
   0.4554706701326257E-32
   0.5320323083271866E+00
   0.5237276905053906E-32
   0.4913833264535785E+00
   0.5320934899243347E-32
   0.5209407689043835E+00
   0.5870796292423972E-32
   0.5061343898230477E+00
   0.4869277383068840E-32
   0.5690645181307707E+00
   0.1582719484392053E-32
   0.5275066301983090E+00
   0.3914081082516443E-32
   0.5015080556961358E+00
   0.4327231017148687E-32
   0.5821370902829364E+00
  -0.2806029293506171E-33
   0.5691494474854065E+00
  -0.1848774098954144E-32
   0.3402454700071174E+00
  -0.1556101054295258E-32
   0.3785430795325833E+00
  -0.2577184622114973E-32
   0.5753094269989615E+00
   0.2705084383604466E-32
   0.5668552171117869E+00
   0.3830349743657358E-32
   0.5703054436780272E+00
   0.3986220252525825E-32
   0.5291885194044658E+00
   0.5224495506823931E-32
   0.5449838314556412E+00
   0.5468065382364944E-32
   0.5719097766622839E+00
   0.4826080073894963E-32
   0.5385699899131678E+00
   0.6616243758459223E-32
   0.5475900476966925E+00
   0.5618670495148960E-32
   0.5821570618141211E+00
   0.3600668796691008E-32
   0.4925317735751034E+00
   0.5207928456631591E-32
   0.5041560890311266E+00
   0.5013861245046716E-32
   0.4961304808828096E+00
   0.5364433334483292E-32
   0.5562808674328885E+00
   0.4817469040564739E-32
   0.4757818111972861E+00
   0.1613474521044519E-32
   0.4950189456586697E+00
   0.4928350640564472E-32
   0.5496176228182313E+00
   0.4284653210269228E-32
   0.5889518016623383E+00
   0.6118283218190044E-33
   0.5839568525102317E+00
   0.2241983229764943E-32
   0.5468166758332291E+00
   0.3516182079930851E-32
   0.5803873813273418E+00
  -0.3399152661681538E-33
   0.5106069686519304E+00
   0.4849580702226991E-32
   0.5029545554610783E+00
   0.5118088668983966E-32
   0.5033123598491991E+00
   0.4089344520995187E-32
   0.5676224098873440E+00
   0.6253384496392096E-33
   0.5564635325478781E+00
   0.4139151311752246E-32
   0.4947140373360434E+00
   0.4851169406030283E-32
   0.5506804155229902E+00
   0.6374321342986770E-32
   0.5513548835854369E+00