# vtk DataFile Version 2.0
FUN3D:global_image_vtk
ASCII
DATASET UNSTRUCTURED_GRID
POINTS 213 double
   -0.5474685441588805E-02    0.6000594259628313E-38    0.2504941971167247E+01
   -0.5645098589820849E-38    0.8038138597359528E-04    0.1395689460851933E-36
    0.1245419105183553E+01    0.4869884521075619E-38    0.2504941971167247E+01
   -0.5645098589820849E-38    0.1039425057863162E-03    0.1354425423702208E-36
    0.2497696093128823E+01    0.2052847341833787E-38    0.2504941971167247E+01
   -0.5645098589820849E-38    0.1101298164497465E-03    0.1306486412987899E-36
    0.3750590968915816E+01   -0.1764775990890064E-38    0.2504941971167247E+01
   -0.5645098589820849E-38    0.1356499004753125E-03    0.1251730015194863E-36
    0.5003221331742099E+01   -0.5152429829243565E-38    0.2504941971167247E+01
   -0.5645098589820849E-38    0.9668873036949048E-04    0.1195930975646065E-36
    0.5004676687979024E+01   -0.5546744021671532E-38    0.1281291202166762E+01
   -0.3358085938851376E-37    0.1638053019229419E-03    0.8690972909122311E-37
    0.5004772673778053E+01   -0.4378403983721088E-38    0.2775079906459875E-01
   -0.2993263793261305E-37    0.1903478008335975E-03    0.5524922908399029E-37
    0.5003581183341172E+01   -0.2212030133958532E-38   -0.1225853508883715E+01
   -0.2652917595727952E-37    0.1607765204439932E-03    0.2443361153199079E-37
    0.5001952533742172E+01    0.4985145788437810E-40   -0.2496589036641657E+01
   -0.4033094412612255E-38    0.1082258890299231E-03   -0.6201402703241101E-38
    0.3750348111606540E+01    0.1061920821234310E-38   -0.2496589036641657E+01
   -0.4033094412612255E-38    0.1458753696816918E-03   -0.4048987016105515E-38
    0.2498611462994939E+01    0.2230066158786829E-38   -0.2496589036641657E+01
   -0.4033094412612255E-38    0.1008933264257661E-03   -0.2141154244387655E-38
    0.1247175269333299E+01    0.3290668203916907E-38   -0.2496589036641657E+01
   -0.4033094412612255E-38    0.1108587619190749E-03   -0.9969106038541324E-40
   -0.3383959865691291E-02    0.3627521669094385E-38   -0.2496589036641657E+01
   -0.4033094412612255E-38    0.8107259626749516E-04    0.2470202975939772E-38
   -0.4257768979716305E-02    0.4738282428567729E-38   -0.1225734811642754E+01
   -0.2887268362086934E-37    0.3415458742128459E-04    0.3608518039398742E-37
   -0.5251592448437761E-02    0.6055961302371109E-38    0.2619486024401919E-01
   -0.3090141349719610E-37    0.1038724387137321E-03    0.7040144420890742E-37
   -0.5676060312334924E-02    0.6647408639168330E-38    0.1278221569065493E+01
   -0.3329333706544719E-37    0.8224601701239252E-04    0.1050360439087082E-36
    0.9003209617953525E+00    0.6484449760647851E-38    0.1608979112279912E+01
   -0.3526358347836933E-37    0.8704140726522410E-04    0.1112287478740902E-36
    0.3983172210692280E+01    0.3436824787536624E-40   -0.1561211904840453E+01
   -0.2636127085979811E-37    0.1757116720330620E-03    0.1834489398160556E-37
    0.4035602039224441E+01   -0.2181348881208658E-38    0.1486760030415210E+01
   -0.3718898301121739E-37    0.1713312861948913E-03    0.9608780413729946E-37
    0.1036613723302946E+01    0.4272970622819539E-38   -0.1455626429917021E+01
   -0.2869963742657510E-37    0.1047189301521237E-03    0.2720348463700036E-37
    0.1094353480630873E+01    0.5780221858048054E-38   -0.2964622010673847E+00
   -0.3103469903269194E-37    0.1260590236858943E-03    0.5825572463478049E-37
    0.7298400267480849E+00    0.6610077372471019E-38    0.6874684746716934E+00
   -0.3305702277867427E-37    0.1044598640462743E-03    0.8639405218472003E-37
    0.1617018659309029E+01    0.6269870966144188E-38    0.8553208024936869E+00
   -0.3480052711437455E-37    0.1529810904871084E-03    0.8810956033544374E-37
    0.2143199662875819E+01    0.3220614531990883E-38   -0.1627128509216901E+01
   -0.2758215747152745E-37    0.1606170425197383E-03    0.2019884371863951E-37
    0.4088840445400856E+01   -0.1694270999952082E-38   -0.4351047825938425E+00
   -0.2954593078093074E-37    0.2719933294013069E-03    0.4617547030348905E-37
    0.2977916511248946E+01    0.2339219333408636E-38   -0.8334991483096446E+00
   -0.2869314568020905E-37    0.2245596931800238E-03    0.3877344959900405E-37
    0.3044093241383426E+01    0.1822763555946152E-38   -0.1814361225108753E+01
   -0.2682927354164739E-37    0.1617000112394954E-03    0.1372802968772761E-37
    0.3427866614805219E+01    0.8990229169933497E-39    0.3813904839969788E+00
   -0.3468117839405215E-37    0.2936955483305814E-03    0.6906061205370889E-37
    0.4313225355351699E+01   -0.3476543530153282E-38    0.5489133376339805E+00
   -0.3353771030563286E-37    0.2313009573462985E-03    0.7057110241597455E-37
    0.1823032737597431E+01    0.4851429382746224E-38    0.1771265193543967E+01
   -0.3756547123386857E-37    0.1836202887008289E-03    0.1124953930262209E-36
    0.2806311152168412E+01    0.2638628407519613E-38    0.1358629373600376E+01
   -0.3808129031040595E-37    0.1943492163841644E-03    0.9753429280312431E-37
    0.1891860875936763E+01    0.4662141829019585E-38   -0.8481310365609482E+00
   -0.2979883241297176E-37    0.1670645501764518E-03    0.4117332174622792E-37
    0.2268769200166970E+01    0.5166905094356334E-38    0.7723691819172877E-01
   -0.3307518143926268E-37    0.2072307782995343E-03    0.6484287476718174E-37
    0.5000000000000000E+01    0.1075737318133726-176    0.2504941971167247E+01
   -0.5645098589820849E-38    0.1250000000000000E+01    0.1075737318133726-176
    0.5000000000000000E+01    0.1075737318133726-176    0.2504941971167247E+01
   -0.5645098589820849E-38    0.2500000000000000E+01    0.1075737318133726-176
    0.5000000000000000E+01    0.1075737318133726-176    0.2504941971167247E+01
   -0.5645098589820849E-38    0.3750000000000000E+01    0.1075737318133726-176
    0.5000000000000000E+01    0.1075737318133726-176    0.2504941971167247E+01
   -0.5645098589820849E-38    0.5000000000000000E+01    0.1075737318133726-176
    0.3750000000000000E+01    0.1075737318133726-176    0.2504941971167247E+01
   -0.5645098589820849E-38    0.5000000000000000E+01    0.1075737318133726-176
    0.2500000000000000E+01    0.1075737318133726-176    0.2504941971167247E+01
   -0.5645098589820849E-38    0.5000000000000000E+01    0.1075737318133726-176
    0.1250000000000000E+01    0.1075737318133726-176    0.2504941971167247E+01
   -0.5645098589820849E-38    0.5000000000000000E+01    0.1075737318133726-176
   -0.2991708506071868-145    0.1075737318133726-176    0.2504941971167247E+01
   -0.5645098589820849E-38    0.5000000000000000E+01    0.1075737318133726-176
   -0.2991708506071868-145    0.1075737318133726-176    0.2504941971167247E+01
   -0.5645098589820849E-38    0.3750000000000000E+01    0.1075737318133726-176
   -0.2991708506071868-145    0.1075737318133726-176    0.2504941971167247E+01
   -0.5645098589820849E-38    0.2500000000000000E+01    0.1075737318133726-176
   -0.2991708506071868-145    0.1075737318133726-176    0.2504941971167247E+01
   -0.5645098589820849E-38    0.1250000000000000E+01    0.1075737318133726-176
    0.9588956434871732E+00    0.9082670206064577E-38    0.2504941971167247E+01
   -0.5645098589820849E-38    0.9696525519543094E+00    0.9559577682887947E-37
    0.3981953078951400E+01    0.3820304312576309E-38    0.2504941971167247E+01
   -0.5645098589820849E-38    0.4070563854751263E+01    0.1341725535686271E-37
    0.4036122187252332E+01   -0.1129443159962507E-38    0.2504941971167247E+01
   -0.5645098589820849E-38    0.1017567520094607E+01    0.9236790839452969E-37
    0.9637572773153936E+00   -0.3257229511441147E-38    0.2504941971167247E+01
   -0.5645098589820849E-38    0.3973598203142217E+01    0.1464237802788107E-37
    0.1546540136992412E+01   -0.3132900773375650E-38    0.2504941971167247E+01
   -0.5645098589820849E-38    0.2931570169315567E+01    0.4496020349252263E-37
    0.6973799521244448E+00   -0.5354014222304000E-38    0.2504941971167247E+01
   -0.5645098589820849E-38    0.3070319952453735E+01    0.2599191173166280E-37
    0.8903742148357219E+00   -0.4497440587630403E-38    0.2504941971167247E+01
   -0.5645098589820849E-38    0.2056562238187697E+01    0.5266808139150957E-37
    0.2183041995146016E+01   -0.6476705306003832E-39    0.2504941971167247E+01
   -0.5645098589820849E-38    0.3960694449828003E+01    0.2332936886314736E-37
    0.3855844872709867E+01    0.6382048588026331E-38    0.2504941971167247E+01
   -0.5645098589820849E-38    0.2933250588118610E+01    0.3433270895979366E-37
    0.3152611367438030E+01    0.3352173539758549E-38    0.2504941971167247E+01
   -0.5645098589820849E-38    0.3637668388416177E+01    0.2850263583440272E-37
    0.3103307385241870E+01    0.2065232456460421E-38    0.2504941971167247E+01
   -0.5645098589820849E-38    0.4332607813099722E+01    0.1432988201869683E-37
    0.3266711045517948E+01    0.4998349689513607E-38    0.2504941971167247E+01
   -0.5645098589820849E-38    0.1889656617463699E+01    0.7498092332836907E-37
    0.4232537554484789E+01    0.7698653415550025E-38    0.2504941971167247E+01
   -0.5645098589820849E-38    0.1918626969802322E+01    0.4149958213924344E-37
    0.1905522374036585E+01    0.7461056184206580E-38    0.2504941971167247E+01
   -0.5645098589820849E-38    0.7226290832133980E+00    0.1156671873999036E-36
    0.2879767723645829E+01    0.2265355655886509E-38    0.2504941971167247E+01
   -0.5645098589820849E-38    0.9080945892181529E+00    0.1152067072676651E-36
    0.2012711365064544E+01    0.8986267153079508E-39    0.2504941971167247E+01
   -0.5645098589820849E-38    0.1767082390977705E+01    0.8589298046460859E-37
    0.2669681472994645E+01    0.2217041284937586E-38    0.2504941971167247E+01
   -0.5645098589820849E-38    0.2853394335010762E+01    0.5209395939309407E-37
    0.5000000000000000E+01    0.1075737318133726-176    0.1250000000000000E+01
    0.1075737318133726-176    0.5000000000000000E+01    0.1075737318133726-176
    0.5000000000000000E+01    0.1075737318133726-176   -0.2991708506071868-145
[...]
POINT_DATA 213
SCALARS rho double 1
LOOKUP_TABLE default
   0.1346125698791932E+01
  -0.1915302020592091E-31
   0.9572084502448237E+00
  -0.1258430694656904E-31
   0.9461020581718141E+00
  -0.8906240525962147E-32
   0.9421833153585313E+00
  -0.6541493155382431E-32
   0.8436101190310240E+00
  -0.4681791469515935E-32
   0.7742024978833985E+00
  -0.4233013052659566E-32
   0.7627632861751468E+00
  -0.4302309642782681E-32
   0.7661496069893453E+00
  -0.4065603233725326E-32
   0.8310481753360299E+00
  -0.4619646799027471E-32
   0.9353608244442948E+00
  -0.6085744543753682E-32
   0.9344036358491249E+00
  -0.8516260846639025E-32
   0.9615898855034437E+00
  -0.1279982545451039E-31
   0.1448480211592512E+01
  -0.2064761604989391E-31
   0.1495421837649901E+01
  -0.1967273462964785E-31
   0.1646754926651685E+01
  -0.2240365513364772E-31
   0.1426608059276010E+01
  -0.1860885063810626E-31
   0.1009808066592465E+01
  -0.1414576971361625E-31
   0.9511456921274269E+00
  -0.6232744222582589E-32
   0.9438291249415874E+00
  -0.6023069375977545E-32
   0.9574489516454171E+00
  -0.1349599722241762E-31
   0.9414832402060292E+00
  -0.1325588166651613E-31
   0.1037118220249899E+01
  -0.1512918856974634E-31
   0.9258147524555724E+00
  -0.1094968323619552E-31
   0.9322497215277336E+00
  -0.9891003591544715E-32
   0.9538141781508619E+00
  -0.6158296582496064E-32
   0.9520438536334024E+00
  -0.7648421132309772E-32
   0.9350971730928983E+00
  -0.7093313251525473E-32
   0.9565537312332532E+00
  -0.6588430824816228E-32
   0.9378700247172427E+00
  -0.5581992569813916E-32
   0.9303318758447044E+00
  -0.1036765756921607E-31
   0.9446515868556605E+00
  -0.8062949359483735E-32
   0.8862352504847136E+00
  -0.1014681002749845E-31
   0.9424046867129975E+00
  -0.9130195208098305E-32
   0.9637219621648744E+00
  -0.3592451276353468E-32
   0.1008362555383860E+01
  -0.1854425661443326E-32
   0.1006713359411216E+01
  -0.1237159592811337E-32
   0.1001959292470759E+01
  -0.1585842945777634E-32
   0.1003218319901027E+01
  -0.3140488333722662E-32
   0.1004120515598007E+01
  -0.3867055214108739E-32
   0.1005207984590444E+01
  -0.3570597949308455E-32
   0.1004249812870529E+01
  -0.2819045447827099E-32
   0.1008267840485251E+01
  -0.4191061607208564E-32
   0.1023867442327361E+01
  -0.6121771164937946E-32
   0.1063751872114771E+01
  -0.7269726585079504E-32
   0.1019386190168644E+01
  -0.9081397002531773E-32
   0.1001778951567198E+01
  -0.2763115960898618E-32
   0.9645978253136643E+00
  -0.5083846889603963E-32
   0.1005263108605996E+01
  -0.4248159212468285E-32
   0.1000745575692861E+01
  -0.5310902598108222E-32
   0.1008695102923000E+01
  -0.5352764483119633E-32
   0.1008032474265036E+01
  -0.6447799862602896E-32
   0.1002354647794837E+01
  -0.4298758937730175E-32
   0.9980224583644861E+00
  -0.3073512606905498E-32
   0.1000594439962006E+01
  -0.3743880526753369E-32
   0.1001621525175044E+01
  -0.3724605096518267E-32
   0.9828107626693714E+00
  -0.4684379874412000E-32
   0.9844011470067043E+00
  -0.3565661369116256E-32
   0.9834292436762546E+00
  -0.8300393155524842E-32
   0.9790424715251974E+00
  -0.6701575772048877E-32
   0.9904798688277007E+00
  -0.5984072049161525E-32
   0.9935224859945937E+00
  -0.4531365868271621E-32
   0.1002009121462722E+01
  -0.1496102872925590E-32
   0.1002132306675720E+01
  -0.1461505819927054E-32
   0.1002272999045029E+01
  -0.1515860244174387E-32
   0.1001793211319019E+01
  -0.1676596204526733E-32
   0.1009815023259726E+01
  -0.1214990853579622E-32
   0.1006499292023762E+01
  -0.1860176074402062E-32
   0.9560850197853688E+00
  -0.3494761216765333E-32
   0.9252997229967498E+00
  -0.3952414408507419E-32
   0.1007053745719148E+01
  -0.1042753909336545E-32
   0.1004491579427994E+01
  -0.1233208593244530E-32
   0.9144889788658617E+00
  -0.3664887694051238E-32
   0.9091476971996736E+00
  -0.3590128683946049E-32
   0.8752502421456885E+00
  -0.3988165086431514E-32
   0.9768038789462778E+00
  -0.2890193390655094E-32
   0.1000530350430465E+01
  -0.2344192680104339E-32
   0.1005826594051932E+01
  -0.9929394454431723E-33
   0.1012895283709990E+01
  -0.1201897926795264E-32
   0.1011677093076447E+01
  -0.1373479366549397E-32
   0.1010416006844428E+01
  -0.9411450487308984E-33
   0.1005456624931263E+01
  -0.9712587223688993E-33
   0.9909260167272109E+00
  -0.2743833216530149E-32
   0.1005152521441514E+01
  -0.1498975320246097E-32
   0.9860803793457605E+00
  -0.2623735370544535E-32
   0.1005592634884576E+01
  -0.1809679430666925E-32
   0.1004239968047142E+01
  -0.2668734257155690E-32
   0.1002886288342575E+01
  -0.2592291783729966E-32
   0.1003350790182300E+01
  -0.2623574335744333E-32
   0.1003998919008607E+01
  -0.2736020052070571E-32
   0.1005116695722429E+01
  -0.3551688247679958E-32
   0.1003224182927334E+01
  -0.3862203284754371E-32
   0.1002669141847105E+01
  -0.3211295357845198E-32
   0.1002590239981237E+01
  -0.2933956420472491E-32
   0.1004070006870606E+01
  -0.3185321857152669E-32
   0.1004304927419995E+01
  -0.3279456242353749E-32
   0.1001642991100266E+01
  -0.3099867467672227E-32
   0.1002279318425474E+01
  -0.2974253898112412E-32
   0.1002547201292483E+01
  -0.2693246064610095E-32
   0.1003472605475794E+01
  -0.3709206908456838E-32
   0.1003380912628943E+01
  -0.3776692073071530E-32
   0.1003233772935235E+01
  -0.2984013725512737E-32
   0.1004430836566518E+01
  -0.3900288166761901E-32
   0.1004325274796381E+01
  -0.3860331482664901E-32
   0.1003653371444338E+01
  -0.3095886913981008E-32
   0.1003719202365928E+01
  -0.3607054924799294E-32
   0.1004319513738697E+01
  -0.3864913160311085E-32
   0.1004463148109749E+01
  -0.3917613522593473E-32
   0.1003629976404923E+01
  -0.3738819647586598E-32
   0.1064490591623804E+01
  -0.7270452437432430E-32
   0.1028445777420733E+01
  -0.6199723371286163E-32
   0.1009607601743659E+01
  -0.4240182226386256E-32
   0.1006626773736482E+01
  -0.3807771645607493E-32
   0.1163979469082536E+01
  -0.8204123842681647E-32
   0.1086026000647921E+01
  -0.6815402919431825E-32
   0.1007908396156763E+01
  -0.3977755500572169E-32
   0.1007252665001414E+01
  -0.3797132226821478E-32
   0.1006796748366246E+01
  -0.3524045619280501E-32
   0.1013053607355077E+01
  -0.5239343675747366E-32
   0.1019342639061365E+01
  -0.5795461765837175E-32
   0.1235143810517597E+01
  -0.9593015192702883E-32
   0.1032536233436672E+01
  -0.6571899173591783E-32
   0.1046567724676982E+01
  -0.7494062000077651E-32
   0.1201703015201449E+01
  -0.8704051320062316E-32
   0.1014671123068912E+01
  -0.5138960871472773E-32
   0.1032295321172657E+01
  -0.6747155888732304E-32
   0.1028222147653412E+01
  -0.7307981463796994E-32
   0.1014641480019725E+01
  -0.5656386343745333E-32
   0.1029002255339846E+01
  -0.8710324117217536E-32
   0.1002002850848486E+01
  -0.2781506401465543E-32
   0.9607830875345830E+00
  -0.5121025976354273E-32
   0.1006859702014221E+01
  -0.4264511736431211E-32
   0.1001326953675647E+01
  -0.5137789281391644E-32
   0.1010800862672686E+01
  -0.5418390745334678E-32
   0.1012237271693406E+01
  -0.6419043012106758E-32
   0.1000940429241011E+01
  -0.4332596835026465E-32
   0.9979317148528963E+00
  -0.3116756203513088E-32
   0.9980683513676886E+00
  -0.3809086961066453E-32
   0.1001191941476674E+01
  -0.3689138847429996E-32
   0.9841985844058387E+00
  -0.4691510014511273E-32
   0.9815070628889752E+00
  -0.3540629298155120E-32
   0.9648654985638696E+00
  -0.8332579609822278E-32
   0.9680713451660677E+00
  -0.6460016375781736E-32
   0.9914149188349360E+00
  -0.5933968620690765E-32
   0.9910916499290678E+00
  -0.4512919097046932E-32
   0.9925598158201236E+00
  -0.4327616805295643E-32
   0.1001728507349410E+01
  -0.4663997540711303E-32
   0.9993250730175138E+00
  -0.5005328894832053E-32
   0.9941444013945274E+00
  -0.5557077458721038E-32
   0.1006981379690966E+01
  -0.5873612597488507E-32
   0.1022611652789617E+01
  -0.7015792873667816E-32
   0.1001121694421865E+01
  -0.6459900533006477E-32
   0.1008784262488240E+01
  -0.4976915902114073E-32
   0.1004775042369003E+01
  -0.4686686117045717E-32
   0.1009029444979216E+01
  -0.5305762280547351E-32
   0.9967197951455555E+00
  -0.6224569688781427E-32
   0.1005567615109249E+01
  -0.9781731769606095E-32
   0.1003325680983261E+01
  -0.4134030241551539E-32
   0.9949865113821903E+00
  -0.4369481873444478E-32
   0.9833521980884331E+00
  -0.4082338302859378E-32
   0.9944521715893915E+00
  -0.3826309462015477E-32
   0.9973482195834092E+00
  -0.3452751673527782E-32
   0.9932519192406560E+00
  -0.2778820249242232E-32
   0.1001312596128296E+01
  -0.4018615133468251E-32
   0.1003001443388093E+01
  -0.4165897060596702E-32
   0.1002189164023931E+01
  -0.3436761390343485E-32
   0.9947119520443498E+00
  -0.2540549071886364E-32
   0.9937839663277220E+00
  -0.4015508169768083E-32
   0.1004862067998536E+01
  -0.4292929169459482E-32
   0.1020102934380106E+01
  -0.6053984677621142E-32
   0.1005341234166046E+01
  -0.5968958970646923E-32
   0.9817063604708001E+00
  -0.5615515228213232E-32
   0.1004975496207848E+01
  -0.3994121198106908E-32
   0.1012376563095919E+01
  -0.5277649223673134E-32
   0.9873747506644316E+00
  -0.7843821961116781E-32
   0.9551282273245181E+00
  -0.8350325032351202E-32
   0.9865280352185821E+00
  -0.5378878527352283E-32
   0.9865952837883547E+00
  -0.5063249829723281E-32
   0.9920084189380244E+00
  -0.7485004486386779E-32
   0.9934470882549229E+00
  -0.5277721392048821E-32
   0.9960657351060308E+00
  -0.9739520219224963E-32
   0.1037405689197056E+01
  -0.6694041757305346E-32
   0.1033165793968449E+01
  -0.8678569427157691E-32
   0.1001443388340772E+01
  -0.2599369040331011E-32
   0.1001929572657197E+01
  -0.3937261932840621E-32
   0.9912286619378750E+00
  -0.2790247630208691E-32
   0.9911121618508526E+00
  -0.3823041743908147E-32
   0.9649300772414066E+00
  -0.4041452353619448E-32
   0.9933729779537798E+00
  -0.2736798816756228E-32
   0.1006089078660061E+01
  -0.2184980455117830E-32
   0.1001962090508801E+01
  -0.2368732419534533E-32
   0.9908628432214492E+00
  -0.4481104106362578E-32
   0.9742274354946112E+00
  -0.4462038243301687E-32
   0.9420781894534219E+00
  -0.4485993205612483E-32
   0.9821604707849555E+00
  -0.5694351229840040E-32
   0.9794777322470449E+00
  -0.4100979504377106E-32
   0.9704352213668374E+00
  -0.7560628682662528E-32
   0.9720842366297475E+00
  -0.5717682794816757E-32
   0.9557868574569898E+00
  -0.3778162188775070E-32
   0.9497981857556784E+00
  -0.4210673309288139E-32
   0.9529848035033502E+00
  -0.5731106356166105E-32
   0.1002637253100901E+01
  -0.4633378081325979E-32
   0.1002476289736194E+01
  -0.4145066502569831E-32
   0.1000513241501560E+01
  -0.3057158797178447E-32
   0.1001675743952481E+01
  -0.2265051145751602E-32
   0.9610108026011367E+00
  -0.5988031261521090E-32
   0.9492469675475753E+00
  -0.5409112106392716E-32
   0.9586432573251633E+00
  -0.5807821156577307E-32
   0.1001121461658364E+01
  -0.3983725421451343E-32
   0.1000500583032902E+01
  -0.3403769916550797E-32
   0.1001161090898709E+01
  -0.2840453564787242E-32
   0.9807429267994457E+00
  -0.4904357859536174E-32
   0.9805608244538940E+00
  -0.7434920685995754E-32
   0.9629214509893606E+00
  -0.6256266115815777E-32
SCALARS u double 1
LOOKUP_TABLE default
   0.0000000000000000E+00
   0.0000000000000000E+00
   0.0000000000000000E+00
   0.0000000000000000E+00
   0.0000000000000000E+00
   0.0000000000000000E+00
   0.0000000000000000E+00
   0.0000000000000000E+00
   0.0000000000000000E+00
   0.0000000000000000E+00
   0.0000000000000000E+00
   0.0000000000000000E+00
   0.0000000000000000E+00
   0.0000000000000000E+00
   0.0000000000000000E+00
   0.0000000000000000E+00
   0.0000000000000000E+00
   0.0000000000000000E+00
   0.0000000000000000E+00
   0.0000000000000000E+00
   0.0000000000000000E+00
   0.0000000000000000E+00
   0.0000000000000000E+00
   0.0000000000000000E+00
   0.0000000000000000E+00
   0.0000000000000000E+00
   0.0000000000000000E+00
   0.0000000000000000E+00
   0.0000000000000000E+00
   0.0000000000000000E+00
   0.0000000000000000E+00
   0.0000000000000000E+00
   0.0000000000000000E+00
   0.0000000000000000E+00
   0.0000000000000000E+00
   0.0000000000000000E+00
   0.0000000000000000E+00
   0.0000000000000000E+00
   0.0000000000000000E+00
   0.0000000000000000E+00
   0.0000000000000000E+00
   0.0000000000000000E+00
   0.0000000000000000E+00
   0.0000000000000000E+00
   0.0000000000000000E+00
   0.0000000000000000E+00
   0.0000000000000000E+00
   0.0000000000000000E+00
   0.0000000000000000E+00
   0.0000000000000000E+00
   0.0000000000000000E+00
   0.0000000000000000E+00
   0.0000000000000000E+00
   0.0000000000000000E+00
   0.0000000000000000E+00
   0.0000000000000000E+00
   0.0000000000000000E+00
   0.0000000000000000E+00
   0.0000000000000000E+00
   0.0000000000000000E+00
   0.0000000000000000E+00
   0.0000000000000000E+00
   0.0000000000000000E+00
   0.0000000000000000E+00
   0.0000000000000000E+00
   0.0000000000000000E+00
   0.4946081651923051E+00
  -0.3607391591838604E-32
   0.5336296442172287E+00
  -0.2465022088912391E-32
   0.5182736728977765E+00
  -0.6793316007594334E-33
   0.4930698278902318E+00
   0.2805315828176495E-33
   0.4847720768379555E+00
   0.4136044963057640E-32
   0.4868108593653080E+00
   0.5380160945935029E-32
   0.4891429169222768E+00
   0.4875809143295025E-32
   0.4958014252381218E+00
   0.3021822408254942E-32
   0.4899016245902367E+00
   0.4177372649448783E-32
   0.4718097593537669E+00
   0.6037788853411790E-32
   0.4448926943390156E+00
   0.7256591872640474E-32
   0.4844425894370395E+00
   0.3470775594480086E-32
   0.5097671551588560E+00
   0.2751649819121364E-32
   0.4402156568799762E+00
  -0.3320471421726375E-32
   0.4949584553932714E+00
   0.4587855283096942E-32
   0.5222981830411264E+00
   0.5249877461339220E-32
   0.4962761396585778E+00
   0.5256360701607157E-32
   0.5223877841417948E+00
   0.6105981417698697E-32
   0.5038133921473555E+00
   0.4933169918842340E-32
   0.5644352017734849E+00
   0.1633560866515688E-32
   0.5245862018821701E+00
   0.4006060243235658E-32
   0.4990946622108146E+00
   0.4539111495233149E-32
   0.5729384890778564E+00
  -0.1104632571480239E-33
   0.5693720462174928E+00
  -0.1893098731780015E-32
   0.3752129623328058E+00
  -0.9910412777217488E-33
   0.4003935148651534E+00
  -0.2714260974515697E-32
   0.5599622584312329E+00
   0.2587615851971001E-32
   0.5562276818509959E+00
   0.3796528265401872E-32
   0.4942632948315895E+00
   0.1100047643906084E-33
   0.4948655146999188E+00
   0.8055877047920884E-34
   0.4925635063600767E+00
   0.2456402106999606E-33
   0.4913991900213125E+00
   0.2540226090732846E-33
   0.5162611695041763E+00
  -0.7697966409893898E-33
   0.5363589033160535E+00
  -0.2447207117145809E-32
   0.4951213321931911E+00
  -0.3521746948006852E-32
   0.4520530906966642E+00
  -0.3059478281348880E-32
   0.5129024674414954E+00
  -0.6462095187983182E-33
   0.5117689586101373E+00
  -0.3241221733546708E-33
   0.4786251080158601E+00
  -0.3303462020605631E-32
   0.4931155032716982E+00
  -0.3284703097267788E-32
   0.4600307072788699E+00
  -0.2788917771193931E-32
   0.5242629370828472E+00
  -0.3609803053585676E-32
   0.5299866682235520E+00
  -0.2967021935428572E-32
   0.5129711501759435E+00
  -0.5262778272862741E-33
   0.5328938806142823E+00
  -0.1811704183277548E-32
   0.5309772254538554E+00
  -0.1596069023011710E-32
   0.5309770734840369E+00
  -0.1133185833868743E-32
   0.5063650905360532E+00
  -0.5095862262112440E-33
   0.5279605851045160E+00
  -0.3424601518746475E-32
   0.5409254522573859E+00
  -0.1895520315155362E-32
   0.5363677132644560E+00
  -0.3353877942498192E-32
   0.5374194418535188E+00
  -0.2885125696656857E-32
   0.4965359106559714E+00
   0.2761001571417461E-32
   0.4975361580950877E+00
   0.2686073442636712E-32
   0.4963807468550021E+00
   0.2768709069886912E-32
   0.4955144803341893E+00
   0.2969918602247452E-32
   0.4904151603408118E+00
   0.4771580447389408E-32
   0.4902491398107430E+00
   0.5281542128414721E-32
   0.4861626479184198E+00
   0.3913814086588592E-32
   0.4854040948686660E+00
   0.3607607376170496E-32
   0.4931941440647423E+00
   0.4185960356433278E-32
   0.4910329433618841E+00
   0.4433192414648978E-32
   0.4831698633816348E+00
   0.3649925421099608E-32
   0.4872471163012006E+00
   0.3467783850547621E-32
   0.4880013562304790E+00
   0.2930557979314461E-32
   0.4872295459517172E+00
   0.5089224821072445E-32
   0.4882160183914156E+00
   0.5099749466885816E-32
   0.4952567469765791E+00
   0.3766090683502140E-32
   0.4900705902920465E+00
   0.5244604339873856E-32
   0.4903581116429516E+00
   0.5266079719586038E-32
   0.4944347036327351E+00
   0.4084651629841915E-32
   0.4868164670017203E+00
   0.5048018359008329E-32
   0.4892721040179027E+00
   0.5396201771473252E-32
   0.4881455769211770E+00
   0.5393386061468678E-32
   0.4878245868227005E+00
   0.5106855326087320E-32
   0.4449021779856260E+00
   0.7268772212050008E-32
   0.4700099712850320E+00
   0.6046676480319842E-32
   0.4891756227478572E+00
   0.4249559880640088E-32
   0.4885980757350876E+00
   0.3779646919892850E-32
   0.4510286591540227E+00
   0.6971805144410313E-32
   0.4681799592146928E+00
   0.7060119748913414E-32
   0.4876648889246055E+00
   0.3927191833948306E-32
   0.4868253717082665E+00
   0.3666909918634017E-32
   0.4909267416623082E+00
   0.3420312396983617E-32
   0.4793946355150749E+00
   0.5107584296464654E-32
   0.4657884775277815E+00
   0.5862538404202664E-32
   0.3794302329536720E+00
   0.7296153463867510E-32
   0.4903697372516027E+00
   0.7230864583589878E-32
   0.4487929215768366E+00
   0.7024338721147152E-32
   0.4432385363257170E+00
   0.7388121744497539E-32
   0.4845729200649020E+00
   0.5092450536008454E-32
   0.4621884506584389E+00
   0.6649249764904265E-32
   0.4663602379796481E+00
   0.7123693147511624E-32
   0.4747774342246102E+00
   0.5571551101165720E-32
   0.4893613119169695E+00
   0.3054824580309190E-32
   0.5085682716963761E+00
   0.2624513159634489E-32
   0.4304904362707037E+00
  -0.3168527216098929E-32
   0.4927280795700098E+00
   0.4554833290856928E-32
   0.5320316305393291E+00
   0.5237398183025539E-32
   0.4913826596268790E+00
   0.5321048913724769E-32
   0.5209404381166232E+00
   0.5870864645907444E-32
   0.5061319991811940E+00
   0.4869511861726846E-32
   0.5690636268208739E+00
   0.1582840054307480E-32
   0.5275040250814633E+00
   0.3914321551795607E-32
   0.5015048228674479E+00
   0.4327613358804986E-32
   0.5821373614529007E+00
  -0.2805220039107291E-33
   0.5691503539002234E+00
  -0.1848778412621700E-32
   0.3402452515387453E+00
  -0.1556041728421952E-32
   0.3785432664413294E+00
  -0.2577146470526890E-32
   0.5753091303967286E+00
   0.2705170161872824E-32
   0.5668547322640888E+00
   0.3830470939222135E-32
   0.5703055472122288E+00
   0.3986173088124392E-32
   0.5291879676951532E+00
   0.5224546782817454E-32
   0.5449833878219912E+00
   0.5468110915736929E-32
   0.5719094023096999E+00
   0.4826163486973722E-32
   0.5385694619163964E+00
   0.6616336182796395E-32
   0.5475896931010324E+00
   0.5618754604874750E-32
   0.5821565654208893E+00
   0.3600791164845221E-32
   0.4925313058768012E+00
   0.5207971962767076E-32
   0.5041557086495269E+00
   0.5013846728090925E-32
   0.4961299824063876E+00
   0.5364509957312216E-32
   0.5562803730249227E+00
   0.4817566301177544E-32
   0.4757814609674627E+00
   0.1613545967536136E-32
   0.4950174949779457E+00
   0.4928607563941429E-32
   0.5496174631466599E+00
   0.4284603197078561E-32
   0.5889519082113931E+00
   0.6118466817245232E-33
   0.5839568677722878E+00
   0.2241905280002390E-32
   0.5468163307318313E+00
   0.3516110508712335E-32
   0.5803877168816484E+00
  -0.3399691192911604E-33
   0.5106055651721521E+00
   0.4849798613873814E-32
   0.5029532148348043E+00
   0.5118282352283472E-32
   0.5033085551058943E+00
   0.4090070850039465E-32
   0.5676231829410168E+00
   0.6251399234486729E-33
   0.5564629511655017E+00
   0.4139147497040254E-32
   0.4947135417329310E+00
   0.4851215779982635E-32
   0.5506799490528832E+00
   0.6374408902236166E-32
   0.5513545696074483E+00